Membrane in water
40167
    1TCq1    O1    1   2.804   4.257  10.787 -0.0786 -0.2602 -0.1863
    1TCq1    C1    2   2.864   4.153  10.837  0.4091  0.3083 -0.1442
    1TCq1    O2    3   2.953   4.088  10.782  0.4625 -0.6882  0.4633
    1TCq1    C2    4   2.846   4.168  10.978  0.4634  0.1758  0.1354
    1TCq1    C3    5   2.832   4.291  11.035 -0.4310 -0.3029  0.2771
    1TCq1    C4    6   2.839   4.292  11.172 -0.1762 -0.0472 -0.8824
    1TCq1    C5    7   2.846   4.178  11.245 -0.2380 -0.7509  0.2735
    1TCq1    C6    8   2.868   4.058  11.188  0.4544  0.0487 -0.1221
    1TCq1    C7    9   2.868   4.053  11.050 -0.3288  0.0256 -0.1778
    1TCq1    C8   10   2.883   3.941  11.269  0.6987  0.8203  0.0867
    1TCq1    O4   11   2.860   3.953  11.387 -0.1685  0.0473 -0.0012
    1TCq1    C9   12   2.837   4.420  11.235  0.0021  0.3260 -0.3023
    1TCq1    O5   13   2.853   4.418  11.362  0.2492 -0.1506  0.4414
    1TCq1    O6   14   2.858   4.521  11.162 -0.0185  0.3956  0.9071
    1TCq1    H1   15   2.727   4.286  10.840  0.5332  1.4172 -0.2056
    1TCq1    H2   16   2.832   4.384  10.979 -2.8034 -0.6281 -0.2763
    1TCq1    H3   17   2.849   4.187  11.353  1.2851 -0.2896  0.1878
    1TCq1    H4   18   2.896   3.961  11.000 -0.6491 -0.0453 -0.2227
    2MPD2     C   19   2.961   3.444  11.307 -0.2057  0.2526 -0.8379
    2MPD2    C1   20   2.930   3.532  11.407 -0.3375 -0.3229  0.0356
    2MPD2    C2   21   2.911   3.664  11.372 -0.2965 -1.1663  0.6625
    2MPD2    C3   22   2.944   3.710  11.248 -0.0586 -0.2140  0.1877
    2MPD2    C4   23   2.980   3.614  11.149  0.2945 -0.5425  0.2399
    2MPD2    C5   24   2.971   3.484  11.178  0.0537 -0.4233  0.0709
    2MPD2     H   25   2.869   3.730  11.447  0.3970 -0.7777  0.7001
    2MPD2    H1   26   2.985   3.648  11.046  2.6747 -0.7161  0.3129
    2MPD2    H2   27   2.968   3.340  11.336 -1.7416  0.7306  1.1995
    2MPD2    H3   28   2.988   3.407  11.103 -2.4372 -1.8893  1.0136
    2MPD2     N   29   2.929   3.840  11.200 -0.0029 -0.3591  0.6041
    2MPD2    H5   30   2.965   3.861  11.107 -0.2889 -0.2876  0.5095
    2MPD2    N1   31   2.889   3.486  11.537  0.3578 -0.2488 -0.0460
    2MPD2    H7   32   2.840   3.553  11.594 -1.5159 -0.8025 -0.9832
    3TCq1    O1   33   2.026   4.530  10.692  0.5237 -0.1055 -0.5284
    3TCq1    C1   34   1.952   4.507  10.801 -0.6627  0.0241  0.1722
    3TCq1    O2   35   1.938   4.406  10.867 -0.1894 -0.1317 -0.1107
    3TCq1    C2   36   1.957   4.642  10.865 -0.0703 -0.2480  0.3798
    3TCq1    C3   37   1.968   0.036  10.792 -0.4298  0.0345  0.1529
    3TCq1    C4   38   1.954   0.163  10.852  0.3732  0.0112  0.0976
    3TCq1    C5   39   1.936   0.166  10.985 -0.4089  0.9264 -0.1734
    3TCq1    C6   40   1.922   0.051  11.052 -0.0951  0.5301 -1.2542
    3TCq1    C7   41   1.936   4.647  11.001  0.1574  0.3598 -0.4222
    3TCq1    C8   42   1.836   0.041  11.179 -0.7082 -0.1047  0.5838
    3TCq1    O4   43   1.831   4.656  11.245 -0.6179  0.1853 -0.7037
    3TCq1    C9   44   1.976   0.280  10.773  0.3681 -0.0729 -0.9914
    3TCq1    O5   45   2.021   0.253  10.657 -0.5173 -0.4227 -0.1421
    3TCq1    O6   46   1.952   0.393  10.820  0.2620  0.3019  0.5663
    3TCq1    H1   47   2.050   4.624  10.706  1.7952 -0.3219 -1.2271
    3TCq1    H2   48   1.991   0.034  10.686  1.9674 -0.6900  0.6893
    3TCq1    H3   49   1.922   0.262  11.033 -2.1898  0.7140 -0.2889
    3TCq1    H4   50   1.914   4.556  11.056 -3.2458  0.3023 -1.8688
    4MPD2     C   51   1.586   0.294  11.549  0.1865 -0.6132 -0.3110
    4MPD2    C1   52   1.607   0.376  11.441 -0.3927 -0.4621 -0.1200
    4MPD2    C2   53   1.667   0.330  11.328 -0.1075  0.1656  0.3606
    4MPD2    C3   54   1.708   0.197  11.319  0.6210  0.6582  0.8651
    4MPD2    C4   55   1.683   0.112  11.427 -0.3721  0.1045  0.7172
    4MPD2    C5   56   1.624   0.160  11.538 -0.4909 -0.4514 -0.5889
    4MPD2     H   57   1.675   0.397  11.243 -0.8443  1.4880  1.3310
    4MPD2    H1   58   1.711   0.010  11.450 -3.2410 -0.2056  2.8716
    4MPD2    H2   59   1.541   0.328  11.642 -0.6493 -2.0677 -0.1900
    4MPD2    H3   60   1.600   0.096  11.621 -0.2246 -0.8389 -0.8128
    4MPD2     N   61   1.771   0.156  11.199 -0.1600  0.1913  0.8072
    4MPD2    H5   62   1.774   0.230  11.129 -2.6310  1.6817  2.3093
    4MPD2    N1   63   1.578   0.517  11.438 -0.5292 -0.4394  0.4712
    4MPD2    H7   64   1.596   0.569  11.352  1.5576  0.2302  1.3261
    5TCq1    O1   65   1.973   2.212  10.498 -0.3513  0.4750 -0.1547
    5TCq1    C1   66   2.051   2.256  10.598  0.5583 -0.1512  0.5564
    5TCq1    O2   67   2.016   2.263  10.712 -0.0393  0.1585  0.2663
    5TCq1    C2   68   2.191   2.243  10.554  0.0380  0.8965  0.2425
    5TCq1    C3   69   2.219   2.283  10.431  0.6003 -0.0676  0.8266
    5TCq1    C4   70   2.343   2.246  10.384 -1.0408  0.6332 -0.8301
    5TCq1    C5   71   2.424   2.174  10.462 -0.0606 -0.0218 -0.2044
    5TCq1    C6   72   2.392   2.145  10.589  0.4602 -0.4707 -0.0656
    5TCq1    C7   73   2.269   2.181  10.643  0.0261 -0.6914 -0.3522
    5TCq1    C8   74   2.478   2.055  10.674  0.9337  0.5500 -0.5562
    5TCq1    O4   75   2.434   2.033  10.788 -0.5743  0.1311 -0.4590
    5TCq1    C9   76   2.381   2.254  10.248 -1.3264 -0.3877  0.2899
    5TCq1    O5   77   2.287   2.299  10.175 -0.9687 -0.2565 -0.3573
    5TCq1    O6   78   2.500   2.223  10.213 -0.1472  0.6693 -0.0759
    5TCq1    H1   79   2.023   2.187  10.417  0.1775 -0.1280  0.3639
    5TCq1    H2   80   2.145   2.333  10.369  0.4663  3.6329  3.9672
    5TCq1    H3   81   2.521   2.140  10.425  0.7863  2.5145 -0.3660
    5TCq1    H4   82   2.234   2.157  10.743  1.0737  0.8968  0.4029
    6MPD2     C   83   2.841   1.986  10.665 -0.7084  0.1806 -0.1597
    6MPD2    C1   84   2.707   1.960  10.690  0.2535 -0.6788 -0.2475
    6MPD2    C2   85   2.672   1.837  10.752 -0.1618  0.7338  0.2620
    6MPD2    C3   86   2.771   1.747  10.791 -0.1475 -0.2361  0.0510
    6MPD2    C4   87   2.903   1.791  10.784  0.2600  0.0152 -0.9878
    6MPD2    C5   88   2.933   1.897  10.708 -0.5203 -0.0090 -0.3290
    6MPD2     H   89   2.566   1.819  10.765 -0.0114  0.4270  1.0421
    6MPD2    H1   90   2.989   1.734  10.816  0.6863  0.2034 -1.7830
    6MPD2    H2   91   2.876   2.071  10.607  0.6471 -1.1222 -1.2200
    6MPD2    H3   92   3.039   1.915  10.697 -0.8012  1.5601 -0.4658
    6MPD2     N   93   2.738   1.623  10.845  1.0725 -0.1788  0.4113
    6MPD2    H5   94   2.641   1.597  10.831  1.0802 -0.4462  0.8430
    6MPD2    N1   95   2.608   2.042  10.631  0.0185 -0.1749 -0.1399
    6MPD2    H7   96   2.640   2.108  10.562 -1.9392  1.8828  0.9316
    7TCq1    O1   97   3.930   1.386  13.273 -0.3814 -0.0259 -0.7006
    7TCq1    C1   98   3.969   1.352  13.146  0.1449  0.6827  0.1282
    7TCq1    O2   99   3.892   1.321  13.056  0.2880 -0.2234 -0.5299
    7TCq1    C2  100   4.109   1.362  13.132  0.0917  0.1893  0.2290
    7TCq1    C3  101   4.140   1.415  13.014  0.3587  0.2363 -0.3680
    7TCq1    C4  102   4.275   1.412  12.985  0.4542 -0.0753  0.1186
    7TCq1    C5  103   4.370   1.363  13.071 -0.5220  0.1084 -0.0663
    7TCq1    C6  104   4.331   1.314  13.190  0.4982 -0.7709 -0.0129
    7TCq1    C7  105   4.202   1.308  13.222  0.2678 -0.2685  0.2212
    7TCq1    C8  106   4.424   1.264  13.291  0.8548 -0.1286 -0.3678
    7TCq1    O4  107   4.391   1.176  13.370 -0.3146  0.4252  0.4683
    7TCq1    C9  108   4.312   1.457  12.853  0.2375  0.0188  0.5623
    7TCq1    O5  109   4.228   1.423  12.761 -0.5452 -0.2712  0.4056
    7TCq1    O6  110   4.431   1.488  12.835 -0.0819  0.0430 -0.1049
    7TCq1    H1  111   4.005   1.414  13.330 -0.0171 -0.6989 -0.8502
    7TCq1    H2  112   4.060   1.442  12.946 -0.1312 -0.5950 -0.1143
    7TCq1    H3  113   4.471   1.370  13.034 -0.4943 -2.2499 -0.4279
    7TCq1    H4  114   4.167   1.251  13.307  1.4716 -2.3943 -0.7206
    8MPD2     C  115   0.110   1.333  13.587 -0.3494  0.0758  0.5792
    8MPD2    C1  116   0.047   1.213  13.551  0.1892 -0.0636  0.4323
    8MPD2    C2  117   4.665   1.219  13.458  0.7226 -0.8161 -0.2091
    8MPD2    C3  118   4.636   1.338  13.391  0.1908 -0.3025 -0.1273
    8MPD2    C4  119   4.704   1.452  13.422 -0.0662  0.1328 -0.4207
    8MPD2    C5  120   0.075   1.443  13.520 -0.0410 -0.0584  0.8233
    8MPD2     H  121   4.611   1.131  13.425 -1.7728  0.6989 -0.1170
    8MPD2    H1  122   4.678   1.548  13.380 -0.0569  0.5526  0.5521
    8MPD2    H2  123   0.184   1.352  13.663 -1.6517 -0.8305  2.0738
    8MPD2    H3  124   0.127   1.535  13.545  2.2725 -0.7985 -1.2523
    8MPD2     N  125   4.540   1.335  13.289 -0.5446 -0.9420 -0.5783
    8MPD2    H5  126   4.540   1.417  13.229 -2.9207 -0.8989 -0.5343
    8MPD2    N1  127   0.088   1.097  13.624  0.6271  0.6744  0.5823
    8MPD2    H7  128   0.155   1.101  13.700  1.5928 -1.7857 -0.1365
    9TCq1    O1  129   2.783   4.602  10.824 -0.0737  0.1164 -0.6073
    9TCq1    C1  130   2.909   4.653  10.842  0.0650  0.1621  0.1002
    9TCq1    O2  131   2.948   4.702  10.944 -0.3213 -0.3536  0.2709
    9TCq1    C2  132   2.980   4.546  10.779 -0.7669 -0.7303  0.1879
    9TCq1    C3  133   2.966   4.517  10.650 -0.8908  0.1066 -0.5756
    9TCq1    C4  134   3.043   4.420  10.597 -0.8264 -0.4984 -0.4552
    9TCq1    C5  135   3.136   4.353  10.669  0.0115 -0.0003  0.0601
    9TCq1    C6  136   3.143   4.378  10.801  0.2558  0.1419  0.3016
    9TCq1    C7  137   3.062   4.475  10.861 -0.2687  0.0969 -0.9330
    9TCq1    C8  138   3.211   4.276  10.879  0.2658 -0.2212  0.3658
    9TCq1    O4  139   3.273   4.188  10.822  0.1492  0.0028 -0.5424
    9TCq1    C9  140   3.025   4.389  10.453  0.8689  0.0272  0.2308
    9TCq1    O5  141   3.114   4.322  10.391 -0.5447 -0.1853 -0.4243
    9TCq1    O6  142   2.929   4.445  10.396 -0.0431 -0.2413  0.0841
    9TCq1    H1  143   2.769   4.550  10.742 -0.7778 -3.6493  1.8836
    9TCq1    H2  144   2.917   4.582  10.579 -2.7183 -0.5798  0.0388
    9TCq1    H3  145   3.193   4.275  10.620  0.6763  0.2713  0.4110
    9TCq1    H4  146   3.066   4.508  10.964 -0.8095 -0.7747 -0.6333
   10MPD2     C  147   3.256   4.084  11.096  0.7619 -0.3101 -0.2797
   10MPD2    C1  148   3.224   4.215  11.123 -0.2583  0.1208  0.1387
   10MPD2    C2  149   3.187   4.252  11.249 -0.2251 -0.2418  0.2841
   10MPD2    C3  150   3.195   4.166  11.355  0.2886 -0.3344 -0.6976
   10MPD2    C4  151   3.236   4.036  11.323  0.3946  1.0084 -0.3442
   10MPD2    C5  152   3.256   3.994  11.199 -0.4640 -0.2506 -0.1760
   10MPD2     H  153   3.146   4.351  11.265 -1.7268 -0.6474 -1.0459
   10MPD2    H1  154   3.232   3.962  11.402  0.1377 -0.0817 -1.3910
   10MPD2    H2  155   3.274   4.036  11.001 -1.2463  1.1016 -1.3827
   10MPD2    H3  156   3.265   3.888  11.179  1.7833  0.0425 -0.8227
   10MPD2     N  157   3.149   4.191  11.484 -0.9672 -0.1236  0.5224
   10MPD2    H5  158   3.122   4.115  11.546 -3.1726  1.8499  1.9857
   10MPD2    N1  159   3.194   4.297  11.018  0.2240 -0.7455  0.5707
   10MPD2    H7  160   3.135   4.376  11.045  2.1290  0.2535  1.8100
   11TCq1    O1  161   3.669   4.401  14.272  0.4361 -0.1109 -0.5572
   11TCq1    C1  162   3.561   4.360  14.339 -0.7974 -0.4339  0.2231
   11TCq1    O2  163   3.490   4.271  14.292  0.0552  0.2777 -0.1136
   11TCq1    C2  164   3.518   4.450  14.448  0.8586 -0.2408  0.3042
   11TCq1    C3  165   3.609   4.540  14.508 -0.3070  0.1797 -0.2943
   11TCq1    C4  166   3.553   4.619  14.603  0.6529 -0.2986  0.2916
   11TCq1    C5  167   3.418   4.625  14.631  0.1599 -1.1133  0.3658
   11TCq1    C6  168   3.329   4.542  14.566  0.1175 -0.0826  0.1707
   11TCq1    C7  169   3.382   4.460  14.469 -0.6147  0.0565 -0.5787
   11TCq1    C8  170   3.184   4.551  14.590  0.6455 -0.7557  0.1288
   11TCq1    O4  171   3.139   4.629  14.675 -0.0237 -0.5797 -0.2058
   11TCq1    C9  172   3.643   4.706  14.672  0.5916  0.7481  0.3962
   11TCq1    O5  173   3.596   0.060  14.762  0.0494 -0.7042 -0.1810
   11TCq1    O6  174   3.757   0.004  14.619  0.0872  0.0325  0.0898
   11TCq1    H1  175   3.707   4.482  14.315  0.1036  0.4566 -1.3449
   11TCq1    H2  176   3.715   4.530  14.489 -0.3320  1.9311 -1.4423
   11TCq1    H3  177   3.389   4.693  14.710 -1.9563 -1.3688 -0.1995
   11TCq1    H4  178   3.316   4.403  14.405 -2.0278  1.7720 -0.6361
   12MPD2     C  179   2.890   4.538  14.581  0.0059  0.1289 -0.1531
   12MPD2    C1  180   2.971   4.466  14.497  0.0474 -0.4981  0.1139
   12MPD2    C2  181   2.918   4.385  14.403  0.3035 -0.3207  0.0040
   12MPD2    C3  182   2.779   4.357  14.400 -0.3289 -0.0738  0.3782
   12MPD2    C4  183   2.701   4.422  14.495  0.7235 -0.1724 -0.7788
   12MPD2    C5  184   2.751   4.518  14.574  0.2851 -0.2252 -0.0479
   12MPD2     H  185   2.983   4.325  14.340  0.1313  0.4075 -0.8667
   12MPD2    H1  186   2.595   4.406  14.511  0.9588 -0.4691  0.4589
   12MPD2    H2  187   2.926   4.612  14.651  0.0442  0.9956 -1.0821
   12MPD2    H3  188   2.678   4.575  14.630  0.4381  0.3073 -0.3841
   12MPD2     N  189   2.725   4.259  14.314  0.1801 -0.1523  0.0311
   12MPD2    H5  190   2.788   4.209  14.252  0.1472  0.4388 -0.4816
   12MPD2    N1  191   3.111   4.478  14.502 -0.4073  0.2791  0.5311
   12MPD2    H7  192   3.165   4.424  14.435 -1.7967 -1.1013  0.5282
   13TCq1    O1  193   1.671   0.035  10.334 -0.0803  0.6370  0.2892
   13TCq1    C1  194   1.721   4.706  10.448 -0.4102 -0.0458  0.2429
   13TCq1    O2  195   1.822   0.027  10.507  0.5047  0.7697 -0.2709
   13TCq1    C2  196   1.619   4.618  10.506  0.1107 -0.7698 -0.4260
   13TCq1    C3  197   1.523   4.559  10.431 -0.2336  0.2994  0.3541
   13TCq1    C4  198   1.429   4.479  10.492 -0.0141  0.4199 -0.5064
   13TCq1    C5  199   1.442   4.459  10.632 -0.2767 -0.6220  0.5073
   13TCq1    C6  200   1.541   4.523  10.702  1.1653 -0.9658 -0.2545
   13TCq1    C7  201   1.638   4.592  10.635 -0.9733 -0.2873 -0.4553
   13TCq1    C8  202   1.581   4.490  10.839  0.2348 -0.0868 -0.1785
   13TCq1    O4  203   1.633   4.585  10.896  0.0411 -0.5259  0.2193
   13TCq1    C9  204   1.321   4.422  10.422  0.2705 -0.6399 -0.1219
   13TCq1    O5  205   1.220   4.388  10.490 -0.7774  0.0652  1.0096
   13TCq1    O6  206   1.316   4.429  10.298  0.5677  0.1820  0.1469
   13TCq1    H1  207   1.588   4.714  10.302 -1.8792  3.3058  1.4973
   13TCq1    H2  208   1.516   4.574  10.324 -0.2616 -4.7733 -0.3452
   13TCq1    H3  209   1.368   4.402  10.685  0.7504 -1.6530  0.8291
   13TCq1    H4  210   1.705   4.650  10.698 -1.5184  0.4559 -0.5493
   14MPD2     C  211   1.600   4.151  10.999 -0.2262 -0.4533  0.7672
   14MPD2    C1  212   1.612   4.293  10.991  0.5644  0.5241 -0.3959
   14MPD2    C2  213   1.666   4.356  11.100  0.8030  0.0865 -0.6102
   14MPD2    C3  214   1.706   4.293  11.215 -0.0941  0.1843 -0.0465
   14MPD2    C4  215   1.696   4.157  11.219 -0.2894 -0.2224 -0.2102
   14MPD2    C5  216   1.636   4.090  11.114  0.1082  0.0161 -0.3403
   14MPD2     H  217   1.693   4.461  11.093 -2.7890  1.2727  2.9939
   14MPD2    H1  218   1.716   4.100  11.308 -0.3421  1.6246  0.9968
   14MPD2    H2  219   1.555   4.097  10.917 -0.3359  1.1595 -0.2307
   14MPD2    H3  220   1.603   3.987  11.123  0.2723 -0.1853 -2.1223
   14MPD2     N  221   1.784   4.365  11.311 -0.0279 -0.4853 -0.2124
   14MPD2    H5  222   1.801   4.465  11.296 -0.4799 -0.5466 -1.1338
   14MPD2    N1  223   1.567   4.354  10.870 -1.1502 -1.1540 -0.3137
   14MPD2    H7  224   1.521   4.298  10.799  0.4234 -1.0231 -1.4379
   15TCq1    O1  225   3.406   4.446   1.774 -0.0841 -0.6724  0.1027
   15TCq1    C1  226   3.417   4.324   1.720 -0.3801 -1.0024  0.3445
   15TCq1    O2  227   3.326   4.273   1.656 -0.2942  0.5744  0.0808
   15TCq1    C2  228   3.535   4.251   1.747 -0.3584  0.2063 -0.0359
   15TCq1    C3  229   3.654   4.319   1.727  0.4928 -0.7831 -0.0664
   15TCq1    C4  230   3.766   4.245   1.711  0.2995  0.2145 -0.1144
   15TCq1    C5  231   3.765   4.109   1.707 -0.0182 -0.0068  0.3486
   15TCq1    C6  232   3.646   4.049   1.711 -0.5525 -0.3516  0.3902
   15TCq1    C7  233   3.527   4.116   1.725  0.5751 -0.9627  0.8737
   15TCq1    C8  234   3.646   3.908   1.685  0.3579  0.4487 -0.1457
   15TCq1    O4  235   3.754   3.854   1.693 -0.1241  0.8722  1.0291
   15TCq1    C9  236   3.890   4.316   1.691 -0.0661 -0.0880 -0.7695
   15TCq1    O5  237   3.979   4.249   1.634 -0.5539  0.4175  0.3368
   15TCq1    O6  238   3.903   4.421   1.755 -0.2152 -0.7255 -0.5995
   15TCq1    H1  239   3.479   4.488   1.825 -0.7897  1.6136 -0.7596
   15TCq1    H2  240   3.667   4.427   1.730 -1.6831 -0.5798  1.8441
   15TCq1    H3  241   3.853   4.047   1.697 -1.0162 -1.3370 -0.2502
   15TCq1    H4  242   3.430   4.070   1.722  1.9323 -3.6940 -0.7384
   16MPD2     C  243   3.364   3.707   1.552  0.3372  0.4646  0.4135
   16MPD2    C1  244   3.493   3.732   1.601 -0.9011  0.3745  0.1695
   16MPD2    C2  245   3.592   3.632   1.591  0.4314  0.3153  0.3742
   16MPD2    C3  246   3.557   3.501   1.559  0.3136  0.3998 -0.1557
   16MPD2    C4  247   3.431   3.475   1.513 -0.1920 -0.1885  0.2512
   16MPD2    C5  248   3.343   3.583   1.499  0.8823  0.2031  0.4616
   16MPD2     H  249   3.693   3.648   1.627  0.2721  0.3632  0.8074
   16MPD2    H1  250   3.398   3.380   1.474 -1.5936  0.2723  0.3300
   16MPD2    H2  251   3.290   3.782   1.527 -1.1331 -1.7873 -1.9751
   16MPD2    H3  252   3.253   3.561   1.442  0.4140  2.4802  0.3137
   16MPD2     N  253   3.653   3.407   1.569  0.5838 -0.4169  0.1185
   16MPD2    H5  254   3.743   3.424   1.613  1.2706  1.0887 -1.8897
   16MPD2    N1  255   3.523   3.860   1.654  0.2102 -0.1743  0.0756
   16MPD2    H7  256   3.449   3.929   1.642  2.0271  1.9471  0.8923
   17TCq1    O1  257   2.708   4.433  11.567  0.0124 -0.1892  0.0671
   17TCq1    C1  258   2.617   4.336  11.595 -0.8559 -0.1622  0.6353
   17TCq1    O2  259   2.582   4.316  11.709 -0.2108 -0.3551  0.0948
   17TCq1    C2  260   2.573   4.257  11.492 -0.3639 -0.4520  0.2520
   17TCq1    C3  261   2.526   4.317  11.378 -0.1939 -0.2283 -0.0436
   17TCq1    C4  262   2.476   4.239  11.283 -0.5181  0.1628 -0.0004
   17TCq1    C5  263   2.452   4.105  11.302 -0.0528  0.2707 -0.5816
   17TCq1    C6  264   2.495   4.048  11.419  0.2233 -0.5350  0.4548
   17TCq1    C7  265   2.561   4.123  11.512 -1.3485  0.2498 -0.0193
   17TCq1    C8  266   2.499   3.908  11.436 -0.2628  0.0756  0.2088
   17TCq1    O4  267   2.543   3.854  11.538  0.0358 -0.0448  0.1636
   17TCq1    C9  268   2.459   4.293  11.153 -0.0477  0.4980 -0.1652
   17TCq1    O5  269   2.450   4.420  11.154  0.2931  0.5039 -0.1380
   17TCq1    O6  270   2.438   4.222  11.051  0.1274  0.0745  0.5265
   17TCq1    H1  271   2.744   4.425  11.476 -0.5737  0.8719 -0.2624
   17TCq1    H2  272   2.538   4.425  11.370 -2.7639 -0.0120 -1.1836
   17TCq1    H3  273   2.407   4.050  11.220  0.0319 -1.2130  0.3667
   17TCq1    H4  274   2.602   4.086  11.605 -2.5703  1.3235  0.9471
   18MPD2     C  275   2.507   3.607  11.387  0.3925  0.5399  0.2317
   18MPD2    C1  276   2.512   3.705  11.296  0.8326 -0.4771 -0.3123
   18MPD2    C2  277   2.539   3.665  11.162  0.3155 -0.3400  0.2433
   18MPD2    C3  278   2.579   3.535  11.134  0.5904 -0.8780  0.0537
   18MPD2    C4  279   2.578   3.439  11.235  0.1078  0.6042 -0.1947
   18MPD2    C5  280   2.537   3.476  11.358 -0.0653 -0.4491 -0.3946
   18MPD2     H  281   2.548   3.739  11.084  0.1843  1.0349  1.5352
   18MPD2    H1  282   2.608   3.338  11.210  0.8471  0.7434  0.1523
   18MPD2    H2  283   2.480   3.631  11.489 -1.8625  2.7121 -0.8622
   18MPD2    H3  284   2.521   3.399  11.433  0.5789  0.4049  0.6199
   18MPD2     N  285   2.621   3.493  11.011 -0.2801  0.3630  0.1088
   18MPD2    H5  286   2.658   3.399  11.005  0.7745  0.9362 -2.5637
   18MPD2    N1  287   2.487   3.841  11.314 -0.3660  0.5906  0.4119
   18MPD2    H7  288   2.471   3.897  11.231 -0.1561  1.2533  0.8184
   19TMC2    C1  289   4.325   4.088  14.075  0.1727 -0.0150  0.4210
   19TMC2    C2  290   4.416   4.048  13.980  0.0366 -0.0454 -0.1357
   19TMC2    C3  291   4.369   3.988  13.870 -0.6985  0.1792 -0.2311
   19TMC2    C4  292   4.188   4.082  14.050  0.7492  0.3104  0.4697
   19TMC2    C5  293   4.149   4.033  13.926 -0.0475 -0.5480 -0.1607
   19TMC2    C6  294   4.237   3.976  13.839  0.2397  0.2638 -0.5819
   19TMC2     C  295   4.355   4.180  14.188 -0.1737 -0.8809 -0.9581
   19TMC2     O  296   4.465   4.236  14.180  0.1443  0.5118  0.4248
   19TMC2     H  297   4.522   4.060  14.001  0.2798 -1.1945 -0.7324
   19TMC2    H1  298   4.113   4.120  14.119  0.6453 -0.0738  0.5665
   19TMC2    H2  299   4.208   3.930  13.746  0.8434  1.3028 -1.2861
   19TMC2    C7  300   4.005   4.003  13.889  0.0170 -0.3353 -0.4733
   19TMC2    C8  301   4.460   3.959  13.765  0.4499 -0.6099 -0.3449
   19TMC2    O1  302   3.989   3.909  13.814  0.0511  0.7499 -0.3489
   19TMC2    O2  303   4.566   4.021  13.760  0.0036  0.2519  0.3661
   19TMC2    O5  304   4.446   3.829  13.735 -0.2369 -0.1390  0.2422
   19TMC2    H5  305   4.359   3.790  13.758 -1.2836  1.5734 -0.8453
   20MPD2     C  306   4.367   4.300  14.451 -0.4307  0.0820  0.0340
   20MPD2    C1  307   4.287   4.196  14.427  0.0750  0.3599  0.1555
   20MPD2    C2  308   4.213   4.141  14.531  0.2112 -0.1960 -0.0039
   20MPD2    C3  309   4.224   4.203  14.657  0.6426  0.2424  0.9035
   20MPD2    C4  310   4.305   4.309  14.680 -0.1365  0.5121 -0.2473
   20MPD2    C5  311   4.382   4.349  14.577 -0.5683  0.0467 -0.4863
   20MPD2     H  312   4.146   4.057  14.517 -1.4143  1.3572 -1.6791
   20MPD2    H1  313   4.306   4.367  14.771 -2.5810 -0.7809  0.6048
   20MPD2    H2  314   4.422   4.355  14.375 -0.5777 -2.0178 -1.5789
   20MPD2    H3  315   4.446   4.437  14.578 -1.6416  0.8278  0.2882
   20MPD2     N  316   4.158   4.160  14.771  0.1086  0.1064 -0.2213
   20MPD2    H5  317   4.191   4.208  14.855  0.2370  0.4662 -0.4794
   20MPD2    N1  318   4.280   4.146  14.297  0.8459 -0.2158  0.1715
   20MPD2    H7  319   4.213   4.071  14.281  1.9538 -1.1623 -0.1143
   21MPD2     C  320   1.368   4.584  14.537  0.0889  0.1352 -0.2352
   21MPD2    C1  321   1.462   4.508  14.606 -1.0447 -0.7257  0.1078
   21MPD2    C2  322   1.456   4.498  14.738 -0.1917 -0.2520  0.3061
   21MPD2    C3  323   1.356   4.555  14.809 -0.1939 -0.2157  0.2456
   21MPD2    C4  324   1.262   4.630  14.738 -0.6415  0.2029 -0.3524
   21MPD2    C5  325   1.271   4.648  14.607 -0.0944 -0.2865  0.0147
   21MPD2     H  326   1.539   4.445  14.784 -0.7694 -0.5489  1.0130
   21MPD2    H1  327   1.173   4.672  14.784 -0.7697  0.2133 -0.6104
   21MPD2    H2  328   1.374   4.604  14.430 -0.1324 -0.8713 -0.4416
   21MPD2    H3  329   1.209   4.715  14.549 -0.8884 -1.1218 -0.0928
   21MPD2     N  330   1.343   4.550  14.950  0.3961 -0.1123 -0.8853
   21MPD2    H5  331   1.271   4.605  14.995 -0.6483 -1.4227 -0.9637
   21MPD2    N1  332   1.566   4.453  14.541  0.4250 -0.2152  0.3531
   21MPD2    H7  333   1.644   4.419  14.596 -1.3999 -0.6565  2.6839
   22TCq2    C1  334   1.427   4.474  15.026 -0.2450 -0.5575 -0.2876
   22TCq2    O2  335   1.504   4.384  15.004  0.4680  0.5758  0.3800
   22TCq2    C2  336   1.392   4.490  15.166 -0.7628  0.1596 -0.6278
   22TCq2    C3  337   1.442   4.389  15.250 -0.2690 -0.6604  0.6135
   22TCq2    C4  338   1.472   4.431  15.373 -0.0023  0.0399  0.1510
   22TCq2    C5  339   1.442   4.555  15.426  0.2903  0.7706 -0.1378
   22TCq2    C6  340   1.385   4.648  15.341 -1.0085 -0.1739  0.1357
   22TCq2    C7  341   1.367   4.616  15.213  0.3582  0.2593 -0.2884
   22TCq2    C8  342   1.405   0.069  15.383  0.0333  0.0432  0.1944
   22TCq2    O4  343   1.493   0.101  15.460 -0.3053 -0.4427 -0.1633
   22TCq2    C9  344   1.544   4.342  15.456  0.2562  0.6573  0.2945
   22TCq2    O5  345   1.593   4.231  15.413 -0.1714 -0.3397 -0.0283
   22TCq2    O6  346   1.572   4.379  15.570 -0.0178 -0.3790  0.5661
   22TCq2    H2  347   1.470   4.293  15.210 -0.2022 -0.6571  0.6521
   22TCq2    H3  348   1.476   4.573  15.528 -0.9569 -0.6356  0.5309
   22TCq2    H4  349   1.340   4.693  15.142  0.1297 -0.4598 -0.9843
   23MPD2     C  350   3.492   0.769  14.901  0.2461 -0.4069  0.4959
   23MPD2    C1  351   3.392   0.800  14.990 -0.3057 -0.7799  0.8986
   23MPD2    C2  352   3.327   0.923  14.980 -0.4278 -0.6845 -0.6071
   23MPD2    C3  353   3.362   1.014  14.880  0.2619  0.1094  0.9153
   23MPD2    C4  354   3.455   0.979  14.786 -0.1533 -0.4869  0.0042
   23MPD2    C5  355   3.513   0.849  14.794  0.3139  0.4975 -0.4206
   23MPD2     H  356   3.262   0.960  15.059 -0.2242 -1.5067 -0.0637
   23MPD2    H1  357   3.489   1.042  14.704 -1.9463  0.6323  0.1183
   23MPD2    H2  358   3.551   0.679  14.911  0.4052 -0.4105 -0.5473
   23MPD2    H3  359   3.575   0.824  14.709  0.3369 -0.8632 -0.0013
   23MPD2     N  360   3.321   1.151  14.871  0.1282  0.2034 -0.0382
   23MPD2    H5  361   3.351   1.210  14.795  0.8901  0.2593  0.3080
   23MPD2    N1  362   3.363   0.711  15.100 -0.8562 -0.2006  0.3790
   23MPD2    H7  363   3.302   0.740  15.175  0.2259  2.0995  0.3497
   24TCq2    C1  364   3.248   1.217  14.972  0.5927  0.2627  0.1264
   24TCq2    O2  365   3.215   1.180  15.084 -0.1100 -0.3938  0.4216
   24TCq2    C2  366   3.256   1.353  14.944 -0.2969 -0.5269 -0.4825
   24TCq2    C3  367   3.374   1.419  14.972 -0.1013 -0.1423 -1.1813
   24TCq2    C4  368   3.393   1.543  14.919  1.0441  0.0859  0.1740
   24TCq2    C5  369   3.302   1.596  14.837  0.4942  0.1194 -0.2474
   24TCq2    C6  370   3.190   1.531  14.809  0.1833 -0.2177 -0.6608
   24TCq2    C7  371   3.169   1.404  14.853  0.1999  0.2092  0.2228
   24TCq2    C8  372   3.081   1.614  14.758 -0.3811 -0.0277 -0.5429
   24TCq2    O4  373   3.090   1.736  14.766 -0.1889  0.4711  0.5233
   24TCq2    C9  374   3.516   1.615  14.937  0.7789 -0.0618  0.3909
   24TCq2    O5  375   3.613   1.560  15.000  0.3899  0.5580 -0.4094
   24TCq2    O6  376   3.529   1.742  14.916 -1.1239 -0.3068  0.1599
   24TCq2    H2  377   3.451   1.376  15.035 -1.0392 -1.0313 -0.6516
   24TCq2    H3  378   3.327   1.690  14.789  4.4958 -1.3730 -1.1274
   24TCq2    H4  379   3.074   1.355  14.836  0.3076  0.0395  0.0986
   25TMC2    C1  380   1.721   3.594  11.694 -0.1263 -0.3129  0.1894
   25TMC2    C2  381   1.770   3.637  11.816 -0.5228  0.2111 -0.3274
   25TMC2    C3  382   1.681   3.666  11.921 -0.4737 -0.0543 -0.0983
   25TMC2    C4  383   1.586   3.596  11.673 -0.1982 -0.6853  0.0609
   25TMC2    C5  384   1.503   3.629  11.777  0.3057  0.1090  0.5865
   25TMC2    C6  385   1.544   3.663  11.901 -0.0833  0.3875 -0.3436
   25TMC2     C  386   1.800   3.503  11.622 -0.0945  0.0971  0.3155
   25TMC2     O  387   1.918   3.487  11.652  0.1944  0.5945 -0.2737
   25TMC2     H  388   1.874   3.615  11.837 -0.2607  1.0751 -0.7112
   25TMC2    H1  389   1.556   3.580  11.570  3.1124  1.8869 -1.3200
   25TMC2    H2  390   1.481   3.699  11.981 -0.3549  1.8059 -1.1981
   25TMC2    C7  391   1.393   3.538  11.781 -0.5540 -0.1389 -0.0076
   25TMC2    C8  392   1.713   3.737  12.037  0.8044 -0.7374 -0.1616
   25TMC2    O1  393   1.368   3.491  11.669  0.0056 -0.0325  0.0917
   25TMC2    O2  394   1.635   3.742  12.132 -0.1058  0.0353 -0.3358
   25TMC2    O5  395   1.845   3.732  12.037 -0.1043 -0.1958 -0.3197
   25TMC2    H5  396   1.886   3.761  12.122 -1.3742  2.1151 -0.4905
   26MPD2     C  397   1.842   3.069  11.363 -0.4328  0.3423 -0.1774
   26MPD2    C1  398   1.708   3.094  11.375 -0.5716 -0.3831 -0.4240
   26MPD2    C2  399   1.672   3.206  11.450  0.1428  0.2086 -0.4838
   26MPD2    C3  400   1.771   3.303  11.479 -0.1784  0.5960 -0.0496
   26MPD2    C4  401   1.902   3.269  11.455  0.6746  0.8256 -0.2253
   26MPD2    C5  402   1.937   3.148  11.404  0.7281  0.4283 -0.6472
   26MPD2     H  403   1.568   3.231  11.463 -0.1849 -0.9225 -0.9723
   26MPD2    H1  404   1.974   3.346  11.479 -2.3428  3.8977 -0.9474
   26MPD2    H2  405   1.876   2.977  11.317  1.7840  0.3604  1.4678
   26MPD2    H3  406   2.040   3.126  11.379  0.5090 -0.1980 -0.9844
   26MPD2     N  407   1.725   3.421  11.544  0.2186  0.3534  0.3851
   26MPD2    H5  408   1.625   3.441  11.539  0.1280 -0.2260 -0.2128
   26MPD2    N1  409   1.612   3.013  11.314 -0.1613  0.1637 -0.0118
   26MPD2    H7  410   1.646   2.945  11.247 -0.4127 -1.0256  1.0564
   27TMC2    C1  411   1.276   0.231  13.447 -0.3770 -0.0141 -0.0110
   27TMC2    C2  412   1.404   0.236  13.402  0.1493 -0.4001 -0.2695
   27TMC2    C3  413   1.453   0.117  13.360 -0.6577  0.8634  0.0035
   27TMC2    C4  414   1.194   0.118  13.452 -0.0844  0.0475 -0.2860
   27TMC2    C5  415   1.255   0.008  13.403 -0.1433  0.6036 -0.0487
   27TMC2    C6  416   1.386   0.000  13.360  0.1542 -0.5544 -0.1525
   27TMC2     C  417   1.226   0.365  13.494 -0.1959  0.1107 -0.2314
   27TMC2     O  418   1.309   0.453  13.509 -0.2172 -0.3090 -0.1932
   27TMC2     H  419   1.455   0.331  13.390  0.3138 -0.3848  0.4990
   27TMC2    H1  420   1.088   0.125  13.469 -0.0504 -1.2035  0.4683
   27TMC2    H2  421   1.422   4.631  13.312 -1.3530  0.1290 -2.5765
   27TMC2    C7  422   1.186   4.602  13.404  0.1886 -0.2510 -0.2379
   27TMC2    C8  423   1.589   0.119  13.308 -0.0027  0.6316 -0.2954
   27TMC2    O1  424   1.250   4.497  13.418 -0.4293 -0.4664  0.0664
   27TMC2    O2  425   1.623   0.037  13.221 -0.5705 -0.2248  0.1534
   27TMC2    O5  426   1.664   0.207  13.371 -0.8931  0.1251  0.1684
   27TMC2    H5  427   1.638   0.245  13.458 -0.9643  0.2057  0.1112
   28MPD2     C  428   0.860   0.696  13.592  0.6403  0.3308 -0.1320
   28MPD2    C1  429   0.792   0.582  13.553  0.8718  0.4343  0.6684
   28MPD2    C2  430   0.873   0.471  13.532 -0.2760  0.0711 -0.5860
   28MPD2    C3  431   1.011   0.481  13.540  0.3429 -0.5174  0.1355
   28MPD2    C4  432   1.073   0.596  13.595  0.3022 -0.3081 -0.7658
   28MPD2    C5  433   0.992   0.702  13.620 -0.2366 -0.5027  0.2121
   28MPD2     H  434   0.819   0.385  13.492 -1.3821  1.3257 -1.8288
   28MPD2    H1  435   1.176   0.611  13.624 -0.3816 -0.2051  1.6008
   28MPD2    H2  436   0.800   0.786  13.591  0.1536  0.0233  1.7185
   28MPD2    H3  437   1.028   0.801  13.643 -0.2490  0.4015 -3.5590
   28MPD2     N  438   1.088   0.369  13.506 -0.1981 -1.1258 -0.0275
   28MPD2    H5  439   1.036   0.285  13.480 -1.2392 -0.6649  0.5707
   28MPD2    N1  440   0.662   0.611  13.511  0.5534 -0.2499 -0.3012
   28MPD2    H7  441   0.615   0.693  13.549  2.1861  1.7068 -2.4218
   29MPD2     C  442   4.542   2.686  14.111  0.6562  0.3735 -0.5772
   29MPD2    C1  443   4.607   2.622  14.220 -0.0402  0.4157 -0.3257
   29MPD2    C2  444   4.651   2.698  14.323  0.2688  0.1085  0.0116
   29MPD2    C3  445   4.609   2.834  14.332 -0.6408 -0.2964 -0.4253
   29MPD2    C4  446   4.531   2.886  14.233  0.5919 -0.3588 -0.5817
   29MPD2    C5  447   4.495   2.812  14.126 -0.6706 -0.1612 -0.3663
   29MPD2     H  448   0.002   2.654  14.390  1.0492  0.0699 -0.8584
   29MPD2    H1  449   4.497   2.988  14.219  0.0753 -0.3926  0.4604
   29MPD2    H2  450   4.524   2.645  14.012  1.4605  0.4619 -0.7643
   29MPD2    H3  451   4.443   2.838  14.034 -1.7204 -2.4607 -0.4381
   29MPD2     N  452   4.637   2.917  14.444 -0.4965 -0.0971  1.0670
   29MPD2    H5  453   4.611   3.015  14.438 -0.1811 -0.1113 -0.3625
   29MPD2    N1  454   4.641   2.487  14.218  0.3775  0.2813  0.2876
   29MPD2    H7  455   4.687   2.452  14.302 -2.2488  1.3451  2.1889
   30TCq2    C1  456   4.691   2.877  14.566 -0.2456 -0.4738  0.3050
   30TCq2    O2  457   4.715   2.764  14.603 -0.1399 -0.2665 -0.2060
   30TCq2    C2  458   4.717   2.987  14.655 -1.0812 -0.8223  0.1279
   30TCq2    C3  459   0.005   2.957  14.789 -0.2981  0.3617 -0.3124
   30TCq2    C4  460   0.026   3.054  14.883  0.2818 -0.0791 -0.0997
   30TCq2    C5  461   0.050   3.181  14.842  0.1738 -0.0930  0.3887
   30TCq2    C6  462   0.040   3.207  14.709  0.1296  0.4617 -0.5520
   30TCq2    C7  463   0.002   3.115  14.618 -1.1053  0.2353  0.3229
   30TCq2    C8  464   0.037   3.353  14.662 -0.2762 -0.4696  0.3684
   30TCq2    O4  465   0.007   3.368  14.546  0.8260  0.3055 -0.2770
   30TCq2    C9  466   0.029   3.024  15.026 -0.6550  0.9370 -0.5324
   30TCq2    O5  467   4.679   2.922  15.060  0.3393 -0.3366  0.2729
   30TCq2    O6  468   0.052   3.122  15.103  0.0497  1.1124 -0.2248
   30TCq2    H2  469   0.001   2.856  14.829 -0.1425  0.5880  0.2840
   30TCq2    H3  470   0.052   3.257  14.920  1.8947 -0.0072  0.2622
   30TCq2    H4  471   4.713   3.147  14.515  0.2003 -1.1040 -0.2222
   31MPD2     C  472   3.216   1.836  15.176 -0.4574  0.0813  1.0933
   31MPD2    C1  473   3.103   1.820  15.103 -0.2088  0.2739 -0.8373
   31MPD2    C2  474   3.040   1.699  15.098 -0.0241 -0.1439 -0.1771
   31MPD2    C3  475   3.091   1.592  15.165  0.2731  0.0208 -0.3190
   31MPD2    C4  476   3.204   1.600  15.239  0.1708 -0.6066  1.0106
   31MPD2    C5  477   3.268   1.725  15.245  0.2272 -0.1474 -0.0480
   31MPD2     H  478   2.947   1.687  15.043  0.6986 -1.5050 -1.0974
   31MPD2    H1  479   3.250   1.517  15.291  0.7124  0.4200  2.1467
   31MPD2    H2  480   3.274   1.927  15.179 -0.5560  0.2607 -2.6359
   31MPD2    H3  481   3.358   1.745  15.301  1.4562  0.8777 -2.3710
   31MPD2     N  482   3.020   1.470  15.163  0.4872  0.1399 -0.2889
   31MPD2    H5  483   3.056   1.401  15.228 -0.9034 -0.8032 -0.5366
   31MPD2    N1  484   3.044   1.923  15.019 -0.3965 -0.1664 -0.2925
   31MPD2    H7  485   2.963   1.890  14.967 -0.9635  0.4259  0.2198
   32TCq2    C1  486   2.907   1.430  15.097  0.4302 -0.2503  1.0809
   32TCq2    O2  487   2.837   1.483  15.012  0.0121 -0.2724 -0.2178
   32TCq2    C2  488   2.878   1.293  15.115  0.1657 -0.2114  0.3426
   32TCq2    C3  489   2.866   1.214  15.010  0.3821  0.8427  0.1371
   32TCq2    C4  490   2.886   1.081  15.010 -0.0144 -0.1800  0.7220
   32TCq2    C5  491   2.912   1.020  15.132 -0.1494  0.1176  0.2248
   32TCq2    C6  492   2.913   1.110  15.238  0.0682 -0.5641  0.3973
   32TCq2    C7  493   2.904   1.246  15.236 -0.3260  0.3205  0.0392
   32TCq2    C8  494   2.906   1.042  15.368  0.4917  0.6112  0.2878
   32TCq2    O4  495   2.962   0.933  15.370  0.2436 -0.0021 -0.4790
   32TCq2    C9  496   2.855   0.993  14.892  0.0204 -0.1594 -0.4381
   32TCq2    O5  497   2.799   1.055  14.795 -0.2184 -0.4235  0.3586
   32TCq2    O6  498   2.840   0.869  14.903  0.1140 -0.0560  0.1208
   32TCq2    H2  499   2.837   1.259  14.916 -0.9930  1.6920  0.9657
   32TCq2    H3  500   2.910   0.912  15.145 -1.0172 -0.0352 -1.1858
   32TCq2    H4  501   2.886   1.309  15.323 -1.1398  0.0996  0.0367
   33MPD2     C  502   2.396   3.526  10.295  0.5709 -0.1979  0.0587
   33MPD2    C1  503   2.535   3.535  10.289 -0.1398  0.8185  0.0075
   33MPD2    C2  504   2.588   3.565  10.163  0.2959 -0.5686  0.6873
   33MPD2    C3  505   2.507   3.554  10.048  0.9374  0.4628  0.5052
   33MPD2    C4  506   2.372   3.534  10.059  0.1395 -0.2543 -0.7348
   33MPD2    C5  507   2.322   3.526  10.186 -0.0919 -0.3002  0.0009
   33MPD2     H  508   2.693   3.591  10.158  0.1835 -0.3170 -0.5352
   33MPD2    H1  509   2.312   3.530   9.969 -0.5145 -0.2553 -0.2969
   33MPD2    H2  510   2.346   3.515  10.391  1.9524  0.5653  0.8597
   33MPD2    H3  511   2.216   3.508  10.202  0.1039 -0.0358  1.5454
   33MPD2     N  512   2.556   3.576   9.916 -0.3565 -0.2735  0.6604
   33MPD2    H5  513   2.485   3.582   9.844  1.3800  1.3540 -0.9214
   33MPD2    N1  514   2.602   3.544  10.408 -0.5284 -0.7014 -0.3959
   33MPD2    H7  515   2.555   3.544  10.498 -1.4816 -0.5212 -0.8940
   34TCq2    C1  516   2.687   3.600   9.878  0.3951 -0.0206 -0.0122
   34TCq2    O2  517   2.784   3.629   9.946  0.2865 -0.6020 -0.5781
   34TCq2    C2  518   2.708   3.623   9.736 -0.1911  0.2104  0.0946
   34TCq2    C3  519   2.601   3.605   9.646  0.8054  0.3468  0.1043
   34TCq2    C4  520   2.624   3.634   9.509  0.2228  0.8615  0.0040
   34TCq2    C5  521   2.744   3.686   9.460 -0.5243 -0.3168  0.1486
   34TCq2    C6  522   2.840   3.710   9.556 -0.1116  0.0268  0.1792
   34TCq2    C7  523   2.824   3.683   9.693  0.0495 -0.0990 -0.3609
   34TCq2    C8  524   2.962   3.781   9.521  0.8984  0.2404  0.0076
   34TCq2    O4  525   3.023   3.820   9.618 -0.3590  0.5525 -0.2853
   34TCq2    C9  526   2.531   3.591   9.408 -0.6470 -0.3977  0.4338
   34TCq2    O5  527   2.462   3.487   9.431 -0.4258  0.2070  0.3219
   34TCq2    O6  528   2.546   3.638   9.291 -0.0946 -0.0924 -0.0618
   34TCq2    H2  529   2.513   3.551   9.680  0.3430 -0.6486 -2.6541
   34TCq2    H3  530   2.760   3.697   9.353  0.2689 -3.9577 -0.1264
   34TCq2    H4  531   2.910   3.695   9.757 -0.8882  1.7316  0.5579
   35MPD2     C  532   4.442   1.462  12.266  0.0626 -0.1332  0.1519
   35MPD2    C1  533   4.461   1.329  12.294 -0.1918  0.1430 -0.1087
   35MPD2    C2  534   4.413   1.235  12.208 -0.1385 -0.0452 -0.1124
   35MPD2    C3  535   4.369   1.267  12.077 -0.4197  0.5055  0.1116
   35MPD2    C4  536   4.365   1.403  12.049 -0.1349  0.0650 -0.2058
   35MPD2    C5  537   4.402   1.497  12.139 -0.1270 -0.1163  0.0714
   35MPD2     H  538   4.412   1.131  12.238 -0.1632 -0.2311 -0.7513
   35MPD2    H1  539   4.317   1.425  11.955 -0.3261  0.3934 -0.0303
   35MPD2    H2  540   4.456   1.542  12.338 -0.6816 -1.0514  1.3192
   35MPD2    H3  541   4.389   1.601  12.114 -0.9062 -0.7281 -2.0544
   35MPD2     N  542   4.309   1.172  11.989  0.0479  0.0205 -0.5966
   35MPD2    H5  543   4.304   1.079  12.029  0.1895 -0.4741 -1.7247
   35MPD2    N1  544   4.504   1.293  12.423  0.1595 -0.2029  0.1465
   35MPD2    H7  545   4.513   1.363  12.496 -1.4623 -0.9096  1.0332
   36TCq2    C1  546   4.282   1.187  11.848 -0.6047 -0.4853 -0.0187
   36TCq2    O2  547   4.307   1.280  11.772 -0.5731  0.0743 -0.1421
   36TCq2    C2  548   4.202   1.082  11.778  0.4419 -0.0373  0.0748
   36TCq2    C3  549   4.167   1.106  11.650 -0.3321  0.6157  0.1793
   36TCq2    C4  550   4.068   1.030  11.594  0.3239  0.6450  0.0770
   36TCq2    C5  551   4.017   0.916  11.652  0.7110  0.1830  0.1882
   36TCq2    C6  552   4.055   0.897  11.786 -1.0119  0.0542  0.1397
   36TCq2    C7  553   4.144   0.984  11.851  0.3659 -0.4080 -0.5699
   36TCq2    C8  554   3.990   0.789  11.857  0.7462  0.3649 -0.0195
   36TCq2    O4  555   3.912   0.720  11.797  0.1358 -0.3814  0.6811
   36TCq2    C9  556   4.035   1.056  11.458  0.1266  0.2893  0.5525
   36TCq2    O5  557   4.103   1.146  11.405  0.0968 -0.2831  0.0737
   36TCq2    O6  558   3.948   0.984  11.401  0.1850 -0.1141  0.1020
   36TCq2    H2  559   4.220   1.184  11.597  0.9714  0.5172  1.3455
   36TCq2    H3  560   3.959   0.843  11.596 -1.5389  0.1027  2.6120
   36TCq2    H4  561   4.168   0.969  11.956 -2.8524  1.3032  0.4113
   37TMC2    C1  562   1.561   1.245  11.595 -0.7793 -0.2605  0.3865
   37TMC2    C2  563   1.508   1.281  11.467  0.0567  0.2680 -0.3594
   37TMC2    C3  564   1.587   1.356  11.388 -0.3381 -0.3280  0.4803
   37TMC2    C4  565   1.690   1.275  11.624 -0.1883  0.0588 -0.9242
   37TMC2    C5  566   1.763   1.350  11.535 -0.2003 -0.0739 -0.0178
   37TMC2    C6  567   1.720   1.382  11.410  0.2431  0.0376 -0.0914
   37TMC2     C  568   1.475   1.201  11.705  0.5089  0.1738  0.6963
   37TMC2     O  569   1.365   1.246  11.718 -0.1492  0.4788 -0.4259
   37TMC2     H  570   1.404   1.263  11.441  0.1102  0.3168 -0.6018
   37TMC2    H1  571   1.727   1.242  11.720  1.5005  0.2719 -1.4996
   37TMC2    H2  572   1.780   1.435  11.336  2.8198 -0.1164  1.8569
   37TMC2    C7  573   1.894   1.389  11.579  0.1066 -0.4201  0.2795
   37TMC2    C8  574   1.520   1.423  11.282 -0.5022  0.7013  0.0069
   37TMC2    O1  575   1.939   1.331  11.678  0.2631  0.2327 -0.3456
   37TMC2    O2  576   1.560   1.533  11.252 -0.0123  0.6515 -0.0157
   37TMC2    O5  577   1.484   1.330  11.199 -0.1094  0.2681 -0.9491
   37TMC2    H5  578   1.516   1.239  11.217  0.5496  0.8128  0.6374
   38MPD2     C  579   1.445   0.946  12.162  0.3369  0.1189 -0.4306
   38MPD2    C1  580   1.558   0.916  12.094 -0.1512 -0.0415  0.1348
   38MPD2    C2  581   1.581   0.964  11.967 -0.5047 -1.0034 -0.0075
   38MPD2    C3  582   1.496   1.053  11.906  0.1333 -0.7946 -0.1568
   38MPD2    C4  583   1.385   1.093  11.976 -0.5503  0.5285  0.6198
   38MPD2    C5  584   1.362   1.041  12.103 -1.2127  0.1543  0.4771
   38MPD2     H  585   1.672   0.927  11.921  0.9136  2.6369 -0.1288
   38MPD2    H1  586   1.321   1.159  11.919 -0.9911 -0.6149 -0.2146
   38MPD2    H2  587   1.418   0.916  12.263 -2.6985  3.8105 -0.1384
   38MPD2    H3  588   1.273   1.066  12.161 -2.3794  0.6300 -1.5293
   38MPD2     N  589   1.533   1.098  11.775  0.0660  0.8443 -0.4613
   38MPD2    H5  590   1.618   1.060  11.734 -1.2026  0.3397 -2.6403
   38MPD2    N1  591   1.655   0.828  12.148  0.0257  0.2346 -0.4206
   38MPD2    H7  592   1.748   0.830  12.108 -0.5909 -1.8852 -1.9048
   39MPD2     C  593   4.424   2.562   1.370 -0.1837  0.3831 -0.0777
   39MPD2    C1  594   4.360   2.652   1.452  0.0310  0.9097  0.5066
   39MPD2    C2  595   4.220   2.670   1.450  0.1709  0.3892  0.3365
   39MPD2    C3  596   4.149   2.577   1.381  0.3992  0.8040  0.0592
   39MPD2    C4  597   4.204   2.481   1.302  0.2027  0.0056 -0.5537
   39MPD2    C5  598   4.340   2.476   1.300  0.0546 -0.3723  0.2222
   39MPD2     H  599   4.169   2.743   1.512 -0.6011  0.3675 -0.2600
   39MPD2    H1  600   4.150   2.407   1.245 -0.5952  0.2797 -0.1524
   39MPD2    H2  601   4.532   2.555   1.365 -0.2442 -1.1987  0.7149
   39MPD2    H3  602   4.385   2.393   1.247 -0.9082  0.2121 -1.5128
   39MPD2     N  603   4.009   2.572   1.378  0.0667  0.0573  0.2281
   39MPD2    H5  604   3.973   2.520   1.298  0.9751 -0.0699 -0.1044
   39MPD2    N1  605   4.447   2.720   1.540 -0.5788  1.3242 -0.1140
   39MPD2    H7  606   4.544   2.690   1.534 -0.8693  0.9606 -2.6929
   40TCq2    C1  607   4.413   2.821   1.627  0.4018 -0.3262 -0.0816
   40TCq2    O2  608   4.301   2.866   1.662 -0.1360 -0.0671  0.1635
   40TCq2    C2  609   4.527   2.859   1.711 -1.0275 -0.7811 -0.1503
   40TCq2    C3  610   4.650   2.793   1.694  0.3749 -0.1065 -0.6267
   40TCq2    C4  611   0.022   2.795   1.797  0.6791 -0.3971 -0.0465
   40TCq2    C5  612   4.716   2.852   1.915  0.1311  0.7147 -0.3291
   40TCq2    C6  613   4.590   2.895   1.934  0.1329 -0.6141  0.8422
   40TCq2    C7  614   4.501   2.909   1.833 -0.5729 -0.1529 -0.5009
   40TCq2    C8  615   4.568   2.965   2.056  0.2475 -0.4465 -0.6160
   40TCq2    O4  616   4.453   2.975   2.095  0.6214  0.3304  0.3912
   40TCq2    C9  617   0.157   2.740   1.777  0.0588  0.0390 -0.3015
   40TCq2    O5  618   0.187   2.687   1.668  0.4689 -0.0977 -0.3544
   40TCq2    O6  619   0.220   2.731   1.885 -0.1762 -0.1982  0.8089
   40TCq2    H2  620   4.675   2.738   1.604  2.2304  0.6537 -0.5779
   40TCq2    H3  621   0.072   2.845   1.991 -1.2017  2.8600  1.1957
   40TCq2    H4  622   4.405   2.950   1.864  0.8910  2.0694  1.0517
   41TMC2    C1  623   4.431   1.109  13.804 -0.3047  0.2762 -0.2470
   41TMC2    C2  624   4.507   1.218  13.786  0.0690 -0.6117 -0.7675
   41TMC2    C3  625   4.459   1.322  13.712 -0.2098 -0.5574  0.7070
   41TMC2    C4  626   4.308   1.093  13.739 -0.0078  0.7955 -0.3386
   41TMC2    C5  627   4.265   1.198  13.660 -0.6476 -0.1088  0.1020
   41TMC2    C6  628   4.337   1.315  13.650 -0.4268  0.4167  0.3276
   41TMC2     C  629   4.466   1.025  13.916  0.0223 -0.0585 -0.4444
   41TMC2     O  630   4.578   0.980  13.917  0.1931  0.5822 -0.0770
   41TMC2     H  631   4.599   1.221  13.844  0.5432 -0.5189 -1.5270
   41TMC2    H1  632   4.250   1.003  13.756  0.9393  0.7792  2.8213
   41TMC2    H2  633   4.312   1.395  13.582  1.4873 -0.0332 -0.9351
   41TMC2    C7  634   4.143   1.177  13.587  0.1697  0.1269  0.2639
   41TMC2    C8  635   4.520   1.452  13.723  0.1835  0.2111  0.3263
   41TMC2    O1  636   4.064   1.269  13.583 -0.4724 -0.1974  0.2682
   41TMC2    O2  637   4.505   1.540  13.638  0.0055  0.0353  0.0485
   41TMC2    O5  638   4.609   1.460  13.829  0.2862  0.3501 -0.0115
   41TMC2    H5  639   4.578   1.394  13.895  0.7944  0.7340  0.6103
   42MPD2     C  640   4.509   0.925  14.183 -0.5295 -0.5903 -0.6254
   42MPD2    C1  641   4.384   0.949  14.129 -0.3767  0.4672 -0.2752
   42MPD2    C2  642   4.281   0.915  14.199  0.5163 -0.3698 -0.3504
   42MPD2    C3  643   4.288   0.855  14.321 -0.0585 -0.7665 -0.1182
   42MPD2    C4  644   4.407   0.840  14.383  0.5281 -0.1209  0.1873
   42MPD2    C5  645   4.514   0.877  14.313  0.0947  0.2698 -0.2470
   42MPD2     H  646   4.188   0.945  14.153  0.3985  0.8789  0.7208
   42MPD2    H1  647   4.410   0.799  14.483  1.2698  0.0985  0.2518
   42MPD2    H2  648   4.596   0.969  14.136  0.3728 -0.4615  1.1542
   42MPD2    H3  649   4.610   0.859  14.361  0.9323  0.3155 -1.9155
   42MPD2     N  650   4.175   0.819  14.401 -0.5042  0.3331 -0.8929
   42MPD2    H5  651   4.193   0.804  14.499  0.0847 -0.4593 -1.1216
   42MPD2    N1  652   4.366   1.014  14.008  0.7362 -0.0122 -0.3948
   42MPD2    H7  653   4.276   1.058  13.988  0.0479 -0.8793  0.8191
   43MPD2     C  654   0.402   4.530   0.743 -0.1286  0.0788 -0.0996
   43MPD2    C1  655   0.336   4.441   0.824  0.1397  0.1357  0.0374
   43MPD2    C2  656   0.255   4.486   0.930  0.3617 -0.3477 -0.2508
   43MPD2    C3  657   0.229   4.625   0.937 -0.0113  0.4023  0.6784
   43MPD2    C4  658   0.297   4.706   0.849 -0.5332 -0.1079 -0.1653
   43MPD2    C5  659   0.384   4.666   0.753  0.3752 -0.5909 -0.5517
   43MPD2     H  660   0.213   4.417   1.003  1.3376 -3.9463 -3.0977
   43MPD2    H1  661   0.268   0.090   0.846  3.1606  0.8483 -1.8202
   43MPD2    H2  662   0.474   4.490   0.673 -0.4282 -1.1326  0.2884
   43MPD2    H3  663   0.431   0.018   0.689  2.5546 -0.1268  1.5812
   43MPD2     N  664   0.131   4.675   1.027 -0.1355  1.0133  0.0967
   43MPD2    H5  665   0.116   0.054   1.026 -1.8346  0.7595 -0.3867
   43MPD2    N1  666   0.356   4.300   0.820 -0.4452  0.0352  0.1915
   43MPD2    H7  667   0.316   4.243   0.894  1.8464 -0.5600  0.9735
   44TCq2    C1  668   4.652   0.295   1.332 -0.8275 -0.4748  0.4468
   44TCq2    O2  669   0.047   0.328   1.323 -0.8283 -0.0237  0.2090
   44TCq2    C2  670   4.612   0.162   1.278  0.2216  0.1042 -0.4107
   44TCq2    C3  671   4.486   0.112   1.297  0.1941  0.5215 -0.3366
   44TCq2    C4  672   4.466   4.705   1.277 -0.2730  0.3058  0.9912
   44TCq2    C5  673   4.572   4.629   1.239  0.5484 -0.3585 -0.0286
   44TCq2    C6  674   4.691   4.680   1.202 -0.5245  0.5974  0.2174
   44TCq2    C7  675   4.719   0.089   1.225 -0.0246 -0.3957 -0.0165
   44TCq2    C8  676   0.057   4.605   1.116 -0.0655 -0.2538  0.1884
   44TCq2    O4  677   0.050   4.482   1.138  0.0769  0.2258  0.5334
   44TCq2    C9  678   4.337   4.645   1.307  0.7219 -0.8962 -0.4125
   44TCq2    O5  679   4.241   4.719   1.333  0.4259 -0.3206 -0.1991
   44TCq2    O6  680   4.315   4.525   1.272  0.5552  0.0826  0.2942
   44TCq2    H2  681   4.398   0.171   1.319  1.6966  1.7677  2.3062
   44TCq2    H3  682   4.555   4.523   1.231 -0.6075 -0.1300 -0.5458
   44TCq2    H4  683   0.089   0.140   1.194  0.0250 -0.3482  0.2045
   45TMC2    C1  684   1.141   1.239   9.659 -0.8579 -0.4610 -0.7565
   45TMC2    C2  685   1.162   1.150   9.764 -0.1051  0.5766 -0.1394
   45TMC2    C3  686   1.210   1.206   9.879 -0.5647  0.2733 -0.0680
   45TMC2    C4  687   1.152   1.376   9.679 -0.9938 -0.0505  0.0983
   45TMC2    C5  688   1.195   1.427   9.797  1.1726 -0.2555  0.1940
   45TMC2    C6  689   1.217   1.341   9.896  0.5836 -0.4432 -0.1005
   45TMC2     C  690   1.088   1.182   9.540 -0.0463 -0.3227  0.2636
   45TMC2     O  691   1.112   1.245   9.437  0.1786  0.0413  0.2589
   45TMC2     H  692   1.159   1.043   9.744 -1.5067  0.3767  1.1893
   45TMC2    H1  693   1.143   1.443   9.595  0.6226 -0.9292 -0.7609
   45TMC2    H2  694   1.272   1.372   9.984  3.1599  0.7730 -2.1271
   45TMC2    C7  695   1.139   1.552   9.846 -0.1908  0.5406 -0.0865
   45TMC2    C8  696   1.254   1.108   9.972  0.0259  0.1034 -0.5416
   45TMC2    O1  697   1.138   1.572   9.971  0.2379  0.4233 -0.0704
   45TMC2    O2  698   1.197   1.000   9.963 -0.2669 -0.0685 -0.0385
   45TMC2    O5  699   1.384   1.129  10.000 -0.2061  0.5462  0.1837
   45TMC2    H5  700   1.412   1.222   9.986 -2.5774  1.4428  1.4862
   46MPD2     C  701   0.964   0.990   9.343  0.4393 -0.8271  1.1478
   46MPD2    C1  702   0.935   0.994   9.482 -0.4907  0.3346 -0.2887
   46MPD2    C2  703   0.833   0.913   9.530 -0.1444 -0.0385 -0.3196
   46MPD2    C3  704   0.746   0.855   9.439 -0.1153 -0.2885  0.2102
   46MPD2    C4  705   0.778   0.846   9.310 -0.0138  0.1538  0.5332
   46MPD2    C5  706   0.891   0.911   9.265  0.7517 -0.2184  0.2691
   46MPD2     H  707   0.804   0.916   9.634  1.4750  1.9031  0.0686
   46MPD2    H1  708   0.720   0.785   9.242 -0.5650  1.0082  0.2302
   46MPD2    H2  709   1.042   1.052   9.300  0.8372 -2.4459 -0.4298
   46MPD2    H3  710   0.915   0.912   9.159 -3.4004 -2.3913 -0.6806
   46MPD2     N  711   0.630   0.794   9.501 -0.1158 -0.2218 -0.3195
   46MPD2    H5  712   0.618   0.814   9.600 -0.5329  1.7146 -0.7742
   46MPD2    N1  713   1.008   1.080   9.567 -0.0433 -0.5234  0.4429
   46MPD2    H7  714   0.972   1.074   9.662 -1.5220 -1.1919 -0.1492
   47TMC2    C1  715   3.567   0.535   9.564  0.5549  0.5981  0.0158
   47TMC2    C2  716   3.582   0.420   9.490 -0.5525 -0.2808 -0.7052
   47TMC2    C3  717   3.467   0.372   9.430  0.0882  0.1582  0.0046
   47TMC2    C4  718   3.442   0.596   9.579  0.1826 -0.4825 -0.1500
   47TMC2    C5  719   3.330   0.542   9.520  0.6831 -0.8148  0.9804
   47TMC2    C6  720   3.343   0.432   9.440 -0.1855 -0.5363 -0.0835
   47TMC2     C  721   3.678   0.588   9.644  0.0916 -0.1080 -0.4220
   47TMC2     O  722   3.645   0.684   9.715  0.5746  0.0131 -0.6656
   47TMC2     H  723   3.676   0.371   9.468 -0.2471  0.0285 -0.1112
   47TMC2    H1  724   3.439   0.696   9.620 -2.0156 -0.8264  0.5187
   47TMC2    H2  725   3.250   0.391   9.403 -1.1426  0.0271  1.6904
   47TMC2    C7  726   3.204   0.590   9.569  0.5786 -0.7539 -0.3253
   47TMC2    C8  727   3.494   0.300   9.308  0.0475 -0.2070  0.2575
   47TMC2    O1  728   3.103   0.558   9.507  0.5482 -0.5252 -0.3525
   47TMC2    O2  729   3.601   0.313   9.257 -0.1010  0.1644  0.2321
   47TMC2    O5  730   3.378   0.270   9.252  0.0141 -0.3605  0.1139
   47TMC2    H5  731   3.302   0.258   9.313  0.2256  1.6048  0.7863
   48MPD2     C  732   3.942   0.667   9.744  0.8436  0.0284  0.0187
   48MPD2    C1  733   3.916   0.546   9.680  0.5036  0.2841 -0.2757
   48MPD2    C2  734   4.019   0.459   9.648  0.6580  0.1798  0.0639
   48MPD2    C3  735   4.147   0.478   9.686  0.4968  0.1089 -0.4939
   48MPD2    C4  736   4.171   0.590   9.767 -0.5192 -0.4577  0.1832
   48MPD2    C5  737   4.070   0.682   9.795 -0.8953 -0.6361 -0.4221
   48MPD2     H  738   3.998   0.369   9.592 -0.1771 -0.6617  1.7202
   48MPD2    H1  739   4.270   0.613   9.804 -0.3420 -1.1060  0.1104
   48MPD2    H2  740   3.871   0.749   9.756  0.0595 -0.7725  0.8680
   48MPD2    H3  741   4.086   0.769   9.858 -1.9227 -0.7343 -0.0336
   48MPD2     N  742   4.245   0.383   9.645  0.5258  0.0502 -0.2080
   48MPD2    H5  743   4.210   0.316   9.577  1.6568 -1.1946  0.4248
   48MPD2    N1  744   3.789   0.509   9.634 -0.1968  0.2797  0.3653
   48MPD2    H7  745   3.791   0.424   9.578  1.8106 -0.3397  1.3602
   49MPD2     C  746   1.590   3.327  10.453  0.7527 -0.8330 -0.7040
   49MPD2    C1  747   1.534   3.351  10.575  0.0642 -0.2025 -0.2419
   49MPD2    C2  748   1.614   3.410  10.668 -0.0146 -0.6279  0.4768
   49MPD2    C3  749   1.740   3.457  10.647  0.1910 -0.1121 -0.0989
   49MPD2    C4  750   1.790   3.430  10.527 -0.2578  0.2679  0.4599
   49MPD2    C5  751   1.717   3.364  10.432  0.0187 -0.0950 -0.2955
   49MPD2     H  752   1.572   3.433  10.766 -1.5027 -0.7997 -0.1330
   49MPD2    H1  753   1.890   3.458  10.496 -0.2099 -0.0553  0.3161
   49MPD2    H2  754   1.535   3.270  10.379 -0.2829  2.0522 -2.1409
   49MPD2    H3  755   1.768   3.346  10.338  0.8101  1.6755 -0.2009
   49MPD2     N  756   1.814   3.523  10.747 -0.0858 -0.0640 -0.0253
   49MPD2    H5  757   1.913   3.537  10.730  0.0066  2.0117  2.1890
   49MPD2    N1  758   1.406   3.313  10.622 -0.2511 -0.0933  0.0566
   49MPD2    H7  759   1.385   3.344  10.717 -1.7073 -1.8984  0.3398
   50TCq2    C1  760   1.319   3.240  10.549 -0.4217 -0.5742  0.3666
   50TCq2    O2  761   1.318   3.222  10.426  0.1572  0.1065  0.5235
   50TCq2    C2  762   1.189   3.207  10.616  0.2437 -0.5245 -0.4099
   50TCq2    C3  763   1.083   3.159  10.536  0.0028  0.6235 -0.2534
   50TCq2    C4  764   0.965   3.131  10.594  0.2584  0.7775  0.2852
   50TCq2    C5  765   0.951   3.146  10.735 -0.5535  0.1485 -0.6216
   50TCq2    C6  766   1.056   3.187  10.807 -0.4816 -0.7835 -0.1510
   50TCq2    C7  767   1.179   3.220  10.749 -0.3506  0.0887  0.1297
   50TCq2    C8  768   1.045   3.170  10.951  0.6157  0.2359 -0.9556
   50TCq2    O4  769   0.953   3.101  10.991  0.2418 -0.1273 -0.1666
   50TCq2    C9  770   0.864   3.073  10.514 -0.4556  0.0669 -0.0723
   50TCq2    O5  771   0.882   3.067  10.389 -0.0456  0.0397  0.2327
   50TCq2    O6  772   0.750   3.047  10.579  0.6921 -0.5159 -0.2522
   50TCq2    H2  773   1.095   3.140  10.430 -1.8882  1.7441 -0.6746
   50TCq2    H3  774   0.857   3.115  10.780 -1.2300  4.8237  1.1914
   50TCq2    H4  775   1.260   3.256  10.812  0.6058 -0.3741 -0.8347
   51MPD2     C  776   1.957   2.071   1.757 -0.2852 -0.3501 -0.1552
   51MPD2    C1  777   1.892   1.997   1.848  0.6094 -0.3479  0.0301
   51MPD2    C2  778   1.966   1.937   1.953 -0.2844 -0.3199 -0.0265
   51MPD2    C3  779   2.102   1.956   1.955 -0.1670 -0.5035 -0.4047
   51MPD2    C4  780   2.163   2.043   1.870  0.6650 -0.6788 -0.1791
   51MPD2    C5  781   2.092   2.091   1.767  0.2928 -0.4654 -0.3306
   51MPD2     H  782   1.922   1.865   2.020 -0.3250 -2.4735 -2.3762
   51MPD2    H1  783   2.270   2.056   1.873  0.5692  0.0251  0.1855
   51MPD2    H2  784   1.901   2.118   1.677 -2.3295 -1.3701  0.6878
   51MPD2    H3  785   2.130   2.156   1.689  2.4805 -1.5952 -0.1945
   51MPD2     N  786   2.183   1.911   2.066 -0.3692 -0.4429  0.1234
   51MPD2    H5  787   2.273   1.954   2.081 -0.5879  0.6797 -1.7203
   51MPD2    N1  788   1.747   1.983   1.856  0.2493 -0.1106 -0.8762
   51MPD2    H7  789   1.708   1.923   1.928  0.5152  0.0105 -0.6312
   52TCq2    C1  790   2.140   1.835   2.171  0.3855 -0.7646 -0.4036
   52TCq2    O2  791   2.041   1.765   2.177 -0.2786 -0.1226  0.1181
   52TCq2    C2  792   2.248   1.821   2.272  0.5179  0.0295 -0.2732
   52TCq2    C3  793   2.256   1.712   2.351 -0.0152  0.3422 -0.4709
   52TCq2    C4  794   2.361   1.702   2.437 -0.2462 -0.3513  0.4855
   52TCq2    C5  795   2.453   1.806   2.435 -0.6156  0.5917 -0.8470
   52TCq2    C6  796   2.429   1.920   2.368  0.4831 -0.8130  0.2028
   52TCq2    C7  797   2.323   1.929   2.285 -0.0986  0.4724  0.3915
   52TCq2    C8  798   2.515   2.035   2.390 -0.7183 -0.3005  0.0163
   52TCq2    O4  799   2.622   2.017   2.447  0.6950  0.0232  0.3886
   52TCq2    C9  800   2.387   1.595   2.520 -0.2895 -0.3412  0.2636
   52TCq2    O5  801   2.484   1.595   2.602 -0.2488 -0.3392 -0.1397
   52TCq2    O6  802   2.292   1.511   2.530  0.2126  0.5441  0.4218
   52TCq2    H2  803   2.181   1.633   2.344 -1.2329  1.5182 -0.6736
   52TCq2    H3  804   2.547   1.793   2.488 -0.9947 -0.3275 -0.4048
   52TCq2    H4  805   2.315   2.013   2.217  3.3124 -0.1221 -0.7812
   53TMC2    C1  806   2.559   1.292  11.801  0.2065 -0.1482  0.1371
   53TMC2    C2  807   2.689   1.250  11.790 -0.0382 -0.3849 -0.4656
   53TMC2    C3  808   2.724   1.150  11.878 -0.1174  0.1675 -0.2048
   53TMC2    C4  809   2.463   1.210  11.857  0.2489 -0.8554  0.0986
   53TMC2    C5  810   2.498   1.107  11.943 -0.1338 -0.1841 -0.1933
   53TMC2    C6  811   2.632   1.086  11.958  0.3065  0.1720  0.1843
   53TMC2     C  812   2.519   1.391  11.704 -0.5528  0.8634  0.2277
   53TMC2     O  813   2.598   1.448  11.625  0.1115 -0.4133  1.1127
   53TMC2     H  814   2.759   1.320  11.747  0.4609  0.1540  1.2202
   53TMC2    H1  815   2.358   1.235  11.865  0.0631 -2.6390  3.1023
   53TMC2    H2  816   2.673   1.020  12.034 -1.1960 -0.1391  0.7347
   53TMC2    C7  817   2.404   1.053  12.047  0.0869  0.5539  0.3315
   53TMC2    C8  818   2.858   1.149  11.925 -0.0605  0.2390  0.8525
   53TMC2    O1  819   2.309   1.128  12.076 -0.2836  0.6146 -0.1749
   53TMC2    O2  820   2.900   1.126  12.039 -0.1081 -0.1045 -0.1609
   53TMC2    O5  821   2.937   1.147  11.812 -0.1300 -0.0123 -0.0763
   53TMC2    H5  822   2.879   1.130  11.735 -0.0047  2.1940 -0.6697
   54MPD2     C  823   2.362   1.597  11.537 -0.1938  0.0706  0.2703
   54MPD2    C1  824   2.310   1.497  11.614 -0.0463 -0.3556  0.2653
   54MPD2    C2  825   2.184   1.468  11.602  0.4594  0.4207  0.2387
   54MPD2    C3  826   2.088   1.533  11.521  0.0573  0.4853  0.5028
   54MPD2    C4  827   2.140   1.635  11.449  0.5987  0.4964  0.0411
   54MPD2    C5  828   2.270   1.665  11.452 -0.3543 -0.3270  0.0675
   54MPD2     H  829   2.160   1.374  11.651  2.6904 -0.7196 -0.8869
   54MPD2    H1  830   2.078   1.706  11.395 -0.1873 -1.2903 -1.4306
   54MPD2    H2  831   2.463   1.634  11.531  0.1872 -1.0318 -0.2482
   54MPD2    H3  832   2.308   1.752  11.398  0.4107 -1.1570 -0.7211
   54MPD2     N  833   1.950   1.495  11.510 -0.1715  0.5378  0.1216
   54MPD2    H5  834   1.889   1.556  11.457  1.0133  0.6000 -1.1649
   54MPD2    N1  835   2.383   1.404  11.694 -0.1387  0.4158  0.3755
   54MPD2    H7  836   2.329   1.342  11.754  2.5080 -0.2819  2.0261
   55MPD2     C  837   2.475   3.513   0.970  0.0608  0.5587 -1.4847
   55MPD2    C1  838   2.383   3.424   1.031  0.4443  0.4295 -0.5025
   55MPD2    C2  839   2.247   3.456   1.022 -0.5967  0.1811  0.1544
   55MPD2    C3  840   2.209   3.573   0.959 -0.0724  0.9407  0.1727
   55MPD2    C4  841   2.300   3.651   0.889  0.2450  0.0044  0.5760
   55MPD2    C5  842   2.433   3.626   0.902  0.0870 -0.4942  0.0239
   55MPD2     H  843   2.173   3.389   1.064  0.3873  0.7216  2.7709
   55MPD2    H1  844   2.267   3.741   0.840  0.0708  0.0176  0.7157
   55MPD2    H2  845   2.582   3.500   0.979 -0.0101  1.5356  0.6931
   55MPD2    H3  846   2.506   3.701   0.874 -1.5890  0.1167 -2.6926
   55MPD2     N  847   2.067   3.584   0.931  0.0906 -0.0412 -0.4952
   55MPD2    H5  848   2.009   3.528   0.993  0.0244 -0.9579 -1.3905
   55MPD2    N1  849   2.438   3.302   1.080  0.2098 -0.0135 -0.1978
   55MPD2    H7  850   2.538   3.288   1.068  0.4323  0.9526  0.5652
   56TCq2    C1  851   2.364   3.206   1.145 -0.0500 -0.4302  0.4735
   56TCq2    O2  852   2.248   3.209   1.189  0.6944 -0.0007  0.3801
   56TCq2    C2  853   2.451   3.101   1.198 -0.0149  0.4171 -1.0371
   56TCq2    C3  854   2.584   3.088   1.152  0.5050  0.5011 -0.5445
   56TCq2    C4  855   2.672   3.020   1.234  0.0386  0.1530  0.1017
   56TCq2    C5  856   2.627   2.966   1.354  0.1002  0.2248  0.7145
   56TCq2    C6  857   2.502   2.974   1.394  0.1536 -0.1482 -0.3023
   56TCq2    C7  858   2.410   3.036   1.314  0.0113  0.4119 -0.0097
   56TCq2    C8  859   2.465   2.909   1.516  0.4781  0.2439  0.2289
   56TCq2    O4  860   2.545   2.866   1.594 -0.0032  0.5124 -0.6383
   56TCq2    C9  861   2.818   3.018   1.214 -0.1890 -0.5910 -0.3442
   56TCq2    O5  862   2.854   3.083   1.114  0.1409 -0.9786 -0.1408
   56TCq2    O6  863   2.898   2.981   1.305  0.1672 -0.2735 -0.1399
   56TCq2    H2  864   2.618   3.135   1.061 -0.9199 -0.4713 -1.5906
   56TCq2    H3  865   2.705   2.922   1.416 -0.8403 -1.8513  0.4227
   56TCq2    H4  866   2.306   3.046   1.343 -0.1194  0.2861 -0.4377
   57TMC2    C1  867   2.505   4.364  13.852  0.3391 -0.2872 -0.0001
   57TMC2    C2  868   2.617   4.373  13.921  0.2327  0.5519 -0.6008
   57TMC2    C3  869   2.735   4.333  13.863 -0.2992 -0.4529 -0.3207
   57TMC2    C4  870   2.507   4.318  13.720 -0.3477  0.2726  0.6496
   57TMC2    C5  871   2.630   4.272  13.672  0.3698  0.0669  0.1905
   57TMC2    C6  872   2.750   4.283  13.742  0.3925 -0.0329  0.1447
   57TMC2     C  873   2.380   4.401  13.910  0.4516  0.3707  0.0423
   57TMC2     O  874   2.368   4.436  14.024  0.7519 -0.1644 -0.4299
   57TMC2     H  875   2.613   4.408  14.023 -2.6183 -0.3540 -0.3998
   57TMC2    H1  876   2.424   4.325  13.650  0.7540  0.1426 -0.6800
   57TMC2    H2  877   2.843   4.237  13.711 -0.1057 -1.2556  0.4600
   57TMC2    C7  878   2.624   4.211  13.541 -0.2557 -0.1739  0.5806
   57TMC2    C8  879   2.854   4.344  13.945 -0.8119 -0.0191 -0.2646
   57TMC2    O1  880   2.520   4.157  13.500  0.1126  0.0680  0.3286
   57TMC2    O2  881   2.873   4.272  14.038 -0.2558  0.4050 -1.0401
   57TMC2    O5  882   2.948   4.405  13.865 -0.1966  0.6085  0.4368
   57TMC2    H5  883   2.906   4.470  13.805  2.2390 -0.6825 -2.6484
   58MPD2     C  884   1.859   4.423  13.870  0.4170  0.0590 -0.5199
   58MPD2    C1  885   1.948   4.471  13.959 -0.5358 -0.0231 -0.0970
   58MPD2    C2  886   2.080   4.451  13.945 -0.1936  0.2067  0.0507
   58MPD2    C3  887   2.135   4.394  13.835  0.0471  0.6758 -0.5468
   58MPD2    C4  888   2.048   4.350  13.745  0.3202  0.0178 -0.2429
   58MPD2    C5  889   1.912   4.361  13.761  0.4854 -0.2449 -0.0970
   58MPD2     H  890   2.147   4.495  14.018 -2.6027  0.4576  2.0836
   58MPD2    H1  891   2.073   4.300  13.652  2.5328  1.0573 -0.2149
   58MPD2    H2  892   1.751   4.433  13.881  0.2192 -1.1710 -1.2725
   58MPD2    H3  893   1.850   4.318  13.682 -0.5568 -2.2142  1.7869
   58MPD2     N  894   2.275   4.370  13.821 -0.0407  0.1057  0.4895
   58MPD2    H5  895   2.306   4.341  13.729 -0.4792 -2.0747  1.0214
   58MPD2    N1  896   1.901   4.544  14.076  0.3907  0.2688  0.4108
   58MPD2    H7  897   1.979   4.581  14.130  1.8587  0.9045 -2.0747
   59MPD2     C  898   0.579   4.681  13.510 -0.0868  0.6662  0.4338
   59MPD2    C1  899   0.543   0.091  13.500  0.3547 -0.1466 -0.1701
   59MPD2    C2  900   0.561   0.185  13.605  0.6268 -0.3182  0.6317
   59MPD2    C3  901   0.613   0.133  13.725  0.3781  0.2347 -1.0786
   59MPD2    C4  902   0.650   0.005  13.730 -0.8376  0.4722  0.0220
   59MPD2    C5  903   0.634   4.637  13.630  0.3391 -0.5824  0.1286
   59MPD2     H  904   0.549   0.292  13.595  1.7220 -0.2481  0.0464
   59MPD2    H1  905   0.683   4.677  13.822  0.9938  0.2626 -0.7461
   59MPD2    H2  906   0.571   4.609  13.429  0.7492  0.2672  0.7053
   59MPD2    H3  907   0.655   4.532  13.643  1.8080  0.0917  3.1855
   59MPD2     N  908   0.642   0.215  13.837 -0.4527 -0.4013  0.0947
   59MPD2    H5  909   0.718   0.194  13.901 -0.2647  4.3884  1.4606
   59MPD2    N1  910   0.506   0.145  13.372 -0.6412  0.5698 -0.1569
   59MPD2    H7  911   0.506   0.245  13.357  1.8703  0.2404 -2.4679
   60TCq2    C1  912   0.453   0.065  13.266 -1.2805  1.0959 -0.5731
   60TCq2    O2  913   0.431   4.668  13.260 -0.0895 -0.2102  0.2042
   60TCq2    C2  914   0.421   0.143  13.147 -0.4013  0.5922 -0.8170
   60TCq2    C3  915   0.317   0.093  13.074 -0.0305  0.1429 -0.3727
   60TCq2    C4  916   0.260   0.169  12.980 -0.3014 -0.3462  0.2937
   60TCq2    C5  917   0.295   0.302  12.957 -0.0781 -0.0652  0.1889
   60TCq2    C6  918   0.390   0.352  13.044 -0.0548 -0.4647 -0.5524
   60TCq2    C7  919   0.453   0.274  13.140 -0.0774  0.2848  0.3576
   60TCq2    C8  920   0.438   0.495  13.028 -0.3390  0.1059 -0.2941
   60TCq2    O4  921   0.532   0.531  13.095  0.1727 -0.0168 -0.0526
   60TCq2    C9  922   0.154   0.115  12.899  0.3867  0.0721 -0.1065
   60TCq2    O5  923   0.101   0.005  12.935  0.7533  0.0989 -0.0193
   60TCq2    O6  924   0.126   0.178  12.793  0.4148  0.1708 -0.2718
   60TCq2    H2  925   0.288   4.711  13.088 -0.0975  0.0608 -1.1115
   60TCq2    H3  926   0.231   0.354  12.887 -1.0225  1.2285  2.0059
   60TCq2    H4  927   0.546   0.301  13.188 -0.2984 -1.4266  1.7498
   61MPD2     C  928   4.379   0.937  15.802  0.6729  0.0587  0.0811
   61MPD2    C1  929   4.337   1.062  15.759  0.0823 -0.0192  0.6394
   61MPD2    C2  930   4.389   1.104  15.640  0.0034  0.0018 -0.0880
   61MPD2    C3  931   4.492   1.042  15.572  0.4085 -0.1271  0.2782
   61MPD2    C4  932   4.527   0.918  15.608  0.0247 -0.8446  0.4188
   61MPD2    C5  933   4.467   0.870  15.725  0.6041  0.9435  0.4752
   61MPD2     H  934   4.352   1.203  15.614  2.9362  0.8079 -1.3252
   61MPD2    H1  935   4.606   0.860  15.559 -0.3145 -0.3632 -0.7037
   61MPD2    H2  936   4.339   0.885  15.888  2.8540 -0.0607  1.0276
   61MPD2    H3  937   4.498   0.775  15.768 -1.4630  0.9727  2.0170
   61MPD2     N  938   4.563   1.096  15.464  0.3343 -0.4971  0.5827
   61MPD2    H5  939   4.637   1.038  15.426  0.7315  0.3018  0.1581
   61MPD2    N1  940   4.245   1.149  15.822 -0.3976  0.2987 -0.2298
   61MPD2    H7  941   4.239   1.244  15.787 -0.5561  0.8731  1.3764
   62TCq2    C1  942   4.169   1.119  15.940  0.0122  0.1023  0.2848
   62TCq2    O2  943   4.183   1.023  16.014 -0.0366  0.5131 -0.0838
   62TCq2    C2  944   4.057   1.215  15.957 -0.0793  0.3324  0.1197
   62TCq2    C3  945   3.978   1.188  16.063 -0.2362  0.2260  0.0465
   62TCq2    C4  946   3.862   1.251  16.077 -0.8826  0.0110  0.3679
   62TCq2    C5  947   3.821   1.344  15.984  0.0563 -0.3757  0.0513
   62TCq2    C6  948   3.906   1.378  15.883 -0.5166  0.2646 -1.0107
   62TCq2    C7  949   4.024   1.308  15.867  0.9563 -0.4478  0.2120
   62TCq2    C8  950   3.887   1.495  15.803  0.0888  0.2276 -0.5711
   62TCq2    O4  951   3.991   1.545  15.762 -0.1474 -0.4061  0.8612
   62TCq2    C9  952   3.774   1.220  16.186  0.0780  0.2030 -0.2342
   62TCq2    O5  953   3.675   1.294  16.194  0.3632 -0.1030  0.7358
   62TCq2    O6  954   3.802   1.115  16.252  0.5268 -0.1483  0.9247
   62TCq2    H2  955   4.003   1.101  16.122  0.0286  1.1942  1.3696
   62TCq2    H3  956   3.720   1.384  15.989  0.4701  0.7649 -0.7104
   62TCq2    H4  957   4.079   1.325  15.775  2.0026  1.1858  1.1725
   63TMC2    C1  958   3.812   1.274  10.872 -0.4299  0.6499  1.2203
   63TMC2    C2  959   3.929   1.330  10.906 -0.3684  0.3609  0.0820
   63TMC2    C3  960   3.989   1.422  10.821 -1.2359 -0.5324 -0.0176
   63TMC2    C4  961   3.745   1.305  10.755 -0.0870 -0.0799 -0.6124
   63TMC2    C5  962   3.802   1.399  10.671  0.6706  0.4133  0.0359
   63TMC2    C6  963   3.924   1.453  10.704 -0.1026  0.6806  0.2042
   63TMC2     C  964   3.736   1.206  10.975  0.6550 -0.3285 -0.4794
   63TMC2     O  965   3.784   1.221  11.086  0.2483  0.0252 -0.2173
   63TMC2     H  966   3.985   1.306  10.995  0.0040  0.8986 -0.0129
   63TMC2    H1  967   3.649   1.261  10.729  0.8525 -2.4512 -0.0521
   63TMC2    H2  968   3.964   1.536  10.647 -0.5798  0.7831  0.0215
   63TMC2    C7  969   3.723   1.461  10.569  0.2194 -0.4339 -0.7697
   63TMC2    C8  970   4.093   1.519  10.867 -0.1823  0.0123  0.0266
   63TMC2    O1  971   3.604   1.447  10.572 -0.3352 -0.7167  0.4274
   63TMC2    O2  972   4.130   1.614  10.798 -0.5275 -0.5554  0.5041
   63TMC2    O5  973   4.053   1.543  10.998 -0.1178 -0.4013 -0.0964
   63TMC2    H5  974   4.016   1.472  11.054 -2.4044  2.1351  1.6112
   64MPD2     C  975   3.372   0.887  11.174 -0.4374 -0.1515 -0.7366
   64MPD2    C1  976   3.407   0.840  11.056 -0.3910  0.0440  0.1735
   64MPD2    C2  977   3.484   0.918  10.976 -0.5413 -0.5354  0.2467
   64MPD2    C3  978   3.552   1.039  11.012 -0.8055 -0.5968  0.2916
   64MPD2    C4  979   3.522   1.080  11.136  0.2041 -0.0912 -0.8350
   64MPD2    C5  980   3.429   1.006  11.211 -0.0375  0.1179  0.0864
   64MPD2     H  981   3.501   0.876  10.878  2.0326  0.9913  0.0333
   64MPD2    H1  982   3.576   1.161  11.183 -0.3660 -0.6681  0.8079
   64MPD2    H2  983   3.303   0.837  11.242  1.2354 -3.4286 -1.4702
   64MPD2    H3  984   3.404   1.040  11.311  3.0331  2.7022 -0.0290
   64MPD2     N  985   3.638   1.117  10.926  0.1125 -0.2385  0.0497
   64MPD2    H5  986   3.640   1.102  10.826  0.3583 -1.8063  0.3001
   64MPD2    N1  987   3.377   0.709  11.010  0.4757  0.1379 -0.0201
   64MPD2    H7  988   3.423   0.686  10.923  0.5338 -2.1199  0.6163
   65MPD2     C  989   4.527   0.589  16.160 -0.3266  0.0740  0.2342
   65MPD2    C1  990   4.610   0.566  16.056 -0.2425 -0.2644  0.1006
   65MPD2    C2  991   4.629   0.428  16.028 -0.7934  0.5997  0.2457
   65MPD2    C3  992   4.571   0.320  16.091  0.0622 -0.0358 -0.2015
   65MPD2    C4  993   4.503   0.358  16.203 -0.0985 -1.1211 -0.0966
   65MPD2    C5  994   4.483   0.488  16.238  0.3617 -0.7625  0.0137
   65MPD2     H  995   4.698   0.411  15.946  1.5332  2.2493  1.8667
   65MPD2    H1  996   4.455   0.280  16.261 -0.1363 -1.8001 -1.0385
   65MPD2    H2  997   4.502   0.693  16.182 -0.2518  0.1696 -0.1342
   65MPD2    H3  998   4.429   0.506  16.330  1.8131 -0.5099  0.8223
   65MPD2     N  999   4.596   0.185  16.053  0.2404  0.4613  0.0771
   65MPD2    H5 1000   4.543   0.120  16.111  1.7338 -1.5048 -0.7684
   65MPD2    N1 1001   4.681   0.668  15.974 -0.0693  0.0220  0.5382
   65MPD2    H7 1002   0.016   0.638  15.894 -1.9799  1.9985 -1.5330
   66TCq2    C1 1003   4.676   0.796  15.993  0.4639 -0.5169  0.7840
   66TCq2    O2 1004   4.608   0.856  16.076 -0.0107  0.2572 -0.2788
   66TCq2    C2 1005   0.039   0.874  15.896  1.1804  0.1501 -0.1618
   66TCq2    C3 1006   0.117   0.808  15.797  0.0235 -0.4618 -0.1501
   66TCq2    C4 1007   0.160   0.880  15.687  0.0090  0.0318 -0.4968
   66TCq2    C5 1008   0.130   1.009  15.675  0.3591  0.4402  0.3763
   66TCq2    C6 1009   0.064   1.075  15.782 -0.5370  0.1209 -0.6985
   66TCq2    C7 1010   0.026   1.007  15.897 -0.1971  0.1310 -0.2151
   66TCq2    C8 1011   0.037   1.216  15.762 -0.5532  0.0821 -0.6045
   66TCq2    O4 1012   0.104   1.280  15.682  0.0457 -0.0582 -0.0550
   66TCq2    C9 1013   0.238   0.817  15.579  0.0832 -0.1271 -0.5031
   66TCq2    O5 1014   0.272   0.895  15.488 -0.3753 -0.1373  0.0371
   66TCq2    O6 1015   0.274   0.697  15.590 -0.0850  0.5410 -0.2977
   66TCq2    H2 1016   0.137   0.702  15.797  0.2635 -0.4129  1.0111
   66TCq2    H3 1017   0.155   1.063  15.584 -0.0062  0.5290  0.3301
   66TCq2    H4 1018   4.692   1.058  15.976 -1.2799  0.6070 -1.2558
   67MPD2     C 1019   0.275   0.399  14.411 -0.3197 -0.6059 -0.2936
   67MPD2    C1 1020   0.195   0.443  14.510  0.6573  0.0497 -0.0635
   67MPD2    C2 1021   0.058   0.463  14.487 -0.6447 -0.0605 -0.0324
   67MPD2    C3 1022   0.017   0.439  14.356 -0.7636  0.3279  0.4660
   67MPD2    C4 1023   0.103   0.391  14.266 -0.7849  0.5700  0.4084
   67MPD2    C5 1024   0.234   0.375  14.288 -0.1972  0.5564 -0.1278
   67MPD2     H 1025   4.716   0.499  14.568 -4.0734 -1.3620 -2.1054
   67MPD2    H1 1026   0.078   0.370  14.162  2.4126  0.7504 -0.3894
   67MPD2    H2 1027   0.382   0.393  14.423 -0.1429 -2.5702 -2.8302
   67MPD2    H3 1028   0.304   0.340  14.213 -1.8340 -0.8981 -0.9799
   67MPD2     N 1029   4.609   0.455  14.313 -0.7450  0.1321  0.2005
   67MPD2    H5 1030   4.596   0.447  14.213  0.3859  2.1255 -0.1231
   67MPD2    N1 1031   0.238   0.466  14.642  0.1786 -0.3368  0.1412
   67MPD2    H7 1032   0.166   0.494  14.707  0.5035 -1.3971  0.9572
   68TCq2    C1 1033   0.360   0.436  14.686  0.5704 -1.0946  0.6123
   68TCq2    O2 1034   0.456   0.371  14.647  0.0503  0.3967  0.5623
   68TCq2    C2 1035   0.378   0.483  14.823 -0.5779 -0.3509 -0.6711
   68TCq2    C3 1036   0.312   0.598  14.868 -0.6551 -0.4739 -0.2737
   68TCq2    C4 1037   0.329   0.633  15.000 -0.2222 -0.2304  0.1702
   68TCq2    C5 1038   0.397   0.555  15.084 -0.4171 -0.1514 -0.0343
   68TCq2    C6 1039   0.459   0.443  15.041  0.1459 -0.2234  0.2686
   68TCq2    C7 1040   0.459   0.407  14.906 -0.1992 -0.0909 -0.5308
   68TCq2    C8 1041   0.561   0.379  15.124 -0.1564  0.2062 -0.0720
   68TCq2    O4 1042   0.654   0.319  15.066  0.0601  0.8281  0.0068
   68TCq2    C9 1043   0.269   0.756  15.049  0.5954  1.0987 -0.3722
   68TCq2    O5 1044   0.273   0.783  15.177 -0.7442 -0.0877  0.1598
   68TCq2    O6 1045   0.225   0.827  14.956  0.6777  0.7039  0.0939
   68TCq2    H2 1046   0.250   0.662  14.806 -0.7863  0.0984  0.4440
   68TCq2    H3 1047   0.403   0.586  15.187  0.1712 -1.9996  0.4840
   68TCq2    H4 1048   0.511   0.319  14.872 -0.6240 -1.2284  1.7161
   69TMC2    C1 1049   2.467   0.943  12.517  0.1866 -0.4961 -0.7369
   69TMC2    C2 1050   2.361   1.003  12.564 -0.1967 -0.1749  1.0376
   69TMC2    C3 1051   2.322   1.123  12.513  0.5119  0.4301 -0.2770
   69TMC2    C4 1052   2.545   1.003  12.424 -0.5858  0.3087  0.7464
   69TMC2    C5 1053   2.513   1.131  12.387 -0.8427  0.9079  0.5945
   69TMC2    C6 1054   2.390   1.189  12.417  0.1410 -0.4018  0.4252
   69TMC2     C 1055   2.511   0.813  12.578  0.4624  0.3934 -0.4529
   69TMC2     O 1056   2.456   0.786  12.682  0.4683 -0.0887  0.2446
   69TMC2     H 1057   2.289   0.946  12.622 -0.9381 -0.5671 -0.2578
   69TMC2    H1 1058   2.638   0.953  12.401 -0.8977  1.3737 -2.7738
   69TMC2    H2 1059   2.352   1.286  12.386 -0.3019 -0.8446 -0.4368
   69TMC2    C7 1060   2.605   1.207  12.302 -0.0455 -0.3047 -0.1013
   69TMC2    C8 1061   2.205   1.182  12.572 -0.1730 -0.8049  0.1495
   69TMC2    O1 1062   2.715   1.157  12.277 -0.1365 -0.3328 -0.1912
   69TMC2    O2 1063   2.124   1.105  12.628  0.2438  0.0708 -0.1023
   69TMC2    O5 1064   2.240   1.300  12.634 -0.0004 -0.8740  0.4523
   69TMC2    H5 1065   2.310   1.362  12.604 -2.4740  0.7678 -1.9061
   70MPD2     C 1066   2.788   0.600  12.494 -0.2403 -0.2065 -0.1383
   70MPD2    C1 1067   2.670   0.637  12.551 -0.3930  0.9318 -0.7175
   70MPD2    C2 1068   2.624   0.565  12.663 -0.2296 -0.1363  0.8297
   70MPD2    C3 1069   2.710   0.465  12.717  0.2935  1.1202  0.1370
   70MPD2    C4 1070   2.825   0.426  12.648 -0.8814  0.4428  0.1499
   70MPD2    C5 1071   2.870   0.501  12.545 -0.3118  0.4185  0.2368
   70MPD2     H 1072   2.531   0.591  12.713 -0.7639 -1.4330  0.5008
   70MPD2    H1 1073   2.888   0.356  12.702  1.1389  0.7844 -1.7648
   70MPD2    H2 1074   2.822   0.648  12.402  1.6432 -1.4573 -0.0975
   70MPD2    H3 1075   2.966   0.486  12.497 -0.8123 -0.0555 -0.6185
   70MPD2     N 1076   2.686   0.377  12.821  0.0029 -0.4149  0.1148
   70MPD2    H5 1077   2.762   0.315  12.847 -0.9898 -0.2815  3.3577
   70MPD2    N1 1078   2.605   0.750  12.500 -0.4481 -0.0477  0.2658
   70MPD2    H7 1079   2.634   0.796  12.414 -0.7019  1.3571  0.9266
   71TMC2    C1 1080   3.597   2.228   1.602  0.2547  0.0179  0.1431
   71TMC2    C2 1081   3.700   2.288   1.675 -0.5411  0.8009  0.2627
   71TMC2    C3 1082   3.690   2.284   1.811 -0.2696 -0.1301  0.2563
   71TMC2    C4 1083   3.483   2.189   1.666 -0.0561  0.0474 -0.0911
   71TMC2    C5 1084   3.475   2.185   1.801 -0.4461 -0.3720 -0.1751
   71TMC2    C6 1085   3.578   2.230   1.879  0.3854 -0.9351  0.0236
   71TMC2     C 1086   3.619   2.205   1.457 -0.4821 -0.3638 -0.5646
   71TMC2     O 1087   3.734   2.221   1.422  0.2186  0.5160 -0.0773
   71TMC2     H 1088   3.777   2.339   1.620  0.2916 -0.1077  0.5843
   71TMC2    H1 1089   3.414   2.126   1.610 -0.0975 -0.1550  0.1858
   71TMC2    H2 1090   3.566   2.219   1.986 -0.8553  1.0712  0.0806
   71TMC2    C7 1091   3.347   2.153   1.858 -0.1507  0.0775  0.2140
   71TMC2    C8 1092   3.807   2.327   1.884  0.8173 -0.1775 -0.5041
   71TMC2    O1 1093   3.349   2.101   1.970 -0.3281 -0.3595 -0.5581
   71TMC2    O2 1094   3.860   2.433   1.845  0.1660  0.2249  0.0329
   71TMC2    O5 1095   3.872   2.211   1.913 -0.2838  0.8563 -0.1034
   71TMC2    H5 1096   3.808   2.141   1.938 -0.1537  0.2282 -1.5529
   72MPD2     C 1097   3.491   2.147   0.974  0.1084  0.5523 -0.0003
   72MPD2    C1 1098   3.607   2.196   1.034  0.3646 -0.7684  0.0184
   72MPD2    C2 1099   3.614   2.220   1.170 -0.2550 -0.0036 -0.4724
   72MPD2    C3 1100   3.500   2.186   1.241 -0.7698  1.1070 -0.0802
   72MPD2    C4 1101   3.384   2.146   1.181  0.1663  0.0653 -0.4929
   72MPD2    C5 1102   3.382   2.124   1.045 -0.5445  0.1874  0.2312
   72MPD2     H 1103   3.698   2.268   1.218 -0.1630 -3.1654  2.4915
   72MPD2    H1 1104   3.296   2.126   1.241  1.4194 -0.4062  1.2009
   72MPD2    H2 1105   3.476   2.127   0.868  1.2096 -1.5978  0.2425
   72MPD2    H3 1106   3.288   2.091   1.003 -1.0969 -0.2678  1.8393
   72MPD2     N 1107   3.502   2.195   1.383 -0.6812 -0.2973 -0.8013
   72MPD2    H5 1108   3.416   2.194   1.436  0.8393 -0.3333  1.6784
   72MPD2    N1 1109   3.721   2.235   0.965 -0.1853  0.1545  0.3235
   72MPD2    H7 1110   3.791   2.274   1.027  0.1120  1.1967 -0.6645
   73TMC2    C1 1111   3.898   3.633  14.065 -0.1934  0.4427 -0.0754
   73TMC2    C2 1112   3.806   3.721  14.060 -0.1450  0.7948 -0.0212
   73TMC2    C3 1113   3.814   3.812  14.158  0.0094  0.2176  0.0871
   73TMC2    C4 1114   4.002   3.634  14.163 -0.0052 -0.5593  0.3336
   73TMC2    C5 1115   4.018   3.733  14.245 -0.0501 -0.4834  0.6322
   73TMC2    C6 1116   3.924   3.833  14.233  0.0281  0.6630  0.2008
   73TMC2     C 1117   3.967   3.571  13.947 -0.4850 -0.1570 -0.5651
   73TMC2     O 1118   4.086   3.559  13.980 -0.4711 -0.4539 -0.1130
   73TMC2     H 1119   3.726   3.721  13.986 -3.0296 -1.0466  3.1109
   73TMC2    H1 1120   4.064   3.548  14.183  2.1128  1.3390  1.8717
   73TMC2    H2 1121   3.924   3.920  14.299 -1.3360  0.3820  0.5653
   73TMC2    C7 1122   4.150   3.779  14.259 -0.2045  0.3788  0.2844
   73TMC2    C8 1123   3.699   3.887  14.176 -0.2911 -0.3746  0.4369
   73TMC2    O1 1124   4.180   3.863  14.344  0.3475 -0.2716 -0.2191
   73TMC2    O2 1125   3.705   3.988  14.245 -0.0148  0.6399  0.1889
   73TMC2    O5 1126   3.589   3.809  14.161 -0.2081  0.6500 -0.2594
   73TMC2    H5 1127   3.614   3.718  14.134  1.7660  0.1219  3.3492
   74MPD2     C 1128   4.036   3.268  13.540 -0.4372  0.1831 -0.0071
   74MPD2    C1 1129   4.118   3.322  13.628  0.0295  0.2465  0.0677
   74MPD2    C2 1130   4.070   3.407  13.728  0.0020  0.6046  0.1710
   74MPD2    C3 1131   3.940   3.431  13.747  0.0268 -0.3283 -0.1499
   74MPD2    C4 1132   3.852   3.364  13.662 -0.0103  0.2165 -0.2915
   74MPD2    C5 1133   3.905   3.299  13.554 -0.0203  0.5857 -0.7263
   74MPD2     H 1134   4.140   3.437  13.806  0.2068  0.3514  0.0852
   74MPD2    H1 1135   3.745   3.384  13.665  0.1439  0.7972  1.1391
   74MPD2    H2 1136   4.061   3.207  13.454  3.2907  0.0328  1.1805
   74MPD2    H3 1137   3.835   3.274  13.476  1.8094  2.2224 -2.8718
   74MPD2     N 1138   3.890   3.518  13.846  0.2115  0.4679  0.0006
   74MPD2    H5 1139   3.790   3.511  13.861  0.3769  1.0665  1.3581
   74MPD2    N1 1140   4.259   3.301  13.605 -0.3772  0.6125 -0.3620
   74MPD2    H7 1141   4.283   3.252  13.520  2.0752  1.7194 -0.2954
   75TCq2    C1 1142   4.503   0.489  14.392  0.4161  0.5538 -0.7274
   75TCq2    O2 1143   4.484   0.499  14.511 -0.4776 -0.0888  0.0636
   75TCq2    C2 1144   4.383   0.488  14.310  0.4664 -0.0772 -0.1086
   75TCq2    C3 1145   4.274   0.460  14.380  0.8040  0.0630  0.5746
   75TCq2    C4 1146   4.160   0.478  14.320 -0.3670 -0.0741  0.1821
   75TCq2    C5 1147   4.146   0.530  14.196 -0.1279  0.1264  0.5920
   75TCq2    C6 1148   4.261   0.558  14.132 -0.0003 -0.2887  0.0717
   75TCq2    C7 1149   4.389   0.548  14.190 -0.5765 -0.5178  0.5546
   75TCq2    C8 1150   4.254   0.600  13.993  0.3321  0.3755 -0.3621
   75TCq2    O4 1151   4.333   0.563  13.906 -0.1779 -0.2074  0.1334
   75TCq2    C9 1152   4.040   0.424  14.385  0.4033  0.0343  0.6325
   75TCq2    O5 1153   4.058   0.377  14.498  0.0123 -0.0232 -0.3784
   75TCq2    O6 1154   3.935   0.418  14.318 -0.1905  0.2903  0.0257
   75TCq2    H2 1155   4.285   0.406  14.473 -2.6512  0.7764  1.4072
   75TCq2    H3 1156   4.049   0.542  14.148  0.1001 -0.6461 -0.0653
   75TCq2    H4 1157   4.480   0.577  14.138 -1.6668  2.7188  0.4045
   76MPD2     C 1158   3.614   1.169  12.231  0.2221  0.3193 -0.5853
   76MPD2    C1 1159   3.528   1.114  12.136  0.4361 -0.4946 -0.0069
   76MPD2    C2 1160   3.526   0.986  12.107 -0.4886  0.1890 -0.5565
   76MPD2    C3 1161   3.595   0.883  12.181 -0.4107 -0.2157 -0.3376
   76MPD2    C4 1162   3.687   0.940  12.272 -0.4408 -0.1525 -0.6867
   76MPD2    C5 1163   3.702   1.075  12.290 -0.4107  0.7124  0.6412
   76MPD2     H 1164   3.470   0.952  12.021  1.4620 -1.1924 -1.2951
   76MPD2    H1 1165   3.745   0.874  12.335  0.3062  1.4318  0.2853
   76MPD2    H2 1166   3.623   1.273  12.260  1.8115  0.2323 -0.7204
   76MPD2    H3 1167   3.769   1.110  12.367  1.5641  0.4356 -0.9436
   76MPD2     N 1168   3.579   0.745  12.184 -0.0454 -0.2013 -0.0597
   76MPD2    H5 1169   3.643   0.692  12.242 -1.9864 -0.7384  1.6003
   76MPD2    N1 1170   3.450   1.198  12.052  0.0473 -0.1248  0.2684
   76MPD2    H7 1171   3.382   1.151  11.993 -2.1453  2.4937  0.7229
   77TCq2    C1 1172   3.490   0.673  12.105 -0.2550  0.6855  0.4036
   77TCq2    O2 1173   3.402   0.718  12.034 -0.4214  0.2297 -0.4005
   77TCq2    C2 1174   3.483   0.529  12.129 -0.7033 -0.7400  0.1154
   77TCq2    C3 1175   3.389   0.465  12.062 -0.2981 -0.4222  0.1929
   77TCq2    C4 1176   3.373   0.333  12.088  0.7417  0.1768 -0.2165
   77TCq2    C5 1177   3.443   0.266  12.188 -0.0343  0.7044  0.2168
   77TCq2    C6 1178   3.549   0.329  12.247  0.6618 -0.1659  0.2328
   77TCq2    C7 1179   3.568   0.463  12.221  0.6497  0.1656 -0.2369
   77TCq2    C8 1180   3.647   0.241  12.317 -0.2787 -0.1280  0.0026
   77TCq2    O4 1181   3.629   0.126  12.293 -0.5407  0.2876 -0.0568
   77TCq2    C9 1182   3.282   0.264  12.002  0.8202  0.6585  0.6449
   77TCq2    O5 1183   3.227   0.165  12.063  0.0098  0.5347  0.1353
   77TCq2    O6 1184   3.255   0.306  11.887 -0.5744  0.4473 -0.5884
   77TCq2    H2 1185   3.340   0.512  11.978 -0.9574  0.1388  0.8950
   77TCq2    H3 1186   3.418   0.161  12.198  2.6038  0.1213  0.8212
   77TCq2    H4 1187   3.661   0.501  12.263  1.5539  0.1640 -2.2528
   78MPD1     C 1188   4.555   0.869   0.553 -0.0433  0.6612  0.5180
   78MPD1    C1 1189   4.681   0.933   0.531 -0.0603  0.6650 -0.0532
   78MPD1    C2 1190   4.688   1.065   0.550  0.2163  0.0522 -0.0542
   78MPD1    C3 1191   4.576   1.142   0.581  0.6312 -0.1673 -0.8712
   78MPD1    C4 1192   4.451   1.079   0.587  0.4625 -0.0996 -0.3468
   78MPD1    C5 1193   4.446   0.944   0.582  0.5373 -1.5294  0.0941
   78MPD1     H 1194   0.067   1.106   0.542  0.5372 -1.0550 -1.6909
   78MPD1    H1 1195   4.360   1.132   0.613  0.1409 -0.7126 -0.2307
   78MPD1    H2 1196   4.552   0.765   0.526 -0.1116  1.0085 -0.7847
   78MPD1    H3 1197   4.352   0.892   0.568 -0.1608 -0.3374  0.3426
   78MPD1     N 1198   4.581   1.279   0.619 -0.5370 -0.0083  0.4059
   78MPD1    H5 1199   4.492   1.316   0.650 -0.8250 -3.1104  3.1472
   78MPD1    N1 1200   0.081   0.869   0.517 -0.5284  0.3604  0.3862
   78MPD1    H6 1201   0.148   0.931   0.472 -0.6278  0.2969  0.1494
   78MPD1    H7 1202   0.081   0.783   0.463  3.6991  1.0605 -0.8108
   79TCq2    C1 1203   4.694   1.357   0.625  0.6794 -0.5696 -0.3320
   79TCq2    O2 1204   0.089   1.311   0.622 -0.2655  0.1369  0.0953
   79TCq2    C2 1205   4.656   1.483   0.682 -0.0133 -0.1486  0.5307
   79TCq2    C3 1206   4.535   1.543   0.656  0.1537 -0.3420 -0.0978
   79TCq2    C4 1207   4.498   1.640   0.742 -0.1841 -0.5470 -0.1759
   79TCq2    C5 1208   4.572   1.682   0.850  0.4192 -0.7047  0.6028
   79TCq2    C6 1209   4.680   1.611   0.879 -0.0555  0.3468 -0.5719
   79TCq2    C7 1210   0.009   1.514   0.792  0.0170  0.2846  0.2427
   79TCq2    C8 1211   0.010   1.609   1.015 -0.9726 -1.0643 -0.1120
   79TCq2    O4 1212   4.717   1.711   1.080  0.3877 -0.7630  0.2248
   79TCq2    C9 1213   4.364   1.697   0.724  0.0835  0.3080 -0.4076
   79TCq2    O5 1214   4.293   1.650   0.631 -1.0548 -0.0222 -1.3181
   79TCq2    O6 1215   4.318   1.776   0.808 -0.6417 -0.2951 -0.1681
   79TCq2    H2 1216   4.472   1.530   0.569 -1.1180 -0.9122  0.8935
   79TCq2    H3 1217   4.535   1.762   0.914  0.5992 -0.9941  1.0653
   79TCq2    H4 1218   0.098   1.458   0.815 -0.3736 -1.0770 -1.5598
   80MPD2     C 1219   2.308   0.652  11.702  0.1940  0.0615  0.1711
   80MPD2    C1 1220   2.279   0.527  11.754 -0.1958  0.0136 -0.0007
   80MPD2    C2 1221   2.183   0.516  11.855  0.7211 -0.0607  0.1226
   80MPD2    C3 1222   2.129   0.629  11.907 -0.0748 -0.2361 -0.3069
   80MPD2    C4 1223   2.164   0.753  11.861 -0.0821 -0.2648 -0.1413
   80MPD2    C5 1224   2.251   0.761  11.761 -0.1507  0.4463 -0.4289
   80MPD2     H 1225   2.145   0.423  11.895  0.0254 -0.4991 -1.5827
   80MPD2    H1 1226   2.126   0.844  11.907  0.4771  1.1341 -2.4729
   80MPD2    H2 1227   2.383   0.665  11.625 -0.7827 -1.0801 -1.0001
   80MPD2    H3 1228   2.272   0.863  11.733  2.1119  0.1013  0.0033
   80MPD2     N 1229   2.045   0.627  12.023 -0.6248  0.1645 -0.8726
   80MPD2    H5 1230   2.020   0.723  12.047 -0.8501 -0.0145 -0.3867
   80MPD2    N1 1231   2.336   0.406  11.705  0.1117 -0.2468 -0.0109
   80MPD2    H7 1232   2.311   0.318  11.748  0.8385 -1.2125 -1.5587
   81TCq2    C1 1233   2.428   0.398  11.600  0.2674  0.4515 -0.3593
   81TCq2    O2 1234   2.498   0.493  11.560  0.0054  0.0764  0.2945
   81TCq2    C2 1235   2.466   0.268  11.564  0.6256 -0.0985  0.2811
   81TCq2    C3 1236   2.559   0.269  11.464 -0.0066 -0.7391  0.2408
   81TCq2    C4 1237   2.605   0.149  11.421 -0.2126 -0.1237  0.4269
   81TCq2    C5 1238   2.558   0.035  11.465 -0.2931  0.1768  0.1230
   81TCq2    C6 1239   2.455   0.040  11.553 -0.1353 -0.4504  0.0454
   81TCq2    C7 1240   2.404   0.154  11.606 -0.0207  0.8163 -0.6655
   81TCq2    C8 1241   2.382   4.638  11.588 -0.3335  0.6061 -0.4834
   81TCq2    O4 1242   2.386   4.542  11.511 -0.7042 -0.6851 -0.0638
   81TCq2    C9 1243   2.712   0.154  11.324 -0.4486 -0.5770  0.1545
   81TCq2    O5 1244   2.752   0.267  11.287  0.2195 -0.0985  0.2024
   81TCq2    O6 1245   2.767   0.045  11.297 -0.1460 -0.0370 -0.2715
   81TCq2    H2 1246   2.587   0.357  11.407  1.7259 -1.4594 -0.0302
   81TCq2    H3 1247   2.588   4.660  11.425  1.9821 -0.3516  3.0636
   81TCq2    H4 1248   2.306   0.157  11.652  0.8807 -0.8102  1.3284
   82MPD2     C 1249   0.698   0.399  10.824 -0.0669 -0.8273 -1.1165
   82MPD2    C1 1250   0.602   0.307  10.838  0.1552 -0.1305 -0.1743
   82MPD2    C2 1251   0.544   0.272  10.960  0.4572  0.3826 -0.5639
   82MPD2    C3 1252   0.578   0.343  11.066 -0.5032  0.6771 -0.9833
   82MPD2    C4 1253   0.675   0.437  11.063  0.2232 -0.4468 -0.4323
   82MPD2    C5 1254   0.744   0.456  10.946 -0.6405 -0.3257  1.0685
   82MPD2     H 1255   0.460   0.204  10.963 -1.2719  2.5376 -0.0532
   82MPD2    H1 1256   0.702   0.494  11.152 -0.8788 -2.6402  1.3147
   82MPD2    H2 1257   0.737   0.418  10.725 -0.5439 -1.7061 -1.4733
   82MPD2    H3 1258   0.824   0.529  10.946  0.9120 -2.0409 -0.6372
   82MPD2     N 1259   0.501   0.323  11.184 -0.1668  0.2270 -0.0386
   82MPD2    H5 1260   0.421   0.261  11.172 -0.0166 -0.0311  0.2910
   82MPD2    N1 1261   0.548   0.254  10.718  0.0364 -0.4287  0.4343
   82MPD2    H7 1262   0.586   0.288  10.630 -1.4040  1.8486  0.6868
   83TCq2    C1 1263   0.535   0.356  11.314  0.0574 -0.9558 -0.0923
   83TCq2    O2 1264   0.639   0.404  11.355 -0.2434  0.1451  0.6660
   83TCq2    C2 1265   0.443   0.297  11.410  0.5544  0.1502  0.4171
   83TCq2    C3 1266   0.317   0.351  11.409 -0.2539  0.6490  0.4094
   83TCq2    C4 1267   0.215   0.292  11.487  0.7321  0.5487  0.6072
   83TCq2    C5 1268   0.245   0.180  11.564  0.0481 -0.1327 -0.2393
   83TCq2    C6 1269   0.377   0.138  11.567  0.2710  0.2980 -0.4485
   83TCq2    C7 1270   0.480   0.188  11.484  0.3168 -0.3938  0.3686
   83TCq2    C8 1271   0.404   0.025  11.660  0.2513 -0.7144  0.6174
   83TCq2    O4 1272   0.302   4.693  11.691  0.5834  0.3717  0.3514
   83TCq2    C9 1273   0.089   0.351  11.487 -0.3285  0.5275 -0.0624
   83TCq2    O5 1274   0.072   0.457  11.424  0.0310  0.3903  0.3443
   83TCq2    O6 1275   0.010   0.320  11.583 -0.0527  0.4139  0.1649
   83TCq2    H2 1276   0.297   0.440  11.352 -1.5958 -0.2707 -0.5506
   83TCq2    H3 1277   0.162   0.137  11.617  0.1089 -2.2981 -1.8973
   83TCq2    H4 1278   0.578   0.143  11.483  0.3621 -0.2718 -1.0330
   84TCq2    C1 1279   1.766   3.592  10.859  0.0565  1.1742  0.5604
   84TCq2    O2 1280   1.652   3.629  10.875  0.2069  0.3062  0.1838
   84TCq2    C2 1281   1.868   3.655  10.945  0.7947 -0.2425  0.1428
   84TCq2    C3 1282   1.994   3.699  10.897  0.2040 -0.2609 -0.3965
   84TCq2    C4 1283   2.066   3.785  10.983  0.0858 -0.7579  0.3123
   84TCq2    C5 1284   2.014   3.821  11.104  0.2522 -0.4885  0.1880
   84TCq2    C6 1285   1.892   3.780  11.131 -0.4887  0.7794  1.2928
   84TCq2    C7 1286   1.812   3.698  11.061  0.1932 -1.0146 -0.0489
   84TCq2    C8 1287   1.839   3.812  11.254 -0.2309 -0.5154  0.0958
   84TCq2    O4 1288   1.719   3.810  11.276  0.2378  0.6312 -0.3450
   84TCq2    C9 1289   2.194   3.848  10.944  0.0816  0.2845 -0.0861
   84TCq2    O5 1290   2.220   3.957  10.990  0.0616  0.5163  0.8095
   84TCq2    O6 1291   2.269   3.787  10.866  0.3179 -0.5201 -0.5482
   84TCq2    H2 1292   2.031   3.672  10.799  1.1608 -0.0410 -0.0926
   84TCq2    H3 1293   2.073   3.893  11.159  1.4179  0.4111 -2.2217
   84TCq2    H4 1294   1.715   3.664  11.095 -0.8676 -0.3943 -2.4379
   85MPD2     C 1295   1.998   1.549  16.578 -0.2989 -0.0445  0.3573
   85MPD2    C1 1296   1.962   1.520  16.445 -0.4939  0.5948 -0.2575
   85MPD2    C2 1297   1.984   1.624  16.347 -0.0619  0.5886  0.0382
   85MPD2    C3 1298   2.054   1.736  16.385  0.4068  0.4357 -0.0700
   85MPD2    C4 1299   2.090   1.752  16.521  0.2093 -0.2022  0.7833
   85MPD2    C5 1300   2.049   1.663  16.615 -0.4116  0.6709 -0.0425
   85MPD2     H 1301   1.957   1.614  16.243  1.1463 -1.5130 -0.0684
   85MPD2    H1 1302   2.152   1.835  16.551  1.6456 -0.8389 -0.4570
   85MPD2    H2 1303   1.986   1.463  16.643 -0.3883  0.4543  1.0001
   85MPD2    H3 1304   2.088   1.677  16.715  1.0012  0.4941 -0.5583
   85MPD2     N 1305   2.078   1.832  16.285  0.0031 -0.2927 -0.7767
   85MPD2    H5 1306   2.019   1.834  16.202  0.1799 -1.0236 -0.9250
   85MPD2    N1 1307   1.893   1.403  16.401 -0.2609 -0.2260 -0.0992
   85MPD2    H7 1308   1.873   1.391  16.302 -1.0706 -0.4802  0.0946
   86TCq2    C1 1309   2.180   1.919  16.294 -0.0168  0.0202  0.9346
   86TCq2    O2 1310   2.271   1.920  16.378 -0.4122 -0.0057 -0.1737
   86TCq2    C2 1311   2.170   2.032  16.202  0.7479 -0.1758  0.7702
   86TCq2    C3 1312   2.053   2.067  16.150 -0.1438 -0.2986  0.7093
   86TCq2    C4 1313   2.052   2.177  16.066  0.0781  0.1924 -0.1063
   86TCq2    C5 1314   2.168   2.240  16.021  0.2418  0.4847  0.5183
   86TCq2    C6 1315   2.281   2.216  16.094 -0.0438  0.1808 -0.1359
   86TCq2    C7 1316   2.285   2.104  16.179 -0.0895 -0.1081  0.4240
   86TCq2    C8 1317   2.408   2.261  16.040  0.0460  0.0159  0.0830
   86TCq2    O4 1318   2.507   2.203  16.072 -0.3596 -0.5781 -0.0196
   86TCq2    C9 1319   1.926   2.215  16.002 -0.5762  0.2590 -0.4705
   86TCq2    O5 1320   1.942   2.309  15.918 -0.0817 -0.0739 -0.8776
   86TCq2    O6 1321   1.819   2.176  16.056  0.0072 -0.4023 -0.1588
   86TCq2    H2 1322   1.960   2.017  16.177 -1.7166  2.6330  0.7570
   86TCq2    H3 1323   2.158   2.317  15.945  0.1118  0.4141  0.4645
   86TCq2    H4 1324   2.379   2.081  16.227  0.7950 -1.4624 -1.9168
   87MPD2     C 1325   3.888   0.288   0.520  0.4132  0.0130 -0.7552
   87MPD2    C1 1326   3.867   0.418   0.551  0.1155  0.3930  0.1997
   87MPD2    C2 1327   3.756   0.484   0.508  0.1295 -0.1616 -0.5442
   87MPD2    C3 1328   3.670   0.415   0.423 -0.0609 -0.4931  0.3500
   87MPD2    C4 1329   3.691   0.283   0.397 -0.1050  0.2902 -0.3880
   87MPD2    C5 1330   3.803   0.217   0.446  0.4394 -0.4165 -0.4631
   87MPD2     H 1331   3.745   0.591   0.522 -1.5965 -0.6807  2.1601
   87MPD2    H1 1332   3.627   0.231   0.327  0.0055 -1.0716  0.5234
   87MPD2    H2 1333   3.968   0.230   0.565  1.2669  0.3093 -1.9113
   87MPD2    H3 1334   3.804   0.110   0.437 -0.8113 -0.2790 -2.2302
   87MPD2     N 1335   3.560   0.480   0.356  0.0968  0.0219 -0.6160
   87MPD2    H5 1336   3.500   0.417   0.303  0.3196 -0.8591  0.1760
   87MPD2    N1 1337   3.966   0.481   0.631 -0.7179 -0.2069  0.4238
   87MPD2    H7 1338   4.045   0.418   0.643 -0.1461  0.2764 -0.7389
   88TCq2    C1 1339   3.950   0.605   0.700 -0.0865 -0.2279 -1.1141
   88TCq2    O2 1340   3.848   0.667   0.726 -0.2956  0.5872  0.1088
   88TCq2    C2 1341   4.058   0.654   0.781 -0.2041  0.2410  0.2091
   88TCq2    C3 1342   4.032   0.733   0.889  0.4892 -0.4794 -0.3364
   88TCq2    C4 1343   4.136   0.781   0.966  0.4772  0.2301  0.6469
   88TCq2    C5 1344   4.265   0.758   0.934  0.0242  0.6411 -1.0338
   88TCq2    C6 1345   4.293   0.688   0.816  0.1043  0.9401 -0.0778
   88TCq2    C7 1346   4.189   0.629   0.744  0.1052  0.6221 -0.5974
   88TCq2    C8 1347   4.432   0.648   0.790  0.4327 -0.2284 -0.1831
   88TCq2    O4 1348   4.515   0.733   0.826 -0.2008 -1.2391 -0.2199
   88TCq2    C9 1349   4.101   0.864   1.084  0.1129  0.5461 -0.6966
   88TCq2    O5 1350   4.197   0.904   1.155  0.1026  0.5898  0.6239
   88TCq2    O6 1351   3.977   0.894   1.098  0.0367  0.1346 -0.6432
   88TCq2    H2 1352   3.930   0.761   0.916  0.6694  1.6167 -1.7737
   88TCq2    H3 1353   4.340   0.807   0.996 -1.5431 -0.3786  1.6724
   88TCq2    H4 1354   4.215   0.564   0.661 -0.8284 -0.0685 -0.3510
   89MPD2     C 1355   4.614   3.100   2.316 -0.1413 -0.1677 -0.5161
   89MPD2    C1 1356   4.703   3.096   2.213 -0.3068 -0.5082  0.8989
   89MPD2    C2 1357   0.105   3.157   2.224  0.4744 -1.2115  0.0447
   89MPD2    C3 1358   0.130   3.240   2.331 -0.2546 -0.5568 -0.3961
   89MPD2    C4 1359   0.031   3.257   2.432  0.6128  1.0606 -0.0405
   89MPD2    C5 1360   4.640   3.180   2.422  0.2214  0.5905  0.8861
   89MPD2     H 1361   0.175   3.152   2.142 -0.8832  1.6788 -1.2836
   89MPD2    H1 1362   0.027   3.321   2.519  0.0208  0.0430  0.6822
   89MPD2    H2 1363   4.518   3.052   2.317  0.4522 -1.2981  2.8190
   89MPD2    H3 1364   4.568   3.174   2.502 -1.2121 -0.9307 -0.4979
   89MPD2     N 1365   0.257   3.309   2.335 -0.3259 -0.6623  0.5803
   89MPD2    H5 1366   0.319   3.288   2.258 -0.0483  3.3813 -0.2687
   89MPD2    N1 1367   4.677   3.029   2.094 -0.0453 -0.3948 -0.0409
   89MPD2    H7 1368   0.026   3.023   2.020  0.5954 -0.2942  0.5560
   90TCq2    C1 1369   0.290   3.397   2.435  0.1666  0.0454 -0.0150
   90TCq2    O2 1370   0.233   3.425   2.539  0.3424 -0.1302 -0.8314
   90TCq2    C2 1371   0.416   3.458   2.421 -0.0222 -0.6078  0.3841
   90TCq2    C3 1372   0.485   3.474   2.538  0.5307  0.3121  0.1092
   90TCq2    C4 1373   0.619   3.465   2.539 -0.5119 -0.4648 -0.5228
   90TCq2    C5 1374   0.684   3.449   2.417  0.3975  0.8719  0.3776
   90TCq2    C6 1375   0.612   3.446   2.304  0.1282  0.3196  0.3967
   90TCq2    C7 1376   0.476   3.459   2.301 -0.2741 -0.1746  0.3592
   90TCq2    C8 1377   0.670   3.391   2.185 -0.5629 -1.0783 -0.0906
   90TCq2    O4 1378   0.756   3.306   2.206 -0.2432 -0.0824  0.2299
   90TCq2    C9 1379   0.702   3.469   2.659  0.1876  0.0525 -0.4399
   90TCq2    O5 1380   0.827   3.501   2.644 -0.3955  0.8263 -0.2988
   90TCq2    O6 1381   0.635   3.507   2.758  0.1155  0.2764  0.3677
   90TCq2    H2 1382   0.438   3.477   2.636  2.2332 -2.8503  1.0283
   90TCq2    H3 1383   0.790   3.425   2.419  0.5994  1.8208  1.3129
   90TCq2    H4 1384   0.418   3.444   2.211  1.5129 -0.6600 -0.6980
   91TMC2    C1 1385   1.905   2.685  16.918  0.6506 -0.1089 -0.4309
   91TMC2    C2 1386   1.985   2.642  16.805 -0.0659 -1.1079 -0.9210
   91TMC2    C3 1387   1.918   2.614  16.689 -0.1518 -0.8680  0.4131
   91TMC2    C4 1388   1.771   2.699  16.902  0.0912 -0.8633 -0.8174
   91TMC2    C5 1389   1.710   2.673  16.783  0.4217 -0.7195  0.2899
   91TMC2    C6 1390   1.785   2.625  16.677  0.7033 -1.2506  0.1683
   91TMC2     C 1391   1.963   2.708  17.050 -0.2213 -0.2228  0.0010
   91TMC2     O 1392   1.881   2.728  17.139 -0.0012 -0.4834  0.1181
   91TMC2     H 1393   2.084   2.600  16.821 -0.2177 -1.2931 -0.4581
   91TMC2    H1 1394   1.723   2.727  16.995  0.1771 -0.1389 -0.9974
   91TMC2    H2 1395   1.747   2.643  16.577  0.0126  2.6184  1.1469
   91TMC2    C7 1396   1.573   2.640  16.790 -0.2697 -0.1186  0.0884
   91TMC2    C8 1397   2.003   2.571  16.585 -0.5197  0.0132  1.0293
   91TMC2    O1 1398   1.525   2.623  16.900 -0.2147 -0.4574 -0.5816
   91TMC2    O2 1399   2.117   2.606  16.574 -0.1077 -0.0302  0.1632
   91TMC2    O5 1400   1.942   2.485  16.502  0.5210 -0.1992  1.0020
   91TMC2    H5 1401   1.861   2.447  16.541 -1.1598  1.6214 -0.7316
   92MPD2     C 1402   2.129   2.679  17.290 -0.1353  0.3036  0.6531
   92MPD2    C1 1403   2.178   2.706  17.166 -0.0432 -0.6538 -0.3770
   92MPD2    C2 1404   2.313   2.715  17.155 -0.6742 -0.2776 -0.3229
   92MPD2    C3 1405   2.403   2.708  17.264  0.1752 -0.4310 -0.4939
   92MPD2    C4 1406   2.350   2.682  17.385  0.0460  0.0608  0.3565
   92MPD2    C5 1407   2.213   2.674  17.397 -0.3425  0.2148 -0.0809
   92MPD2     H 1408   2.351   2.718  17.054 -0.9571 -4.6272 -0.5428
   92MPD2    H1 1409   2.410   2.672  17.475  1.2547 -0.3470 -0.4870
   92MPD2    H2 1410   2.022   2.667  17.304 -0.0022 -1.5907  0.0607
   92MPD2    H3 1411   2.181   2.646  17.497  0.4569  0.1542  0.1596
   92MPD2     N 1412   2.541   2.741  17.246 -0.3653 -0.0669 -0.3368
   92MPD2    H5 1413   2.562   2.766  17.149 -0.1532  0.1330 -0.2418
   92MPD2    N1 1414   2.101   2.716  17.049 -0.4058 -0.2433 -0.6590
   92MPD2    H7 1415   2.140   2.708  16.956  0.8646 -1.1279 -0.0477
   93MPD2     C 1416   3.619   3.005  13.639  0.9446 -0.6909 -0.5917
   93MPD2    C1 1417   3.575   3.040  13.764 -0.4232 -0.3984  0.2829
   93MPD2    C2 1418   3.441   3.020  13.798  0.0412  0.3613  0.2233
   93MPD2    C3 1419   3.354   2.961  13.707 -0.4955  0.5632 -0.5054
   93MPD2    C4 1420   3.398   2.933  13.582  0.2030 -0.3788 -0.3078
   93MPD2    C5 1421   3.531   2.954  13.545 -0.2465 -0.3903  0.0377
   93MPD2     H 1422   3.410   3.051  13.898  2.8608  1.4625  0.7501
   93MPD2    H1 1423   3.337   2.885  13.506 -0.1871 -0.5857  0.1397
   93MPD2    H2 1424   3.724   3.019  13.617  0.8607  0.9615  0.1108
   93MPD2    H3 1425   3.563   2.912  13.450  1.4438 -0.3192  0.5762
   93MPD2     N 1426   3.220   2.934  13.733 -0.0779 -0.5992 -0.5680
   93MPD2    H5 1427   3.169   2.885  13.661 -0.7057 -2.2356  0.9761
   93MPD2    N1 1428   3.661   3.099  13.858  0.4138  0.2620  0.6457
   93MPD2    H7 1429   3.617   3.147  13.936 -1.9762  0.8039 -1.0264
   94TCq2    C1 1430   3.797   3.085  13.859  0.2511  0.3424  0.3867
   94TCq2    O2 1431   3.870   3.016  13.785 -0.1492  0.4835  0.1785
   94TCq2    C2 1432   3.866   3.146  13.968 -0.3293 -0.7049  0.0363
   94TCq2    C3 1433   3.802   3.199  14.083 -0.3715  0.3582 -0.1280
   94TCq2    C4 1434   3.872   3.256  14.183  0.2122  0.4047 -0.1082
   94TCq2    C5 1435   4.003   3.282  14.171 -0.0810  0.0047  0.7050
   94TCq2    C6 1436   4.077   3.221  14.065 -0.2065  0.3971  0.7464
   94TCq2    C7 1437   4.000   3.157  13.967 -0.3399  0.2996  0.7420
   94TCq2    C8 1438   4.219   3.245  14.065  0.7761 -0.3108  0.0264
   94TCq2    O4 1439   4.265   3.312  14.157 -0.0815 -0.0461 -0.6612
   94TCq2    C9 1440   3.808   3.309  14.303  0.6205  0.2228 -0.7190
   94TCq2    O5 1441   3.871   3.294  14.410  0.3457 -0.3190  0.3056
   94TCq2    O6 1442   3.688   3.343  14.289 -0.3402 -0.0282  0.2522
   94TCq2    H2 1443   3.703   3.167  14.114 -0.0983 -0.3032  0.0631
   94TCq2    H3 1444   4.065   3.318  14.252 -0.5596  1.6518  0.3393
   94TCq2    H4 1445   4.053   3.113  13.883 -1.1894  1.7962 -0.5789
   95TMC2    C1 1446   4.133   3.933  16.237 -0.1883 -0.4902  0.1950
   95TMC2    C2 1447   4.205   3.902  16.350  0.3587 -0.1515  0.0316
   95TMC2    C3 1448   4.152   3.808  16.428  0.3947  0.6685 -0.0157
   95TMC2    C4 1449   4.010   3.876  16.220 -0.0307 -0.8278  0.2479
   95TMC2    C5 1450   3.963   3.773  16.298  0.0735  0.3849 -0.2286
   95TMC2    C6 1451   4.031   3.744  16.414 -0.4119 -0.1959 -0.5535
   95TMC2     C 1452   4.171   4.053  16.172 -0.4191 -0.1414 -0.2122
   95TMC2     O 1453   4.288   4.093  16.180 -0.7313  0.5645 -0.1443
   95TMC2     H 1454   4.304   3.946  16.357 -0.2253  1.1478  0.0880
   95TMC2    H1 1455   3.960   3.888  16.125  0.8136 -0.8526 -0.1907
   95TMC2    H2 1456   3.991   3.661  16.471 -0.1905  0.6647  0.8354
   95TMC2    C7 1457   3.841   3.703  16.266 -0.9382  0.4005  0.4329
   95TMC2    C8 1458   4.235   3.765  16.540  0.5153  0.6874 -0.4826
   95TMC2    O1 1459   3.753   3.767  16.212 -0.4572  0.1001 -0.0337
   95TMC2    O2 1460   4.356   3.755  16.531 -0.2037  0.1019  0.4455
   95TMC2    O5 1461   4.160   3.707  16.630 -0.1930  0.1681  0.4462
   95TMC2    H5 1462   4.064   3.725  16.625 -0.3949 -1.1837 -0.6322
   96MPD2     C 1463   4.045   4.509  15.975 -0.0620 -0.2076  0.7738
   96MPD2    C1 1464   4.169   4.445  15.983 -0.4058  0.9183 -0.3179
   96MPD2    C2 1465   4.179   4.316  16.034 -0.4213  0.0304  0.5152
   96MPD2    C3 1466   4.067   4.251  16.066  0.0367 -0.3858  0.6638
   96MPD2    C4 1467   3.942   4.312  16.044 -0.5024  0.0750 -0.0239
   96MPD2    C5 1468   3.933   4.440  16.001 -0.0756  0.0607  1.2808
   96MPD2     H 1469   4.272   4.261  16.048 -0.6590 -0.0288  1.8734
   96MPD2    H1 1470   3.850   4.261  16.069  0.3760 -0.2327  2.5306
   96MPD2    H2 1471   4.045   4.605  15.926 -2.0439 -1.6146 -1.9308
   96MPD2    H3 1472   3.836   4.485  15.980 -0.8127 -1.5113  1.3274
   96MPD2     N 1473   4.061   4.118  16.124  0.4757  0.4669  0.5078
   96MPD2    H5 1474   3.971   4.073  16.121  0.6219  0.2148 -0.2870
   96MPD2    N1 1475   4.288   4.519  15.941  0.3580  0.5295  0.3342
   96MPD2    H7 1476   4.276   4.616  15.916  0.1378  1.0719  2.5583
   97MPD2     C 1477   0.433   2.435   1.688  0.8440  0.5457 -0.4466
   97MPD2    C1 1478   0.564   2.396   1.694 -0.3888 -0.4303 -0.5749
   97MPD2    C2 1479   0.604   2.295   1.615 -0.5665  0.4098 -0.7000
   97MPD2    C3 1480   0.534   2.250   1.508  0.7348  0.2851  0.2346
   97MPD2    C4 1481   0.400   2.284   1.495 -0.0539 -0.5296 -0.0266
   97MPD2    C5 1482   0.351   2.371   1.593 -0.7724 -0.0084  0.5310
   97MPD2     H 1483   0.705   2.262   1.633 -0.3654  1.6149  0.4218
   97MPD2    H1 1484   0.329   2.243   1.423 -0.5746  4.6798 -2.4380
   97MPD2    H2 1485   0.390   2.515   1.747  2.5486  0.6475  0.6342
   97MPD2    H3 1486   0.245   2.389   1.587 -0.8680 -1.0976 -1.1169
   97MPD2     N 1487   0.579   2.149   1.428 -0.0732 -0.2416  0.4969
   97MPD2    H5 1488   0.522   2.121   1.348 -0.5270  0.1211  0.6921
   97MPD2    N1 1489   0.652   2.458   1.794  0.1851 -0.0783 -0.5867
   97MPD2    H7 1490   0.606   2.528   1.852  1.4965 -1.0511  1.6273
   98TCq2    C1 1491   0.707   2.098   1.428 -0.6139 -0.4210 -0.3283
   98TCq2    O2 1492   0.805   2.132   1.496 -0.2234  0.5724 -0.0892
   98TCq2    C2 1493   0.731   2.024   1.311 -0.5001  0.1024  0.6662
   98TCq2    C3 1494   0.631   1.939   1.253 -0.7405  0.2059 -0.3658
   98TCq2    C4 1495   0.652   1.901   1.125 -0.4767 -0.7512  0.8092
   98TCq2    C5 1496   0.769   1.928   1.061  0.0001  0.1801  0.4584
   98TCq2    C6 1497   0.866   2.003   1.114 -1.1038  0.6575  0.0906
   98TCq2    C7 1498   0.844   2.058   1.241  0.3241 -0.1249  0.3119
   98TCq2    C8 1499   0.988   2.039   1.050 -0.9640  0.3743 -0.3135
   98TCq2    O4 1500   1.080   2.087   1.115 -0.4253 -0.0843  0.0050
   98TCq2    C9 1501   0.550   1.830   1.053  0.0395 -0.7333  0.7240
   98TCq2    O5 1502   0.458   1.778   1.121  0.1678  0.2873 -0.1857
   98TCq2    O6 1503   0.589   1.799   0.936  1.1388 -0.0896 -0.3659
   98TCq2    H2 1504   0.543   1.915   1.310 -1.1912  1.5405 -0.4870
   98TCq2    H3 1505   0.793   1.882   0.966 -0.2458  0.0076  0.4794
   98TCq2    H4 1506   0.921   2.116   1.292  3.2006 -2.1165 -1.8325
   99MPD2     C 1507   4.540   0.732   1.564 -0.0583 -0.3616 -0.5976
   99MPD2    C1 1508   4.436   0.641   1.591  1.0409  0.4055 -0.0000
   99MPD2    C2 1509   4.445   0.521   1.525  0.3007 -0.1747 -0.8336
   99MPD2    C3 1510   4.551   0.488   1.452 -0.0770  0.3124  0.2424
   99MPD2    C4 1511   4.668   0.565   1.445  0.0050  1.0427 -0.2828
   99MPD2    C5 1512   4.650   0.694   1.492 -0.1429  0.2787 -0.1924
   99MPD2     H 1513   4.367   0.447   1.540 -0.2468  0.3485 -1.0840
   99MPD2    H1 1514   0.034   0.545   1.383 -0.7774 -1.4499 -0.5789
   99MPD2    H2 1515   4.537   0.832   1.605 -1.7111 -0.1289 -1.2674
   99MPD2    H3 1516   0.006   0.768   1.476  0.0384  0.6980  2.6119
   99MPD2     N 1517   4.547   0.360   1.389 -0.3529  0.2186 -0.2317
   99MPD2    H5 1518   4.457   0.313   1.400  0.3102 -1.3706 -1.6968
   99MPD2    N1 1519   4.320   0.668   1.663  0.8247  0.0799 -0.0497
   99MPD2    H7 1520   4.243   0.602   1.660  2.0670 -1.3279 -0.6769
  100TCq2    C1 1521   4.313   0.771   1.753 -0.3010 -0.3458 -0.2888
  100TCq2    O2 1522   4.389   0.855   1.801  0.4485 -0.3818 -0.1235
  100TCq2    C2 1523   4.189   0.758   1.832 -0.3902  0.1247  0.1769
  100TCq2    C3 1524   4.195   0.800   1.964  0.2332 -0.9724  1.1514
  100TCq2    C4 1525   4.087   0.777   2.041  0.0394 -0.0607 -0.8732
  100TCq2    C5 1526   3.971   0.734   1.989 -1.1175  0.1183 -0.2555
  100TCq2    C6 1527   3.968   0.688   1.860  0.6034 -0.4774  0.3927
  100TCq2    C7 1528   4.080   0.704   1.777 -0.4204 -0.1629  0.2358
  100TCq2    C8 1529   3.836   0.656   1.799 -0.0323  0.4401 -0.3085
  100TCq2    O4 1530   3.735   0.686   1.860 -0.0075  0.1705 -0.0374
  100TCq2    C9 1531   4.090   0.813   2.181  0.3528  0.0679  0.2348
  100TCq2    O5 1532   3.980   0.808   2.243 -0.1798 -0.0048  0.2396
  100TCq2    O6 1533   4.189   0.877   2.220 -0.7169 -0.2771  0.3855
  100TCq2    H2 1534   4.278   0.843   2.019  1.5462 -1.3423 -0.5257
  100TCq2    H3 1535   3.887   0.733   2.057 -1.3363  0.9275 -0.5143
  100TCq2    H4 1536   4.081   0.686   1.670  2.3708 -1.3624  0.4678
  101MPD2     C 1537   1.548   0.442  13.881  0.1172 -0.6075 -0.3285
  101MPD2    C1 1538   1.511   0.576  13.888  0.2923  0.0718 -0.5029
  101MPD2    C2 1539   1.377   0.598  13.910  0.4299 -0.5384  0.0767
  101MPD2    C3 1540   1.291   0.487  13.933  0.1272 -0.0406  0.2240
  101MPD2    C4 1541   1.335   0.355  13.924  0.5571 -0.7804  0.4939
  101MPD2    C5 1542   1.470   0.338  13.903  0.0482 -0.3998 -0.6566
  101MPD2     H 1543   1.338   0.698  13.922 -1.1985 -1.0147 -1.2549
  101MPD2    H1 1544   1.276   0.265  13.926 -0.7672  0.1009  1.4525
  101MPD2    H2 1545   1.654   0.422  13.868  0.5368  0.3052  1.6558
  101MPD2    H3 1546   1.510   0.239  13.921  1.2647  0.6458  2.3882
  101MPD2     N 1547   1.157   0.521  13.954  0.1348  0.1864  0.1046
  101MPD2    H5 1548   1.145   0.622  13.959  3.2132  0.5096  1.3397
  101MPD2    N1 1549   1.617   0.672  13.865  0.1774  0.0159 -0.1515
  101MPD2    H7 1550   1.705   0.635  13.831  1.2005  0.4341  1.9874
  102TCq2    C1 1551   1.735   0.998  13.436  0.3063  0.0142  0.3838
  102TCq2    O2 1552   1.835   1.008  13.367  0.6284 -0.4305 -0.3756
  102TCq2    C2 1553   1.765   0.937  13.571  0.7589  0.0562  0.2445
  102TCq2    C3 1554   1.894   0.923  13.607  0.7984  0.6422  0.6411
  102TCq2    C4 1555   1.924   0.870  13.731  0.6336 -0.1428 -0.0401
  102TCq2    C5 1556   1.825   0.835  13.817 -0.5826  0.2607 -0.1371
  102TCq2    C6 1557   1.699   0.865  13.781 -0.2189 -0.0529  0.1034
  102TCq2    C7 1558   1.662   0.911  13.658 -1.0441  0.1663  0.4581
  102TCq2    C8 1559   1.594   0.808  13.854  0.0736 -0.3425  0.1451
  102TCq2    O4 1560   1.480   0.861  13.856  0.1629 -0.2963 -0.5051
  102TCq2    C9 1561   2.063   0.834  13.760  0.0356  0.0302 -0.0751
  102TCq2    O5 1562   2.114   0.773  13.661  0.4400  0.4180  0.4696
  102TCq2    O6 1563   2.092   0.824  13.882 -0.0985 -0.1035 -0.6620
  102TCq2    H2 1564   1.968   0.926  13.528  0.2174  0.1272  0.0771
  102TCq2    H3 1565   1.843   0.777  13.907 -1.7295 -1.3388 -0.9355
  102TCq2    H4 1566   1.557   0.918  13.632 -1.7872 -3.5048  2.4462
  103TMC2    C1 1567   4.210   0.530  12.800  0.3086 -0.0703 -0.4037
  103TMC2    C2 1568   4.336   0.476  12.779 -0.8138  0.6768 -0.2461
  103TMC2    C3 1569   4.433   0.545  12.854  0.5564 -0.7882  0.2217
  103TMC2    C4 1570   4.172   0.634  12.888 -0.1237  0.0261  0.4937
  103TMC2    C5 1571   4.270   0.677  12.967  0.0940 -0.1578 -0.1423
  103TMC2    C6 1572   4.398   0.642  12.947  0.0111 -0.6484  0.1045
  103TMC2     C 1573   4.103   0.479  12.722  0.0855 -0.1218  0.4714
  103TMC2     O 1574   4.009   0.556  12.693  0.3778 -0.4406  0.1123
  103TMC2     H 1575   4.367   0.407  12.702 -1.6394  1.4066 -1.2384
  103TMC2    H1 1576   4.065   0.631  12.904  0.0070 -2.3113  0.9062
  103TMC2    H2 1577   4.478   0.668  13.016 -0.8736  2.7004 -0.1252
  103TMC2    C7 1578   4.245   0.764  13.081  0.0789 -0.0013 -0.3736
  103TMC2    C8 1579   4.563   0.480  12.859  0.4084  0.3521 -0.1653
  103TMC2    O1 1580   4.334   0.757  13.167  0.5209 -0.2030  0.2104
  103TMC2    O2 1581   4.570   0.365  12.819  0.0906 -0.6644 -0.0700
  103TMC2    O5 1582   4.667   0.564  12.868 -0.1546  0.4550 -0.1502
  103TMC2    H5 1583   4.635   0.653  12.891  0.1207  0.2361  1.0915
  104MPD2     C 1584   4.054   0.138  12.602 -0.2495 -0.3916 -0.3346
  104MPD2    C1 1585   4.028   0.266  12.618 -0.1511  0.2925  0.4132
  104MPD2    C2 1586   3.914   0.314  12.554 -0.4930  0.5511 -0.1367
  104MPD2    C3 1587   3.838   0.241  12.471  0.5639 -0.1023  0.4575
  104MPD2    C4 1588   3.848   0.102  12.474  0.6393 -0.3966  0.2401
  104MPD2    C5 1589   3.961   0.061  12.538  0.5332  0.1215 -0.4032
  104MPD2     H 1590   3.890   0.420  12.557  0.0066  0.5584  3.7060
  104MPD2    H1 1591   3.779   0.029  12.432 -1.8113  1.3607  1.2501
  104MPD2    H2 1592   4.148   0.104  12.645  0.8522  0.7674 -1.8552
  104MPD2    H3 1593   3.983   4.676  12.541  0.6278  0.1010 -1.8617
  104MPD2     N 1594   3.735   0.314  12.396  0.1361  0.5915  0.2747
  104MPD2    H5 1595   3.724   0.413  12.412  2.5996  0.8117  0.5466
  104MPD2    N1 1596   4.119   0.344  12.693  0.5459  0.6141 -0.5479
  104MPD2    H7 1597   4.197   0.296  12.737 -0.4074 -1.7546 -1.4335
  105MPD2     C 1598   0.904   0.052   0.234  0.8482  0.3766  0.5607
  105MPD2    C1 1599   0.787   0.102   0.203 -0.0651 -0.1155  0.1783
  105MPD2    C2 1600   0.723   0.189   0.290 -0.3989  0.0164  0.9292
  105MPD2    C3 1601   0.781   0.218   0.408  1.4099 -0.4309 -0.8765
  105MPD2    C4 1602   0.896   0.158   0.451 -0.0566 -0.5831  0.3410
  105MPD2    C5 1603   0.960   0.082   0.356  0.0946  0.3626  0.0841
  105MPD2     H 1604   0.634   0.241   0.255  0.7786  0.7243 -0.9616
  105MPD2    H1 1605   0.952   0.178   0.542  1.8437 -1.2581 -0.6629
  105MPD2    H2 1606   0.945   4.688   0.182  2.1410  0.9386  0.6594
  105MPD2    H3 1607   1.043   0.023   0.391  0.7998  1.2619 -0.0638
  105MPD2     N 1608   0.724   0.319   0.486 -0.3266 -0.1115  0.7988
  105MPD2    H5 1609   0.636   0.360   0.458  0.3983  1.3280  0.5882
  105MPD2    N1 1610   0.723   0.071   0.078  0.1288 -0.1605  0.0107
  105MPD2    H7 1611   0.642   0.128   0.058 -0.6529 -1.2614 -0.0073
  106TCq2    C1 1612   0.777   0.374   0.601  0.1507 -0.3234 -0.2109
  106TCq2    O2 1613   0.891   0.374   0.646  0.5085  0.3928 -0.1606
  106TCq2    C2 1614   0.671   0.466   0.644 -0.2350 -0.5485 -0.0205
  106TCq2    C3 1615   0.694   0.600   0.663 -0.9270  0.0446 -0.0948
  106TCq2    C4 1616   0.594   0.695   0.652  0.8388 -0.3939 -0.6451
  106TCq2    C5 1617   0.470   0.653   0.630  1.0580  0.2676  0.1154
  106TCq2    C6 1618   0.449   0.521   0.611 -0.7289 -0.4161  0.0778
  106TCq2    C7 1619   0.541   0.421   0.619  0.1849  0.0323 -1.1115
  106TCq2    C8 1620   0.314   0.469   0.576 -0.8065  0.1645 -0.4129
  106TCq2    O4 1621   0.314   0.385   0.486 -0.0043 -0.7065  0.2265
  106TCq2    C9 1622   0.623   0.836   0.678  0.2235 -0.3844  0.0317
  106TCq2    O5 1623   0.529   0.921   0.650 -0.0345 -0.5575  0.5721
  106TCq2    O6 1624   0.743   0.871   0.695 -0.2549  0.5056 -0.5450
  106TCq2    H2 1625   0.794   0.633   0.686 -0.7216 -0.7176  0.0682
  106TCq2    H3 1626   0.394   0.730   0.621  0.5162  0.0890  3.0739
  106TCq2    H4 1627   0.514   0.316   0.631 -0.3908  0.4588  1.4770
  107TMC2    C1 1628   1.508   4.330  12.009 -0.2229 -0.1215 -0.1993
  107TMC2    C2 1629   1.523   4.420  11.915 -0.1504  0.0740  0.0836
  107TMC2    C3 1630   1.551   4.382  11.789 -0.2674  0.3110 -0.1358
  107TMC2    C4 1631   1.541   4.201  11.984 -1.1567  0.1927 -0.0240
  107TMC2    C5 1632   1.581   4.161  11.858 -0.2286 -0.5332  0.8336
  107TMC2    C6 1633   1.579   4.250  11.754 -0.3805 -0.0999  0.1288
  107TMC2     C 1634   1.417   4.346  12.124 -0.8691 -0.7306  0.3812
  107TMC2     O 1635   1.402   4.254  12.208 -0.1726  0.2859  0.2526
  107TMC2     H 1636   1.508   4.526  11.937  0.7772  0.6392 -2.0110
  107TMC2    H1 1637   1.533   4.133  12.067 -1.8357 -0.9216 -1.0103
  107TMC2    H2 1638   1.594   4.221  11.651 -1.6108  1.8541 -0.5947
  107TMC2    C7 1639   1.670   4.053  11.847  0.1650 -0.0149 -0.4557
  107TMC2    C8 1640   1.571   4.479  11.688 -0.0365  0.2677  0.3671
  107TMC2    O1 1641   1.730   4.019  11.951 -0.0482  0.6412  0.6264
  107TMC2    O2 1642   1.599   4.592  11.713 -0.3803 -0.1963 -0.3746
  107TMC2    O5 1643   1.502   4.440  11.584  0.1542  0.0826 -0.1088
  107TMC2    H5 1644   1.442   4.364  11.602  1.2295 -1.3611 -2.5976
  108MPD2     C 1645   1.149   4.605  12.158  0.2956  0.0673  0.2468
  108MPD2    C1 1646   1.224   4.494  12.192 -0.4598 -0.7667 -0.1169
  108MPD2    C2 1647   1.202   4.428  12.313  0.4140 -0.1292 -0.1944
  108MPD2    C3 1648   1.079   4.459  12.380  0.6260 -0.4530 -0.2260
  108MPD2    C4 1649   0.998   4.561  12.341 -0.1198 -0.2934  0.0721
  108MPD2    C5 1650   1.038   4.632  12.230  0.1647  0.1733 -0.0757
  108MPD2     H 1651   1.266   4.345  12.343 -0.9888 -0.1940  2.6753
  108MPD2    H1 1652   0.899   4.582  12.381 -0.1321 -1.5941  0.7144
  108MPD2    H2 1653   1.169   4.665  12.070 -0.6748  0.6829  0.4431
  108MPD2    H3 1654   0.969   4.708  12.194 -0.4996  0.5399  2.0176
  108MPD2     N 1655   1.032   4.398  12.503 -0.0750 -0.4318 -0.1404
  108MPD2    H5 1656   0.942   4.435  12.532 -0.2790 -0.1782 -1.0906
  108MPD2    N1 1657   1.331   4.455  12.111  0.3668 -0.4737  0.6117
  108MPD2    H7 1658   1.341   4.508  12.025 -1.5647 -2.3798 -0.7891
  109MPD2     C 1659   4.529   2.257   1.682  0.0939  0.0878  0.2718
  109MPD2    C1 1660   4.655   2.255   1.736  0.4145 -0.2147  0.3845
  109MPD2    C2 1661   4.680   2.355   1.831 -0.3615 -0.3660  0.1630
  109MPD2    C3 1662   4.586   2.446   1.878  1.0429  0.4522  0.9399
  109MPD2    C4 1663   4.477   2.462   1.799  0.3268  0.0837 -0.7723
  109MPD2    C5 1664   4.449   2.364   1.707  0.0753 -0.3040  0.7979
  109MPD2     H 1665   0.042   2.335   1.897 -1.2424 -1.7798  0.8456
  109MPD2    H1 1666   4.416   2.552   1.801 -1.4814 -1.1743  1.1731
  109MPD2    H2 1667   4.506   2.186   1.603  0.2121 -0.7125  0.9629
  109MPD2    H3 1668   4.370   2.368   1.634  1.2225 -0.0589 -0.4251
  109MPD2     N 1669   4.611   2.514   1.996  0.1335 -0.5094  0.5409
  109MPD2    H5 1670   4.700   2.497   2.041  0.7844  0.3634 -0.4361
  109MPD2    N1 1671   0.028   2.153   1.703  0.1561  0.7809 -0.7094
  109MPD2    H7 1672   0.003   2.088   1.629  0.2342 -1.5024  1.2823
  110TCq2    C1 1673   4.514   2.587   2.067  0.4426  0.0258  0.5932
  110TCq2    O2 1674   4.395   2.597   2.039 -0.1315  0.1637 -0.0515
  110TCq2    C2 1675   4.572   2.656   2.185 -0.3086 -1.0041  0.7877
  110TCq2    C3 1676   4.486   2.703   2.283 -0.0554  0.0707  0.2719
  110TCq2    C4 1677   4.542   2.770   2.387 -0.5934 -0.1029 -0.0411
  110TCq2    C5 1678   4.674   2.799   2.395  0.3929  0.8347 -0.0378
  110TCq2    C6 1679   0.040   2.755   2.297  0.0947  0.2856  0.0009
  110TCq2    C7 1680   4.706   2.682   2.187 -0.8610 -0.2622 -1.6416
  110TCq2    C8 1681   0.185   2.759   2.294 -0.0323 -0.3198  0.0330
  110TCq2    O4 1682   0.239   2.680   2.213  0.0133 -0.2622  0.2436
  110TCq2    C9 1683   4.455   2.822   2.485  0.5559 -0.7294  0.2011
  110TCq2    O5 1684   4.513   2.853   2.590  0.0300 -0.1026  0.8402
  110TCq2    O6 1685   4.334   2.850   2.452  0.3484 -0.0547  0.0454
  110TCq2    H2 1686   4.379   2.683   2.280  0.0372 -0.6036  1.4142
  110TCq2    H3 1687   4.713   2.852   2.481  1.2158  0.2377 -0.0489
  110TCq2    H4 1688   0.052   2.643   2.110 -0.5996 -0.0694 -1.5132
  111TMC2    C1 1689   0.934   1.489  11.995 -0.4421  0.1791 -0.4718
  111TMC2    C2 1690   0.860   1.550  12.096 -0.0928  0.0126 -0.3110
  111TMC2    C3 1691   0.890   1.511  12.227  0.1615 -0.2833 -0.1294
  111TMC2    C4 1692   1.049   1.420  12.016 -0.5230 -0.0924  0.4217
  111TMC2    C5 1693   1.089   1.409  12.144 -0.1357  0.1755 -1.0564
  111TMC2    C6 1694   1.012   1.446  12.250  0.3021 -0.0400  0.1720
  111TMC2     C 1695   0.886   1.495  11.857  0.0177  0.0295  0.5168
  111TMC2     O 1696   0.966   1.487  11.764  0.1653 -0.3702 -0.1870
  111TMC2     H 1697   0.776   1.614  12.071 -0.1642 -0.3276 -0.9386
  111TMC2    H1 1698   1.107   1.380  11.933 -0.2954 -0.9987  1.0128
  111TMC2    H2 1699   1.045   1.425  12.351  0.8010  2.7553  0.5877
  111TMC2    C7 1700   1.218   1.354  12.183  0.6564 -0.7907  0.2448
  111TMC2    C8 1701   0.827   1.577  12.341  0.3792  0.1624 -0.4656
  111TMC2    O1 1702   1.225   1.267  12.272  0.2015  0.7106  0.2908
  111TMC2    O2 1703   0.789   1.692  12.329  0.2224 -0.4175 -0.0242
  111TMC2    O5 1704   0.815   1.499  12.445 -0.1513  0.7024  0.4612
  111TMC2    H5 1705   0.848   1.407  12.449 -1.1383  0.3682  1.1591
  112MPD2     C 1706   0.488   1.474  11.523  0.0052 -0.2156 -0.0774
  112MPD2    C1 1707   0.629   1.488  11.496 -0.5567 -0.0945  0.2993
  112MPD2    C2 1708   0.718   1.491  11.608 -0.4696 -0.0769  0.6008
  112MPD2    C3 1709   0.665   1.506  11.733 -0.5923  0.8230 -0.4517
  112MPD2    C4 1710   0.531   1.504  11.757  0.7562 -0.9640  0.1360
  112MPD2    C5 1711   0.445   1.479  11.653 -0.0704  0.4014 -0.6261
  112MPD2     H 1712   0.825   1.499  11.591 -0.2870 -1.4742  1.0792
  112MPD2    H1 1713   0.490   1.520  11.856  3.8041  2.2599  0.8789
  112MPD2    H2 1714   0.411   1.454  11.448 -1.0399 -0.0759  0.9534
  112MPD2    H3 1715   0.338   1.466  11.669  0.6363 -0.8982  3.0177
  112MPD2     N 1716   0.743   1.501  11.850 -0.5110 -0.5408  0.5672
  112MPD2    H5 1717   0.697   1.477  11.938 -0.0492  2.6395  1.6851
  112MPD2    N1 1718   0.686   1.477  11.370  0.4444  0.4864  0.3390
  112MPD2    H7 1719   0.787   1.473  11.361  0.2501  0.8194 -1.9778
  113MPD2     C 1720   3.786   4.257   0.700 -0.0623  0.6758 -0.4657
  113MPD2    C1 1721   3.672   4.335   0.702 -0.5116 -0.7271 -0.5614
  113MPD2    C2 1722   3.557   4.269   0.678 -0.9818 -0.5448  0.0030
  113MPD2    C3 1723   3.544   4.130   0.657  0.0193 -0.1975  0.4295
  113MPD2    C4 1724   3.658   4.057   0.662 -0.0252  0.8782  0.0036
  113MPD2    C5 1725   3.779   4.119   0.695  0.0681  0.4338 -0.4903
  113MPD2     H 1726   3.463   4.321   0.687 -0.3856  0.4877  0.2560
  113MPD2    H1 1727   3.653   3.950   0.647 -2.0441  0.5011  3.4098
  113MPD2    H2 1728   3.888   4.293   0.708 -1.2392  3.3304  2.4843
  113MPD2    H3 1729   3.863   4.050   0.700  1.7293  2.3332 -2.3078
  113MPD2     N 1730   3.421   4.061   0.642 -0.1915 -0.1839 -1.0402
  113MPD2    H5 1731   3.434   3.961   0.641  3.7377  0.3164 -0.2462
  113MPD2    N1 1732   3.665   4.478   0.707 -0.9599 -0.5233  0.5009
  113MPD2    H7 1733   3.578   4.524   0.682 -0.4634 -0.9895 -2.0906
  114TCq2    C1 1734   3.297   4.113   0.610 -0.7528  0.1837  0.5152
  114TCq2    O2 1735   3.264   4.234   0.593 -0.3626  0.1234  0.4804
  114TCq2    C2 1736   3.189   4.017   0.605  0.2207 -0.1309  0.3147
  114TCq2    C3 1737   3.074   4.044   0.547 -0.1310 -0.1457  0.1051
  114TCq2    C4 1738   2.973   3.947   0.557 -0.5830 -0.0285  0.3594
  114TCq2    C5 1739   2.990   3.832   0.623 -0.4924 -0.0759 -0.3462
  114TCq2    C6 1740   3.109   3.810   0.680 -0.8506 -0.0486 -0.2118
  114TCq2    C7 1741   3.212   3.900   0.673 -0.8962 -0.6683 -1.0944
  114TCq2    C8 1742   3.118   3.693   0.771  0.9041  0.3780  0.5253
  114TCq2    O4 1743   3.021   3.626   0.801  0.1095 -0.1056  0.2089
  114TCq2    C9 1744   2.844   3.966   0.499  0.2491 -0.1435  0.4480
  114TCq2    O5 1745   2.753   3.880   0.511  0.0812 -0.7270  0.3818
  114TCq2    O6 1746   2.828   4.066   0.426  0.0437  0.0057 -0.0953
  114TCq2    H2 1747   3.063   4.135   0.488 -1.8857 -0.5136 -0.1404
  114TCq2    H3 1748   2.909   3.761   0.636 -0.1065 -0.4193  0.2088
  114TCq2    H4 1749   3.298   3.886   0.739 -1.8664  1.7614  0.6752
  115TMC2    C1 1750   4.662   1.744  17.684 -0.6946 -0.1259  0.4797
  115TMC2    C2 1751   0.039   1.809   0.079 -0.2888 -0.1197 -0.0956
  115TMC2    C3 1752   0.048   1.947   0.073  0.1378 -0.6042  0.2216
  115TMC2    C4 1753   4.573   1.816  17.604 -0.6175  0.3328  0.3712
  115TMC2    C5 1754   4.570   1.954  17.625  0.2421 -0.5757 -0.6769
  115TMC2    C6 1755   4.669   2.022   0.012 -0.4009  0.3703  0.6091
  115TMC2     C 1756   4.637   1.599   0.004  0.4295 -0.2076 -0.0764
  115TMC2     O 1757   4.600   1.547  17.583  0.0102  0.0721  0.3094
  115TMC2     H 1758   0.117   1.747   0.122 -1.6736 -0.9346  1.2345
  115TMC2    H1 1759   4.504   1.771  17.535 -0.8204  1.6419 -0.2918
  115TMC2    H2 1760   4.653   2.123   0.048 -0.9297 -0.3013  2.2639
  115TMC2    C7 1761   4.486   2.022  17.535  0.7614  0.4239 -0.0090
  115TMC2    C8 1762   0.155   2.009   0.137  0.4223  0.3007 -0.1327
  115TMC2    O1 1763   4.389   1.961  17.487 -0.4589  0.3275 -0.2528
  115TMC2    O2 1764   0.220   1.949   0.223  0.1529  0.0244  0.0573
  115TMC2    O5 1765   0.182   2.128   0.088 -0.7530 -0.2372  0.1134
  115TMC2    H5 1766   0.122   2.176   0.026  1.8291  0.4158 -1.8938
  116MPD2     C 1767   4.718   1.129   0.214  0.1547 -0.1523  0.4702
  116MPD2    C1 1768   4.648   1.167   0.102  0.8446  0.1557 -0.6180
  116MPD2    C2 1769   4.644   1.299   0.058 -0.0650  0.4873 -0.2339
  116MPD2    C3 1770   4.702   1.398   0.139  0.6048 -0.7960 -0.0816
  116MPD2    C4 1771   0.054   1.364   0.249  0.2273 -0.5843 -0.2198
  116MPD2    C5 1772   0.064   1.228   0.282  0.2872  0.5899 -0.6876
  116MPD2     H 1773   4.572   1.327  17.668 -1.1767 -1.5336  0.0609
  116MPD2    H1 1774   0.109   1.438   0.306 -1.5252  1.1845 -0.8147
  116MPD2    H2 1775   4.718   1.029   0.255 -0.4097 -0.5296 -0.4387
  116MPD2    H3 1776   0.124   1.199   0.367 -0.4222 -2.0017 -1.0920
  116MPD2     N 1777   4.684   1.535   0.117  0.0732 -0.1017  0.0310
  116MPD2    H5 1778   4.717   1.599   0.189 -2.0576  3.0530 -1.7775
  116MPD2    N1 1779   4.567   1.077   0.021 -0.6627  0.8640  0.0540
  116MPD2    H7 1780   4.523   1.106  17.620 -1.2616  0.3073  0.1785
  117TMC2    C1 1781   3.260   3.650  13.535  0.1257  0.6234 -0.4680
  117TMC2    C2 1782   3.310   3.532  13.486  0.3211  0.6132  0.5119
  117TMC2    C3 1783   3.442   3.497  13.507  0.7101 -0.4807 -0.4271
  117TMC2    C4 1784   3.343   3.736  13.605  0.4605 -0.2812  0.2765
  117TMC2    C5 1785   3.472   3.695  13.638  0.3025  0.4871  0.3407
  117TMC2    C6 1786   3.521   3.574  13.588  0.0725 -0.3134 -0.0248
  117TMC2     C 1787   3.128   3.687  13.496 -0.1496  0.7098 -0.0609
  117TMC2     O 1788   3.081   3.614  13.410 -0.2734  0.3107 -0.0408
  117TMC2     H 1789   3.250   3.485  13.409  1.8540 -0.8606  0.2252
  117TMC2    H1 1790   3.311   3.839  13.618  0.7150 -0.3805  1.6984
  117TMC2    H2 1791   3.626   3.556  13.606  0.2784  0.6368 -0.3296
  117TMC2    C7 1792   3.566   3.773  13.711  0.1701 -0.1779 -0.1391
  117TMC2    C8 1793   3.501   3.390  13.432 -0.3829 -0.3157  0.8446
  117TMC2    O1 1794   3.679   3.732  13.733  0.3632  0.1977 -0.3769
  117TMC2    O2 1795   3.618   3.367  13.422  0.3057 -0.5812 -0.5388
  117TMC2    O5 1796   3.402   3.299  13.426  0.1000  0.5477  0.1700
  117TMC2    H5 1797   3.340   3.321  13.499  0.5321  0.8816  0.4349
  118MPD2     C 1798   3.501   4.070  13.910 -0.5152  0.0176  0.1071
  118MPD2    C1 1799   3.577   3.981  13.847 -0.0258 -0.3905 -0.3403
  118MPD2    C2 1800   3.715   3.997  13.848  1.0228  0.2107 -0.3145
  118MPD2    C3 1801   3.777   4.096  13.926  0.6556 -0.5795  1.1441
  118MPD2    C4 1802   3.699   4.180  13.999  0.2980 -0.4348  0.4372
  118MPD2    C5 1803   3.563   4.170  13.985 -0.6984  0.3491  0.2072
  118MPD2     H 1804   3.769   3.930  13.782 -1.9083 -3.5245  1.0483
  118MPD2    H1 1805   3.739   4.255  14.067 -0.5728 -0.6740  1.2335
  118MPD2    H2 1806   3.393   4.065  13.919 -0.2880  0.2617  2.8974
  118MPD2    H3 1807   3.497   4.232  14.044  1.3074  1.8592  0.8449
  118MPD2     N 1808   3.919   4.090  13.944  0.0505  0.4094 -0.0122
  118MPD2    H5 1809   3.964   4.159  14.004  0.8291 -0.0073 -0.1223
  118MPD2    N1 1810   3.506   3.878  13.779  0.6460  0.1643  1.1933
  118MPD2    H7 1811   3.405   3.884  13.784  0.5497 -0.5650  0.0346
  119MPD2     C 1812   2.296   0.104  14.207  0.2385 -0.2786 -0.3453
  119MPD2    C1 1813   2.165   0.137  14.220  0.3182  0.8142 -0.0392
  119MPD2    C2 1814   2.085   0.137  14.104 -0.1764  0.0248  0.2344
  119MPD2    C3 1815   2.136   0.090  13.984 -0.5260  0.2299  0.1392
  119MPD2    C4 1816   2.269   0.057  13.971 -0.7605  0.4820 -0.0817
  119MPD2    C5 1817   2.348   0.071  14.083 -0.2146 -0.3164  0.2643
  119MPD2     H 1818   1.984   0.170  14.125 -0.5679 -2.1239  1.7922
  119MPD2    H1 1819   2.313   0.028  13.877  1.3505  3.0035  0.1278
  119MPD2    H2 1820   2.361   0.111  14.294 -1.0598  1.5785  0.4791
  119MPD2    H3 1821   2.451   0.037  14.077  0.0926  0.7199 -0.2974
  119MPD2     N 1822   2.059   0.093  13.871 -0.6424 -0.1006  0.2623
  119MPD2    H5 1823   2.101   0.061  13.784 -0.7174 -1.2160  0.6274
  119MPD2    N1 1824   2.119   0.169  14.353 -0.3528  0.5687  0.5130
  119MPD2    H7 1825   2.190   0.195  14.421 -0.1081 -1.3891  1.0035
  120TCq2    C1 1826   1.919   0.120  13.872 -0.0170 -0.1389  0.3288
  120TCq2    O2 1827   1.843   0.154  13.960  0.0299  0.2957 -0.7330
  120TCq2    C2 1828   1.845   0.080  13.752  0.1354  0.3793  0.0863
  120TCq2    C3 1829   1.914   0.028  13.642  0.1617 -0.6358  0.1676
  120TCq2    C4 1830   1.854   4.653  13.563  0.1847 -0.8108 -0.1559
  120TCq2    C5 1831   1.720   4.620  13.587 -0.7849  0.8785 -0.8131
  120TCq2    C6 1832   1.656   4.678  13.697  0.4826 -0.1254 -0.0174
  120TCq2    C7 1833   1.717   0.042  13.783 -0.3916 -0.2944  1.0858
  120TCq2    C8 1834   1.522   4.634  13.724  0.5900 -0.2397 -0.2675
  120TCq2    O4 1835   1.459   4.597  13.625 -0.1513  0.2306 -0.2597
  120TCq2    C9 1836   1.923   4.596  13.453 -0.9981 -0.0042  0.3137
  120TCq2    O5 1837   1.861   4.500  13.391  0.1841  0.4780  1.0238
  120TCq2    O6 1838   2.048   4.614  13.452 -0.6444 -0.4085 -0.0108
  120TCq2    H2 1839   2.015   0.057  13.615  0.4316  0.7610  2.6984
  120TCq2    H3 1840   1.669   4.546  13.527  1.7241 -1.0135 -0.5943
  120TCq2    H4 1841   1.657   0.091  13.859 -1.6407  0.9576 -0.7239
  121TMC2    C1 1842   3.277   1.644  14.324  0.5722 -0.0871  0.4550
  121TMC2    C2 1843   3.255   1.526  14.395 -0.0518  0.1459  0.4706
  121TMC2    C3 1844   3.127   1.465  14.384 -0.6353 -0.2282 -0.1585
  121TMC2    C4 1845   3.174   1.706  14.256 -0.2934  0.0447 -0.3367
  121TMC2    C5 1846   3.049   1.653  14.260 -0.3843  0.0267  0.2365
  121TMC2    C6 1847   3.028   1.532  14.319 -0.0235 -0.4234 -0.8438
  121TMC2     C 1848   3.413   1.699  14.339 -0.1320 -0.3855 -0.5061
  121TMC2     O 1849   3.481   1.671  14.440  0.3736 -0.1091  0.2736
  121TMC2     H 1850   3.333   1.489  14.462 -0.8400  0.8952  1.8126
  121TMC2    H1 1851   3.191   1.798  14.201  3.2146  1.1931  2.6593
  121TMC2    H2 1852   2.928   1.488  14.319 -0.2732  0.1445  2.7264
  121TMC2    C7 1853   2.961   1.702  14.158 -0.1192  0.3399 -0.7382
  121TMC2    C8 1854   3.118   1.320  14.402  0.0097  0.1069 -0.1611
  121TMC2    O1 1855   2.995   1.803  14.097  0.0973 -0.1419 -0.7960
  121TMC2    O2 1856   3.010   1.272  14.372  0.0606 -0.0442 -0.1343
  121TMC2    O5 1857   3.233   1.257  14.433  0.1183  0.1526  0.0411
  121TMC2    H5 1858   3.305   1.306  14.477  0.7748 -0.1076 -0.7420
  122MPD2     C 1859   3.667   1.857  14.285 -0.4522 -0.4834 -0.6189
  122MPD2    C1 1860   3.567   1.840  14.196 -0.5446 -0.0108  0.5166
  122MPD2    C2 1861   3.595   1.860  14.064 -0.4679 -0.2738  0.0254
  122MPD2    C3 1862   3.707   1.936  14.027 -0.3688  0.2881 -0.1277
  122MPD2    C4 1863   3.803   1.973  14.119 -0.3312  0.1086  0.1564
  122MPD2    C5 1864   3.784   1.915  14.245 -0.3880 -0.2661 -0.1595
  122MPD2     H 1865   3.514   1.848  13.993  0.2236 -0.8551 -0.6655
  122MPD2    H1 1866   3.902   2.011  14.095  0.1020 -0.2382  1.3854
  122MPD2    H2 1867   3.675   1.807  14.381  2.3564 -0.4819 -0.8567
  122MPD2    H3 1868   3.862   1.934  14.318  0.0353  0.2708 -0.7563
  122MPD2     N 1869   3.732   1.974  13.894 -0.4638 -0.5103  0.2443
  122MPD2    H5 1870   3.821   2.021  13.879 -0.7469  0.0913  0.4281
  122MPD2    N1 1871   3.445   1.769  14.224 -0.6035 -0.2401  0.4935
  122MPD2    H7 1872   3.386   1.764  14.141 -0.8497 -0.7609  0.7004
  123MPD2     C 1873   1.242   3.739   9.600 -0.4908 -0.2557  0.0210
  123MPD2    C1 1874   1.336   3.755   9.701  0.0120  1.0612  0.2174
  123MPD2    C2 1875   1.466   3.746   9.657 -0.0528  0.5484  0.2813
  123MPD2    C3 1876   1.495   3.710   9.525 -0.2983  1.1779  0.1885
  123MPD2    C4 1877   1.401   3.679   9.429 -0.4301 -0.3126 -0.7949
  123MPD2    C5 1878   1.272   3.701   9.471  0.6687  0.2945  0.1021
  123MPD2     H 1879   1.552   3.764   9.719  1.1469 -0.4293 -1.0934
  123MPD2    H1 1880   1.415   3.657   9.324 -3.5904 -1.9423 -0.8856
  123MPD2    H2 1881   1.138   3.741   9.629 -0.2441  2.0141  0.7841
  123MPD2    H3 1882   1.196   3.676   9.398 -0.2776  2.2814  0.3953
  123MPD2     N 1883   1.636   3.696   9.497  0.0600  0.1243  0.2663
  123MPD2    H5 1884   1.701   3.738   9.563 -0.0213  1.4115 -0.4740
  123MPD2    N1 1885   1.302   3.793   9.831  0.1069  0.2874 -0.5067
  123MPD2    H7 1886   1.204   3.818   9.832  0.0033  0.0330 -2.6271
  124TCq2    C1 1887   1.687   3.647   9.376 -0.9187  0.0683 -0.1392
  124TCq2    O2 1888   1.637   3.597   9.277 -0.1905 -0.4908 -0.2788
  124TCq2    C2 1889   1.830   3.643   9.371  0.7904  0.1559 -0.6248
  124TCq2    C3 1890   1.884   3.573   9.263  0.0599 -0.4087 -0.3293
  124TCq2    C4 1891   2.014   3.550   9.260  0.0138 -0.4119  0.4724
  124TCq2    C5 1892   2.093   3.596   9.362 -0.4565 -0.9061  0.2232
  124TCq2    C6 1893   2.040   3.670   9.464 -1.2842  0.5939  0.0856
  124TCq2    C7 1894   1.907   3.695   9.471 -0.1103 -0.6706  0.1045
  124TCq2    C8 1895   2.131   3.702   9.572  0.1746 -0.3047  0.1234
  124TCq2    O4 1896   2.082   3.709   9.686 -0.1691 -0.3794  0.2672
  124TCq2    C9 1897   2.067   3.485   9.144 -0.1776 -0.6588  0.2019
  124TCq2    O5 1898   1.990   3.430   9.061 -0.6314  0.0663 -0.3918
  124TCq2    O6 1899   2.193   3.496   9.131 -0.0582  0.1700  0.1564
  124TCq2    H2 1900   1.822   3.525   9.187  1.7756 -0.6870 -1.5434
  124TCq2    H3 1901   2.198   3.568   9.359 -0.6212 -1.1090 -3.6228
  124TCq2    H4 1902   1.870   3.751   9.556  2.8964  0.3204  0.7766
  125TMC2    C1 1903   2.341   0.976   9.618  0.1683 -0.5724  0.0824
  125TMC2    C2 1904   2.357   0.943   9.490 -0.0673  0.0473 -0.0886
  125TMC2    C3 1905   2.483   0.920   9.441  0.4655  0.8064 -0.1348
  125TMC2    C4 1906   2.446   0.976   9.703  0.2065 -0.4199  0.4251
  125TMC2    C5 1907   2.570   0.970   9.646 -0.2138 -0.3705  0.1274
  125TMC2    C6 1908   2.597   0.940   9.515 -0.3117  0.5576  0.6901
  125TMC2     C 1909   2.202   1.020   9.658 -0.6175  0.0856 -0.0366
  125TMC2     O 1910   2.110   0.985   9.583 -0.0454  0.5147 -0.1243
  125TMC2     H 1911   2.273   0.940   9.422 -0.0295  0.6534 -0.1645
  125TMC2    H1 1912   2.436   0.987   9.810 -2.0353  1.6057  0.0025
  125TMC2    H2 1913   2.689   0.951   9.459 -2.2553 -1.5679 -2.9479
  125TMC2    C7 1914   2.684   0.969   9.737  0.3870 -0.1879 -0.4797
  125TMC2    C8 1915   2.485   0.941   9.293 -0.2415  0.9475  0.0862
  125TMC2    O1 1916   2.668   1.029   9.844 -0.3790  0.2746  0.2387
  125TMC2    O2 1917   2.400   1.006   9.237  0.4328  0.5500 -0.3019
  125TMC2    O5 1918   2.603   0.899   9.242 -0.4120 -0.0697  0.2477
  125TMC2    H5 1919   2.642   0.831   9.301  1.2893  0.4143 -0.3168
  126MPD1     C 1920   1.863   1.280   9.932  0.2494  0.3606 -0.0070
  126MPD1    C1 1921   1.989   1.288   9.992 -0.2014  0.1988  0.7778
  126MPD1    C2 1922   2.098   1.227   9.937 -0.3547  0.2045 -0.2876
  126MPD1    C3 1923   2.079   1.145   9.826 -0.9476  0.0244  0.7410
  126MPD1    C4 1924   1.952   1.129   9.774 -0.5193  0.4091 -0.3050
  126MPD1    C5 1925   1.840   1.196   9.827  0.3021 -0.2100 -0.3252
  126MPD1     H 1926   2.198   1.247   9.972 -0.8868  0.3734  1.1517
  126MPD1    H1 1927   1.923   1.077   9.684  0.0744 -1.2498  0.4596
  126MPD1    H2 1928   1.778   1.329   9.978 -1.0793 -0.7854 -1.2438
  126MPD1    H3 1929   1.737   1.181   9.796 -0.2771  0.5208  1.2708
  126MPD1     N 1930   2.198   1.086   9.778  0.0034  0.1088 -0.0646
  126MPD1    H5 1931   2.284   1.095   9.831  1.1013  0.4634 -1.9205
  126MPD1    N1 1932   2.011   1.365  10.105  0.4263  0.0249 -0.2056
  126MPD1    H6 1933   2.077   1.329  10.174  0.7723 -0.0020 -0.5503
  126MPD1    H7 1934   1.927   1.382  10.160  0.9169  1.1876  0.1807
  127MPD2     C 1935   4.100   4.306   9.351  0.5519 -0.5342 -0.1134
  127MPD2    C1 1936   4.035   4.407   9.422  0.1684 -0.3193  0.3685
  127MPD2    C2 1937   4.108   4.525   9.445 -0.3285  0.0013 -0.3916
  127MPD2    C3 1938   4.233   4.549   9.398  0.4998  0.5011  0.0365
  127MPD2    C4 1939   4.289   4.446   9.320  0.4413 -0.2488 -0.3543
  127MPD2    C5 1940   4.226   4.323   9.302  0.5172 -0.0415  0.3578
  127MPD2     H 1941   4.072   4.612   9.500  0.3197 -0.4565  0.7502
  127MPD2    H1 1942   4.394   4.456   9.295  0.8008 -1.4772  0.6686
  127MPD2    H2 1943   4.062   4.206   9.332 -0.1882 -0.3563  0.4005
  127MPD2    H3 1944   4.269   4.239   9.249  1.7491  0.2262  0.9404
  127MPD2     N 1945   4.305   4.666   9.435 -0.1468 -0.1030 -0.1020
  127MPD2    H5 1946   4.247   0.012   9.485  0.6374 -0.5500  1.4124
  127MPD2    N1 1947   3.905   4.381   9.469 -0.3014  0.2493  0.1995
  127MPD2    H7 1948   3.872   4.290   9.440  0.1355  0.4024 -0.7813
  128TCq2    C1 1949   3.830   4.466   9.550 -0.0534 -0.2915  0.0550
  128TCq2    O2 1950   3.862   4.567   9.616 -0.6620  0.2023 -0.5373
  128TCq2    C2 1951   3.692   4.421   9.565  0.2450  0.2970 -0.8341
  128TCq2    C3 1952   3.613   4.467   9.673 -0.8767 -0.4013  0.1657
  128TCq2    C4 1953   3.477   4.437   9.674 -0.5614 -0.5775  0.2654
  128TCq2    C5 1954   3.419   4.365   9.577 -0.0476  0.7067  0.5100
  128TCq2    C6 1955   3.503   4.301   9.487 -0.7088  0.5925 -0.5188
  128TCq2    C7 1956   3.635   4.336   9.477  0.1330 -0.9889 -0.4496
  128TCq2    C8 1957   3.437   4.234   9.372 -0.7028  0.1633 -0.1185
  128TCq2    O4 1958   3.488   4.251   9.262  0.0383  0.3769 -0.1477
  128TCq2    C9 1959   3.407   4.489   9.784 -0.1291 -0.1723 -0.5476
  128TCq2    O5 1960   3.457   4.560   9.871  0.2078 -0.3868  0.6148
  128TCq2    O6 1961   3.287   4.455   9.797  0.0034 -0.0656  0.3600
  128TCq2    H2 1962   3.658   4.530   9.749  1.0979  0.2679 -1.5649
  128TCq2    H3 1963   3.312   4.348   9.584  0.0528  0.6235  1.8511
  128TCq2    H4 1964   3.692   4.294   9.395 -0.4977 -1.1574 -0.7954
  129MPD2     C 1965   0.939   1.836   2.360 -0.0204  0.3194  0.4057
  129MPD2    C1 1966   0.881   1.889   2.244  0.5803 -0.1757  0.3278
  129MPD2    C2 1967   0.959   1.884   2.127  0.6072  0.0671  0.1454
  129MPD2    C3 1968   1.092   1.840   2.120  0.4679 -0.0780  0.3318
  129MPD2    C4 1969   1.144   1.786   2.234 -0.2605  0.3870  0.0290
  129MPD2    C5 1970   1.068   1.789   2.354 -0.2635 -0.1010  0.7401
  129MPD2     H 1971   0.910   1.921   2.037  0.7762 -0.7078 -0.2656
  129MPD2    H1 1972   1.242   1.740   2.241 -1.2786 -1.5192  1.6654
  129MPD2    H2 1973   0.896   1.833   2.459  0.7157  0.1110  0.7122
  129MPD2    H3 1974   1.120   1.774   2.448  0.9518 -0.3700  0.0279
  129MPD2     N 1975   1.158   1.855   2.001  0.8584  0.4436 -0.0499
  129MPD2    H5 1976   1.098   1.893   1.928  0.1514 -0.4921  0.0508
  129MPD2    N1 1977   0.750   1.951   2.249  0.4925 -0.4514 -0.3083
  129MPD2    H7 1978   0.715   1.995   2.164 -0.5527 -1.4840 -0.4109
  130TCq2    C1 1979   0.664   1.974   2.353 -0.6543 -0.2165  0.9636
  130TCq2    O2 1980   0.676   1.919   2.464  0.1119 -0.2016  1.0572
  130TCq2    C2 1981   0.546   2.050   2.320 -0.3919  0.3851  0.1383
  130TCq2    C3 1982   0.487   2.101   2.434  0.9758  0.1076 -0.3150
  130TCq2    C4 1983   0.355   2.124   2.437  0.3469  0.9321  0.3073
  130TCq2    C5 1984   0.273   2.098   2.326  0.1183 -0.4621  0.9364
  130TCq2    C6 1985   0.330   2.040   2.218  0.8183 -0.4191  0.3097
  130TCq2    C7 1986   0.471   2.024   2.207  0.6017 -0.0454 -0.4153
  130TCq2    C8 1987   0.244   1.983   2.118 -0.1814  0.8865 -0.0659
  130TCq2    O4 1988   0.303   1.922   2.030 -0.1358  0.3639  0.4669
  130TCq2    C9 1989   0.291   2.156   2.559 -0.8913  0.0252 -0.0794
  130TCq2    O5 1990   0.373   2.193   2.648 -0.1850  0.2972 -0.3401
  130TCq2    O6 1991   0.166   2.150   2.567  0.0314 -0.7415  0.7365
  130TCq2    H2 1992   0.544   2.088   2.525  0.8618  1.3562 -0.0628
  130TCq2    H3 1993   0.166   2.110   2.339  0.1296 -0.0830  0.6803
  130TCq2    H4 1994   0.516   1.969   2.125  3.0426  0.7359  0.3910
  131MPD2     C 1995   1.918   4.295  10.446  0.1375  0.3873 -0.0254
  131MPD2    C1 1996   1.936   4.234  10.323 -0.1035  0.3356  0.3037
  131MPD2    C2 1997   1.830   4.150  10.280  0.3849 -0.7547  0.6724
  131MPD2    C3 1998   1.708   4.151  10.350 -0.3732 -1.0286  0.5127
  131MPD2    C4 1999   1.701   4.212  10.474 -0.3331  0.2929  0.5710
  131MPD2    C5 2000   1.803   4.283  10.514  0.0965  0.4627 -0.1578
  131MPD2     H 2001   1.827   4.107  10.181 -2.2686 -0.4806  0.6347
  131MPD2    H1 2002   1.611   4.211  10.535  1.2768 -2.5009  2.9075
  131MPD2    H2 2003   1.995   4.346  10.502  0.6310 -1.6555  1.1508
  131MPD2    H3 2004   1.804   4.330  10.612 -2.6973  1.1666 -0.4837
  131MPD2     N 2005   1.598   4.094  10.285 -0.8571  0.2623 -0.3428
  131MPD2    H5 2006   1.607   4.086  10.185 -1.6406 -0.1236 -0.3842
  131MPD2    N1 2007   2.053   4.244  10.249  0.8244  0.3157 -0.3222
  131MPD2    H7 2008   2.124   4.295  10.301 -0.2398  0.3507  1.0989
  132TCq2    C1 2009   2.376   4.247   9.771 -0.5286 -0.5821  0.0757
  132TCq2    O2 2010   2.313   4.188   9.688  0.2926 -0.0105  0.1606
  132TCq2    C2 2011   2.362   4.202   9.907  0.1791 -0.3109 -0.0077
  132TCq2    C3 2012   2.462   4.245   9.999 -0.0256 -0.2668  0.5377
  132TCq2    C4 2013   2.429   4.244  10.134 -0.4185  0.6019  0.2638
  132TCq2    C5 2014   2.310   4.209  10.185 -0.6298  0.8989  0.2373
  132TCq2    C6 2015   2.213   4.187  10.095  0.0963 -0.1144 -0.7672
  132TCq2    C7 2016   2.237   4.181   9.957  0.2172  0.0448 -0.7123
  132TCq2    C8 2017   2.079   4.180  10.137  0.3674  0.0313 -0.5074
  132TCq2    O4 2018   2.001   4.136  10.055 -0.5267  0.0256  0.3479
  132TCq2    C9 2019   2.529   4.293  10.227  0.0834  0.1096  0.1235
  132TCq2    O5 2020   2.477   4.314  10.345  0.6041 -0.2072 -0.5292
  132TCq2    O6 2021   2.638   4.326  10.187  0.2810 -0.3697  0.2975
  132TCq2    H2 2022   2.565   4.261   9.970 -0.7346  1.3647 -1.0658
  132TCq2    H3 2023   2.290   4.206  10.291 -1.2747  0.4114  0.1066
  132TCq2    H4 2024   2.159   4.185   9.881 -0.1214  0.5403 -0.3403
  133MPD2     C 2025   0.588   0.967  10.231  0.0597  0.0808  0.5480
  133MPD2    C1 2026   0.493   1.008  10.140  0.0175 -0.0395 -0.6365
  133MPD2    C2 2027   0.443   0.915  10.049 -0.5761 -0.1358  0.0610
  133MPD2    C3 2028   0.479   0.781  10.043 -0.0638 -0.0641 -0.7347
  133MPD2    C4 2029   0.579   0.741  10.134  0.2926  0.7889  0.0560
  133MPD2    C5 2030   0.624   0.831  10.231  0.1523 -0.8114  0.1824
  133MPD2     H 2031   0.386   0.949   9.963  0.8633  1.5182 -0.2439
  133MPD2    H1 2032   0.615   0.639  10.146  0.8827  0.7761 -1.7357
  133MPD2    H2 2033   0.628   1.034  10.306 -0.9731 -0.7841  1.8654
  133MPD2    H3 2034   0.694   0.794  10.304  0.5600 -0.6488 -0.1278
  133MPD2     N 2035   0.432   0.696   9.938 -0.1112 -0.1408 -0.0479
  133MPD2    H5 2036   0.489   0.618   9.907 -0.1907 -0.7595  1.3703
  133MPD2    N1 2037   0.474   1.148  10.117  0.1276  0.2249 -0.5342
  133MPD2    H7 2038   0.508   1.207  10.193 -0.6600  0.8904 -0.6913
  134TCq2    C1 2039   0.421   1.210  10.004 -0.3484  0.3958 -0.3697
  134TCq2    O2 2040   0.392   1.155   9.899  0.1315 -0.8518  0.4836
  134TCq2    C2 2041   0.406   1.356  10.006  0.8431 -0.0499  0.3201
  134TCq2    C3 2042   0.368   1.410   9.888 -0.0751  0.0023 -0.1520
  134TCq2    C4 2043   0.368   1.550   9.887  0.1781  0.0236 -0.5128
  134TCq2    C5 2044   0.402   1.624   9.992  0.1241 -0.4987  0.6847
  134TCq2    C6 2045   0.434   1.561  10.111  0.0809  0.4865 -1.0802
  134TCq2    C7 2046   0.437   1.428  10.115  0.0418 -0.2198 -0.1370
  134TCq2    C8 2047   0.450   1.630  10.234  0.2792  0.1138  0.1497
  134TCq2    O4 2048   0.501   1.562  10.327  0.2487 -0.3238  0.4433
  134TCq2    C9 2049   0.336   1.620   9.762  0.3465  0.5625  0.3539
  134TCq2    O5 2050   0.292   1.541   9.672  0.0669  0.5323  0.1536
  134TCq2    O6 2051   0.290   1.738   9.777 -0.0993 -0.0104 -0.0065
  134TCq2    H2 2052   0.334   1.350   9.805  0.3562 -2.5188  1.4854
  134TCq2    H3 2053   0.423   1.730   9.982  2.0968 -0.8870  0.6589
  134TCq2    H4 2054   0.449   1.377  10.211 -0.3718  0.8632  0.4881
  135MPD2     C 2055   3.562   1.318  10.225  0.2207  0.0823  0.0789
  135MPD2    C1 2056   3.507   1.343  10.100 -0.0562  0.1524  0.1338
  135MPD2    C2 2057   3.574   1.296   9.990 -0.7312 -0.0499 -0.0450
  135MPD2    C3 2058   3.691   1.222  10.006  0.6354 -0.1429  0.8050
  135MPD2    C4 2059   3.754   1.210  10.125 -0.3555 -0.3794  0.0612
  135MPD2    C5 2060   3.689   1.262  10.236  0.5473  0.4496  0.8657
  135MPD2     H 2061   3.540   1.319   9.889 -1.2458 -0.8706 -0.0569
  135MPD2    H1 2062   3.848   1.157  10.134 -0.2543 -0.1363  0.4112
  135MPD2    H2 2063   3.528   1.368  10.316 -0.5697  1.6775 -1.0994
  135MPD2    H3 2064   3.736   1.282  10.332 -0.9926 -0.4489  1.8063
  135MPD2     N 2065   3.745   1.147   9.901  0.4711  0.0451 -0.4987
  135MPD2    H5 2066   3.836   1.105   9.918  0.8724  2.2556  2.7822
  135MPD2    N1 2067   3.386   1.419  10.069  0.1551 -0.3809 -0.2807
  135MPD2    H7 2068   3.362   1.436   9.972 -1.4563 -1.6683 -0.1092
  136TCq2    C1 2069   3.287   1.461  10.155  0.1315 -0.2294  0.4321
  136TCq2    O2 2070   3.282   1.446  10.277 -0.0283  0.1699  0.4093
  136TCq2    C2 2071   3.201   1.560  10.080  0.0982 -0.0968  0.0030
  136TCq2    C3 2072   3.260   1.623   9.972 -0.2294  0.3407 -0.3239
  136TCq2    C4 2073   3.173   1.701   9.896  0.0075  0.2632  0.1389
  136TCq2    C5 2074   3.037   1.707   9.918  0.2827 -0.5872 -0.3221
  136TCq2    C6 2075   2.987   1.627  10.023  0.1411 -0.3661 -0.1223
  136TCq2    C7 2076   3.065   1.562  10.114  0.4549  0.3272  0.4870
  136TCq2    C8 2077   2.852   1.644  10.070 -0.0528  0.0632  0.4666
  136TCq2    O4 2078   2.798   1.738  10.010 -0.0183 -0.0626  0.2819
  136TCq2    C9 2079   3.234   1.772   9.787 -0.2845  0.2451  0.4140
  136TCq2    O5 2080   3.358   1.752   9.773 -0.1807  0.0899 -0.4970
  136TCq2    O6 2081   3.176   1.868   9.731  0.2423 -0.2792 -0.2568
  136TCq2    H2 2082   3.367   1.628   9.953 -0.5411  2.0100 -1.7143
  136TCq2    H3 2083   2.969   1.765   9.857 -0.9801 -0.4197  1.2626
  136TCq2    H4 2084   3.020   1.502  10.191 -1.4931 -0.1527 -1.0207
  137MPD2     C 2085   3.963   0.924  10.316 -0.6601  0.2053 -0.3418
  137MPD2    C1 2086   3.871   0.835  10.279  0.0123  0.0352 -0.4983
  137MPD2    C2 2087   3.744   0.843  10.332  0.1425 -0.3944 -0.8081
  137MPD2    C3 2088   3.705   0.938  10.419  0.3624 -1.0022 -0.5368
  137MPD2    C4 2089   3.800   1.034  10.455 -0.2953 -0.0676  0.6188
  137MPD2    C5 2090   3.931   1.030  10.402  0.3789  0.2061  0.0192
  137MPD2     H 2091   3.675   0.760  10.320  0.2016 -0.7286  1.1915
  137MPD2    H1 2092   3.779   1.115  10.525  1.2120  1.9370 -1.2424
  137MPD2    H2 2093   4.067   0.918  10.287 -1.1046 -0.1901 -1.8673
  137MPD2    H3 2094   4.010   1.100  10.427 -0.7369  1.1020  1.0096
  137MPD2     N 2095   3.574   0.930  10.476  0.1026  0.3268  0.5275
  137MPD2    H5 2096   3.498   0.875  10.437  3.0355 -1.8647 -2.0577
  137MPD2    N1 2097   3.906   0.737  10.193 -0.0902 -0.0737  0.9344
  137MPD2    H7 2098   4.002   0.741  10.162  0.6935  0.0107  3.3767
  138TCq2    C1 2099   3.830   0.637  10.138  0.5835  0.6163 -0.1921
  138TCq2    O2 2100   3.708   0.623  10.134  0.1087 -0.0062 -0.3233
  138TCq2    C2 2101   3.917   0.531  10.087 -0.1881  0.3950 -0.7256
  138TCq2    C3 2102   4.030   0.490  10.149  0.0619  0.3737 -0.1687
  138TCq2    C4 2103   4.088   0.369  10.116  0.1136  0.3681 -0.2044
  138TCq2    C5 2104   4.026   0.291  10.023 -0.0756  0.2350  0.7505
  138TCq2    C6 2105   3.904   0.335   9.972 -0.1680 -0.6528  0.2687
  138TCq2    C7 2106   3.850   0.454   9.998 -0.3327 -0.0529 -0.1951
  138TCq2    C8 2107   3.844   0.246   9.865 -0.1009  0.0114 -0.1379
  138TCq2    O4 2108   3.911   0.155   9.817  0.7288  0.2579  0.3171
  138TCq2    C9 2109   4.216   0.337  10.177  0.1894  0.1044  0.4698
  138TCq2    O5 2110   4.267   0.421  10.258 -0.8395 -0.3141  0.3075
  138TCq2    O6 2111   4.277   0.245  10.122 -0.0546 -0.2019 -0.1975
  138TCq2    H2 2112   4.076   0.561  10.217  1.6593 -0.8273  0.0059
  138TCq2    H3 2113   4.079   0.200   9.998 -1.4078  0.2121 -1.9891
  138TCq2    H4 2114   3.761   0.487   9.945 -1.3985 -0.0985  1.5736
  139TMC2    C1 2115   3.659   4.174  13.532  0.6266 -0.0563 -0.1285
  139TMC2    C2 2116   3.794   4.208  13.521 -0.0937  0.5425  0.1066
  139TMC2    C3 2117   3.846   4.311  13.592 -0.3669  0.5712  0.3619
  139TMC2    C4 2118   3.578   4.254  13.610  0.1014 -0.5535  0.2515
  139TMC2    C5 2119   3.637   4.355  13.684 -0.2517  0.6684 -0.5699
  139TMC2    C6 2120   3.771   4.386  13.675  0.1137  0.1892  0.1065
  139TMC2     C 2121   3.595   4.068  13.457  0.0468  0.0616 -0.2437
  139TMC2     O 2122   3.473   4.060  13.467 -0.6997 -0.3612 -0.0757
  139TMC2     H 2123   3.864   4.156  13.457  1.3934  0.7641  1.5565
  139TMC2    H1 2124   3.478   4.218  13.628  0.3853 -1.9395 -0.9533
  139TMC2    H2 2125   3.805   4.473  13.731 -0.6813 -0.1500  1.1029
  139TMC2    C7 2126   3.553   4.413  13.783  0.2544  0.0456  0.1408
  139TMC2    C8 2127   3.988   4.309  13.609  0.0552  0.0814  0.0337
  139TMC2    O1 2128   3.430   4.389  13.788  0.2574 -0.2865 -0.0730
  139TMC2    O2 2129   4.057   4.213  13.589  0.2297  0.0504 -0.4982
  139TMC2    O5 2130   4.039   4.429  13.585  0.0657  0.1566 -0.0679
  139TMC2    H5 2131   3.967   4.495  13.578 -0.8549 -0.6697  1.4845
  140MPD2     C 2132   3.763   3.778  13.298  0.5838 -0.2931 -0.4457
  140MPD2    C1 2133   3.659   3.865  13.332 -0.1371  0.1743 -0.4563
  140MPD2    C2 2134   3.535   3.828  13.287 -0.6434  0.1731 -0.0557
  140MPD2    C3 2135   3.511   3.720  13.206 -0.0998 -0.1978 -0.1958
  140MPD2    C4 2136   3.620   3.635  13.179 -0.1138  0.4810  0.5139
  140MPD2    C5 2137   3.748   3.668  13.221 -1.2407  0.0842  0.2400
  140MPD2     H 2138   3.451   3.888  13.322 -0.8775 -1.2616  1.8395
  140MPD2    H1 2139   3.609   3.541  13.126  0.3522  0.7818 -0.1195
  140MPD2    H2 2140   3.866   3.793  13.327  0.1988 -1.6900  1.6750
  140MPD2    H3 2141   3.836   3.612  13.193 -0.9792  0.6795 -0.1207
  140MPD2     N 2142   3.379   3.688  13.171 -0.3978  0.0354 -0.0249
  140MPD2    H5 2143   3.309   3.756  13.198 -0.9820 -0.1174 -1.2019
  140MPD2    N1 2144   3.689   3.974  13.409  0.3837  0.3303 -0.6962
  140MPD2    H7 2145   3.784   3.974  13.445  0.4748 -1.0556 -0.9221
  141TCq2    C1 2146   4.045   0.808  14.358 -0.5684 -0.0630  0.3182
  141TCq2    O2 2147   4.006   0.788  14.243  0.3541 -0.3880  0.0115
  141TCq2    C2 2148   3.956   0.797  14.477 -0.2355 -0.1940  0.1849
  141TCq2    C3 2149   3.858   0.696  14.483 -0.0134  0.1648 -0.0248
  141TCq2    C4 2150   3.787   0.673  14.598  0.4441  0.3259 -0.3264
  141TCq2    C5 2151   3.827   0.738  14.715  0.0808  0.0734  0.0213
  141TCq2    C6 2152   3.920   0.829  14.710 -0.3407 -0.5431  0.5376
  141TCq2    C7 2153   3.991   0.866  14.593  0.6586  0.0372  0.7067
  141TCq2    C8 2154   3.929   0.922  14.823 -0.4863 -0.7050 -0.6328
  141TCq2    O4 2155   3.829   0.947  14.885 -0.5332 -0.2728 -0.5154
  141TCq2    C9 2156   3.685   0.572  14.592 -0.4496  0.4305  0.1239
  141TCq2    O5 2157   3.644   0.526  14.479 -0.4365  0.0865  1.0958
  141TCq2    O6 2158   3.636   0.541  14.704 -0.5390  0.6218  0.0742
  141TCq2    H2 2159   3.840   0.639  14.393 -1.9645 -1.3589  1.3207
  141TCq2    H3 2160   3.779   0.716  14.810 -0.4208  1.4236  0.0824
  141TCq2    H4 2161   4.045   0.959  14.592  1.0919 -0.2174  0.1930
  142MPD2     C 2162   1.796   3.933  10.682  0.0491  0.3335  0.2809
  142MPD2    C1 2163   1.800   3.880  10.556 -0.3662  0.1904  0.6785
  142MPD2    C2 2164   1.917   3.895  10.482  0.4059 -0.4585 -0.0217
  142MPD2    C3 2165   2.029   3.954  10.535  0.0028  0.4208 -0.3305
  142MPD2    C4 2166   2.022   4.013  10.657 -0.3142  0.1461  0.1997
  142MPD2    C5 2167   1.905   4.005  10.725 -0.2400 -0.1460  0.3488
  142MPD2     H 2168   1.927   3.853  10.383  0.9483  1.7666 -0.9080
  142MPD2    H1 2169   2.105   4.068  10.699 -1.9774  1.4650  1.7539
  142MPD2    H2 2170   1.706   3.934  10.742 -0.5737  1.2375 -0.6519
  142MPD2    H3 2171   1.897   4.054  10.821  0.3658  0.2380  0.2007
  142MPD2     N 2172   2.156   3.954  10.473  0.2600 -0.0779  0.1329
  142MPD2    H5 2173   2.231   3.999  10.523  1.2755 -1.3790 -0.2130
  142MPD2    N1 2174   1.682   3.816  10.516 -0.3512  0.0357 -0.0817
  142MPD2    H7 2175   1.604   3.813  10.581  0.4927  2.0148  1.0185
  143TCq2    C1 2176   2.182   3.888  10.354  0.1979 -0.4887 -0.1852
  143TCq2    O2 2177   2.110   3.841  10.267 -0.4989 -0.8454 -0.1068
  143TCq2    C2 2178   2.324   3.903  10.330 -0.0142  0.6147 -0.3614
  143TCq2    C3 2179   2.409   3.925  10.435 -0.3208  0.0709 -0.3478
  143TCq2    C4 2180   2.547   3.930  10.409  0.0156  0.0463 -0.4820
  143TCq2    C5 2181   2.587   3.914  10.277 -0.5844 -0.3698 -0.1409
  143TCq2    C6 2182   2.490   3.892  10.177  0.8243  0.1582 -0.1638
  143TCq2    C7 2183   2.361   3.898  10.199  1.2211  0.5784 -0.4891
  143TCq2    C8 2184   2.541   3.899  10.040  0.3137  0.8016 -0.7828
  143TCq2    O4 2185   2.642   3.968  10.014 -0.1655  0.2596  0.1739
  143TCq2    C9 2186   2.637   3.910  10.516  0.1713  0.7548  0.2012
  143TCq2    O5 2187   2.749   3.969  10.505 -0.2016  0.0720 -0.0614
  143TCq2    O6 2188   2.579   3.884  10.625  0.2230 -0.6825  0.4993
  143TCq2    H2 2189   2.380   3.902  10.537  0.8285 -1.9514 -0.4656
  143TCq2    H3 2190   2.694   3.898  10.261 -0.6951 -1.5815  0.2968
  143TCq2    H4 2191   2.283   3.901  10.123 -0.8076  0.8087  1.5715
  144MPD2     C 2192   3.758   3.400   1.167  0.3871 -0.2457  0.3888
  144MPD2    C1 2193   3.894   3.367   1.156  0.5358  0.3930 -0.0025
  144MPD2    C2 2194   3.982   3.434   1.235  0.4786 -0.0753  0.2424
  144MPD2    C3 2195   3.942   3.541   1.314 -0.1968 -0.2804 -0.5889
  144MPD2    C4 2196   3.813   3.579   1.315  0.3335  0.1901 -0.1351
  144MPD2    C5 2197   3.728   3.506   1.246 -0.0368 -0.3818 -0.6516
  144MPD2     H 2198   4.087   3.406   1.225 -0.2687 -2.7485 -0.2582
  144MPD2    H1 2199   3.782   3.671   1.364 -1.6294 -1.6692  2.0691
  144MPD2    H2 2200   3.679   3.347   1.115 -1.7608  3.0035  0.3137
  144MPD2    H3 2201   3.622   3.529   1.247  0.4644  1.7728  2.1231
  144MPD2     N 2202   4.041   3.627   1.367 -0.1442  0.1885 -0.3067
  144MPD2    H5 2203   4.011   3.722   1.387 -0.1980 -0.3214  1.9674
  144MPD2    N1 2204   3.938   3.267   1.064  0.1210  0.5562 -0.1424
  144MPD2    H7 2205   4.039   3.276   1.054  0.1922  0.1895  0.2536
  145TCq2    C1 2206   4.174   3.591   1.403 -0.2814 -0.0629  0.0700
  145TCq2    O2 2207   4.214   3.485   1.448  0.4405 -0.4024 -0.2386
  145TCq2    C2 2208   4.233   3.716   1.438  0.7087  0.0054 -0.1706
  145TCq2    C3 2209   4.325   3.711   1.538 -0.2128 -0.0647  0.0263
  145TCq2    C4 2210   4.401   3.822   1.565 -0.0377 -0.2009  0.4432
  145TCq2    C5 2211   4.401   3.928   1.478 -0.2737 -0.0059  0.2343
  145TCq2    C6 2212   4.312   3.924   1.381  0.3608  0.1786  0.6578
  145TCq2    C7 2213   4.218   3.826   1.358 -0.0860 -0.4377 -0.6601
  145TCq2    C8 2214   4.324   4.021   1.273  0.0112 -0.0941 -0.0068
  145TCq2    O4 2215   4.439   4.042   1.229  0.1868 -0.2342 -0.3363
  145TCq2    C9 2216   4.512   3.819   1.656  0.2181 -0.3177  0.1280
  145TCq2    O5 2217   4.562   3.931   1.685  0.2082  0.2015 -0.0779
  145TCq2    O6 2218   4.554   3.706   1.689 -0.6516  0.1623  0.0169
  145TCq2    H2 2219   4.334   3.618   1.593  0.4185 -1.1242 -1.8703
  145TCq2    H3 2220   4.475   4.007   1.484 -1.0685  0.8317 -0.8167
  145TCq2    H4 2221   4.172   3.826   1.260 -1.4878 -0.1764 -0.0117
  146TMC2    C1 2222   0.954   1.957  12.802 -0.2975  0.6665 -0.6177
  146TMC2    C2 2223   0.895   2.025  12.698 -0.2673 -0.8047 -0.0798
  146TMC2    C3 2224   0.900   1.981  12.573 -0.1100  0.9420 -0.9071
  146TMC2    C4 2225   1.028   1.837  12.775 -0.1945 -0.5481  0.9632
  146TMC2    C5 2226   1.047   1.804  12.642  0.3490 -0.7688 -0.4313
  146TMC2    C6 2227   0.984   1.878  12.542  0.0968 -0.4599  0.0301
  146TMC2     C 2228   0.937   2.005  12.931 -0.0304 -0.1456  0.8456
  146TMC2     O 2229   0.887   2.114  12.938 -0.1822 -0.3455  0.2695
  146TMC2     H 2230   0.835   2.112  12.721 -0.7124 -0.5622 -2.1140
  146TMC2    H1 2231   1.074   1.773  12.849 -0.8783 -1.3413  0.7001
  146TMC2    H2 2232   1.002   1.857  12.437  0.7840 -1.6161  0.3798
  146TMC2    C7 2233   1.160   1.713  12.605  0.7506  0.1144  0.5549
  146TMC2    C8 2234   0.883   2.084  12.476  0.6959  0.2054 -0.0956
  146TMC2    O1 2235   1.167   1.687  12.483 -0.0842  0.0271 -0.5307
  146TMC2    O2 2236   0.984   2.143  12.430 -0.2042 -0.0770  0.3585
  146TMC2    O5 2237   0.766   2.151  12.497  0.7524  0.2640 -0.3287
  146TMC2    H5 2238   0.706   2.096  12.552  1.8134 -2.3718 -1.7938
  147MPD2     C 2239   1.603   1.443  12.673  0.4937  0.0242 -0.0385
  147MPD2    C1 2240   1.572   1.503  12.792  0.1047  0.1919 -0.7233
  147MPD2    C2 2241   1.453   1.581  12.796  0.5614 -0.1097  0.2818
  147MPD2    C3 2242   1.370   1.606  12.689 -0.3579 -0.0686  0.1062
  147MPD2    C4 2243   1.406   1.541  12.573 -0.2432  0.2748  0.3137
  147MPD2    C5 2244   1.519   1.468  12.568 -0.4164 -0.0224  0.4728
  147MPD2     H 2245   1.433   1.638  12.886 -1.2550 -2.8249  1.5828
  147MPD2    H1 2246   1.358   1.554  12.477 -1.9581 -2.9484  0.7652
  147MPD2    H2 2247   1.672   1.361  12.661  1.3685  0.7868 -0.1589
  147MPD2    H3 2248   1.547   1.422  12.474  0.4021  0.8501  0.3010
  147MPD2     N 2249   1.246   1.676  12.707  0.0043 -0.5759 -0.3938
  147MPD2    H5 2250   1.227   1.701  12.803 -1.0728  2.1566 -1.3311
  147MPD2    N1 2251   1.658   1.471  12.901 -0.1202  0.7140 -0.0776
  147MPD2    H7 2252   1.734   1.410  12.871  1.6765  2.6480  0.5429
  148MPD2     C 2253   1.179   0.884  11.173  0.2100  0.3342 -0.2680
  148MPD2    C1 2254   1.239   0.823  11.068 -0.7613  0.3937 -0.0123
  148MPD2    C2 2255   1.205   0.700  11.019 -1.3152  0.4363  0.7365
  148MPD2    C3 2256   1.119   0.617  11.087  0.2409  0.2896 -0.6801
  148MPD2    C4 2257   1.050   0.675  11.196 -0.1554  0.6427 -0.4864
  148MPD2    C5 2258   1.070   0.809  11.223  0.4111 -0.3308 -0.1957
  148MPD2     H 2259   1.258   0.660  10.933 -0.4025  1.9653  0.5801
  148MPD2    H1 2260   0.980   0.626  11.261  0.7047  1.8709  1.3669
  148MPD2    H2 2261   1.200   0.981  11.216  0.2390 -0.4249  1.4529
  148MPD2    H3 2262   1.010   0.853  11.300  1.3062  0.6932 -0.0841
  148MPD2     N 2263   1.089   0.485  11.058  0.2744 -0.1180  0.3691
  148MPD2    H5 2264   1.038   0.434  11.129  0.5748  1.9526  2.0489
  148MPD2    N1 2265   1.339   0.887  10.992 -0.7718  0.8256  0.1470
  148MPD2    H7 2266   1.397   0.826  10.935 -1.5003  1.4309 -1.2323
  149TCq2    C1 2267   1.344   1.026  10.982  1.1436  0.6619  0.1073
  149TCq2    O2 2268   1.259   1.108  11.009  0.0628 -0.0641  0.2878
  149TCq2    C2 2269   1.454   1.071  10.898  0.0350 -0.4338 -0.0840
  149TCq2    C3 2270   1.427   1.165  10.800  0.3771 -0.0419 -0.1866
  149TCq2    C4 2271   1.529   1.182  10.706  0.4946 -0.4947  0.4399
  149TCq2    C5 2272   1.632   1.093  10.700  0.2490 -0.2361  0.1242
  149TCq2    C6 2273   1.656   0.996  10.793 -0.3354 -0.6530  0.0167
  149TCq2    C7 2274   1.562   0.983  10.893  0.0917  0.3176 -0.2537
  149TCq2    C8 2275   1.706   0.868  10.753  0.2350 -0.1880  0.3021
  149TCq2    O4 2276   1.674   0.776  10.826  0.0635  0.1531  0.4042
  149TCq2    C9 2277   1.497   1.265  10.591  0.2648 -0.0804  0.5211
  149TCq2    O5 2278   1.377   1.279  10.564  0.3355  0.2553  0.0548
  149TCq2    O6 2279   1.600   1.307  10.531  0.2126 -0.1974 -0.0411
  149TCq2    H2 2280   1.340   1.229  10.802  0.2051 -0.2085 -2.1810
  149TCq2    H3 2281   1.713   1.116  10.632 -0.9738  1.6165 -0.6928
  149TCq2    H4 2282   1.587   0.915  10.974  1.3003  0.8254 -0.2007
  150MPD2     C 2283   2.706   4.675  12.133  0.1533  0.1036  0.2530
  150MPD2    C1 2284   2.831   4.665  12.075 -0.1244  0.4793 -0.3020
  150MPD2    C2 2285   2.928   0.039  12.101  0.8580 -0.2028 -0.5911
  150MPD2    C3 2286   2.898   0.150  12.186  0.2443 -0.5984 -0.1410
  150MPD2    C4 2287   2.775   0.157  12.241 -0.3445 -0.6795  0.5126
  150MPD2    C5 2288   2.681   0.063  12.212  0.3071 -0.0578 -0.1655
  150MPD2     H 2289   3.028   0.043  12.059  0.2097  0.9898 -2.0083
  150MPD2    H1 2290   2.740   0.237  12.305 -1.0574 -1.0745  0.6235
  150MPD2    H2 2291   2.630   4.603  12.104  0.4503 -0.9876  2.1864
  150MPD2    H3 2292   2.585   0.078  12.260 -0.2869 -0.3671 -1.2377
  150MPD2     N 2293   2.996   0.251  12.204 -0.3057  0.1524 -0.8495
  150MPD2    H5 2294   3.093   0.227  12.185 -0.5353 -0.7532 -0.8719
  150MPD2    N1 2295   2.866   4.552  11.993 -0.4987 -0.6840  0.0295
  150MPD2    H7 2296   2.794   4.481  12.001 -1.0262 -0.1296  0.1795
  151TCq2    C1 2297   2.963   0.381  12.234  0.0974 -0.9814 -0.2180
  151TCq2    O2 2298   2.852   0.434  12.229  0.0261  0.1163 -0.3163
  151TCq2    C2 2299   3.076   0.466  12.247  0.1072 -0.2154 -0.3239
  151TCq2    C3 2300   3.040   0.597  12.227  0.3135 -1.1135 -0.1280
  151TCq2    C4 2301   3.115   0.691  12.285 -0.6858  0.0518 -0.0035
  151TCq2    C5 2302   3.222   0.663  12.361 -0.1039  0.2962 -0.6265
  151TCq2    C6 2303   3.243   0.533  12.394  0.1385  0.6075 -0.4214
  151TCq2    C7 2304   3.181   0.429  12.333  0.8625  0.5782 -0.0574
  151TCq2    C8 2305   3.358   0.502  12.483 -0.1194  0.1888 -0.2009
  151TCq2    O4 2306   3.430   0.603  12.509  0.3274  0.3106  0.4721
  151TCq2    C9 2307   3.068   0.831  12.272  0.3641 -0.0356  0.7207
  151TCq2    O5 2308   3.096   0.911  12.365  0.2677 -0.2654 -0.0852
  151TCq2    O6 2309   2.977   0.861  12.192 -0.2983 -0.1632  0.3088
  151TCq2    H2 2310   2.965   0.632  12.157  0.8694  0.7666  0.2178
  151TCq2    H3 2311   3.276   0.744  12.409  0.5516 -0.8385  0.5364
  151TCq2    H4 2312   3.208   0.325  12.349  1.2274  0.7425  0.3978
  152MPD2     C 2313   2.622   4.307  12.969 -0.3548 -0.1474 -0.3282
  152MPD2    C1 2314   2.662   4.358  12.855  0.0359 -0.6691  0.5840
  152MPD2    C2 2315   2.584   4.349  12.740  0.0535  0.3401 -0.2154
  152MPD2    C3 2316   2.453   4.287  12.745  0.8408  0.0438 -0.3640
  152MPD2    C4 2317   2.417   4.241  12.869 -0.0734  0.6512 -0.6217
  152MPD2    C5 2318   2.504   4.243  12.982 -0.4456  0.4552  0.2698
  152MPD2     H 2319   2.618   4.383  12.643  0.6202  1.8169  0.5098
  152MPD2    H1 2320   2.323   4.194  12.895 -1.0839  2.7144 -0.5135
  152MPD2    H2 2321   2.687   4.316  13.055 -2.1106 -2.4618  1.2808
  152MPD2    H3 2322   2.475   4.215  13.082 -0.4623 -2.6619 -0.6051
  152MPD2     N 2323   2.365   4.290  12.636  0.3142  0.6586  0.6366
  152MPD2    H5 2324   2.401   4.328  12.549 -0.5351 -3.7904 -1.6590
  152MPD2    N1 2325   2.797   4.392  12.860 -0.3842  0.1022  0.2785
  152MPD2    H7 2326   2.851   4.388  12.946  2.7571 -0.3468 -1.6904
  153TCq2    C1 2327   2.856   4.455  12.755  0.9007 -0.2394 -0.4792
  153TCq2    O2 2328   2.800   4.508  12.661 -0.1198  0.2284  0.0566
  153TCq2    C2 2329   2.987   4.488  12.802  0.1326  0.3395  0.9450
  153TCq2    C3 2330   3.059   4.398  12.876 -0.2112  0.4039 -0.0284
  153TCq2    C4 2331   3.175   4.446  12.933  0.0310  0.7421  0.2623
  153TCq2    C5 2332   3.215   4.572  12.911 -0.0416  0.7670 -0.0432
  153TCq2    C6 2333   3.139   4.663  12.841 -0.3295  0.3863  0.0899
  153TCq2    C7 2334   3.024   4.617  12.785  0.3428  0.1430 -0.0240
  153TCq2    C8 2335   3.176   0.090  12.843 -1.1869 -0.5822  0.2705
  153TCq2    O4 2336   3.105   0.169  12.777 -0.1582  0.2014 -0.0153
  153TCq2    C9 2337   3.264   4.353  12.991  0.4107  0.6821  0.2323
  153TCq2    O5 2338   3.238   4.232  12.982  0.1322 -0.1558 -0.3908
  153TCq2    O6 2339   3.335   4.399  13.086  0.7288  0.2637 -0.2172
  153TCq2    H2 2340   3.031   4.295  12.895 -2.2219  0.9995  0.2962
  153TCq2    H3 2341   3.310   4.599  12.957  0.5851  2.2958 -2.2094
  153TCq2    H4 2342   2.956   4.679  12.729  2.5194  2.3684 -0.1741
  154MPD2     C 2343   3.765   4.123   0.335 -0.0301  0.6210 -0.0737
  154MPD2    C1 2344   3.751   4.251   0.290  0.1625  1.0202 -0.0117
  154MPD2    C2 2345   3.635   4.286   0.222  0.0393  0.3345 -0.2994
  154MPD2    C3 2346   3.534   4.191   0.201  0.5493  0.0071 -0.1788
  154MPD2    C4 2347   3.557   4.058   0.226 -0.3615 -0.6019  0.2698
  154MPD2    C5 2348   3.673   4.028   0.289  0.0627 -0.2316  0.2954
  154MPD2     H 2349   3.620   4.387   0.184 -2.1106 -0.3196 -1.1499
  154MPD2    H1 2350   3.486   3.978   0.209 -4.2185  2.2775  2.6235
  154MPD2    H2 2351   3.853   4.088   0.388 -0.5467  0.3603  0.6103
  154MPD2    H3 2352   3.690   3.927   0.323  1.9967 -0.7484 -2.1965
  154MPD2     N 2353   3.415   4.235   0.142 -0.2060 -0.4432  0.1148
  154MPD2    H5 2354   3.415   4.330   0.109  0.4550 -0.2822  0.5793
  154MPD2    N1 2355   3.863   4.337   0.322  0.1567  0.1957 -0.7452
  154MPD2    H7 2356   3.942   4.292   0.368  0.2308 -0.1079 -1.1652
  155TCq2    C1 2357   3.867   4.473   0.290 -0.5343 -0.0579  0.1243
  155TCq2    O2 2358   3.794   4.552   0.231 -0.1944 -0.1459  0.2723
  155TCq2    C2 2359   3.983   4.538   0.342 -0.1640  0.4669  0.3767
  155TCq2    C3 2360   4.026   4.499   0.468  0.9816 -0.1036  0.5305
  155TCq2    C4 2361   4.119   4.578   0.530 -0.1279  0.4257 -0.0089
  155TCq2    C5 2362   4.167   4.684   0.473  0.4930  0.1577  0.5507
  155TCq2    C6 2363   4.115   0.006   0.353  0.1931  0.0796 -0.4430
  155TCq2    C7 2364   4.014   4.665   0.294 -0.1632 -0.7209 -0.2471
  155TCq2    C8 2365   4.143   0.149   0.315 -0.4565  0.3355 -0.0211
  155TCq2    O4 2366   4.205   0.224   0.394  0.4574 -0.3464 -0.0130
  155TCq2    C9 2367   4.194   4.517   0.633 -0.3819 -0.3652  0.4289
  155TCq2    O5 2368   4.257   4.595   0.708  0.2877  0.1672 -0.6622
  155TCq2    O6 2369   4.204   4.393   0.630 -0.4463 -0.2596 -0.3130
  155TCq2    H2 2370   4.001   4.413   0.529 -1.7230 -0.0454 -0.4661
  155TCq2    H3 2371   4.249   0.016   0.522 -0.6372  3.8565 -1.5208
  155TCq2    H4 2372   3.974   4.692   0.196  0.5894  4.0109  0.7568
  156MPD2     C 2373   2.271   1.774  12.635  0.3809 -0.5040  0.0891
  156MPD2    C1 2374   2.330   1.886  12.581  0.4558  0.2724  0.4976
  156MPD2    C2 2375   2.467   1.905  12.616  0.1602  1.1924  0.1817
  156MPD2    C3 2376   2.529   1.815  12.695  0.5956  0.2766  0.6057
  156MPD2    C4 2377   2.467   1.708  12.744 -0.0985  0.7731  0.6277
  156MPD2    C5 2378   2.341   1.693  12.721 -0.0717 -0.3706 -0.0503
  156MPD2     H 2379   2.518   1.989  12.571  1.3813 -1.3391 -3.1428
  156MPD2    H1 2380   2.517   1.633  12.804  0.1897  0.7800  0.3918
  156MPD2    H2 2381   2.170   1.751  12.604  0.2345  1.7023 -1.0975
  156MPD2    H3 2382   2.295   1.606  12.766 -1.7368  0.8555  0.6195
  156MPD2     N 2383   2.665   1.837  12.713 -0.5703  0.0589  0.4029
  156MPD2    H5 2384   2.702   1.926  12.681  0.2112 -1.1139 -1.8867
  156MPD2    N1 2385   2.261   1.963  12.490 -0.0855 -0.7869 -0.0248
  156MPD2    H7 2386   2.165   1.934  12.474 -0.1048 -0.3763 -0.6546
  157TCq2    C1 2387   2.310   2.063  12.405  0.6694 -0.3286 -0.2971
  157TCq2    O2 2388   2.427   2.095  12.385  0.1178  0.1577 -0.0374
  157TCq2    C2 2389   2.209   2.097  12.307  0.5523  0.4216  0.6109
  157TCq2    C3 2390   2.092   2.130  12.364  0.2453  0.7831  0.4673
  157TCq2    C4 2391   1.994   2.173  12.282  0.0701 -0.9835 -0.2440
  157TCq2    C5 2392   2.002   2.181  12.145 -0.8494 -0.1810 -0.5044
  157TCq2    C6 2393   2.134   2.154  12.093 -0.1278 -0.2092 -0.0822
  157TCq2    C7 2394   2.237   2.121  12.176  0.1080  0.2820  0.1051
  157TCq2    C8 2395   2.163   2.191  11.954  0.0647 -0.0272  0.5336
  157TCq2    O4 2396   2.284   2.204  11.932  0.6483  0.1547  0.3200
  157TCq2    C9 2397   1.872   2.212  12.346  0.0972  0.3461 -0.2128
  157TCq2    O5 2398   1.864   2.197  12.475 -0.2899 -0.4968  0.8692
  157TCq2    O6 2399   1.789   2.275  12.272 -0.4627  0.0367 -0.3730
  157TCq2    H2 2400   2.080   2.122  12.471  0.1720 -2.9167  0.1938
  157TCq2    H3 2401   1.912   2.200  12.087 -2.2706 -0.1240  1.7177
  157TCq2    H4 2402   2.342   2.117  12.149 -0.2028  0.5868 -1.1810
  158TMC2    C1 2403   2.664   0.885  13.705 -0.0557 -0.0391 -0.0730
  158TMC2    C2 2404   2.584   0.965  13.633 -0.3226  0.4836 -0.8552
  158TMC2    C3 2405   2.464   0.913  13.597 -0.5237  0.2167 -0.0840
  158TMC2    C4 2406   2.627   0.759  13.752 -0.7398 -0.1450 -0.8240
  158TMC2    C5 2407   2.505   0.720  13.711 -0.5841 -0.6249 -0.6091
  158TMC2    C6 2408   2.425   0.790  13.631  0.7159  0.1019 -0.5995
  158TMC2     C 2409   2.786   0.945  13.757  0.6385 -0.1255  0.5100
  158TMC2     O 2410   2.827   1.052  13.711 -0.2056 -0.3986  0.1709
  158TMC2     H 2411   2.609   1.067  13.608 -0.6480  0.6666 -0.4293
  158TMC2    H1 2412   2.694   0.693  13.806 -1.1790 -1.5231 -1.9666
  158TMC2    H2 2413   2.334   0.745  13.595  0.5969 -0.3945  0.3013
  158TMC2    C7 2414   2.466   0.582  13.736  0.8010 -0.7124 -0.4974
  158TMC2    C8 2415   2.387   0.989  13.504 -0.4540 -0.3551 -0.4981
  158TMC2    O1 2416   2.400   0.539  13.644  0.7410  0.3049  0.2915
  158TMC2    O2 2417   2.428   1.085  13.436  0.0613  0.3726 -0.3836
  158TMC2    O5 2418   2.259   0.936  13.491 -0.2831  0.3692  0.1201
  158TMC2    H5 2419   2.234   0.870  13.559 -0.4578  2.7106  2.3535
  159MPD2     C 2420   3.212   0.965  14.030  0.1718  0.0660  0.1503
  159MPD2    C1 2421   3.117   0.900  14.106 -0.3729 -0.5478  0.0560
  159MPD2    C2 2422   2.996   0.862  14.051  0.8853 -0.1956  1.0690
  159MPD2    C3 2423   2.966   0.897  13.923  0.2498 -0.2053  0.5623
  159MPD2    C4 2424   3.071   0.948  13.841  0.0860 -0.2134  0.5987
  159MPD2    C5 2425   3.192   0.979  13.896  0.0599  0.0001  0.0187
  159MPD2     H 2426   2.919   0.830  14.120  0.9711 -1.1521  0.7286
  159MPD2    H1 2427   3.048   0.990  13.744  0.6322 -1.3571 -0.0154
  159MPD2    H2 2428   3.303   1.011  14.065  0.6953 -0.8374 -0.0195
  159MPD2    H3 2429   3.258   1.043  13.839 -0.1465 -0.4640 -0.7287
  159MPD2     N 2430   2.839   0.878  13.861  0.6953  0.0299  0.5369
  159MPD2    H5 2431   2.777   0.820  13.917  0.5103 -0.6336 -0.3542
  159MPD2    N1 2432   3.123   0.899  14.249  0.1660 -0.1970  0.1400
  159MPD2    H7 2433   3.045   0.853  14.296  1.2008 -1.2890  0.7796
  160TMC2    C1 2434   3.629   4.257   1.359  0.2452 -0.3949  0.0430
  160TMC2    C2 2435   3.747   4.201   1.375  0.0961 -0.0724 -0.6053
  160TMC2    C3 2436   3.763   4.065   1.377  0.4772  0.3559 -0.0301
  160TMC2    C4 2437   3.518   4.181   1.345  0.7047 -0.2009  0.8635
  160TMC2    C5 2438   3.532   4.044   1.327 -0.1044 -0.2799  0.3866
  160TMC2    C6 2439   3.658   3.983   1.336 -0.6203  0.0973 -0.1302
  160TMC2     C 2440   3.606   4.393   1.395  0.3258 -0.2205 -0.2369
  160TMC2     O 2441   3.702   4.455   1.439  0.2912  0.0252 -0.3139
  160TMC2     H 2442   3.829   4.260   1.412 -0.2977 -0.6305  1.1697
  160TMC2    H1 2443   3.414   4.211   1.338  0.4771 -0.7211  1.9665
  160TMC2    H2 2444   3.666   3.875   1.328  4.4165  0.6235 -2.4734
  160TMC2    C7 2445   3.431   3.967   1.259 -0.4217  0.3730  0.3877
  160TMC2    C8 2446   3.897   4.013   1.348 -1.0734  0.6615  0.0959
  160TMC2    O1 2447   3.425   3.845   1.266 -0.2018  0.1022  0.8963
  160TMC2    O2 2448   3.905   3.899   1.305  0.1328 -0.5573  0.3067
  160TMC2    O5 2449   3.993   4.071   1.434  0.1663 -0.2400 -0.1881
  160TMC2    H5 2450   3.966   4.151   1.484 -0.4202 -0.9760  0.6830
  161MPD2     C 2451   3.490   4.666   1.461 -0.9270  0.3186  0.0172
  161MPD2    C1 2452   3.426   4.566   1.384  0.1526 -0.5015  0.2590
  161MPD2    C2 2453   3.299   4.601   1.338 -0.0245  0.5766  0.2996
  161MPD2    C3 2454   3.236   0.005   1.368  0.5184  0.3108 -0.6968
  161MPD2    C4 2455   3.310   0.098   1.437  0.3037 -0.1223  0.5737
  161MPD2    C5 2456   3.438   0.070   1.485 -0.1295 -0.4697  0.0171
  161MPD2     H 2457   3.245   4.526   1.280 -0.5184 -0.0470  1.5480
  161MPD2    H1 2458   3.274   0.199   1.452  0.3547  0.1663 -1.2642
  161MPD2    H2 2459   3.593   4.652   1.492 -1.3278  1.0499  1.6972
  161MPD2    H3 2460   3.487   0.146   1.544  3.8606 -0.7611 -2.9069
  161MPD2     N 2461   3.107   0.029   1.319 -0.6424  0.2184 -0.1285
  161MPD2    H5 2462   3.078   0.125   1.304 -0.0529  0.4106 -0.0081
  161MPD2    N1 2463   3.480   4.436   1.360 -0.7168 -0.0124  0.1818
  161MPD2    H7 2464   3.427   4.367   1.308 -1.9163  3.0128 -2.6593
  162TMC2    C1 2465   0.935   1.157   1.562 -0.6617 -0.3901 -0.2020
  162TMC2    C2 2466   1.041   1.135   1.650 -0.2722  0.0890 -0.0530
  162TMC2    C3 2467   1.024   1.179   1.777  0.7698 -0.4730 -0.1859
  162TMC2    C4 2468   0.816   1.216   1.605  0.5798  0.1428 -0.3231
  162TMC2    C5 2469   0.804   1.257   1.734 -0.1357  0.2171 -0.5266
  162TMC2    C6 2470   0.907   1.241   1.823 -0.7133 -0.0786 -0.4036
  162TMC2     C 2471   0.948   1.107   1.431  0.0629  0.1098 -0.0679
  162TMC2     O 2472   1.050   1.052   1.396 -0.2363  0.0092 -0.1810
  162TMC2     H 2473   1.136   1.095   1.618 -0.4089 -0.0406 -0.2967
  162TMC2    H1 2474   0.729   1.238   1.545 -0.2752  0.9124  1.2210
  162TMC2    H2 2475   0.895   1.280   1.924 -1.3173 -0.0376 -0.4948
  162TMC2    C7 2476   0.668   1.280   1.778  0.1363 -0.2525  0.5068
  162TMC2    C8 2477   1.143   1.170   1.858 -0.1321  1.1571 -0.0340
  162TMC2    O1 2478   0.590   1.337   1.704 -0.4808 -0.6739 -0.0376
  162TMC2    O2 2479   1.254   1.143   1.811  0.0904 -0.6038  0.1654
  162TMC2    O5 2480   1.101   1.159   1.988 -0.1473  0.4996  0.6116
  162TMC2    H5 2481   1.005   1.146   1.998 -0.1753  0.5359  0.3905
  163MPD2     C 2482   0.711   1.025   0.972 -0.6277  0.1296  0.1083
  163MPD2    C1 2483   0.833   0.981   1.014  0.0589 -1.0609  0.4344
  163MPD2    C2 2484   0.880   1.015   1.143  0.7347  0.2447 -0.3521
  163MPD2    C3 2485   0.800   1.093   1.229 -0.0405 -1.3203 -0.1736
  163MPD2    C4 2486   0.690   1.149   1.173 -0.5390 -0.2544  0.4551
  163MPD2    C5 2487   0.632   1.104   1.057 -0.2248 -0.7459 -0.3284
  163MPD2     H 2488   0.981   0.988   1.171  0.5066 -1.2038 -0.9039
  163MPD2    H1 2489   0.638   1.226   1.229  0.8713  0.9515  0.0923
  163MPD2    H2 2490   0.665   0.999   0.878 -0.1330  1.5834 -0.5310
  163MPD2    H3 2491   0.537   1.145   1.023 -0.1428 -0.2704  0.0056
  163MPD2     N 2492   0.842   1.150   1.355 -0.4874 -0.0108  0.0254
  163MPD2    H5 2493   0.783   1.226   1.388  0.8274  0.8618  0.3593
  163MPD2    N1 2494   0.906   0.908   0.915 -0.0459 -0.4803  0.1208
  163MPD2    H7 2495   0.861   0.904   0.824 -0.8199  0.0782  0.4794
  164TCq2    C1 2496   1.531   0.587  11.547 -0.0431  0.7926 -0.0931
  164TCq2    O2 2497   1.496   0.553  11.660 -0.3173  0.1833 -0.1952
  164TCq2    C2 2498   1.510   0.721  11.498  0.0855 -0.2755 -0.1313
  164TCq2    C3 2499   1.576   0.776  11.390  0.3465 -0.0855 -1.0374
  164TCq2    C4 2500   1.538   0.896  11.332  0.5078 -0.2207 -0.0532
  164TCq2    C5 2501   1.427   0.957  11.391  1.0257 -0.7645 -0.3228
  164TCq2    C6 2502   1.362   0.907  11.500  0.5020  0.4137 -0.5996
  164TCq2    C7 2503   1.392   0.784  11.548 -0.1864  0.2229 -0.8269
  164TCq2    C8 2504   1.235   0.977  11.534 -0.2832  0.0159 -0.1216
  164TCq2    O4 2505   1.187   1.054  11.454 -0.1637 -0.3955  0.1310
  164TCq2    C9 2506   1.609   0.965  11.235  0.1008 -0.1797 -0.1697
  164TCq2    O5 2507   1.706   0.894  11.189 -0.2388  0.3468  0.4467
  164TCq2    O6 2508   1.591   1.087  11.210  0.2706 -0.4899 -0.7652
  164TCq2    H2 2509   1.663   0.729  11.345  1.3258  1.1762 -0.4474
  164TCq2    H3 2510   1.394   1.053  11.352  0.3436 -0.8459  0.0551
  164TCq2    H4 2511   1.341   0.732  11.629  1.8894  1.8317  1.5032
  165MPD2     C 2512   2.651   2.310   2.386  0.4778 -0.1747  0.0997
  165MPD2    C1 2513   2.520   2.287   2.357 -0.3948  0.5289  1.2492
  165MPD2    C2 2514   2.446   2.401   2.317 -0.1725  0.5304 -0.0656
  165MPD2    C3 2515   2.508   2.520   2.311  0.7427 -0.0507 -0.5189
  165MPD2    C4 2516   2.639   2.541   2.340  0.0818  0.3125 -0.0712
  165MPD2    C5 2517   2.713   2.434   2.380  0.3679  0.2551 -0.5762
  165MPD2     H 2518   2.346   2.375   2.285 -0.3001  1.7579 -0.6441
  165MPD2    H1 2519   2.689   2.636   2.324 -0.5421  0.4339 -1.2799
  165MPD2    H2 2520   2.713   2.227   2.418  1.1483  1.1819  2.3379
  165MPD2    H3 2521   2.820   2.438   2.394  0.4516 -0.8693 -0.9292
  165MPD2     N 2522   2.443   2.632   2.264  0.0494  0.0681  0.5926
  165MPD2    H5 2523   2.487   2.723   2.251 -1.5215  0.6789 -0.5456
  165MPD2    N1 2524   2.457   2.158   2.354  0.0559 -0.0015 -0.1468
  165MPD2    H7 2525   2.362   2.153   2.320 -0.5069  0.8362  1.3140
  166TCq2    C1 2526   2.308   2.637   2.233  0.3720  0.1322  0.1383
  166TCq2    O2 2527   2.218   2.554   2.239  0.3128 -0.4326 -0.3622
  166TCq2    C2 2528   2.257   2.767   2.190  0.0021  0.5704 -0.3153
  166TCq2    C3 2529   2.132   2.799   2.225 -0.0791 -0.8223 -0.1428
  166TCq2    C4 2530   2.079   2.917   2.184 -0.2022  0.8151 -0.7358
  166TCq2    C5 2531   2.146   3.009   2.113 -0.0155  0.5228 -0.3198
  166TCq2    C6 2532   2.271   2.972   2.074  0.5524  0.0484 -0.5696
  166TCq2    C7 2533   2.331   2.851   2.113 -0.2801  0.5262 -0.1228
  166TCq2    C8 2534   2.338   3.059   1.986  0.1944 -0.2118  1.2563
  166TCq2    O4 2535   2.462   3.069   1.994 -0.2666  0.2351  0.0054
  166TCq2    C9 2536   1.950   2.956   2.233 -0.6996 -0.4772  0.0932
  166TCq2    O5 2537   1.901   2.890   2.329 -0.7288  0.1791  0.1029
  166TCq2    O6 2538   1.882   3.041   2.171 -0.1823  0.2885 -0.2209
  166TCq2    H2 2539   2.067   2.735   2.284  1.1493  1.1858  3.4016
  166TCq2    H3 2540   2.114   3.111   2.097  0.4848  0.7724  0.2860
  166TCq2    H4 2541   2.426   2.821   2.068  0.7364  3.1963  0.2498
  167TMC2    C1 2542   0.442   4.416  13.020  0.4533  0.4595 -0.9154
  167TMC2    C2 2543   0.315   4.379  13.034 -0.2868 -0.4301  0.2095
  167TMC2    C3 2544   0.233   4.429  12.937 -0.2933  0.6070 -0.0082
  167TMC2    C4 2545   0.500   4.490  12.911 -0.4023  0.4878 -0.3167
  167TMC2    C5 2546   0.408   4.526  12.814  0.6013 -0.1873  0.5632
  167TMC2    C6 2547   0.276   4.498  12.826 -0.1757  0.4135  0.3522
  167TMC2     C 2548   0.522   4.393  13.139 -0.0227  0.6540  0.5781
  167TMC2     O 2549   0.471   4.332  13.229 -0.0724  0.4188 -0.3518
  167TMC2     H 2550   0.266   4.319  13.109  0.3640 -0.3242  0.7256
  167TMC2    H1 2551   0.607   4.482  12.893 -0.2345 -2.4423  1.9098
  167TMC2    H2 2552   0.212   4.523  12.742 -0.1295 -1.3372 -0.1919
  167TMC2    C7 2553   0.445   4.622  12.709 -0.2523  0.1719  0.0365
  167TMC2    C8 2554   0.096   4.377  12.922  0.7061  0.5787  0.1876
  167TMC2    O1 2555   0.363   4.631  12.618 -0.8158  0.0232 -0.1585
  167TMC2    O2 2556   0.072   4.273  12.984  0.5581  0.4471  0.5104
  167TMC2    O5 2557   0.015   4.486  12.918  0.0590 -0.2476 -0.2848
  167TMC2    H5 2558   0.069   4.568  12.913  1.3606 -1.1718 -1.3933
  168MPD2     C 2559   0.766   4.316  13.292 -0.1286 -0.1627 -0.0461
  168MPD2    C1 2560   0.755   4.436  13.226 -0.1721 -0.8180 -0.4394
  168MPD2    C2 2561   0.852   4.533  13.246 -0.1751  0.8484  0.1655
  168MPD2    C3 2562   0.964   4.519  13.328 -0.2302  0.1754 -0.3769
  168MPD2    C4 2563   0.974   4.393  13.383  0.0422  0.6024 -0.4509
  168MPD2    C5 2564   0.879   4.299  13.364  0.3360 -0.1052  0.2674
  168MPD2     H 2565   0.851   4.623  13.185 -0.8984 -0.0661 -1.1662
  168MPD2    H1 2566   1.060   4.368  13.445 -0.8427  1.5249  1.1526
  168MPD2    H2 2567   0.689   4.240  13.294  1.1867 -1.5226 -0.9321
  168MPD2    H3 2568   0.899   4.199  13.401 -1.7162 -0.6556 -0.1075
  168MPD2     N 2569   1.056   4.623  13.360  0.2850 -0.5908  0.6839
  168MPD2    H5 2570   1.027   4.714  13.325 -0.5991 -0.7924  0.8893
  168MPD2    N1 2571   0.643   4.465  13.144  0.3210 -0.2171 -0.0659
  168MPD2    H7 2572   0.656   4.546  13.084  3.6908  1.6865  3.1560
  169MPD1     C 2573   0.030   4.684   9.699 -0.1395  0.3052  0.1120
  169MPD1    C1 2574   4.625   4.707   9.745  0.3080  0.2413 -0.2699
  169MPD1    C2 2575   4.534   4.611   9.704 -0.1436  0.6441  1.2294
  169MPD1    C3 2576   4.576   4.497   9.633 -0.0626 -0.2247 -0.0037
  169MPD1    C4 2577   4.702   4.489   9.573  1.0697  0.6133  0.2054
  169MPD1    C5 2578   0.069   4.586   9.612 -0.1256 -0.2348 -0.1288
  169MPD1     H 2579   4.432   4.621   9.740 -1.5715 -3.4767 -1.7242
  169MPD1    H1 2580   0.017   4.418   9.498 -1.3943 -1.6900  1.2284
  169MPD1    H2 2581   0.105   0.034   9.733  1.2938 -0.2501 -1.9308
  169MPD1    H3 2582   0.173   4.578   9.583 -0.3160  2.1963 -1.4362
  169MPD1     N 2583   4.478   4.391   9.625 -0.2556 -0.3621  0.1637
  169MPD1    H5 2584   4.401   4.404   9.691  0.8099 -2.4412  1.7975
  169MPD1    N1 2585   4.592   0.093   9.835  0.2396 -0.2367 -0.1101
  169MPD1    H6 2586   4.493   0.113   9.847  0.6505  1.7458 -0.0489
  169MPD1    H7 2587   4.657   0.170   9.829  1.0855 -0.9481 -0.0966
  170MPD1     C 2588   1.704   2.558  12.924  0.1629  0.2386  0.1116
  170MPD1    C1 2589   1.698   2.689  12.903 -1.0529  0.3279 -0.1251
  170MPD1    C2 2590   1.649   2.769  13.009  0.0207 -0.3979 -0.8295
  170MPD1    C3 2591   1.627   2.727  13.133 -0.4467 -0.9163 -0.2695
  170MPD1    C4 2592   1.631   2.588  13.157  0.7375 -0.1149  0.6416
  170MPD1    C5 2593   1.664   2.508  13.047  0.0977  0.0535 -0.2460
  170MPD1     H 2594   1.668   2.874  12.987  1.0095 -0.4780 -0.3560
  170MPD1    H1 2595   1.607   2.540  13.251 -0.7299 -1.4930 -0.4368
  170MPD1    H2 2596   1.755   2.488  12.859 -1.7140 -1.7696  0.7724
  170MPD1    H3 2597   1.678   2.401  13.059 -1.4164  0.0805  1.8293
  170MPD1     N 2598   1.610   2.823  13.238  0.0415  0.5633 -0.0922
  170MPD1    H5 2599   1.601   2.920  13.211 -0.7204  1.0168  1.8431
  170MPD1    N1 2600   1.708   2.742  12.773  0.2541 -0.4701  0.4801
  170MPD1    H6 2601   1.732   2.841  12.769 -0.1968 -0.3325  1.1496
  170MPD1    H7 2602   1.771   2.691  12.712  0.5318 -0.3489  0.6677
  171MPD1     C 2603   0.080   4.075  15.683 -0.1755 -0.1973  0.0640
  171MPD1    C1 2604   0.155   3.999  15.600 -0.6410 -0.6281 -0.2804
  171MPD1    C2 2605   0.219   3.888  15.653  0.4649  0.0425 -0.3491
  171MPD1    C3 2606   0.206   3.849  15.787  1.0018 -0.1617  0.1621
  171MPD1    C4 2607   0.130   3.924  15.872 -0.0674  0.1210  0.4200
  171MPD1    C5 2608   0.067   4.040  15.817 -0.2164  0.0586 -0.0561
  171MPD1     H 2609   0.276   3.824  15.586 -1.2758 -0.4881 -1.3163
  171MPD1    H1 2610   0.115   3.906  15.978  0.5821 -0.5343  0.4025
  171MPD1    H2 2611   0.032   4.164  15.643 -0.6652 -0.5470 -0.1251
  171MPD1    H3 2612   0.005   4.109  15.873 -0.5130  0.4840 -0.9206
  171MPD1     N 2613   0.263   3.731  15.844  0.3305 -0.3942  0.4470
  171MPD1    H5 2614   0.247   3.718  15.943 -0.3960 -0.5289  0.3096
  171MPD1    N1 2615   0.135   4.019  15.458  0.5116  0.5209 -0.2630
  171MPD1    H6 2616   0.220   3.993  15.408 -0.0581 -0.2139 -0.8497
  171MPD1    H7 2617   0.099   4.111  15.435 -0.7893 -0.0883 -0.6160
  172MPD1     C 2618   0.028   2.984   1.401  0.1358  0.1887  0.4261
  172MPD1    C1 2619   0.125   3.043   1.333  0.5694  0.5464 -0.4490
  172MPD1    C2 2620   0.105   3.159   1.263  0.4309 -0.1772  0.7082
  172MPD1    C3 2621   4.710   3.232   1.285 -0.6659 -0.1562 -0.3729
  172MPD1    C4 2622   4.618   3.179   1.366 -0.7559  0.4705  0.0176
  172MPD1    C5 2623   4.635   3.059   1.424  0.1255  0.2744 -0.2623
  172MPD1     H 2624   0.187   3.211   1.214 -1.2600 -0.0743 -2.0066
  172MPD1    H1 2625   4.523   3.228   1.380  0.2653  2.2624  0.7004
  172MPD1    H2 2626   0.045   2.884   1.438 -0.4520 -0.4459 -1.0042
  172MPD1    H3 2627   4.554   3.018   1.483  0.8561 -0.4682  0.2147
  172MPD1     N 2628   4.686   3.364   1.229  0.1853  0.3491 -0.4937
  172MPD1    H5 2629   4.618   3.418   1.281  0.4594  0.4861 -0.2812
  172MPD1    N1 2630   0.240   2.973   1.317  0.3961 -0.3121  0.3556
  172MPD1    H6 2631   0.310   3.026   1.265  1.6585  0.1703  2.5689
  172MPD1    H7 2632   0.274   2.923   1.398 -0.8166 -2.2596 -0.3346
  173MPD1     C 2633   0.636   3.123  13.749  0.4462 -0.2555  0.2211
  173MPD1    C1 2634   0.552   3.140  13.853  0.3505  0.3217 -0.3021
  173MPD1    C2 2635   0.553   3.042  13.942  0.0482 -0.0586 -0.0255
  173MPD1    C3 2636   0.601   2.913  13.928  0.5632 -0.9048 -1.1226
  173MPD1    C4 2637   0.680   2.890  13.825  0.6873  0.4452 -0.6783
  173MPD1    C5 2638   0.694   2.996  13.738 -0.0011  0.4199 -0.3290
  173MPD1     H 2639   0.501   3.054  14.036 -0.3608 -1.1007 -0.1223
  173MPD1    H1 2640   0.724   2.792  13.811  0.2037  0.2962 -1.1691
  173MPD1    H2 2641   0.654   3.198  13.673 -0.4294  1.8353  2.0597
  173MPD1    H3 2642   0.768   2.988  13.660  1.7261  0.2615  1.3365
  173MPD1     N 2643   0.586   2.826  14.047  0.0193 -0.2090  0.3830
  173MPD1    H5 2644   0.550   2.872  14.130 -1.3760 -3.3157  1.5000
  173MPD1    N1 2645   0.471   3.259  13.867 -0.2168 -0.3097  0.1084
  173MPD1    H6 2646   0.462   3.307  13.777  2.0025 -0.0869  0.0121
  173MPD1    H7 2647   0.376   3.247  13.900 -0.2270  3.3405  1.4488
  174MPD1     C 2648   0.527   1.857  14.548 -0.2423  0.3565  0.1142
  174MPD1    C1 2649   0.577   1.895  14.427  0.6869  0.0073  0.0268
  174MPD1    C2 2650   0.548   2.024  14.379 -0.0244 -0.5048 -0.4979
  174MPD1    C3 2651   0.486   2.120  14.457 -0.3024 -0.4258  0.2810
  174MPD1    C4 2652   0.436   2.074  14.576 -0.5227  0.3115 -0.5220
  174MPD1    C5 2653   0.464   1.949  14.623  1.1313 -0.0412  0.2563
  174MPD1     H 2654   0.590   2.052  14.283 -0.9462 -2.3924 -1.4598
  174MPD1    H1 2655   0.408   2.154  14.643 -3.3619 -0.9367 -0.2120
  174MPD1    H2 2656   0.533   1.760  14.596  0.4313 -0.0454 -0.8034
  174MPD1    H3 2657   0.433   1.925  14.723  1.2146 -2.5977 -0.3448
  174MPD1     N 2658   0.481   2.257  14.430  0.0501  0.5973  0.2853
  174MPD1    H5 2659   0.446   2.325  14.496 -1.3235 -1.8812  2.1425
  174MPD1    N1 2660   0.641   1.806  14.344  0.6579 -0.8532  0.7452
  174MPD1    H6 2661   0.660   1.715  14.385 -1.2929 -2.4632 -1.8688
  174MPD1    H7 2662   0.714   1.834  14.280 -0.4355 -2.5451 -1.2667
  175MPD1     C 2663   4.333   3.754  16.003  0.5921 -0.0952 -0.2983
  175MPD1    C1 2664   4.216   3.682  16.023  0.0890  0.0275  0.3557
  175MPD1    C2 2665   4.212   3.598  16.136  0.3424 -0.2832 -0.4415
  175MPD1    C3 2666   4.323   3.569  16.211  0.0947 -0.1525  0.5076
  175MPD1    C4 2667   4.439   3.626  16.176  0.0785 -0.1864  0.0693
  175MPD1    C5 2668   4.441   3.720  16.078  0.0015  0.0080  0.1559
  175MPD1     H 2669   4.118   3.552  16.166  1.9924 -1.6154  2.7060
  175MPD1    H1 2670   4.532   3.609  16.229  0.1609  3.8412  1.2374
  175MPD1    H2 2671   4.343   3.832  15.929  0.5847  0.0404 -0.1578
  175MPD1    H3 2672   4.533   3.776  16.066  0.2091 -0.1761  0.8941
  175MPD1     N 2673   4.331   3.493  16.329 -0.0162 -0.2781  0.4303
  175MPD1    H5 2674   4.414   3.504  16.386  0.8684 -1.0374 -0.7217
  175MPD1    N1 2675   4.101   3.714  15.948 -0.0919  0.4914 -0.0331
  175MPD1    H6 2676   4.137   3.750  15.860 -1.3788 -1.6592 -1.4381
  175MPD1    H7 2677   4.027   3.646  15.933  0.2512 -0.4334  2.4328
  176MPD1     C 2678   0.713   0.631  17.107  0.1212 -0.5143 -0.3632
  176MPD1    C1 2679   0.748   0.739  17.021 -0.1676 -0.2400 -1.0061
  176MPD1    C2 2680   0.743   0.867  17.067 -0.3524 -0.9190 -0.0037
  176MPD1    C3 2681   0.699   0.898  17.191  0.4346  0.2394 -0.3231
  176MPD1    C4 2682   0.645   0.796  17.265  0.0433 -0.3707  0.7822
  176MPD1    C5 2683   0.650   0.665  17.218  0.3013 -0.3413  0.8051
  176MPD1     H 2684   0.779   0.950  17.007 -0.1869 -0.8680  0.1646
  176MPD1    H1 2685   0.599   0.809  17.362 -1.6218 -0.5707  0.0208
  176MPD1    H2 2686   0.714   0.528  17.074 -1.4403 -0.4386 -0.6199
  176MPD1    H3 2687   0.606   0.589  17.281 -0.2883 -0.4846  0.2196
  176MPD1     N 2688   0.717   1.029  17.243 -0.0835  0.0114 -0.4342
  176MPD1    H5 2689   0.754   1.095  17.176  1.8653  0.6427  1.2756
  176MPD1    N1 2690   0.777   0.710  16.889  0.1446 -0.6070  0.0657
  176MPD1    H6 2691   0.850   0.771  16.852  0.7099 -1.3719 -0.0754
  176MPD1    H7 2692   0.813   0.616  16.876  3.5843  0.8551 -1.0152
  177MPD1     C 2693   0.556   0.371   9.630  0.5603 -0.5212 -0.1054
  177MPD1    C1 2694   0.477   0.364   9.745 -0.5110  0.1430  0.1405
  177MPD1    C2 2695   0.341   0.345   9.726 -0.1377 -0.1730 -0.0953
  177MPD1    C3 2696   0.286   0.325   9.600  0.7355  0.4753 -0.8220
  177MPD1    C4 2697   0.367   0.331   9.484  0.2587  1.0884 -0.1917
  177MPD1    C5 2698   0.505   0.353   9.506  0.4209 -0.2123 -0.1724
  177MPD1     H 2699   0.272   0.347   9.809 -0.8435 -1.4298 -0.6482
  177MPD1    H1 2700   0.336   0.333   9.380 -0.2024  0.0012 -0.0684
  177MPD1    H2 2701   0.660   0.401   9.632  0.5954 -0.9184  3.0781
  177MPD1    H3 2702   0.571   0.351   9.419 -0.2454  0.1385 -0.6879
  177MPD1     N 2703   0.148   0.300   9.591  0.7193 -0.3365 -0.3500
  177MPD1    H5 2704   0.088   0.318   9.671 -0.1827  0.1690 -1.1517
  177MPD1    N1 2705   0.534   0.403   9.870  0.8148  0.1161  0.6213
  177MPD1    H6 2706   0.628   0.365   9.879  1.3032  0.8764 -1.1931
  177MPD1    H7 2707   0.474   0.373   9.946 -0.1236 -0.8373 -0.4933
  178MPD1     C 2708   1.108   2.389   0.251 -0.2150  0.4101 -0.0560
  178MPD1    C1 2709   1.243   2.369   0.235 -0.1500 -0.8622  1.1536
  178MPD1    C2 2710   1.296   2.244   0.234  0.1876  0.1275 -0.0088
  178MPD1    C3 2711   1.209   2.133   0.229  0.0181 -0.1453 -0.4146
  178MPD1    C4 2712   1.076   2.147   0.243 -0.5754 -0.5578 -0.4591
  178MPD1    C5 2713   1.027   2.277   0.259 -0.5200 -0.2287 -0.0459
  178MPD1     H 2714   1.402   2.233   0.218  0.4636  0.7644  1.3506
  178MPD1    H1 2715   1.013   2.063   0.217 -4.1821  1.9054  0.2613
  178MPD1    H2 2716   1.067   2.490   0.256  1.1012  0.9157  0.4780
  178MPD1    H3 2717   0.920   2.289   0.273 -0.5579  0.7132 -1.0785
  178MPD1     N 2718   1.249   2.007   0.183 -0.4628  0.4236  0.0474
  178MPD1    H5 2719   1.172   1.944   0.165 -0.4422  0.0774  1.1670
  178MPD1    N1 2720   1.329   2.482   0.224 -0.1549 -0.3471 -0.2120
  178MPD1    H6 2721   1.428   2.458   0.214 -0.6505 -2.4667  0.0136
  178MPD1    H7 2722   1.309   2.560   0.286  0.2678 -1.6386  1.5354
  179MPD1     C 2723   0.940   0.418  15.717 -0.4878 -0.3998  0.3592
  179MPD1    C1 2724   1.060   0.353  15.694  0.5621 -0.0474  0.0637
  179MPD1    C2 2725   1.091   0.247  15.770  0.7678  0.3305 -0.4749
  179MPD1    C3 2726   1.001   0.200  15.871  0.6314 -0.4726  0.0183
  179MPD1    C4 2727   0.893   0.282  15.897 -0.3875 -0.2057  0.2782
  179MPD1    C5 2728   0.864   0.390  15.825  0.5302 -0.0843  0.3967
  179MPD1     H 2729   1.176   0.188  15.738 -0.2639 -1.5515  0.2504
  179MPD1    H1 2730   0.821   0.253  15.972  1.5275  0.6959  2.4735
  179MPD1    H2 2731   0.904   0.491  15.645  1.2137  2.3282  2.2685
  179MPD1    H3 2732   0.778   0.440  15.869  0.5878  0.5149 -0.1545
  179MPD1     N 2733   1.017   0.073  15.931  0.4992  0.7496 -0.2871
  179MPD1    H5 2734   0.945   0.043  15.995 -2.2812 -0.0794 -3.8222
  179MPD1    N1 2735   1.125   0.388  15.574 -0.1132 -0.5257 -0.6361
  179MPD1    H6 2736   1.224   0.368  15.574 -0.0538 -0.2424  1.9787
  179MPD1    H7 2737   1.103   0.483  15.545 -0.5502 -0.8158 -1.2474
  180MPD1     C 2738   0.947   1.282  15.699  0.1900 -0.4600 -0.6318
  180MPD1    C1 2739   0.945   1.153  15.653  0.0940 -0.6296  0.6409
  180MPD1    C2 2740   1.048   1.109  15.583  0.3500 -0.2829  0.5065
  180MPD1    C3 2741   1.148   1.194  15.538  0.6120 -0.2566 -0.2836
  180MPD1    C4 2742   1.142   1.326  15.569  0.0661  0.2981 -0.4748
  180MPD1    C5 2743   1.045   1.369  15.652 -0.7005  0.5784  0.9900
  180MPD1     H 2744   1.037   1.005  15.554  1.2578 -0.6019  1.2690
  180MPD1    H1 2745   1.221   1.398  15.547  0.7616 -0.6292 -1.0295
  180MPD1    H2 2746   0.864   1.315  15.761  0.1494 -1.8215  0.0339
  180MPD1    H3 2747   1.037   1.476  15.667 -0.7647  0.4292  2.0231
  180MPD1     N 2748   1.238   1.145  15.445 -0.2974  0.2129 -0.2957
  180MPD1    H5 2749   1.233   1.044  15.433  1.5560  0.3838 -2.6098
  180MPD1    N1 2750   0.845   1.062  15.695 -0.6827 -0.0279 -0.6676
  180MPD1    H6 2751   0.829   1.057  15.795  1.1459  1.1527 -0.3050
  180MPD1    H7 2752   0.843   0.966  15.661  0.9582  0.2336 -1.5664
  181MPD1     C 2753   3.906   3.090  11.071 -0.3043  0.0803 -0.4590
  181MPD1    C1 2754   3.902   2.962  11.024  0.2970 -0.6120 -0.6706
  181MPD1    C2 2755   3.973   2.932  10.914 -0.1812 -0.5800 -0.7991
  181MPD1    C3 2756   4.083   3.006  10.874 -0.6687  0.8254  0.0153
  181MPD1    C4 2757   4.102   3.126  10.936 -1.0105  0.0276 -0.1599
  181MPD1    C5 2758   4.009   3.170  11.028 -0.4539  0.0437 -0.1172
  181MPD1     H 2759   3.948   2.839  10.866 -1.5169  0.7687 -2.6938
  181MPD1    H1 2760   4.193   3.184  10.922 -1.6199  1.1625  0.5422
  181MPD1    H2 2761   3.831   3.133  11.136 -1.0950 -0.8043 -0.7867
  181MPD1    H3 2762   4.024   3.268  11.073  0.9897  0.5078 -1.6277
  181MPD1     N 2763   4.150   2.984  10.756 -0.3159 -0.1059  0.3165
  181MPD1    H5 2764   4.212   3.060  10.730  0.0198 -0.1887  0.8859
  181MPD1    N1 2765   3.800   2.881  11.060 -0.4628 -0.0761 -0.3294
  181MPD1    H6 2766   3.782   2.894  11.160 -1.2920  0.4481 -0.5397
  181MPD1    H7 2767   3.818   2.783  11.040  3.3908  0.5787  0.0814
  182MPD1     C 2768   3.425   2.525   2.070  0.7706 -0.6339 -0.1406
  182MPD1    C1 2769   3.366   2.452   2.167 -0.4687  0.0940  0.0212
  182MPD1    C2 2770   3.236   2.413   2.150 -0.0562  0.1213 -0.5040
  182MPD1    C3 2771   3.158   2.455   2.042 -0.3919  0.1621 -0.0716
  182MPD1    C4 2772   3.218   2.532   1.948 -0.3274 -0.6394 -0.3178
  182MPD1    C5 2773   3.350   2.567   1.964  0.7272  0.3374  0.2006
  182MPD1     H 2774   3.176   2.376   2.233 -0.1585  0.8280 -0.2581
  182MPD1    H1 2775   3.159   2.574   1.867  0.1523  0.5836 -0.0192
  182MPD1    H2 2776   3.526   2.563   2.080  0.3880  1.5023 -4.3672
  182MPD1    H3 2777   3.394   2.645   1.904  1.5552 -0.4493 -0.2271
  182MPD1     N 2778   3.021   2.421   2.028 -0.7064 -0.2589  0.3571
  182MPD1    H5 2779   2.974   2.465   1.949  0.8041 -0.0891 -0.4616
  182MPD1    N1 2780   3.419   2.445   2.298  0.4257 -0.4681  0.7845
  182MPD1    H6 2781   3.520   2.446   2.308  0.2973  0.5130  1.9660
  182MPD1    H7 2782   3.387   2.368   2.356 -1.6422  0.7489  1.2745
  183MPD1     C 2783   3.651   3.526  10.252 -0.0455 -0.8194 -0.4575
  183MPD1    C1 2784   3.722   3.643  10.214  0.3174 -0.0134 -0.7069
  183MPD1    C2 2785   3.847   3.633  10.149  0.0923  0.5351 -0.6033
  183MPD1    C3 2786   3.893   3.509  10.130 -0.7711  0.1353  0.7591
  183MPD1    C4 2787   3.823   3.397  10.177  0.1911  0.2458  0.2019
  183MPD1    C5 2788   3.707   3.407  10.238  1.2243 -0.3335 -0.6969
  183MPD1     H 2789   3.909   3.721  10.135  1.6454 -0.6976 -1.3837
  183MPD1    H1 2790   3.873   3.301  10.180  1.7111  0.9758 -1.6247
  183MPD1    H2 2791   3.558   3.532  10.307  0.8052 -1.9220  1.1162
  183MPD1    H3 2792   3.658   3.321  10.284 -0.2012  0.1329 -1.3345
  183MPD1     N 2793   4.013   3.513  10.059 -0.1371  0.3740  0.1696
  183MPD1    H5 2794   4.057   3.601  10.036  1.4662 -0.4496  0.0460
  183MPD1    N1 2795   3.658   3.767  10.219 -0.3880  0.0221 -1.2378
  183MPD1    H6 2796   3.582   3.770  10.287 -0.2861  0.7825 -1.1572
  183MPD1    H7 2797   3.716   3.849  10.229  0.0882 -0.4349 -0.2681
  184MPD1     C 2798   3.092   1.144  10.365  0.1508  0.1336 -0.1220
  184MPD1    C1 2799   2.981   1.069  10.352  0.3060 -0.4163  0.0649
  184MPD1    C2 2800   3.002   0.947  10.292  0.4476 -0.3472  0.1797
  184MPD1    C3 2801   3.132   0.894  10.285 -0.2099  0.1864  0.6809
  184MPD1    C4 2802   3.236   0.967  10.323 -0.5431  0.0457  0.2574
  184MPD1    C5 2803   3.221   1.098  10.355 -0.5280  0.0027  0.0380
  184MPD1     H 2804   2.920   0.880  10.266  0.9985 -0.2180 -1.8975
  184MPD1    H1 2805   3.335   0.923  10.323 -0.7794 -0.4887  0.6059
  184MPD1    H2 2806   3.085   1.245  10.405  0.4689 -0.0384  0.3606
  184MPD1    H3 2807   3.306   1.159  10.382 -0.4795  0.1109 -0.3610
  184MPD1     N 2808   3.161   0.767  10.235 -0.4945 -0.0628  0.4547
  184MPD1    H5 2809   3.261   0.751  10.222 -0.4063  0.8888 -0.0474
  184MPD1    N1 2810   2.851   1.123  10.364  0.7733  0.2840  0.0075
  184MPD1    H6 2811   2.777   1.059  10.390  0.8458  0.0815 -0.2831
  184MPD1    H7 2812   2.846   1.201  10.429 -1.5844  1.6430 -1.7961
  185MPD1     C 2813   2.446   0.275   9.992 -0.1099  0.1146  0.2649
  185MPD1    C1 2814   2.540   0.182   9.956  0.0449 -0.2981 -0.3348
  185MPD1    C2 2815   2.671   0.193  10.002  0.0821 -0.2893  0.8042
  185MPD1    C3 2816   2.706   0.307  10.078  0.5762 -0.2662 -0.0396
  185MPD1    C4 2817   2.618   0.413  10.094 -0.6506 -0.5801  0.2787
  185MPD1    C5 2818   2.488   0.393  10.050  0.6515  0.3093  0.0824
  185MPD1     H 2819   2.741   0.111   9.996  0.5087  0.1748 -0.5816
  185MPD1    H1 2820   2.635   0.503  10.151  0.2042 -1.0191  0.7122
  185MPD1    H2 2821   2.339   0.255   9.993 -0.1894  0.6125  1.7159
  185MPD1    H3 2822   2.406   0.460  10.076  0.9044  0.1756  1.2234
  185MPD1     N 2823   2.838   0.327  10.128 -0.6739 -0.8904 -0.4904
  185MPD1    H5 2824   2.862   0.417  10.167 -1.1434 -1.8495  2.0447
  185MPD1    N1 2825   2.488   0.070   9.883 -0.2271 -0.4743  0.5373
  185MPD1    H6 2826   2.398   0.083   9.836  0.2749 -0.5130 -0.4416
  185MPD1    H7 2827   2.551   0.037   9.811 -0.4293  1.0792 -0.3719
  186MPD1     C 2828   1.617   4.479  15.979  0.3536  0.2558  0.1229
  186MPD1    C1 2829   1.630   4.601  15.915 -0.8447  0.1875 -0.5424
  186MPD1    C2 2830   1.609   4.717  15.979  0.3668 -0.2186  0.4317
  186MPD1    C3 2831   1.554   4.714  16.105 -0.3464  0.4462 -0.0223
  186MPD1    C4 2832   1.530   4.587  16.162  0.3921 -0.3158 -0.2172
  186MPD1    C5 2833   1.563   4.471  16.098  0.3905 -0.0211  0.9163
  186MPD1     H 2834   1.640   0.089  15.932 -0.6079 -0.9291 -1.6294
  186MPD1    H1 2835   1.504   4.571  16.266  0.0401 -0.3209 -0.3063
  186MPD1    H2 2836   1.648   4.385  15.934  1.1815  0.5488  0.0848
  186MPD1    H3 2837   1.549   4.374  16.144 -2.4070 -0.4303 -0.8328
  186MPD1     N 2838   1.545   0.101  16.184 -0.4963  0.2904 -0.3279
  186MPD1    H5 2839   1.497   0.094  16.274 -2.8334  1.0511 -1.5105
  186MPD1    N1 2840   1.690   4.599  15.788  0.0552 -0.4085  0.3008
  186MPD1    H6 2841   1.683   4.513  15.734  1.0053 -0.9212  1.0008
  186MPD1    H7 2842   1.645   4.667  15.727  3.6925 -1.1633 -3.2045
  187MPD1     C 2843   0.109   2.460   0.558  1.4240 -0.0913 -0.0720
  187MPD1    C1 2844   0.211   2.368   0.544  0.5542  0.6497  0.0585
  187MPD1    C2 2845   0.263   2.344   0.416  0.3952  0.2593  0.2768
  187MPD1    C3 2846   0.243   2.431   0.310  0.2411  0.1015 -0.4299
  187MPD1    C4 2847   0.151   2.533   0.327  0.2634 -0.5496 -0.3195
  187MPD1    C5 2848   0.081   2.544   0.448  0.2894 -0.4075  0.0172
  187MPD1     H 2849   0.343   2.272   0.409 -0.6689 -0.8232 -0.6447
  187MPD1    H1 2850   0.130   2.596   0.242 -1.0582 -0.4639  0.0817
  187MPD1    H2 2851   0.063   2.487   0.653 -0.3914 -4.2407  0.1992
  187MPD1    H3 2852   0.002   2.617   0.465  1.6422  1.4450 -1.6494
  187MPD1     N 2853   0.309   2.417   0.191 -0.1273  0.6416 -0.5917
  187MPD1    H5 2854   0.290   2.486   0.119 -3.2228 -1.7791 -2.0818
  187MPD1    N1 2855   0.240   2.287   0.651 -0.1287 -0.0021  0.4769
  187MPD1    H6 2856   0.218   2.330   0.741 -0.9596 -0.5477  0.5313
  187MPD1    H7 2857   0.318   2.222   0.649  0.9650  1.3651 -1.1037
  188MPD1     C 2858   0.914   2.586  10.730 -0.4218 -0.2749  0.5416
  188MPD1    C1 2859   0.849   2.580  10.605 -0.5956 -0.0357 -0.5114
  188MPD1    C2 2860   0.834   2.465  10.539 -0.2837  0.2840 -0.0129
  188MPD1    C3 2861   0.857   2.341  10.597  0.1036  0.0526 -0.1865
  188MPD1    C4 2862   0.934   2.338  10.707 -0.1095 -0.7079 -0.3271
  188MPD1    C5 2863   0.956   2.459  10.774 -0.5313  0.4908 -0.1866
  188MPD1     H 2864   0.790   2.465  10.440  3.2065 -0.3997 -1.5594
  188MPD1    H1 2865   0.970   2.242  10.742  0.8539 -0.3839 -0.4299
  188MPD1    H2 2866   0.951   2.679  10.773 -1.7602  0.2625  0.5438
  188MPD1    H3 2867   1.007   2.449  10.869 -0.4524 -0.3083 -0.3129
  188MPD1     N 2868   0.829   2.212  10.545 -0.2954  0.6105  0.9456
  188MPD1    H5 2869   0.827   2.138  10.615 -0.0255 -1.4816 -1.2809
  188MPD1    N1 2870   0.822   2.693  10.541 -0.4716 -0.7477 -0.0289
  188MPD1    H6 2871   0.745   2.695  10.474 -0.6729  0.7855  0.2555
  188MPD1    H7 2872   0.798   2.760  10.614 -0.1427  1.4046 -1.9078
  189MPD1     C 2873   1.803   2.541   1.620 -0.3079 -0.0224 -0.1597
  189MPD1    C1 2874   1.749   2.424   1.564  0.5822 -0.5209 -0.1559
  189MPD1    C2 2875   1.728   2.431   1.427 -0.5102 -0.4929  0.1636
  189MPD1    C3 2876   1.741   2.544   1.352 -0.5398  0.9382  0.1092
  189MPD1    C4 2877   1.817   2.642   1.401 -0.5662  0.4627  0.4150
  189MPD1    C5 2878   1.848   2.640   1.536 -0.9854 -0.2114 -0.5414
  189MPD1     H 2879   1.678   2.342   1.391 -0.8397 -0.6888  1.1075
  189MPD1    H1 2880   1.843   2.725   1.336  0.9236  0.2705  0.7658
  189MPD1    H2 2881   1.791   2.557   1.726 -1.0466 -1.2980 -0.0587
  189MPD1    H3 2882   1.914   2.719   1.570  0.0140 -1.2233 -0.1193
  189MPD1     N 2883   1.675   2.549   1.232  0.1721  0.3480 -0.2494
  189MPD1    H5 2884   1.616   2.473   1.200 -1.5232  1.9668 -0.9725
  189MPD1    N1 2885   1.671   2.332   1.646  0.8284  0.4130  0.1397
  189MPD1    H6 2886   1.669   2.239   1.606  0.2468  1.1775 -1.6305
  189MPD1    H7 2887   1.706   2.326   1.741  2.0089  2.1467 -0.1821
  190MPD1     C 2888   0.802   0.965  16.189 -0.7712  0.0272 -0.0647
  190MPD1    C1 2889   0.781   1.097  16.155  0.1442 -0.1277 -0.7545
  190MPD1    C2 2890   0.891   1.162  16.096  0.2486 -0.8067 -0.4274
  190MPD1    C3 2891   1.005   1.100  16.056 -0.1016 -0.8821 -0.0560
  190MPD1    C4 2892   1.012   0.967  16.064  0.0281 -0.1425 -0.6633
  190MPD1    C5 2893   0.911   0.906  16.132  0.0684  0.1175 -0.0245
  190MPD1     H 2894   0.893   1.269  16.079  0.1576 -1.0560 -2.0596
  190MPD1    H1 2895   1.099   0.909  16.034  0.2543  0.1340 -0.5430
  190MPD1    H2 2896   0.723   0.908  16.237 -0.4238 -1.6850 -1.5122
  190MPD1    H3 2897   0.923   0.800  16.148  0.0193  0.2789  1.0892
  190MPD1     N 2898   1.109   1.175  15.988 -0.1922  0.5953  0.2148
  190MPD1    H5 2899   1.083   1.266  15.951 -3.0275  0.4158  1.7395
  190MPD1    N1 2900   0.673   1.176  16.205  0.5741  0.3698 -0.2303
  190MPD1    H6 2901   0.585   1.124  16.208  0.6359  0.2216 -1.0166
  190MPD1    H7 2902   0.656   1.243  16.131  3.9805  0.0665 -1.2717
  191MPD1     C 2903   0.871   3.040  12.843 -0.5907 -0.1110 -0.1391
  191MPD1    C1 2904   0.815   3.115  12.945  0.1925  0.1039 -0.3224
  191MPD1    C2 2905   0.776   3.243  12.909  0.6522  0.3888 -0.1074
  191MPD1    C3 2906   0.770   3.284  12.779 -0.3089  0.2033 -0.7863
  191MPD1    C4 2907   0.823   3.205  12.678 -0.0961  0.6220 -0.3128
  191MPD1    C5 2908   0.869   3.086  12.710  0.0201  0.8593 -0.1334
  191MPD1     H 2909   0.738   3.309  12.987 -0.1529  0.1313 -0.2857
  191MPD1    H1 2910   0.829   3.230  12.572  1.7015 -2.1295 -0.8548
  191MPD1    H2 2911   0.916   2.945  12.871  0.2697  0.4282  0.3091
  191MPD1    H3 2912   0.915   3.025  12.633  2.2555 -0.3332  2.1449
  191MPD1     N 2913   0.720   3.412  12.752 -0.6298 -0.1719 -0.0542
  191MPD1    H5 2914   0.684   3.468  12.828  1.4884  2.5074 -1.0640
  191MPD1    N1 2915   0.828   3.075  13.079  0.7914 -0.5643 -0.7415
  191MPD1    H6 2916   0.744   3.096  13.132  0.7285  1.2794 -1.5553
  191MPD1    H7 2917   0.851   2.976  13.078  2.1867 -0.2658  1.0043
  192MPD1     C 2918   0.666   3.858  13.456  0.2702 -0.6570  0.3015
  192MPD1    C1 2919   0.636   3.742  13.387  0.5262  0.8354 -0.3363
  192MPD1    C2 2920   0.627   3.740  13.249  0.2869 -0.1886 -0.7064
  192MPD1    C3 2921   0.650   3.847  13.170  0.1253 -0.2072 -0.0847
  192MPD1    C4 2922   0.680   3.966  13.241 -0.0025  0.0355  0.0968
  192MPD1    C5 2923   0.680   3.970  13.381  0.4068 -1.0583  0.1637
  192MPD1     H 2924   0.580   3.650  13.212 -2.9130  1.4652 -0.6667
  192MPD1    H1 2925   0.687   4.061  13.191  1.4025 -0.3231 -0.3814
  192MPD1    H2 2926   0.653   3.864  13.563 -0.6805  0.7606  0.1117
  192MPD1    H3 2927   0.690   4.066  13.430  0.2094 -0.5438 -0.7904
  192MPD1     N 2928   0.636   3.846  13.025  0.3920  0.3785  0.4231
  192MPD1    H5 2929   0.636   3.938  12.981  2.5483  0.8762  1.4739
  192MPD1    N1 2930   0.590   3.620  13.440 -0.5900 -0.0333  0.0820
  192MPD1    H6 2931   0.633   3.598  13.529  2.1963  0.2671 -1.2011
  192MPD1    H7 2932   0.604   3.543  13.375 -0.4971 -0.5685  0.7488
  193MPD1     C 2933   0.142   3.218  16.304 -0.1620 -0.1050 -0.0806
  193MPD1    C1 2934   0.101   3.324  16.385 -1.1879  1.0420 -0.9206
  193MPD1    C2 2935   0.200   3.391  16.460 -0.1511 -0.0880  0.4677
  193MPD1    C3 2936   0.315   3.326  16.489  0.8675 -0.7578  0.3859
  193MPD1    C4 2937   0.343   3.207  16.431 -0.2766  0.2516  0.4531
  193MPD1    C5 2938   0.262   3.154  16.329 -0.2118 -0.0647 -0.5898
  193MPD1     H 2939   0.176   3.482  16.513  1.7920  1.1322 -0.7513
  193MPD1    H1 2940   0.439   3.162  16.456  0.5897  0.8072 -1.9135
  193MPD1    H2 2941   0.083   3.184  16.220 -1.3192  0.4394  0.5085
  193MPD1    H3 2942   0.301   3.065  16.281  2.0446  0.2116  0.7093
  193MPD1     N 2943   0.421   3.382  16.560 -0.0563  0.4080 -0.0759
  193MPD1    H5 2944   0.512   3.336  16.560  0.7222  1.9400 -1.2969
  193MPD1    N1 2945   4.710   3.394  16.333 -0.2543 -0.2698  0.0110
  193MPD1    H6 2946   4.663   3.455  16.399  0.5126 -2.8552  2.9948
  193MPD1    H7 2947   4.644   3.333  16.286  0.1721 -0.5029 -0.2822
  194MPD1     C 2948   2.517   0.767  16.604  0.3040 -0.3502 -0.9583
  194MPD1    C1 2949   2.471   0.642  16.615  0.3340 -0.4150 -0.2167
  194MPD1    C2 2950   2.548   0.558  16.697  0.1388  0.2285  0.6520
  194MPD1    C3 2951   2.673   0.598  16.744 -0.1783  0.0314  0.5574
  194MPD1    C4 2952   2.721   0.721  16.723  0.0974 -0.1309 -0.5795
  194MPD1    C5 2953   2.635   0.806  16.651 -0.9049 -0.3220  0.5517
  194MPD1     H 2954   2.507   0.461  16.720 -0.8329  0.7493  1.0866
  194MPD1    H1 2955   2.813   0.757  16.768 -1.0033  0.3745  1.2317
  194MPD1    H2 2956   2.453   0.846  16.567 -1.5184 -0.8192  1.1836
  194MPD1    H3 2957   2.655   0.912  16.647  1.7984 -0.7758  1.8409
  194MPD1     N 2958   2.758   0.514  16.823 -0.1927  0.3292 -0.1940
  194MPD1    H5 2959   2.847   0.557  16.847 -0.5219  1.6187 -1.2922
  194MPD1    N1 2960   2.344   0.603  16.574 -0.3629 -0.2875  0.2462
  194MPD1    H6 2961   2.311   0.653  16.492  1.0435 -2.3047 -1.5721
  194MPD1    H7 2962   2.337   0.503  16.555 -0.5467 -0.2825  0.2919
  195MPD1     C 2963   0.442   2.323   1.138  0.3115  0.6170  0.2247
  195MPD1    C1 2964   0.306   2.288   1.132  1.1154  0.0384 -0.3483
  195MPD1    C2 2965   0.283   2.191   1.035  0.2707 -0.1857  0.0644
  195MPD1    C3 2966   0.376   2.126   0.960  0.3084  0.2526  0.1708
  195MPD1    C4 2967   0.506   2.158   0.978 -0.3332 -0.7114 -0.3681
  195MPD1    C5 2968   0.540   2.260   1.067  0.1201  0.2328  0.2042
  195MPD1     H 2969   0.178   2.169   1.017 -0.4418  2.3902  1.0828
  195MPD1    H1 2970   0.581   2.114   0.912 -0.2110  0.2956 -0.8968
  195MPD1    H2 2971   0.478   2.409   1.194 -0.8258  2.2009 -1.4871
  195MPD1    H3 2972   0.642   2.296   1.080  0.6205 -1.0960 -0.0493
  195MPD1     N 2973   0.345   2.024   0.862 -0.8053 -0.3665 -0.7140
  195MPD1    H5 2974   0.425   1.984   0.815  0.8856  1.7600  0.3768
  195MPD1    N1 2975   0.198   2.367   1.185 -0.0564 -0.0808 -0.0281
  195MPD1    H6 2976   0.226   2.436   1.255 -2.3997 -1.1617  1.9584
  195MPD1    H7 2977   0.117   2.314   1.215  0.5803 -0.5649  0.8696
  196MPD1     C 2978   4.139   2.293   0.040  0.7569 -0.0363 -0.1046
  196MPD1    C1 2979   4.171   2.403   0.098 -0.8137  0.0246  0.6981
  196MPD1    C2 2980   4.149   2.417   0.233  0.5873 -0.3723 -0.0100
  196MPD1    C3 2981   4.093   2.319   0.305 -0.3183 -0.0943 -0.0372
  196MPD1    C4 2982   4.057   2.200   0.246  0.4151 -0.0685 -0.6742
  196MPD1    C5 2983   4.080   2.190   0.110 -0.0617 -0.5477  0.2961
  196MPD1     H 2984   4.185   2.507   0.281 -1.1674  0.4980 -0.3483
  196MPD1    H1 2985   4.013   2.115   0.297  1.9749 -0.5763 -0.1846
  196MPD1    H2 2986   4.163   2.264  17.624 -3.2636  1.8923 -1.6174
  196MPD1    H3 2987   4.056   2.097   0.060  1.6402 -0.4539 -0.7013
  196MPD1     N 2988   4.071   2.327   0.444  0.4744 -0.6771  0.7954
  196MPD1    H5 2989   4.037   2.243   0.489  0.4113 -0.3234  1.4083
  196MPD1    N1 2990   4.242   2.503   0.026  0.2148  0.1451 -0.2932
  196MPD1    H6 2991   4.219   2.594   0.064 -2.4252 -0.1433 -1.1671
  196MPD1    H7 2992   4.212   2.510  17.615 -0.8531 -0.9562 -0.0427
  197MPD1     C 2993   4.540   4.448   0.411 -0.1980 -0.1239  0.3529
  197MPD1    C1 2994   4.507   4.566   0.343 -0.0286  0.7171 -0.1662
  197MPD1    C2 2995   4.402   4.565   0.259 -0.1229 -0.3064 -0.1293
  197MPD1    C3 2996   4.332   4.447   0.228 -0.6634 -0.0316 -0.3754
  197MPD1    C4 2997   4.375   4.326   0.291  0.0468  0.3522  0.2781
  197MPD1    C5 2998   4.472   4.333   0.383  0.5705 -0.0216  0.1204
  197MPD1     H 2999   4.380   4.660   0.212 -0.7171  0.1652  1.1182
  197MPD1    H1 3000   4.339   4.230   0.257  1.8459  0.3866 -1.7547
  197MPD1    H2 3001   4.623   4.444   0.481 -0.7593  0.5550  1.0563
  197MPD1    H3 3002   4.502   4.241   0.431  1.8317  0.1476 -0.3292
  197MPD1     N 3003   4.236   4.427   0.128 -0.0742  0.6643  0.0457
  197MPD1    H5 3004   4.196   4.336   0.111  1.0363  0.2749 -0.4245
  197MPD1    N1 3005   4.583   4.689   0.350 -0.5727 -0.1514  0.0849
  197MPD1    H6 3006   4.570   0.026   0.267  0.7486  0.7399  0.5053
  197MPD1    H7 3007   4.684   4.675   0.348 -0.3643  1.4871 -1.4388
  198MPD1     C 3008   1.185   3.315  15.610  0.2004  0.5164  0.3816
  198MPD1    C1 3009   1.156   3.322  15.742  0.1014 -0.3208  0.3185
  198MPD1    C2 3010   1.162   3.199  15.814 -0.5243 -0.0893 -1.2826
  198MPD1    C3 3011   1.175   3.080  15.743  0.6441 -0.2562 -0.2636
  198MPD1    C4 3012   1.194   3.077  15.607  0.3759 -0.8579  0.1086
  198MPD1    C5 3013   1.202   3.195  15.540 -0.0349 -0.0405  0.2522
  198MPD1     H 3014   1.150   3.204  15.922 -1.9098  1.0450 -1.4910
  198MPD1    H1 3015   1.207   2.993  15.540  1.4062 -2.5661  2.4793
  198MPD1    H2 3016   1.207   3.408  15.558 -1.5938  0.7380  0.0266
  198MPD1    H3 3017   1.219   3.182  15.433  0.7687 -1.0557  0.4936
  198MPD1     N 3018   1.164   2.960  15.815  0.4176 -0.0204  0.7479
  198MPD1    H5 3019   1.159   2.874  15.760 -1.9108  0.4167  0.2900
  198MPD1    N1 3020   1.153   3.450  15.803  0.1246 -0.0216  0.5871
  198MPD1    H6 3021   1.104   3.520  15.748 -0.7395 -1.1699 -0.1010
  198MPD1    H7 3022   1.108   3.445  15.894  2.7293  0.6439  1.9090
  199MPD1     C 3023   3.572   2.609  10.114  0.4132  0.8350 -1.1747
  199MPD1    C1 3024   3.687   2.683  10.098  0.3640  0.7695 -0.3860
  199MPD1    C2 3025   3.686   2.813  10.050 -0.0317  0.2050  0.2094
  199MPD1    C3 3026   3.564   2.872  10.016  0.0758  1.0910  0.5190
  199MPD1    C4 3027   3.454   2.798  10.014  0.1358  0.2404 -0.0046
  199MPD1    C5 3028   3.455   2.674  10.077  0.3688 -0.3229  0.7079
  199MPD1     H 3029   3.773   2.873  10.071 -1.7053  3.5786 -2.4641
  199MPD1    H1 3030   3.364   2.838   9.968 -0.7719  0.0468  1.5975
  199MPD1    H2 3031   3.563   2.512  10.162  1.6244  1.6671  0.7560
  199MPD1    H3 3032   3.358   2.629  10.095  0.2386 -0.6498 -0.8063
  199MPD1     N 3033   3.553   3.003   9.949 -0.1143  0.3361 -0.1240
  199MPD1    H5 3034   3.459   3.028   9.921 -0.5723 -3.1557 -1.6875
  199MPD1    N1 3035   3.795   2.635  10.167  0.0783  0.5206  0.1700
  199MPD1    H6 3036   3.810   2.534  10.162 -0.5550  0.3605  1.5987
  199MPD1    H7 3037   3.882   2.682  10.143  0.4425 -0.6303 -0.7349
  200MPD1     C 3038   2.006   3.459  15.031 -0.2224 -0.2284 -1.2157
  200MPD1    C1 3039   2.010   3.441  14.896 -1.2414  0.6859 -0.2624
  200MPD1    C2 3040   2.116   3.502  14.822  0.1444  0.1969 -0.2530
  200MPD1    C3 3041   2.216   3.577  14.882  0.4125  0.0907  0.4310
  200MPD1    C4 3042   2.204   3.598  15.016  0.0249  0.7069  0.0536
  200MPD1    C5 3043   2.104   3.533  15.079  0.1594  0.0185  0.0373
  200MPD1     H 3044   2.122   3.490  14.715 -0.6912  0.6068 -0.3427
  200MPD1    H1 3045   2.272   3.660  15.073  0.1020  0.8522 -0.1944
  200MPD1    H2 3046   1.914   3.432  15.081  1.5799 -2.6223  0.8192
  200MPD1    H3 3047   2.098   3.559  15.184 -0.9688  0.4659 -0.1347
  200MPD1     N 3048   2.331   3.606  14.804  0.8331 -0.1528 -0.1824
  200MPD1    H5 3049   2.336   3.571  14.710  0.1600  3.9048 -1.7446
  200MPD1    N1 3050   1.897   3.383  14.839 -0.1324 -0.2465  0.4222
  200MPD1    H6 3051   1.863   3.304  14.893  1.1718 -2.3048 -1.7700
  200MPD1    H7 3052   1.921   3.334  14.754  1.9400 -0.0354  0.8749
  201MPD1     C 3053   4.178   2.956  13.468  0.9240  0.5700 -0.1400
  201MPD1    C1 3054   4.291   2.991  13.406  0.2032  0.2824 -0.1665
  201MPD1    C2 3055   4.405   2.932  13.445  0.0601  0.2869  0.9317
  201MPD1    C3 3056   4.421   2.834  13.535 -0.2588  0.6605 -0.6199
  201MPD1    C4 3057   4.309   2.798  13.600  0.1140  0.5442 -0.4462
  201MPD1    C5 3058   4.190   2.853  13.562  0.1301  0.5580  0.8760
  201MPD1     H 3059   4.501   2.951  13.399 -0.6863  0.5051 -0.5327
  201MPD1    H1 3060   4.297   2.718  13.672 -0.7334  1.2630  0.2256
  201MPD1    H2 3061   4.080   2.994  13.444  0.9674  1.3737  0.9424
  201MPD1    H3 3062   4.097   2.829  13.611 -1.0388 -1.1348 -2.1300
  201MPD1     N 3063   4.551   2.778  13.556 -0.1537 -0.0053 -1.1620
  201MPD1    H5 3064   4.630   2.815  13.504  1.0050 -1.9504 -0.7985
  201MPD1    N1 3065   4.284   3.103  13.320 -0.3777  0.1279  0.5364
  201MPD1    H6 3066   4.190   3.103  13.280 -0.9251 -0.7976  1.8301
  201MPD1    H7 3067   4.356   3.097  13.248 -1.6377  3.2921 -0.9659
  202MPD1     C 3068   4.068   2.400   9.413  0.4172  0.2410  0.8727
  202MPD1    C1 3069   4.066   2.274   9.478  0.1261  0.2682  0.5323
  202MPD1    C2 3070   4.156   2.258   9.584 -0.0881  0.1188  0.3283
  202MPD1    C3 3071   4.217   2.367   9.648  0.7985 -0.1530  0.7494
  202MPD1    C4 3072   4.210   2.488   9.583 -0.5003  0.3795 -0.0976
  202MPD1    C5 3073   4.131   2.507   9.464 -0.0653  0.4019  0.2101
  202MPD1     H 3074   4.155   2.160   9.632 -1.8221 -0.0067  0.0670
  202MPD1    H1 3075   4.253   2.578   9.624 -0.8286 -0.6216  2.4046
  202MPD1    H2 3076   4.008   2.423   9.326  0.5322  0.6612  0.9036
  202MPD1    H3 3077   4.123   2.603   9.415  0.2440 -1.7593 -4.1074
  202MPD1     N 3078   4.294   2.360   9.768 -0.7496 -0.2127  0.0623
  202MPD1    H5 3079   4.328   2.451   9.799  0.2276 -0.8788  0.9400
  202MPD1    N1 3080   4.018   2.160   9.413  0.5349  0.8411 -0.2511
  202MPD1    H6 3081   3.991   2.085   9.477  2.9236  1.3679  1.3497
  202MPD1    H7 3082   3.939   2.177   9.351  0.8505 -1.6298 -1.3529
  203MPD1     C 3083   2.993   3.208  12.928  0.2842 -0.4273 -0.4579
  203MPD1    C1 3084   2.964   3.080  12.969  0.5197 -0.4056  0.1646
  203MPD1    C2 3085   3.053   2.985  12.928 -0.1359  0.5256 -0.0177
  203MPD1    C3 3086   3.181   3.020  12.870  0.1624 -0.2072  0.2689
  203MPD1    C4 3087   3.200   3.153  12.836  0.1404  0.5962  0.1654
  203MPD1    C5 3088   3.101   3.245  12.863  0.2514 -1.1459  0.9185
  203MPD1     H 3089   3.043   2.881  12.958  0.7223 -0.1323 -2.0203
  203MPD1    H1 3090   3.293   3.195  12.800 -0.2895 -0.1868 -1.8504
  203MPD1    H2 3091   2.915   3.283  12.921  1.2718  0.8190  1.9535
  203MPD1    H3 3092   3.109   3.347  12.825  2.2147 -1.7294 -0.2602
  203MPD1     N 3093   3.274   2.919  12.836  0.3711  0.3194 -0.2446
  203MPD1    H5 3094   3.256   2.824  12.866  2.0563 -0.3426 -1.3300
  203MPD1    N1 3095   2.837   3.051  13.034  0.6120  0.6048 -1.1550
  203MPD1    H6 3096   2.818   3.121  13.105  0.3941 -0.1213 -0.5044
  203MPD1    H7 3097   2.833   2.955  13.068  3.7584  1.6477  2.1555
  204MPD1     C 3098   2.584   4.564  17.600 -0.5677  0.3376  0.2388
  204MPD1    C1 3099   2.570   4.482   0.025 -0.4524  0.8849  0.0886
  204MPD1    C2 3100   2.653   4.370   0.027  0.5921 -0.2820  0.4078
  204MPD1    C3 3101   2.745   4.338  17.612 -0.9988  0.3477  0.2030
  204MPD1    C4 3102   2.763   4.429  17.507 -1.0305 -0.3553 -0.3698
  204MPD1    C5 3103   2.680   4.542  17.504 -0.0071  0.1978 -0.4797
  204MPD1     H 3104   2.654   4.299   0.109 -2.0544  0.6114  1.2069
  204MPD1    H1 3105   2.840   4.420  17.431 -1.4809 -0.6151 -0.7957
  204MPD1    H2 3106   2.519   4.651  17.595  0.3384  0.9078 -1.6523
  204MPD1    H3 3107   2.707   4.614  17.427 -0.3580  1.5475  0.6655
  204MPD1     N 3108   2.814   4.216  17.627 -0.0651 -0.0531  0.5732
  204MPD1    H5 3109   2.792   4.163   0.025  1.0387  1.5593  1.8629
  204MPD1    N1 3110   2.492   4.525   0.135  0.4629 -0.9685 -0.6584
  204MPD1    H6 3111   2.414   4.585   0.108  1.3371  1.2559  1.7733
  204MPD1    H7 3112   2.456   4.447   0.189  1.0104 -1.5113 -1.0746
  205MPD1     C 3113   2.194   3.356  17.048  0.5425 -0.1073  0.8939
  205MPD1    C1 3114   2.081   3.403  17.114 -0.5350  0.2326 -0.2306
  205MPD1    C2 3115   2.103   3.426  17.255 -1.0786 -0.0731 -0.2044
  205MPD1    C3 3116   2.219   3.397  17.318 -0.5978  0.1197  0.7347
  205MPD1    C4 3117   2.326   3.348  17.249 -0.3403 -0.2657 -0.1873
  205MPD1    C5 3118   2.310   3.331  17.112  0.6395  0.5402 -0.0863
  205MPD1     H 3119   2.019   3.469  17.307 -1.0962  0.2303 -0.4805
  205MPD1    H1 3120   2.416   3.316  17.301 -0.6655  2.2338  1.8952
  205MPD1    H2 3121   2.190   3.342  16.941 -0.2094 -0.7068  0.9956
  205MPD1    H3 3122   2.390   3.288  17.054  0.1379  0.5313 -0.7817
  205MPD1     N 3123   2.235   3.414  17.456 -0.8485 -0.2412  0.6260
  205MPD1    H5 3124   2.325   3.392  17.498 -0.4508 -0.4359 -0.3313
  205MPD1    N1 3125   1.969   3.439  17.041  0.4449  0.6329  0.6430
  205MPD1    H6 3126   1.945   3.385  16.959 -1.7450 -2.0157  3.0296
  205MPD1    H7 3127   1.891   3.459  17.104  0.3000 -0.8658  0.9320
  206MPD1     C 3128   3.240   0.348  16.808 -0.7711  0.7369 -0.0802
  206MPD1    C1 3129   3.271   0.478  16.768  0.2736  0.7105  0.3514
  206MPD1    C2 3130   3.242   0.504  16.637  0.1573 -0.1982  0.8239
  206MPD1    C3 3131   3.219   0.407  16.538 -0.1126  0.3730  0.2876
  206MPD1    C4 3132   3.199   0.284  16.579 -0.2014 -0.6282  0.4754
  206MPD1    C5 3133   3.212   0.252  16.715  0.1293  0.2270 -0.2260
  206MPD1     H 3134   3.239   0.609  16.614  1.0000 -0.5498 -0.8234
  206MPD1    H1 3135   3.181   0.199  16.514 -1.4254  0.4106 -0.5334
  206MPD1    H2 3136   3.256   0.314  16.910  3.0265  0.3275 -0.7877
  206MPD1    H3 3137   3.202   0.149  16.749  2.1134 -0.2149 -0.9587
  206MPD1     N 3138   3.206   0.433  16.395 -0.4093 -0.5208 -0.0641
  206MPD1    H5 3139   3.185   0.351  16.338  1.8230  0.8802 -2.8848
  206MPD1    N1 3140   3.296   0.584  16.856 -0.3492 -0.0297  0.1723
  206MPD1    H6 3141   3.312   0.556  16.952 -0.4813  1.0708  0.5185
  206MPD1    H7 3142   3.344   0.668  16.823 -1.4194  0.3685 -0.3856
  207MPD1     C 3143   1.372   3.269   9.680  0.7221 -0.0112  0.1940
  207MPD1    C1 3144   1.291   3.233   9.784 -0.1659  0.8146  0.6738
  207MPD1    C2 3145   1.304   3.304   9.903 -0.2224  0.4385 -0.1431
  207MPD1    C3 3146   1.394   3.409   9.910  0.4849  0.2320 -0.1578
  207MPD1    C4 3147   1.474   3.449   9.803 -0.3651  0.5193  0.0803
  207MPD1    C5 3148   1.460   3.379   9.690  0.2180 -0.0774 -0.9412
  207MPD1     H 3149   1.232   3.278   9.981 -0.8337  0.0768 -0.8276
  207MPD1    H1 3150   1.545   3.530   9.814 -0.5288  0.6486  0.1767
  207MPD1    H2 3151   1.382   3.199   9.598  2.0917  0.3031  0.0986
  207MPD1    H3 3152   1.530   3.402   9.611  2.7736 -1.8629  0.8109
  207MPD1     N 3153   1.412   3.491  10.031 -1.4363  0.0193 -0.7948
  207MPD1    H5 3154   1.482   3.563  10.012 -0.9972  0.8373  4.0420
  207MPD1    N1 3155   1.209   3.125   9.774 -0.1292  0.0819  0.1177
  207MPD1    H6 3156   1.146   3.121   9.854 -0.1677  1.0075  0.1327
  207MPD1    H7 3157   1.147   3.124   9.693  2.3041 -2.3555 -1.7109
  208MPD1     C 3158   3.209   2.777   0.765  0.7846 -0.0732  0.0031
  208MPD1    C1 3159   3.186   2.734   0.888  0.0666 -0.2860  0.4136
  208MPD1    C2 3160   3.064   2.693   0.934  1.2801 -0.0589 -0.7225
  208MPD1    C3 3161   2.956   2.709   0.855 -0.7706 -0.2688  0.0380
  208MPD1    C4 3162   2.976   2.735   0.723  0.9647 -0.0483 -0.3524
  208MPD1    C5 3163   3.106   2.774   0.677  0.0213 -0.2855  0.5370
  208MPD1     H 3164   3.048   2.670   1.039 -2.1426 -0.2756 -1.2922
  208MPD1    H1 3165   2.894   2.748   0.654  1.0534 -0.8097 -0.6096
  208MPD1    H2 3166   3.297   2.830   0.731  0.3252 -1.1064 -2.7563
  208MPD1    H3 3167   3.119   2.812   0.577 -2.0393 -2.0778 -0.4051
  208MPD1     N 3168   2.825   2.685   0.911  0.3210  0.3378 -0.0448
  208MPD1    H5 3169   2.814   2.631   0.997 -1.6282 -1.3283 -1.3299
  208MPD1    N1 3170   3.296   2.734   0.977  0.1080  0.2582  0.8239
  208MPD1    H6 3171   3.384   2.763   0.935 -0.0628 -0.6055 -0.1382
  208MPD1    H7 3172   3.311   2.648   1.028  1.5499 -0.8773 -1.4927
  209MPD1     C 3173   0.725   3.060  11.698 -0.6725  0.4737  0.2806
  209MPD1    C1 3174   0.717   3.074  11.560 -0.5000  0.9607  0.6504
  209MPD1    C2 3175   0.756   3.202  11.510 -0.2391  0.4276  0.3427
  209MPD1    C3 3176   0.834   3.290  11.582 -0.0530  0.5933  0.3183
  209MPD1    C4 3177   0.857   3.266  11.716  0.6646  0.1180 -0.0950
  209MPD1    C5 3178   0.801   3.148  11.769 -1.0027 -0.3418 -0.6378
  209MPD1     H 3179   0.730   3.212  11.405 -1.6527  1.2128  0.7598
  209MPD1    H1 3180   0.914   3.336  11.777  0.6100  1.2569 -1.3685
  209MPD1    H2 3181   0.699   2.965  11.744  0.3167  0.1624  0.2103
  209MPD1    H3 3182   0.811   3.131  11.876  0.3654 -0.8019 -0.8333
  209MPD1     N 3183   0.870   3.411  11.507 -0.2576  0.1629  0.1057
  209MPD1    H5 3184   0.850   3.416  11.408 -0.4036  0.4263  0.1482
  209MPD1    N1 3185   0.651   2.977  11.476  0.4183  0.7321  0.1132
  209MPD1    H6 3186   0.680   2.994  11.379 -2.3918  0.6102 -0.7533
  209MPD1    H7 3187   0.678   2.881  11.496 -0.6524 -0.0871 -2.3168
  210MPD1     C 3188   1.215   4.262  11.852 -0.4339 -0.4210 -0.0215
  210MPD1    C1 3189   1.201   4.282  11.715  0.1969  0.0850  0.3054
  210MPD1    C2 3190   1.192   4.169  11.632  0.6342  0.1618 -0.6195
  210MPD1    C3 3191   1.192   4.042  11.695 -0.8521 -0.0073  0.1404
  210MPD1    C4 3192   1.200   4.028  11.837 -0.3780 -0.4092  0.2945
  210MPD1    C5 3193   1.204   4.140  11.911 -0.5634 -0.7254 -0.0786
  210MPD1     H 3194   1.184   4.192  11.526 -3.2576 -4.2861 -1.3303
  210MPD1    H1 3195   1.199   3.940  11.900  0.2471 -1.0065 -0.5434
  210MPD1    H2 3196   1.225   4.348  11.918 -0.7438  0.8446 -1.6080
  210MPD1    H3 3197   1.213   4.120  12.017  2.0853  0.9886  0.0160
  210MPD1     N 3198   1.181   3.925  11.612 -0.1635 -0.7527 -0.6878
  210MPD1    H5 3199   1.162   3.837  11.659 -2.2027  0.6243  1.0750
  210MPD1    N1 3200   1.234   4.407  11.666 -0.6173 -0.4347  0.2591
  210MPD1    H6 3201   1.215   4.491  11.720 -2.1797 -2.1105  2.2806
  210MPD1    H7 3202   1.205   4.428  11.571  0.1158  1.2992  0.4100
  211MPD1     C 3203   3.605   2.564  17.233 -0.2677  0.2279  0.0164
  211MPD1    C1 3204   3.553   2.549  17.106 -0.8274  0.2078  0.7580
  211MPD1    C2 3205   3.416   2.562  17.093  0.1806  0.1838  0.1980
  211MPD1    C3 3206   3.335   2.600  17.204 -0.1549 -0.5109 -0.6140
  211MPD1    C4 3207   3.389   2.611  17.328  0.1625 -0.3450 -0.5088
  211MPD1    C5 3208   3.523   2.601  17.342  0.1011 -0.6186 -0.5160
  211MPD1     H 3209   3.375   2.544  16.994 -0.5671  0.9872  0.3659
  211MPD1    H1 3210   3.342   2.627  17.424 -1.1953 -0.6770 -1.1318
  211MPD1    H2 3211   3.710   2.555  17.257 -0.3278  2.4861  1.1343
  211MPD1    H3 3212   3.566   2.627  17.438  1.8318  0.5577 -1.6041
  211MPD1     N 3213   3.197   2.615  17.184  0.4498 -0.5096  0.4105
  211MPD1    H5 3214   3.164   2.590  17.092  0.9871 -1.5736  0.5108
  211MPD1    N1 3215   3.643   2.542  16.999 -0.4430  0.7489  0.6018
  211MPD1    H6 3216   3.728   2.497  17.031 -0.4786 -0.8969 -1.6441
  211MPD1    H7 3217   3.599   2.483  16.930 -0.3461 -1.2568  2.2411
  212MPD1     C 3218   2.213   1.285  16.800 -0.8447 -0.3060 -0.1423
  212MPD1    C1 3219   2.287   1.172  16.801  0.3324  0.2363  0.8167
  212MPD1    C2 3220   2.240   1.060  16.864 -0.7407  0.1080 -1.1097
  212MPD1    C3 3221   2.115   1.066  16.933 -0.2334  0.1602 -0.0450
  212MPD1    C4 3222   2.047   1.186  16.940 -0.5008 -0.4843  0.4217
  212MPD1    C5 3223   2.098   1.296  16.877 -0.9039 -0.0912  0.3098
  212MPD1     H 3224   2.307   0.976  16.873 -2.2898 -1.0400 -0.0993
  212MPD1    H1 3225   1.946   1.196  16.978 -0.5654 -1.0212  0.3955
  212MPD1    H2 3226   2.253   1.370  16.746 -1.2113 -0.9780 -1.4658
  212MPD1    H3 3227   2.042   1.389  16.881 -1.1684 -0.2337 -0.1822
  212MPD1     N 3228   2.049   0.955  16.986 -0.4967 -0.4887 -0.1151
  212MPD1    H5 3229   1.954   0.965  17.021  0.4515 -0.5121  2.4764
  212MPD1    N1 3230   2.423   1.180  16.765  0.5953 -0.2884 -0.2035
  212MPD1    H6 3231   2.466   1.091  16.740  1.3837 -0.1495  0.6566
  212MPD1    H7 3232   2.432   1.241  16.684 -1.9840  0.3900 -0.0010
  213MPD1     C 3233   0.252   1.975  16.018 -0.2695  0.0733  0.7169
  213MPD1    C1 3234   0.247   1.845  15.970 -0.0068 -0.2155 -0.7904
  213MPD1    C2 3235   0.340   1.820  15.864 -0.0282  0.0575  0.0960
  213MPD1    C3 3236   0.395   1.919  15.785  0.4279 -0.0829 -0.1505
  213MPD1    C4 3237   0.358   2.048  15.818  0.5012  0.1723 -0.1705
  213MPD1    C5 3238   0.296   2.074  15.933 -0.3404  0.1462 -0.9123
  213MPD1     H 3239   0.364   1.717  15.838 -2.8295 -0.2938 -1.0354
  213MPD1    H1 3240   0.359   2.133  15.751 -1.1424  1.2993  1.2459
  213MPD1    H2 3241   0.188   2.002  16.101 -1.1316  3.7051 -1.1342
  213MPD1    H3 3242   0.272   2.179  15.941  3.1112  0.9686 -1.4554
  213MPD1     N 3243   0.472   1.880  15.666  0.0389  0.0426  0.4273
  213MPD1    H5 3244   0.483   1.782  15.644  0.4171  0.0506  0.5813
  213MPD1    N1 3245   0.234   1.741  16.064  0.0255  0.0934 -0.1459
  213MPD1    H6 3246   0.216   1.656  16.012  0.4242 -0.3351  0.4117
  213MPD1    H7 3247   0.149   1.756  16.118  0.1940  0.9403 -0.1177
  214MPD1     C 3248   0.252   1.219  15.187 -0.1395 -0.1994  0.0408
  214MPD1    C1 3249   0.326   1.291  15.093 -0.4381 -0.6419 -0.1164
  214MPD1    C2 3250   0.422   1.374  15.146 -0.1131 -0.7369 -0.1755
  214MPD1    C3 3251   0.427   1.411  15.278  0.2890  0.1532  0.3790
  214MPD1    C4 3252   0.352   1.346  15.363  0.1024 -0.2637  0.0070
  214MPD1    C5 3253   0.268   1.244  15.322 -0.5620 -0.4404  0.4275
  214MPD1     H 3254   0.468   1.444  15.077 -1.8405  0.4761 -0.0941
  214MPD1    H1 3255   0.359   1.379  15.466 -0.7822  0.0252 -0.0240
  214MPD1    H2 3256   0.176   1.149  15.157  1.2515 -2.6084  2.1376
  214MPD1    H3 3257   0.210   1.184  15.392  1.7320 -2.2475  0.7504
  214MPD1     N 3258   0.493   1.524  15.329  0.1581  0.1579  0.5927
  214MPD1    H5 3259   0.449   1.583  15.399  2.4803 -0.9466  2.9619
  214MPD1    N1 3260   0.330   1.265  14.959  0.0366 -0.0844  0.4919
  214MPD1    H6 3261   0.235   1.246  14.928 -0.7190  1.4096  1.8551
  214MPD1    H7 3262   0.350   1.349  14.905  0.0801 -0.5251 -0.1715
  215MPD1     C 3263   0.075   3.307  11.231  0.3283 -0.0864  0.0449
  215MPD1    C1 3264   0.165   3.237  11.305 -0.1583  0.6984 -0.0742
  215MPD1    C2 3265   0.266   3.306  11.362  0.6186 -0.1587 -0.2609
  215MPD1    C3 3266   0.268   3.444  11.361  0.8565  0.3665  0.2776
  215MPD1    C4 3267   0.182   3.509  11.283  0.0689 -0.0422 -0.9893
  215MPD1    C5 3268   0.094   3.442  11.219 -0.2300 -0.7738 -0.5481
  215MPD1     H 3269   0.342   3.241  11.404 -0.2200 -0.4908  0.7520
  215MPD1    H1 3270   0.193   3.616  11.272  1.9464  0.0625  1.9689
  215MPD1    H2 3271   4.703   3.266  11.195  0.8940 -0.3038 -1.1533
  215MPD1    H3 3272   0.015   3.500  11.174 -0.4359  0.0845  0.8961
  215MPD1     N 3273   0.368   3.517  11.420  0.1278  0.1154  0.2621
  215MPD1    H5 3274   0.371   3.616  11.396  1.2462  0.2376  0.8619
  215MPD1    N1 3275   0.169   3.096  11.291 -0.0293 -0.0327  0.0432
  215MPD1    H6 3276   0.212   3.062  11.376 -0.9643 -0.3078  0.4076
  215MPD1    H7 3277   0.082   3.044  11.276 -0.5449  0.2876  1.8991
  216MPD1     C 3278   2.825   4.551  16.218  0.7661 -0.6828  0.3707
  216MPD1    C1 3279   2.732   4.449  16.245  0.0375 -0.1125 -0.5090
  216MPD1    C2 3280   2.669   4.447  16.367  0.3067 -0.6016 -0.2578
  216MPD1    C3 3281   2.693   4.547  16.460 -0.2745 -0.6209 -0.8177
  216MPD1    C4 3282   2.786   4.648  16.433 -0.2940 -0.6273  0.0757
  216MPD1    C5 3283   2.852   4.646  16.313 -0.0958  0.1256 -0.0526
  216MPD1     H 3284   2.597   4.367  16.383  0.2522 -0.2044  1.4927
  216MPD1    H1 3285   2.793   0.019  16.490 -0.5405 -1.3296  1.2334
  216MPD1    H2 3286   2.877   4.554  16.123  0.9586 -0.6592  0.4772
  216MPD1    H3 3287   2.926   0.003  16.299  1.4986 -1.0728  1.5311
  216MPD1     N 3288   2.600   4.555  16.570 -0.0811  0.1386  0.2954
  216MPD1    H5 3289   2.530   4.483  16.553  2.4231 -2.4048  0.8321
  216MPD1    N1 3290   2.714   4.340  16.157  0.3904  0.1579 -0.1022
  216MPD1    H6 3291   2.617   4.310  16.152  1.3538 -2.8507 -1.2393
  216MPD1    H7 3292   2.734   4.375  16.063  0.7448  0.7981  0.2114
  217MPD1     C 3293   3.376   0.674   9.099 -0.3108  0.1551  0.1151
  217MPD1    C1 3294   3.500   0.622   9.119 -0.1970 -1.0482 -0.3218
  217MPD1    C2 3295   3.593   0.670   9.213 -0.4172 -0.1100 -0.7063
  217MPD1    C3 3296   3.547   0.771   9.297  0.1259 -1.0802  0.4140
  217MPD1    C4 3297   3.416   0.807   9.286 -0.2166  0.7972 -0.2816
  217MPD1    C5 3298   3.333   0.763   9.185 -0.1234  0.0435  0.1505
  217MPD1     H 3299   3.693   0.629   9.221 -0.4030  0.2068  0.7317
  217MPD1    H1 3300   3.367   0.884   9.344 -1.1700  0.8864 -1.1993
  217MPD1    H2 3301   3.307   0.652   9.019  0.1348  0.5157 -0.3662
  217MPD1    H3 3302   3.235   0.805   9.166  0.3847  2.0394  2.0088
  217MPD1     N 3303   3.627   0.833   9.395  0.1554 -0.3620 -0.5271
  217MPD1    H5 3304   3.575   0.898   9.452 -0.2802  0.9929 -2.4766
  217MPD1    N1 3305   3.556   0.534   9.022  0.4156 -0.5040 -0.0804
  217MPD1    H6 3306   3.638   0.482   9.054 -0.2388 -0.7124  1.2420
  217MPD1    H7 3307   3.486   0.477   8.975 -0.3257  1.4314 -1.3261
  218MPD1     C 3308   4.551   3.379  13.255  0.5341 -0.3642 -0.6498
  218MPD1    C1 3309   4.629   3.481  13.198 -0.5507  0.3273 -0.0305
  218MPD1    C2 3310   0.038   3.442  13.159 -0.4205 -0.0984  0.5125
  218MPD1    C3 3311   0.085   3.306  13.158  0.4557 -0.0445 -0.0555
  218MPD1    C4 3312   0.002   3.218  13.220  0.4071 -0.1153 -0.4251
  218MPD1    C5 3313   4.595   3.250  13.258 -0.4259 -0.0049  0.0277
  218MPD1     H 3314   0.099   3.521  13.116 -1.5240 -0.1235 -1.1001
  218MPD1    H1 3315   0.029   3.113  13.223  1.4759  0.1806  0.4611
  218MPD1    H2 3316   4.452   3.399  13.294  0.4890 -1.8741  0.0023
  218MPD1    H3 3317   4.519   3.182  13.295 -0.3041  0.9903  2.0768
  218MPD1     N 3318   0.205   3.277  13.093 -0.4012 -0.8340  0.4127
  218MPD1    H5 3319   0.259   3.357  13.062  1.2443 -2.2769 -0.4419
  218MPD1    N1 3320   4.601   3.618  13.209 -0.1484 -0.2018 -0.2323
  218MPD1    H6 3321   4.501   3.636  13.215 -0.3399 -1.8856  1.4525
  218MPD1    H7 3322   4.634   3.677  13.133  2.7721 -0.7671  0.5801
  219MPD1     C 3323   0.262   3.238  12.190  0.3416 -0.2076 -0.8073
  219MPD1    C1 3324   0.338   3.333  12.254 -0.2453  0.3101  0.0013
  219MPD1    C2 3325   0.363   3.312  12.389  0.3714  0.1534 -1.1131
  219MPD1    C3 3326   0.341   3.186  12.445  0.0370  0.2888 -0.4310
  219MPD1    C4 3327   0.262   3.095  12.375 -0.2366 -0.4965  0.1122
  219MPD1    C5 3328   0.224   3.123  12.248  0.7953  0.6745  0.1147
  219MPD1     H 3329   0.425   3.379  12.447  1.3175  0.0904 -2.0325
  219MPD1    H1 3330   0.232   3.000  12.420  0.8288 -1.4212 -1.1266
  219MPD1    H2 3331   0.234   3.257  12.087  1.3964 -1.1118 -1.2601
  219MPD1    H3 3332   0.169   3.051  12.189  0.9893  0.8484 -0.2791
  219MPD1     N 3333   0.398   3.141  12.568 -0.3797  0.0950 -0.0321
  219MPD1    H5 3334   0.395   3.043  12.597 -0.6647  0.1749  0.2023
  219MPD1    N1 3335   0.369   3.459  12.199 -0.6363 -0.1802  0.0174
  219MPD1    H6 3336   0.460   3.486  12.236 -0.3456 -0.0779 -0.7721
  219MPD1    H7 3337   0.371   3.449  12.098 -0.4259  0.2835 -0.0235
  220MPD1     C 3338   0.977   3.597   9.797  0.2956  0.4775 -0.2022
  220MPD1    C1 3339   0.887   3.700   9.803 -0.4147 -0.5157 -0.6564
  220MPD1    C2 3340   0.849   3.747   9.925 -0.3147 -0.5113  0.2244
  220MPD1    C3 3341   0.897   3.699  10.042 -0.0949  0.5309  0.0159
  220MPD1    C4 3342   0.979   3.586  10.033 -0.1153 -0.3019  0.0818
  220MPD1    C5 3343   1.026   3.541   9.909 -0.0397  0.6355 -0.7172
  220MPD1     H 3344   0.767   3.818   9.920 -0.8385 -1.3766 -4.4533
  220MPD1    H1 3345   1.027   3.536  10.116 -0.7348  0.7299  1.0498
  220MPD1    H2 3346   1.022   3.557   9.707 -1.7255 -1.7540 -0.2148
  220MPD1    H3 3347   1.073   3.443   9.915 -2.6479 -0.5692  0.3864
  220MPD1     N 3348   0.842   3.753  10.162  0.0246  0.1223  0.9987
  220MPD1    H5 3349   0.766   3.820  10.154  3.1262  3.3835 -0.9257
  220MPD1    N1 3350   0.861   3.770   9.680 -0.4235  0.1509  0.4673
  220MPD1    H6 3351   0.774   3.823   9.685  0.3621  1.5224 -0.5266
  220MPD1    H7 3352   0.855   3.713   9.596  1.4105  0.7233 -0.0463
  221MPD1     C 3353   2.317   3.300  16.483 -0.6998  0.1779  0.8582
  221MPD1    C1 3354   2.319   3.233  16.600  0.0981  0.0028  0.3890
  221MPD1    C2 3355   2.423   3.137  16.616  0.0017  0.4297 -0.8440
  221MPD1    C3 3356   2.507   3.107  16.513  0.4121 -0.1661 -0.2120
  221MPD1    C4 3357   2.502   3.182  16.398 -0.4258  0.5073  0.7222
  221MPD1    C5 3358   2.408   3.283  16.385  0.5842  0.1592  1.1383
  221MPD1     H 3359   2.431   3.097  16.716 -1.1616  0.2115 -0.8413
  221MPD1    H1 3360   2.572   3.171  16.316 -2.5565 -0.8817 -0.9375
  221MPD1    H2 3361   2.248   3.383  16.470 -2.1521 -1.2133 -0.2336
  221MPD1    H3 3362   2.405   3.348  16.298 -4.0107 -1.3407  0.1400
  221MPD1     N 3363   2.598   3.001  16.512 -0.0737  0.0088 -0.1561
  221MPD1    H5 3364   2.666   3.011  16.438  1.4434  3.0027  1.6592
  221MPD1    N1 3365   2.232   3.267  16.703  0.1446 -0.2102  0.5105
  221MPD1    H6 3366   2.213   3.179  16.750  2.6022  0.2977  2.4175
  221MPD1    H7 3367   2.136   3.294  16.680  0.2740 -1.9221 -2.0452
  222MPD1     C 3368   1.650   1.690  16.971  0.1337  0.1025  0.4601
  222MPD1    C1 3369   1.731   1.579  16.942  0.3144 -0.1450 -0.0614
  222MPD1    C2 3370   1.759   1.490  17.044  0.3966 -0.5331  0.3450
  222MPD1    C3 3371   1.705   1.513  17.166 -0.3484  0.0863  0.7141
  222MPD1    C4 3372   1.622   1.622  17.195  0.1716 -0.2584  0.5767
  222MPD1    C5 3373   1.608   1.718  17.095  0.2077 -0.6940 -0.2234
  222MPD1     H 3374   1.811   1.398  17.021  3.6586  1.1372  1.0733
  222MPD1    H1 3375   1.581   1.636  17.294  1.5834 -0.0417  1.1275
  222MPD1    H2 3376   1.642   1.763  16.891  1.4775 -1.6901 -1.3201
  222MPD1    H3 3377   1.553   1.811  17.110  0.7500 -0.3217 -0.5502
  222MPD1     N 3378   1.723   1.422  17.273 -0.1514 -0.2894 -0.3607
  222MPD1    H5 3379   1.688   1.452  17.363 -1.2162 -1.1059 -0.5044
  222MPD1    N1 3380   1.800   1.574  16.814  1.0370  0.8065 -0.0883
  222MPD1    H6 3381   1.754   1.630  16.742  0.9121  0.8226  0.0055
  222MPD1    H7 3382   1.811   1.479  16.779  1.8220  1.6650 -2.1851
  223MPD1     C 3383   2.003   0.476   0.087  0.4741  0.1747 -0.5482
  223MPD1    C1 3384   1.951   0.496  17.646  0.3263  0.5799 -0.1545
  223MPD1    C2 3385   1.928   0.630  17.604  0.3500  0.3525 -0.0001
  223MPD1    C3 3386   1.980   0.737  17.677  0.3589  0.0275 -0.3786
  223MPD1    C4 3387   2.037   0.708   0.112  0.8456  0.0860 -0.6004
  223MPD1    C5 3388   2.041   0.586   0.165  0.4905 -1.0172 -0.0408
  223MPD1     H 3389   1.873   0.645  17.512  0.1186  2.5164  0.5091
  223MPD1    H1 3390   2.069   0.785   0.180 -0.7605  1.2927 -1.2288
  223MPD1    H2 3391   2.003   0.376   0.130  0.8934 -0.6913 -2.5832
  223MPD1    H3 3392   2.082   0.576   0.264 -0.4522 -2.1224  0.2236
  223MPD1     N 3393   1.972   0.872  17.649 -0.4096  0.7745 -0.3656
  223MPD1    H5 3394   2.006   0.937   0.032 -2.6010  0.8367  0.6690
  223MPD1    N1 3395   1.891   0.389  17.572 -0.2851  0.3165 -0.1067
  223MPD1    H6 3396   1.881   0.412  17.474 -0.2260  0.1203 -0.1600
  223MPD1    H7 3397   1.945   0.302  17.578 -1.8090 -0.5674  0.7573
  224MPD1     C 3398   4.069   1.677   9.270 -0.4960  0.2790 -0.1902
  224MPD1    C1 3399   4.165   1.638   9.362 -1.0766 -0.2876 -0.4640
  224MPD1    C2 3400   4.168   1.701   9.486 -0.9071 -0.1420  0.5630
  224MPD1    C3 3401   4.064   1.784   9.524 -0.0201 -0.2567  0.9587
  224MPD1    C4 3402   3.961   1.811   9.435 -0.1938 -0.1521  0.0620
  224MPD1    C5 3403   3.969   1.766   9.302 -1.0916  0.3931 -0.8855
  224MPD1     H 3404   4.246   1.674   9.555 -0.7305 -0.6574  0.1624
  224MPD1    H1 3405   3.877   1.875   9.460  1.0903  0.9620  1.5097
  224MPD1    H2 3406   4.057   1.627   9.174  0.8606  2.2668 -1.3999
  224MPD1    H3 3407   3.893   1.788   9.227 -1.9209  0.2430 -0.0829
  224MPD1     N 3408   4.072   1.841   9.653  0.3383  0.3689  0.4917
  224MPD1    H5 3409   4.145   1.812   9.716 -0.1169 -0.8162  0.4766
  224MPD1    N1 3410   4.270   1.556   9.323 -0.7984  0.1936 -0.1122
  224MPD1    H6 3411   4.305   1.510   9.408 -1.9722  0.1235  0.3315
  224MPD1    H7 3412   4.237   1.500   9.245 -1.8566 -0.1629  0.5867
  225MPD1     C 3413   0.338   3.916  13.313 -0.3872  0.0002  0.3175
  225MPD1    C1 3414   0.295   3.796  13.256  0.3391  0.1673 -0.0031
  225MPD1    C2 3415   0.196   3.808  13.160 -0.3607  0.9273 -0.1040
  225MPD1    C3 3416   0.152   3.932  13.119  0.0168 -0.1924  0.2667
  225MPD1    C4 3417   0.192   4.043  13.189 -0.2760 -0.1346  0.0719
  225MPD1    C5 3418   0.281   4.039  13.289  0.9638 -0.4992 -0.1437
  225MPD1     H 3419   0.150   3.718  13.121  2.0727 -0.5152  0.3698
  225MPD1    H1 3420   0.142   4.137  13.169 -0.6227  0.1097  2.1041
  225MPD1    H2 3421   0.409   3.921  13.394  3.5942 -0.5575 -3.1498
  225MPD1    H3 3422   0.307   4.130  13.341  0.8314 -1.6305  1.9257
  225MPD1     N 3423   0.056   3.954  13.019  0.1161  0.0932 -0.3796
  225MPD1    H5 3424   0.035   4.050  12.995  0.2172  0.2638  0.2128
  225MPD1    N1 3425   0.324   3.669  13.308 -0.2465 -0.0007 -0.3491
  225MPD1    H6 3426   0.333   3.597  13.236 -1.2177 -0.8202  0.3429
  225MPD1    H7 3427   0.419   3.670  13.344 -1.4701  2.2764  2.7163
  226MPD1     C 3428   0.397   0.375  10.161 -0.4947  0.3532 -0.2499
  226MPD1    C1 3429   0.443   0.247  10.186  0.0482 -0.4449 -0.1921
  226MPD1    C2 3430   0.346   0.148  10.173  0.3329  0.9417 -0.4728
  226MPD1    C3 3431   0.211   0.174  10.138  0.4290  0.4514  0.1354
  226MPD1    C4 3432   0.169   0.307  10.116 -0.6982 -0.5374  0.1309
  226MPD1    C5 3433   0.265   0.403  10.129 -0.1314  0.7384  0.0533
  226MPD1     H 3434   0.372   0.045  10.194  0.1291  1.5578  2.8142
  226MPD1    H1 3435   0.066   0.336  10.101 -0.5294  0.5817  1.0565
  226MPD1    H2 3436   0.467   0.458  10.166 -0.3236  0.3273 -2.1887
  226MPD1    H3 3437   0.236   0.507  10.118  0.7665  1.2236  2.3179
  226MPD1     N 3438   0.125   0.059  10.136 -0.0360  0.2665 -0.3367
  226MPD1    H5 3439   0.160   4.686  10.125 -0.5588  0.1527 -1.0088
  226MPD1    N1 3440   0.577   0.221  10.211  0.3694 -0.6564  0.3802
  226MPD1    H6 3441   0.590   0.140  10.270 -3.1142 -1.3919  0.1625
  226MPD1    H7 3442   0.614   0.301  10.262 -0.7954  1.0247 -1.3587
  227MPD1     C 3443   3.887   0.068  10.397  0.0413  0.4953  0.8462
  227MPD1    C1 3444   3.991   0.070  10.480  0.0322 -0.4566  0.4888
  227MPD1    C2 3445   4.120   0.042  10.433 -0.5822 -0.3199 -0.8366
  227MPD1    C3 3446   4.136   4.704  10.307 -0.2210 -0.2820  0.2224
  227MPD1    C4 3447   4.024   4.687  10.230 -0.4467 -0.2166  0.7112
  227MPD1    C5 3448   3.908   0.017  10.268 -0.3028 -0.3795  0.3396
  227MPD1     H 3449   4.209   0.065  10.490 -0.4094  0.9277 -1.6105
  227MPD1    H1 3450   4.031   4.642  10.132  0.8694  0.4669  0.4862
  227MPD1    H2 3451   3.788   0.106  10.416  0.0143  0.4566  0.7845
  227MPD1    H3 3452   3.830   0.013  10.194 -0.6380  0.9848  0.6072
  227MPD1     N 3453   4.267   4.664  10.267  0.2043 -0.9297 -0.2691
  227MPD1    H5 3454   4.335   4.691  10.337  0.2246 -1.2710 -0.1551
  227MPD1    N1 3455   3.969   0.120  10.607 -0.5985 -0.0627  0.3214
  227MPD1    H6 3456   3.871   0.134  10.632 -1.4368 -1.9375 -1.8780
  227MPD1    H7 3457   4.018   0.065  10.677  0.7715  0.8208  0.0575
  228MPD1     C 3458   2.267   0.794  13.005  0.9941  0.4790  0.7143
  228MPD1    C1 3459   2.196   0.782  13.119 -0.2632  0.8116 -0.4598
  228MPD1    C2 3460   2.139   0.900  13.164 -0.3318 -0.2239  0.2883
  228MPD1    C3 3461   2.116   1.008  13.078 -0.6098  1.0619 -0.0797
  228MPD1    C4 3462   2.168   1.009  12.951  0.1335 -0.4238 -0.2071
  228MPD1    C5 3463   2.259   0.908  12.928 -0.3342  0.6571 -0.0198
  228MPD1     H 3464   2.110   0.909  13.268  0.6968  1.7334  0.4086
  228MPD1    H1 3465   2.176   1.089  12.879  1.2609 -0.8341 -0.5468
  228MPD1    H2 3466   2.335   0.717  12.972  0.3227  0.3795 -0.4621
  228MPD1    H3 3467   2.298   0.906  12.827 -1.2643 -0.7242 -0.3378
  228MPD1     N 3468   2.038   1.116  13.126  0.2077 -0.3473 -0.0564
  228MPD1    H5 3469   2.008   1.104  13.222 -1.9556  0.1421 -0.6742
  228MPD1    N1 3470   2.234   0.669  13.199 -0.4341 -0.6967  0.0824
  228MPD1    H6 3471   2.165   0.660  13.274  0.2556 -1.4432  0.6268
  228MPD1    H7 3472   2.226   0.591  13.134 -1.9730 -2.3663  2.2853
  229MPD1     C 3473   1.385   0.452  14.654  0.4369 -0.0882 -0.5252
  229MPD1    C1 3474   1.332   0.392  14.768 -0.2079  0.1905  0.5584
  229MPD1    C2 3475   1.410   0.287  14.823 -0.2795 -0.2688  0.8521
  229MPD1    C3 3476   1.544   0.266  14.778  0.2439 -0.4395  0.5002
  229MPD1    C4 3477   1.594   0.338  14.673 -0.6979  0.2504  0.0480
  229MPD1    C5 3478   1.515   0.429  14.608  0.9948 -0.4705  0.0206
  229MPD1     H 3479   1.369   0.225  14.902  0.0546 -0.6287  0.7392
  229MPD1    H1 3480   1.696   0.319  14.641 -1.3317 -0.1312 -1.6991
  229MPD1    H2 3481   1.324   0.525  14.602  3.2410  3.0566  0.5497
  229MPD1    H3 3482   1.559   0.476  14.521 -1.4283  2.7182  0.5117
  229MPD1     N 3483   1.631   0.166  14.832  0.5181  0.1498 -1.0575
  229MPD1    H5 3484   1.710   0.127  14.781 -0.0558  0.5728 -2.2679
  229MPD1    N1 3485   1.195   0.413  14.807  0.2383  0.4985 -0.7210
  229MPD1    H6 3486   1.175   0.512  14.791  2.5239  1.1055  0.0859
  229MPD1    H7 3487   1.180   0.397  14.906 -0.4947 -0.1568 -0.9345
  230MPD1     C 3488   2.107   4.321  15.649  0.1366  0.1729 -0.2983
  230MPD1    C1 3489   2.069   4.233  15.549 -0.2506  0.1867  0.9093
  230MPD1    C2 3490   1.972   4.273  15.453  0.6242  0.3668 -0.1396
  230MPD1    C3 3491   1.942   4.409  15.440  1.1847 -0.0559  0.0778
  230MPD1    C4 3492   1.991   4.491  15.537  0.7022 -0.3309  0.4209
  230MPD1    C5 3493   2.067   4.448  15.642  0.0167 -0.0364  0.3458
  230MPD1     H 3494   1.928   4.205  15.382 -0.1948 -0.4674  1.1685
  230MPD1    H1 3495   1.973   4.598  15.535 -1.9661 -0.7620  1.1495
  230MPD1    H2 3496   2.168   4.289  15.733  0.2608 -1.8448 -1.1390
  230MPD1    H3 3497   2.089   4.515  15.724 -0.5679  1.4065 -0.6773
  230MPD1     N 3498   1.864   4.448  15.326 -1.0775  0.0632  0.1029
  230MPD1    H5 3499   1.830   4.376  15.263 -1.9211  0.2372  0.3539
  230MPD1    N1 3500   2.082   4.092  15.563 -0.0334 -0.1544 -0.0973
  230MPD1    H6 3501   2.091   4.052  15.470 -0.1151 -0.9377  0.2268
  230MPD1    H7 3502   2.171   4.085  15.612  0.3210 -2.5837 -1.0765
  231MPD1     C 3503   4.495   2.244  15.895  0.7107 -0.0185  0.2226
  231MPD1    C1 3504   4.466   2.191  15.771  0.4193  0.0305 -0.2164
  231MPD1    C2 3505   4.571   2.189  15.679  0.4847 -0.6334 -0.5575
  231MPD1    C3 3506   4.675   2.284  15.695  0.3350 -0.2178 -0.2038
  231MPD1    C4 3507   4.697   2.342  15.816  0.2872  0.1923 -0.4236
  231MPD1    C5 3508   4.603   2.321  15.912 -0.3383  0.1539  0.4114
  231MPD1     H 3509   4.556   2.133  15.588 -0.1711 -2.3871  0.6174
  231MPD1    H1 3510   0.060   2.407  15.838  2.3763 -2.8071  0.4595
  231MPD1    H2 3511   4.431   2.251  15.982 -0.6433 -1.5258 -0.6592
  231MPD1    H3 3512   4.616   2.372  16.006  1.1671  1.0954 -0.3106
  231MPD1     N 3513   0.041   2.298  15.590 -0.3314  0.3266  0.0623
  231MPD1    H5 3514   0.035   2.244  15.505  0.6726 -1.7334  1.3128
  231MPD1    N1 3515   4.361   2.102  15.758  0.1871 -0.0480  1.1301
  231MPD1    H6 3516   4.325   2.100  15.663 -0.2660 -2.4671  1.3605
  231MPD1    H7 3517   4.282   2.134  15.813 -2.4707 -1.1504 -2.1114
  232MPD1     C 3518   1.734   3.383  17.681  0.8784  0.4165  0.8296
  232MPD1    C1 3519   1.643   3.310   0.072 -0.1335 -0.4362  0.0735
  232MPD1    C2 3520   1.558   3.373   0.165 -0.7086  1.1479 -0.0710
  232MPD1    C3 3521   1.556   3.507   0.175 -0.0114  0.1533  0.3138
  232MPD1    C4 3522   1.643   3.581   0.099 -0.6529  0.2670 -0.1901
  232MPD1    C5 3523   1.738   3.521   0.019  0.5255 -0.0217 -0.0399
  232MPD1     H 3524   1.477   3.316   0.210  0.7780 -0.5546  0.4544
  232MPD1    H1 3525   1.665   3.687   0.103  0.1143  0.1143 -0.3690
  232MPD1    H2 3526   1.808   3.341  17.614 -0.5602  0.2298 -0.6084
  232MPD1    H3 3527   1.820   3.583  17.671  1.0900  0.2344  1.8089
  232MPD1     N 3528   1.453   3.556   0.259 -0.3498  0.2299 -0.0894
  232MPD1    H5 3529   1.379   3.500   0.300  1.6378 -1.5546  1.0523
  232MPD1    N1 3530   1.648   3.169   0.056 -0.6838  0.2422 -0.2585
  232MPD1    H6 3531   1.554   3.131   0.065 -0.9329  0.8927 -0.0962
  232MPD1    H7 3532   1.702   3.143  17.659  0.2950  2.2725 -0.2576
  233MPD1     C 3533   1.659   1.454   2.507 -0.2411 -0.7670  0.7621
  233MPD1    C1 3534   1.591   1.405   2.390  0.1616 -0.3870  0.5398
  233MPD1    C2 3535   1.660   1.424   2.264  0.2992  0.5061  0.1267
  233MPD1    C3 3536   1.778   1.496   2.258 -0.4039  0.2903  0.0587
  233MPD1    C4 3537   1.838   1.547   2.378 -0.1718  0.1055 -0.0392
  233MPD1    C5 3538   1.772   1.524   2.499  0.2474  0.3073  0.0581
  233MPD1     H 3539   1.602   1.381   2.183  1.2553  0.7900 -0.7031
  233MPD1    H1 3540   1.925   1.611   2.370 -0.6993  0.6194 -1.7414
  233MPD1    H2 3541   1.628   1.429   2.608 -2.1202  0.6451  0.5450
  233MPD1    H3 3542   1.805   1.580   2.585 -2.2078  0.1789  1.0789
  233MPD1     N 3543   1.851   1.532   2.145 -0.4551  0.1627 -0.2339
  233MPD1    H5 3544   1.930   1.594   2.158 -1.3487  1.0405  0.9017
  233MPD1    N1 3545   1.492   1.312   2.396 -0.0110  0.0934 -0.2363
  233MPD1    H6 3546   1.437   1.299   2.311  0.4003 -2.3410 -0.1279
  233MPD1    H7 3547   1.421   1.342   2.462 -0.3851 -0.3709 -0.4247
  234MPD1     C 3548   4.362   0.626  10.896 -0.2583  0.1177 -0.6877
  234MPD1    C1 3549   4.376   0.764  10.913  1.5781 -0.1026 -1.0463
  234MPD1    C2 3550   4.423   0.844  10.813  0.1916 -0.2325 -0.2126
  234MPD1    C3 3551   4.444   0.787  10.687 -0.0097  0.0785  0.3513
  234MPD1    C4 3552   4.416   0.650  10.667 -0.0885 -0.4532 -0.1348
  234MPD1    C5 3553   4.390   0.573  10.778  0.0693  0.7224 -1.0135
  234MPD1     H 3554   4.446   0.949  10.828  2.9207 -0.8999  0.3524
  234MPD1    H1 3555   4.446   0.592  10.580  2.3354  0.8940 -0.2107
  234MPD1    H2 3556   4.339   0.561  10.980 -2.4441  0.0040 -1.3707
  234MPD1    H3 3557   4.378   0.465  10.775 -0.7895  0.8021 -0.2939
  234MPD1     N 3558   4.492   0.871  10.586  0.3678  0.4737 -0.4357
  234MPD1    H5 3559   4.499   0.968  10.614 -1.7516  0.3094  0.6109
  234MPD1    N1 3560   4.372   0.805  11.044 -0.5031 -0.4114  0.0491
  234MPD1    H6 3561   4.318   0.741  11.102 -1.3174  0.9645  0.7982
  234MPD1    H7 3562   4.345   0.902  11.057 -1.3208 -0.9191  2.2248
  235MPD1     C 3563   0.612   4.274  10.093  0.7389 -0.3487  0.2863
  235MPD1    C1 3564   0.681   4.258   9.976  0.1459  0.6013  0.1705
  235MPD1    C2 3565   0.786   4.169   9.974 -0.7798  0.5193  0.7417
  235MPD1    C3 3566   0.825   4.106  10.096  0.4395 -0.2384 -0.1347
  235MPD1    C4 3567   0.748   4.117  10.207  0.1062  0.1133  0.7054
  235MPD1    C5 3568   0.634   4.190  10.201 -0.1287 -0.0943 -0.1546
  235MPD1     H 3569   0.848   4.157   9.886 -0.3190  0.7830  1.0275
  235MPD1    H1 3570   0.767   4.070  10.303  4.7467 -2.6716 -1.6054
  235MPD1    H2 3571   0.531   4.345  10.109 -0.6397 -1.5598 -1.3418
  235MPD1    H3 3572   0.578   4.206  10.292  1.7326  2.3427  0.5355
  235MPD1     N 3573   0.944   4.041  10.101  0.5145 -0.2150  0.3897
  235MPD1    H5 3574   0.989   4.039  10.009 -3.3225  1.2341 -1.4874
  235MPD1    N1 3575   0.655   4.327   9.862 -0.6060  0.4701  0.1264
  235MPD1    H6 3576   0.681   4.280   9.775  0.9931  1.6321 -0.0163
  235MPD1    H7 3577   0.562   4.368   9.853 -0.2376  0.9367 -1.5425
  236MPD1     C 3578   0.614   4.536  10.351  0.3148  0.3069 -0.3857
  236MPD1    C1 3579   0.699   4.638  10.324 -0.3936 -0.2500 -0.2984
  236MPD1    C2 3580   0.774   4.697  10.434  0.3356  1.0817  0.6319
  236MPD1    C3 3581   0.748   4.659  10.563 -0.0587  0.3210 -0.3056
  236MPD1    C4 3582   0.651   4.574  10.582 -0.1969 -0.1824  0.4800
  236MPD1    C5 3583   0.588   4.506  10.484  0.2612  0.0472  0.2272
  236MPD1     H 3584   0.846   0.053  10.409  2.2874 -0.4193  1.6592
  236MPD1    H1 3585   0.624   4.536  10.680 -2.5057  0.2421  0.0015
  236MPD1    H2 3586   0.564   4.485  10.270 -1.2075 -0.3206  0.9501
  236MPD1    H3 3587   0.515   4.431  10.511  0.8692 -0.5674  0.1826
  236MPD1     N 3588   0.809   4.707  10.675  0.2913  0.3804  0.9900
  236MPD1    H5 3589   0.768   4.684  10.765  0.2349 -0.0991  0.8411
  236MPD1    N1 3590   0.724   4.668  10.194  1.1005 -0.1009  0.4533
  236MPD1    H6 3591   0.643   4.659  10.133 -0.6636  1.2080  2.6286
  236MPD1    H7 3592   0.764   0.039  10.177 -2.5688  1.4343  0.1338
  237MPD1     C 3593   4.547   3.076  15.700  0.8365  0.2174  0.3950
  237MPD1    C1 3594   4.477   2.972  15.745 -0.4501 -0.6773  0.3743
  237MPD1    C2 3595   4.351   2.950  15.681 -0.1902 -0.2951  0.8569
  237MPD1    C3 3596   4.307   3.027  15.573  0.2925 -0.1327  0.4885
  237MPD1    C4 3597   4.391   3.127  15.524  0.0230 -0.3832  0.6496
  237MPD1    C5 3598   4.510   3.152  15.586  0.1636  0.1407 -0.3781
  237MPD1     H 3599   4.289   2.869  15.719  0.4406 -0.5704  1.2843
  237MPD1    H1 3600   4.355   3.200  15.451  3.0364 -1.0359 -1.4738
  237MPD1    H2 3601   4.640   3.107  15.745  0.2828 -1.9947  3.0574
  237MPD1    H3 3602   4.572   3.232  15.549 -1.3365  0.5031 -2.1108
  237MPD1     N 3603   4.183   3.013  15.509  0.8826  0.0997  0.6087
  237MPD1    H5 3604   4.154   3.084  15.443  0.2454 -0.9480 -0.2348
  237MPD1    N1 3605   4.510   2.915  15.867 -0.0234 -0.1085 -0.1631
  237MPD1    H6 3606   4.609   2.915  15.891 -0.3928  2.8665  1.3111
  237MPD1    H7 3607   4.484   2.817  15.869 -0.0484 -0.1032 -0.2140
  238MPD1     C 3608   2.182   1.928  15.327  0.6589  0.2418 -0.4000
  238MPD1    C1 3609   2.106   1.853  15.420 -0.0173 -0.1900 -0.1439
  238MPD1    C2 3610   1.970   1.855  15.398 -0.0160 -0.3677  0.2113
  238MPD1    C3 3611   1.914   1.942  15.301  0.0288 -0.0164  0.0988
  238MPD1    C4 3612   1.993   2.007  15.209  0.0058 -1.2552 -0.0341
  238MPD1    C5 3613   2.129   2.010  15.226 -0.5826  0.0201  0.4069
  238MPD1     H 3614   1.906   1.806  15.470  1.4572 -0.4552  1.4649
  238MPD1    H1 3615   1.951   2.073  15.134  0.8744 -0.2410  0.3750
  238MPD1    H2 3616   2.290   1.938  15.336  0.5127  0.8535  0.7202
  238MPD1    H3 3617   2.198   2.057  15.157 -0.0406  0.5946  1.3450
  238MPD1     N 3618   1.771   1.963  15.278 -0.0329 -0.3137 -0.3307
  238MPD1    H5 3619   1.741   2.016  15.197  2.4938  0.8720 -0.4885
  238MPD1    N1 3620   2.176   1.765  15.508  0.0871 -0.7930 -0.7466
  238MPD1    H6 3621   2.122   1.751  15.593  2.1419 -2.1986  0.3194
  238MPD1    H7 3622   2.271   1.794  15.531 -0.4875  0.9213 -0.5100
  239MPD1     C 3623   1.423   2.708  15.074  0.0846  0.1677  0.2248
  239MPD1    C1 3624   1.552   2.753  15.044 -0.1395 -0.0618  0.3075
  239MPD1    C2 3625   1.572   2.820  14.927  0.0710  0.1551 -0.4820
  239MPD1    C3 3626   1.464   2.833  14.835 -0.1037  0.8923 -0.5656
  239MPD1    C4 3627   1.345   2.768  14.858  0.6718  0.2456 -0.5894
  239MPD1    C5 3628   1.321   2.711  14.981 -0.5321  0.4769 -0.7342
  239MPD1     H 3629   1.667   2.865  14.904 -0.0037  0.8075  0.5122
  239MPD1    H1 3630   1.264   2.775  14.786 -0.8133 -1.3844  0.9020
  239MPD1    H2 3631   1.391   2.679  15.174  0.1387 -0.0157  0.1893
  239MPD1    H3 3632   1.226   2.664  15.002 -0.4053 -0.2329 -1.7364
  239MPD1     N 3633   1.476   2.903  14.708  0.0073 -0.2401  0.0755
  239MPD1    H5 3634   1.413   2.872  14.636  1.2176 -2.1156 -0.1924
  239MPD1    N1 3635   1.635   2.784  15.150 -0.0048 -0.6423  0.0329
  239MPD1    H6 3636   1.606   2.741  15.238 -1.3108  1.3558  0.5931
  239MPD1    H7 3637   1.735   2.774  15.134 -0.1346 -1.1045 -0.4695
  240MPD1     C 3638   1.213   3.352  13.464  0.2031 -0.1644  0.6219
  240MPD1    C1 3639   1.210   3.339  13.598  0.3993 -0.2671 -0.1490
  240MPD1    C2 3640   1.173   3.220  13.654  0.4305 -0.8089  0.5176
  240MPD1    C3 3641   1.135   3.115  13.578 -0.2915  0.4876  0.6049
  240MPD1    C4 3642   1.140   3.128  13.438 -0.8622 -0.2372  0.2776
  240MPD1    C5 3643   1.181   3.245  13.384 -0.1205 -0.5797  0.4006
  240MPD1     H 3644   1.171   3.213  13.762  0.8364  0.4000  0.6117
  240MPD1    H1 3645   1.108   3.048  13.373  0.1004 -1.6582  1.5531
  240MPD1    H2 3646   1.200   3.450  13.418  0.9460  0.1425  1.0726
  240MPD1    H3 3647   1.177   3.261  13.277  0.8062  0.3752  0.5128
  240MPD1     N 3648   1.088   2.998  13.639 -0.2843 -0.0075 -0.7361
  240MPD1    H5 3649   1.075   3.007  13.739  1.0950  0.3345 -0.5940
  240MPD1    N1 3650   1.217   3.448  13.690 -0.6529  0.6084 -0.2177
  240MPD1    H6 3651   1.285   3.512  13.651 -0.4325  1.2973  1.3397
  240MPD1    H7 3652   1.240   3.431  13.788  1.4139 -0.6989 -0.9300
  241MPD1     C 3653   0.937   2.561  14.527 -0.4746  0.3846 -0.3063
  241MPD1    C1 3654   0.968   2.689  14.477  0.1246 -0.6087 -0.1415
  241MPD1    C2 3655   1.000   2.690  14.340 -0.8026 -0.0379 -0.1165
  241MPD1    C3 3656   0.969   2.588  14.255 -0.5087  0.5905 -0.4408
  241MPD1    C4 3657   0.926   2.477  14.309 -1.1337  0.1898 -0.0034
  241MPD1    C5 3658   0.920   2.452  14.435  0.0601  0.5952 -0.3864
  241MPD1     H 3659   1.037   2.785  14.303 -0.3001 -0.9792 -1.9992
  241MPD1    H1 3660   0.889   2.400  14.241 -0.5280 -1.0934  1.1318
  241MPD1    H2 3661   0.929   2.537  14.632 -1.9920  0.7281 -0.3390
  241MPD1    H3 3662   0.893   2.350  14.457  1.0125  0.3426 -0.4089
  241MPD1     N 3663   0.969   2.596  14.115 -0.0166  0.7912 -0.0877
  241MPD1    H5 3664   0.957   2.508  14.065 -1.5265 -0.2422  2.0649
  241MPD1    N1 3665   0.986   2.799  14.567  0.4536  0.5837  0.0219
  241MPD1    H6 3666   0.939   2.772  14.653  1.6840 -0.1431  0.4654
  241MPD1    H7 3667   0.949   2.883  14.522  1.4309 -0.1397 -2.1333
  242MPD1     C 3668   1.152   0.021  16.412  0.0987  0.1451  0.8146
  242MPD1    C1 3669   1.097   0.152  16.430 -0.2079  0.2659 -0.4709
  242MPD1    C2 3670   1.113   0.242  16.332 -0.3801  0.3763 -0.2183
  242MPD1    C3 3671   1.191   0.220  16.221  0.1997  0.2524  0.2639
  242MPD1    C4 3672   1.244   0.091  16.205  0.5166 -0.3047 -0.1590
  242MPD1    C5 3673   1.229   4.714  16.300 -0.7217 -0.3946  0.3273
  242MPD1     H 3674   1.049   0.329  16.329 -1.7003 -0.5490  0.6342
  242MPD1    H1 3675   1.303   0.076  16.115  0.7821  0.6649 -0.1385
  242MPD1    H2 3676   1.149   4.662  16.485  0.9773 -0.4937  0.1507
  242MPD1    H3 3677   1.279   4.618  16.292 -2.0164 -1.0628  0.1841
  242MPD1     N 3678   1.225   0.315  16.128  0.0330  0.8613  0.0890
  242MPD1    H5 3679   1.279   0.289  16.046  0.7468 -0.8365  1.0810
  242MPD1    N1 3680   1.003   0.171  16.533  0.1564  0.5826 -0.2339
  242MPD1    H6 3681   1.038   0.129  16.619 -1.9769 -1.7183 -0.4853
  242MPD1    H7 3682   0.982   0.269  16.548 -1.8810  0.4105 -1.9100
  243MPD1     C 3683   3.398   3.919  17.359 -1.0332  0.0436 -0.2184
  243MPD1    C1 3684   3.364   4.049  17.392  0.1700  0.1514  0.2686
  243MPD1    C2 3685   3.248   4.102  17.333 -0.6359  0.2732 -0.1780
  243MPD1    C3 3686   3.177   4.036  17.231  0.3365  0.5779  0.4089
  243MPD1    C4 3687   3.227   3.910  17.198 -0.5407 -0.0098  0.2504
  243MPD1    C5 3688   3.335   3.858  17.253 -0.2417 -1.1777  0.0980
  243MPD1     H 3689   3.230   4.204  17.364 -0.4819 -0.1702  1.3585
  243MPD1    H1 3690   3.179   3.846  17.125 -0.1866  2.8575 -2.4744
  243MPD1    H2 3691   3.483   3.871  17.406 -0.0623  3.3576  1.4547
  243MPD1    H3 3692   3.366   3.760  17.217  0.2282 -0.5218 -1.2648
  243MPD1     N 3693   3.071   4.099  17.168  0.0444 -0.4582 -0.5552
  243MPD1    H5 3694   3.044   4.193  17.196 -1.4722  0.0895 -3.8250
  243MPD1    N1 3695   3.433   4.118  17.494  0.8496 -0.0810 -0.7425
  243MPD1    H6 3696   3.534   4.101  17.497  1.0167  1.3038  0.8592
  243MPD1    H7 3697   3.420   4.213  17.460  2.9222  1.2769  2.3181
  244MPD1     C 3698   2.741   0.178  17.347 -0.4593  0.4760  0.1909
  244MPD1    C1 3699   2.870   0.121  17.355 -0.6245 -0.0539  0.9540
  244MPD1    C2 3700   2.885   4.721  17.292  0.2751  0.9534 -1.0199
  244MPD1    C3 3701   2.795   4.670  17.196 -0.1136  0.2089  0.2269
  244MPD1    C4 3702   2.679   0.007  17.195  0.6654 -0.4667 -0.3867
  244MPD1    C5 3703   2.651   0.110  17.272  0.2442 -0.4555  0.3617
  244MPD1     H 3704   2.979   4.669  17.307 -0.2401  0.5122  0.6244
  244MPD1    H1 3705   2.597   4.684  17.138  0.6459  0.5643 -1.1513
  244MPD1    H2 3706   2.705   0.263  17.403 -0.1020  0.0913  1.0046
  244MPD1    H3 3707   2.547   0.141  17.276 -0.0056 -1.3155  0.4861
  244MPD1     N 3708   2.831   4.547  17.138 -0.0182  0.5290 -1.2237
  244MPD1    H5 3709   2.920   4.504  17.163 -1.4780 -1.0731  1.2489
  244MPD1    N1 3710   2.955   0.165  17.454 -0.3324  0.8450 -0.5367
  244MPD1    H6 3711   2.953   0.266  17.458  0.4616  0.7468  2.2171
  244MPD1    H7 3712   3.054   0.147  17.436  0.6783  4.0900  1.8182
  245MPD1     C 3713   0.074   0.009  13.521  0.6103  0.0931  0.5545
  245MPD1    C1 3714   0.187   0.051  13.595 -0.7485 -0.5203 -0.0700
  245MPD1    C2 3715   0.197   0.176  13.645  0.0282  0.2932 -0.1339
  245MPD1    C3 3716   0.094   0.266  13.610 -1.0212  0.3449  0.9056
  245MPD1    C4 3717   4.704   0.229  13.541 -0.4038 -0.1138  0.3125
  245MPD1    C5 3718   4.697   0.097  13.496  0.3518 -0.2232  0.0641
  245MPD1     H 3719   0.276   0.211  13.710 -0.0187 -1.2430  0.7551
  245MPD1    H1 3720   4.628   0.303  13.520  1.0173  0.9206 -1.2103
  245MPD1    H2 3721   0.066   4.624  13.499 -0.3143  0.4527 -0.8631
  245MPD1    H3 3722   4.611   0.062  13.439  0.7488 -3.0416  1.2087
  245MPD1     N 3723   0.120   0.402  13.648 -0.1210  0.6018  0.0429
  245MPD1    H5 3724   0.213   0.411  13.687 -0.3394  0.2573  0.6420
  245MPD1    N1 3725   0.275   4.675  13.650 -1.5625  0.0429 -0.7391
  245MPD1    H6 3726   0.361   4.711  13.690 -1.3189 -1.1330 -0.2160
  245MPD1    H7 3727   0.299   4.595  13.591  1.4355  0.9658 -0.7323
  246MPD1     C 3728   0.387   2.024  10.568 -0.2284 -0.3411 -0.3381
  246MPD1    C1 3729   0.301   2.032  10.461 -0.5769  0.6837 -0.1406
  246MPD1    C2 3730   0.310   1.956  10.344  0.1003 -0.3613 -1.1577
  246MPD1    C3 3731   0.395   1.848  10.343 -0.1205  0.8665  0.8333
  246MPD1    C4 3732   0.461   1.820  10.462 -0.0889 -0.0265  0.0406
  246MPD1    C5 3733   0.464   1.916  10.559  0.5253  0.0479  0.6053
  246MPD1     H 3734   0.249   1.977  10.256  0.8836  1.4844 -1.2604
  246MPD1    H1 3735   0.529   1.735  10.462 -0.8045 -0.6053 -1.1031
  246MPD1    H2 3736   0.402   2.094  10.649 -0.0204 -0.5183 -0.2260
  246MPD1    H3 3737   0.518   1.889  10.649 -1.1224 -0.5349  1.4236
  246MPD1     N 3738   0.392   1.753  10.232  0.2177 -0.2538  0.3247
  246MPD1    H5 3739   0.332   1.777  10.155 -0.5050 -0.9513  0.6764
  246MPD1    N1 3740   0.217   2.145  10.454  0.1558  0.7199 -0.0373
  246MPD1    H6 3741   0.132   2.132  10.399 -1.0152  1.4859  1.5938
  246MPD1    H7 3742   0.192   2.171  10.549  0.3243  0.0780  0.1794
  247MPD1     C 3743   3.582   3.257  16.224  0.3938  0.0758 -0.1497
  247MPD1    C1 3744   3.536   3.385  16.209 -0.8076  0.1339  0.9476
  247MPD1    C2 3745   3.619   3.494  16.227  0.0434 -0.1195 -0.2843
  247MPD1    C3 3746   3.753   3.470  16.253  0.0770  0.1562  0.0612
  247MPD1    C4 3747   3.805   3.339  16.250  0.8365  0.2417  0.4710
  247MPD1    C5 3748   3.714   3.239  16.237  0.2250  0.0488 -0.6271
  247MPD1     H 3749   3.577   3.593  16.224 -0.6817 -0.3834  1.1082
  247MPD1    H1 3750   3.910   3.313  16.257  0.7647 -0.2074 -0.1554
  247MPD1    H2 3751   3.519   3.169  16.231  1.1180 -0.4785 -0.5279
  247MPD1    H3 3752   3.753   3.138  16.237  2.1498  0.7920 -0.5195
  247MPD1     N 3753   3.850   3.568  16.286  0.2354 -0.0993 -0.5046
  247MPD1    H5 3754   3.940   3.532  16.317  0.1408  0.7283  0.7432
  247MPD1    N1 3755   3.399   3.405  16.206 -0.2670  0.2875 -0.5484
  247MPD1    H6 3756   3.380   3.492  16.156  1.2817  1.7781  1.4435
  247MPD1    H7 3757   3.356   3.325  16.160 -1.6582 -0.3629  1.9191
  248MPD1     C 3758   4.064   0.549   0.004 -0.7740 -0.0882 -0.1280
  248MPD1    C1 3759   4.034   0.438  17.611  0.4361 -0.1739  0.2993
  248MPD1    C2 3760   4.052   0.316  17.675  0.4652  0.0700 -0.0377
  248MPD1    C3 3761   4.079   0.304   0.126 -0.7751 -0.3704  0.3155
  248MPD1    C4 3762   4.097   0.421   0.201  0.8234 -0.0759 -0.0402
  248MPD1    C5 3763   4.093   0.543   0.138  0.1825  0.8771 -0.0704
  248MPD1     H 3764   4.040   0.223  17.619 -2.5917 -1.2755  2.8286
  248MPD1    H1 3765   4.107   0.414   0.309 -1.0703 -0.6134  0.0894
  248MPD1    H2 3766   4.054   0.650  17.651 -2.2844 -0.8816 -1.8263
  248MPD1    H3 3767   4.093   0.639   0.188  0.4254  0.8781 -0.0738
  248MPD1     N 3768   4.098   0.177   0.186  0.6247 -0.2065  0.2112
  248MPD1    H5 3769   4.079   0.099   0.124  0.5914  0.8089 -1.0788
  248MPD1    N1 3770   4.012   0.447  17.473 -0.0383  0.4350 -0.0715
  248MPD1    H6 3771   3.966   0.538  17.470  0.3220  0.7134  2.2210
  248MPD1    H7 3772   3.943   0.377  17.448  0.2008  0.2346 -0.1701
  249MPD1     C 3773   1.199   3.235  11.430 -0.9041 -0.1058  0.8770
  249MPD1    C1 3774   1.270   3.327  11.352  0.1741  0.1107 -0.2194
  249MPD1    C2 3775   1.248   3.326  11.215 -0.2286  0.6126  0.1506
  249MPD1    C3 3776   1.150   3.244  11.159 -0.5052 -0.3154  0.5469
  249MPD1    C4 3777   1.082   3.152  11.242  0.2913  0.6003 -0.1099
  249MPD1    C5 3778   1.112   3.151  11.376 -0.5170  0.1937  0.0697
  249MPD1     H 3779   1.309   3.390  11.153 -1.4444  0.9536 -0.7155
  249MPD1    H1 3780   1.008   3.078  11.213 -1.2149  1.6310  1.1239
  249MPD1    H2 3781   1.201   3.235  11.538  1.5192  2.3530  0.8215
  249MPD1    H3 3782   1.053   3.087  11.440  3.2429 -0.3020  3.0537
  249MPD1     N 3783   1.125   3.258  11.022 -0.5939 -0.4460  0.2439
  249MPD1    H5 3784   1.174   3.328  10.968 -0.7617 -0.1952  0.4214
  249MPD1    N1 3785   1.377   3.403  11.404  0.2351 -0.5493  0.8400
  249MPD1    H6 3786   1.360   3.435  11.499  1.5564 -0.4439  1.0418
  249MPD1    H7 3787   1.403   3.485  11.349 -0.7408 -0.6412  0.2229
  250MPD2     C 3788   2.200   3.326  13.214  0.1813 -0.0037  0.1236
  250MPD2    C1 3789   2.267   3.342  13.094 -0.4775 -0.1385  0.2880
  250MPD2    C2 3790   2.305   3.227  13.026 -0.1081  0.0760  0.1121
  250MPD2    C3 3791   2.266   3.105  13.061  0.3828  0.3356  0.5388
  250MPD2    C4 3792   2.180   3.089  13.175  0.2741  1.1454  0.2655
  250MPD2    C5 3793   2.152   3.202  13.248  0.3863  0.5303 -0.2210
  250MPD2     H 3794   2.362   3.242  12.935 -1.0365 -2.0511 -0.8283
  250MPD2    H1 3795   2.130   3.000  13.212  2.0996  0.0950  0.2213
  250MPD2    H2 3796   2.164   3.413  13.267 -0.2449 -0.2225  0.1936
  250MPD2    H3 3797   2.102   3.192  13.344 -1.5876  0.3204 -1.2750
  250MPD2     N 3798   2.298   2.992  12.984 -0.6821 -0.6962  0.6184
  250MPD2    H5 3799   2.257   2.905  13.017  0.8782 -1.1050  1.4641
  250MPD2    N1 3800   2.295   3.472  13.043 -0.2998  0.1257  0.2476
  250MPD2    H7 3801   2.260   3.548  13.101  0.2946  1.3902 -1.0453
  251TMC3    C1 3802   2.400   3.636  12.910  0.1310 -1.0737 -0.3492
  251TMC3    C2 3803   2.426   3.710  13.019 -0.0940  0.0077 -0.2366
  251TMC3    C3 3804   2.482   3.833  12.995 -0.0021  0.5226 -0.1568
  251TMC3    C4 3805   2.431   3.681  12.783  0.8186 -0.0319 -0.5621
  251TMC3    C5 3806   2.482   3.804  12.764  0.3121 -0.3694 -0.1802
  251TMC3    C6 3807   2.506   3.885  12.873 -0.2127 -0.0566  0.0061
  251TMC3     C 3808   2.358   3.501  12.923  0.0391  0.3032  0.3080
  251TMC3     O 3809   2.394   3.429  12.831 -0.5278  0.1149  0.7003
  251TMC3     H 3810   2.401   3.670  13.116 -0.7888  0.5768 -0.1790
  251TMC3    H1 3811   2.392   3.629  12.697 -0.5136 -1.1483  0.7167
  251TMC3    H2 3812   2.550   3.984  12.867  1.1731 -0.7772 -2.0665
  251TMC3    C7 3813   2.467   3.866  12.634 -0.2554 -0.1366  0.0147
  251TMC3    C8 3814   2.562   3.884  13.112  0.1038  0.3253 -0.1447
  251TMC3    O1 3815   2.357   3.844  12.584 -0.8028 -0.2571 -0.0093
  251TMC3    O2 3816   2.519   3.866  13.223  0.0842  0.2024 -0.3202
  252TMC3    C1 3817   4.380   4.182   9.565 -0.0389  0.3462 -0.7929
  252TMC3    C2 3818   4.253   4.218   9.614 -0.6562  0.1865 -0.3584
  252TMC3    C3 3819   4.149   4.126   9.590 -0.0121 -0.5334  0.0842
  252TMC3    C4 3820   4.409   4.055   9.522 -0.2548  0.0172  0.5197
  252TMC3    C5 3821   4.303   3.967   9.504 -0.4359  0.4146 -0.0958
  252TMC3    C6 3822   4.174   4.001   9.538  0.2074  0.1221  0.0804
  252TMC3     C 3823   4.503   4.266   9.575 -0.5028  0.3404  0.1442
  252TMC3     O 3824   4.605   4.223   9.518  0.3147 -0.2375  0.3106
  252TMC3     H 3825   4.227   4.323   9.620  0.0990  0.5047 -2.5897
  252TMC3    H1 3826   4.512   4.020   9.521 -0.0057  0.7563  0.3398
  252TMC3    H2 3827   4.087   3.941   9.514  1.0320 -0.2884 -1.9189
  252TMC3    C7 3828   4.332   3.825   9.523  0.7610  0.0927  0.1416
  252TMC3    C8 3829   4.012   4.148   9.635  0.6298  0.6635 -0.1745
  252TMC3    O1 3830   4.440   3.779   9.500  0.2347  0.3712 -0.0222
  252TMC3    O2 3831   3.917   4.081   9.599 -0.4322  0.3388 -0.1502
  253MPD2     C 3832   4.263   3.500  15.682 -0.4641 -0.3605  0.0081
  253MPD2    C1 3833   4.129   3.459  15.692  0.4992  0.0470 -0.3849
  253MPD2    C2 3834   4.100   3.355  15.769  0.0087  0.8365 -0.1871
  253MPD2    C3 3835   4.195   3.283  15.838 -0.0758 -0.3144 -0.2039
  253MPD2    C4 3836   4.326   3.327  15.825 -0.1629  0.3171  0.1981
  253MPD2    C5 3837   4.357   3.443  15.762 -0.2247  0.3262 -0.2639
  253MPD2     H 3838   3.995   3.327  15.767  0.0017  1.0414 -2.3284
  253MPD2    H1 3839   4.397   3.278  15.891 -0.7499 -2.8098 -1.4344
  253MPD2    H2 3840   4.299   3.585  15.624 -2.3000  0.5790  0.2223
  253MPD2    H3 3841   4.459   3.478  15.763  0.2631 -1.0936  0.4524
  253MPD2     N 3842   4.165   3.166  15.909 -0.3999  0.6818  0.2183
  253MPD2    H5 3843   4.231   3.119  15.970  1.0541  2.5541  0.0840
  253MPD2    N1 3844   4.020   3.513  15.627 -0.7549  0.6148  0.2335
  253MPD2    H7 3845   3.931   3.468  15.647 -1.6837  1.2449 -2.4031
  254TMC3    C1 3846   4.014   3.017  16.017  0.3567  0.2890  0.3704
  254TMC3    C2 3847   3.897   2.942  16.016  0.0547  0.1243 -0.0541
  254TMC3    C3 3848   3.868   2.868  16.126 -0.2205  0.6716 -0.0432
  254TMC3    C4 3849   4.091   3.035  16.128  0.1078 -0.1285 -0.0192
  254TMC3    C5 3850   4.057   2.959  16.233  0.0991  0.8845 -1.1307
  254TMC3    C6 3851   3.950   2.872  16.239  0.3021  0.2533  0.2375
  254TMC3     C 3852   4.047   3.090  15.899  0.1200 -0.8824  0.1104
  254TMC3     O 3853   3.956   3.109  15.818  0.4495  0.7578 -0.3085
  254TMC3     H 3854   3.840   2.930  15.924  0.8246 -0.4310 -0.4657
  254TMC3    H1 3855   4.159   3.119  16.142 -0.0312 -0.4208  2.3913
  254TMC3    H2 3856   3.923   2.821  16.330  1.8783  0.2864  0.7324
  254TMC3    C7 3857   4.117   2.983  16.365  0.5216 -0.3096 -0.2914
  254TMC3    C8 3858   3.729   2.837  16.148  0.5900  0.0646  0.2966
  254TMC3    O1 3859   4.037   2.973  16.458 -0.2838 -0.4262  0.6380
  254TMC3    O2 3860   3.656   2.823  16.050 -0.3527  0.2377 -0.8030
  255MPD2     C 3861   2.771   0.512  10.403 -0.6170 -0.0340 -0.5801
  255MPD2    C1 3862   2.752   0.644  10.434 -0.6668 -0.2139 -1.1156
  255MPD2    C2 3863   2.858   0.713  10.491  0.1959  0.2411 -0.2115
  255MPD2    C3 3864   2.975   0.650  10.519 -0.2747 -0.3298  0.8786
  255MPD2    C4 3865   2.993   0.515  10.482  0.3770  0.1125  0.6426
  255MPD2    C5 3866   2.892   0.448  10.412  0.0112 -0.8151 -0.7109
  255MPD2     H 3867   2.848   0.820  10.509  1.2328  0.4529 -0.9013
  255MPD2    H1 3868   3.088   0.466  10.501  0.4256  0.1599  0.5205
  255MPD2    H2 3869   2.685   0.459  10.364 -2.3062  1.7569  0.7312
  255MPD2    H3 3870   2.901   0.342  10.390  1.9707 -0.5839 -1.0520
  255MPD2     N 3871   3.073   0.722  10.589 -0.2300 -0.3096  0.9942
  255MPD2    H5 3872   3.039   0.810  10.628  0.7302  0.3546  0.3456
  255MPD2    N1 3873   2.627   0.702  10.400 -0.1603 -0.1375 -0.1277
  255MPD2    H7 3874   2.559   0.635  10.363  0.1495 -0.3851 -0.2487
  256TMC3    C1 3875   2.463   0.869  10.370 -0.1980 -0.4215 -0.0471
  256TMC3    C2 3876   2.421   1.001  10.389  0.2749 -1.0174  0.1285
  256TMC3    C3 3877   2.314   1.051  10.318  0.9472  0.5583  0.5785
  256TMC3    C4 3878   2.408   0.801  10.265  0.2809  0.5587  0.2984
  256TMC3    C5 3879   2.312   0.862  10.184  0.5979 -0.1795 -0.4114
  256TMC3    C6 3880   2.262   0.985  10.211 -1.1700 -0.2421 -0.0371
  256TMC3     C 3881   2.600   0.837  10.411  1.7228  0.4847  0.3053
  256TMC3     O 3882   2.661   0.933  10.463 -0.2667  0.0596  0.4078
  256TMC3     H 3883   2.466   1.063  10.466 -0.2548 -0.3450 -0.1099
  256TMC3    H1 3884   2.437   0.698  10.249  0.5817  0.6284  0.3991
  256TMC3    H2 3885   2.188   1.032  10.148 -0.8598  2.4770  1.6301
  256TMC3    C7 3886   2.298   0.821  10.046  0.0996 -0.0440 -0.2137
  256TMC3    C8 3887   2.311   1.191  10.298 -0.4826  0.1057 -0.4611
  256TMC3    O1 3888   2.209   0.869   9.986 -0.1616  0.1253 -0.6968
  256TMC3    O2 3889   2.204   1.250  10.312 -0.4831  0.4902  0.8860
  257MPD2     C 3890   1.553   3.642  13.082  0.2134 -0.2803 -0.0664
  257MPD2    C1 3891   1.531   3.531  13.014 -0.7702  0.1910 -0.8474
  257MPD2    C2 3892   1.491   3.417  13.086  0.0157  0.1054  0.6799
  257MPD2    C3 3893   1.503   3.424  13.220 -0.4021 -0.2411  0.3827
  257MPD2    C4 3894   1.530   3.548  13.287 -0.0950  0.0256 -0.2268
  257MPD2    C5 3895   1.540   3.661  13.215  0.2848 -0.5887  0.4604
  257MPD2     H 3896   1.472   3.320  13.043  0.2205  0.3980 -0.0672
  257MPD2    H1 3897   1.552   3.561  13.392 -0.4262  1.6482 -0.3480
  257MPD2    H2 3898   1.580   3.728  13.022 -0.4881 -0.0791 -0.0922
  257MPD2    H3 3899   1.579   3.750  13.264  2.0223 -1.2963  0.3747
  257MPD2     N 3900   1.500   3.297  13.285 -0.5075  0.1943 -0.1277
  257MPD2    H5 3901   1.487   3.214  13.228 -1.7450 -0.0051  0.4288
  257MPD2    N1 3902   1.561   3.524  12.878  0.1047  0.6002 -0.2344
  257MPD2    H7 3903   1.604   3.604  12.834  2.3934 -0.3614  0.2325
  258TMC3    C1 3904   1.515   3.141  13.466  0.2673  1.0825 -0.0825
  258TMC3    C2 3905   1.536   3.037  13.377  0.3892 -0.3017 -0.2770
  258TMC3    C3 3906   1.551   2.912  13.432 -0.3039 -0.2079  0.4332
  258TMC3    C4 3907   1.509   3.118  13.602  0.6585 -0.5685 -0.0930
  258TMC3    C5 3908   1.525   2.993  13.652  0.5777  0.0779 -0.5535
  258TMC3    C6 3909   1.548   2.886  13.570 -0.3038  0.0947  0.4168
  258TMC3     C 3910   1.523   3.282  13.420  0.0377 -0.3004 -0.2773
  258TMC3     O 3911   1.550   3.354  13.514 -0.0497 -0.5852  0.1811
  258TMC3     H 3912   1.545   3.059  13.271  0.7252 -1.2928 -0.4503
  258TMC3    H1 3913   1.485   3.199  13.670  0.4931  1.0124 -2.0161
  258TMC3    H2 3914   1.559   2.786  13.610  1.3148  0.4278  0.7930
  258TMC3    C7 3915   1.476   2.966  13.786 -0.5187  0.5321 -0.6280
  258TMC3    C8 3916   1.573   2.796  13.363  0.1385 -0.1716  0.1530
  258TMC3    O1 3917   1.401   3.044  13.841 -0.0904 -0.4855 -0.7282
  258TMC3    O2 3918   1.548   2.686  13.412 -0.4554  0.3566  0.3536
  259MPD2     C 3919   0.571   0.574   1.003 -0.4954 -0.3334  0.8674
  259MPD2    C1 3920   0.486   0.463   0.999  0.2799 -0.6213 -0.6194
  259MPD2    C2 3921   0.538   0.334   0.977 -0.0404 -0.0484  0.9569
  259MPD2    C3 3922   0.677   0.320   0.965 -0.9979 -0.1114 -0.7565
  259MPD2    C4 3923   0.763   0.427   0.970  0.3118 -0.3155  0.5519
  259MPD2    C5 3924   0.707   0.551   0.991 -0.1946  0.0413 -0.5457
  259MPD2     H 3925   0.467   0.253   0.982 -0.7618  0.5520  0.3425
  259MPD2    H1 3926   0.869   0.418   0.951  0.5689 -0.9154  2.2980
  259MPD2    H2 3927   0.531   0.673   1.020  2.5035  1.1855 -1.0257
  259MPD2    H3 3928   0.772   0.638   0.988  0.3004 -0.3280 -0.6644
  259MPD2     N 3929   0.715   0.189   0.951 -0.4591  0.6233 -1.1958
  259MPD2    H5 3930   0.646   0.115   0.962  0.7298 -0.0304  1.6522
  259MPD2    N1 3931   0.342   0.486   1.008  0.8563 -0.0873  0.6977
  259MPD2    H7 3932   0.316   0.584   1.015  3.2249  0.5103  1.2318
  260TMC3    C1 3933   0.850   0.008   0.965 -0.0872  0.1401  0.1480
  260TMC3    C2 3934   0.977   4.674   0.974  0.4277  0.4214  0.2175
  260TMC3    C3 3935   0.998   4.537   0.993  0.4356 -0.3495 -0.2289
  260TMC3    C4 3936   0.742   4.647   0.969 -0.2802 -0.3982 -0.2001
  260TMC3    C5 3937   0.763   4.513   0.997 -0.4537 -0.0458 -0.7372
  260TMC3    C6 3938   0.889   4.451   1.008  0.1792 -0.4939  0.3041
  260TMC3     C 3939   0.842   0.152   0.935 -0.5261 -0.0014 -0.4025
  260TMC3     O 3940   0.946   0.206   0.908 -0.1304  0.0612 -0.0735
  260TMC3     H 3941   1.064   0.019   0.970  1.0769 -0.5728 -1.9076
  260TMC3    H1 3942   0.641   4.680   0.946 -0.4476  0.6804  2.0179
  260TMC3    H2 3943   0.905   4.347   1.033 -0.0679 -0.6166 -0.0584
  260TMC3    C7 3944   0.647   4.441   1.042  0.1995  0.2112 -0.0605
  260TMC3    C8 3945   1.129   4.489   0.969  0.1866  0.7489  0.0678
  260TMC3    O1 3946   0.563   4.505   1.111  0.1351 -0.0822 -0.0527
  260TMC3    O2 3947   1.225   4.560   0.992 -0.8959 -0.0842  0.1640
  261MPD2     C 3948   2.690   2.679  12.272 -1.0142 -0.3876  0.5208
  261MPD2    C1 3949   2.646   2.797  12.333 -0.3706 -0.1288  0.3794
  261MPD2    C2 3950   2.675   2.917  12.273 -0.4682  0.2846  0.5277
  261MPD2    C3 3951   2.737   2.922  12.148  0.0805 -0.1885 -0.8011
  261MPD2    C4 3952   2.788   2.806  12.097 -0.0334  0.7772 -1.1808
  261MPD2    C5 3953   2.767   2.682  12.157  0.2071  0.3415 -0.0816
  261MPD2     H 3954   2.656   3.009  12.328  1.1612  0.7204  0.3700
  261MPD2    H1 3955   2.833   2.810  11.998  0.1229  2.0077 -1.0622
  261MPD2    H2 3956   2.674   2.579  12.310  0.7315 -0.2847  1.5330
  261MPD2    H3 3957   2.804   2.591  12.112  0.4724  1.6140 -2.4254
  261MPD2     N 3958   2.765   3.047  12.082  0.1731 -0.3727  0.0270
  261MPD2    H5 3959   2.752   3.132  12.136  0.9708  0.8904 -1.7836
  261MPD2    N1 3960   2.586   2.792  12.459 -0.6327  0.1309 -0.1028
  261MPD2    H7 3961   2.573   2.879  12.509  0.4790 -0.2367  0.8182
  262TMC3    C1 3962   2.826   3.204  11.920  0.6638 -0.4466  0.2358
  262TMC3    C2 3963   2.735   3.290  11.974  0.6126 -0.4300 -0.0821
  262TMC3    C3 3964   2.703   3.398  11.907  0.6532 -0.0374 -1.2361
  262TMC3    C4 3965   2.880   3.233  11.793 -0.0719 -0.5420 -0.3910
  262TMC3    C5 3966   2.833   3.338  11.721 -0.5350 -0.3255 -0.5849
  262TMC3    C6 3967   2.750   3.427  11.779 -0.6675  0.6778 -0.0629
  262TMC3     C 3968   2.830   3.070  11.964 -0.5393 -0.3453  0.2171
  262TMC3     O 3969   2.873   2.985  11.886  0.1100  0.3663  0.2612
  262TMC3     H 3970   2.681   3.279  12.068  0.7948 -0.7436 -0.0129
  262TMC3    H1 3971   2.955   3.164  11.756 -0.1400 -0.4729 -0.6640
  262TMC3    H2 3972   2.720   3.510  11.717 -1.1804 -0.9553 -1.9946
  262TMC3    C7 3973   2.888   3.360  11.589  0.0046  0.3413 -0.1138
  262TMC3    C8 3974   2.624   3.501  11.972  0.4472 -0.4869 -0.2932
  262TMC3    O1 3975   2.943   3.260  11.546 -0.9875 -0.3634 -0.2255
  262TMC3    O2 3976   2.542   3.476  12.057 -0.6380 -0.0508 -0.1806
  263MPD2     C 3977   3.395   2.848  11.520 -0.6123  0.3947  0.3401
  263MPD2    C1 3978   3.509   2.884  11.461  0.2278 -0.1588 -0.0078
  263MPD2    C2 3979   3.509   2.965  11.352 -0.5876  0.3283  0.2794
  263MPD2    C3 3980   3.386   3.018  11.311  0.1125  0.0322 -0.1341
  263MPD2    C4 3981   3.267   2.964  11.365 -0.3256  0.3707  0.3017
  263MPD2    C5 3982   3.278   2.884  11.469 -0.5277 -0.1279  0.4565
  263MPD2     H 3983   3.597   3.004  11.302 -1.3015  1.2152 -0.2824
  263MPD2    H1 3984   3.164   2.993  11.347 -0.6946  0.1496  2.0550
  263MPD2    H2 3985   3.397   2.787  11.610 -2.8142  0.3917  0.3910
  263MPD2    H3 3986   3.189   2.853  11.523 -0.9095  2.4251  1.3114
  263MPD2     N 3987   3.396   3.127  11.215  0.3256  0.4283 -0.1929
  263MPD2    H5 3988   3.490   3.155  11.191  1.5622 -0.5355  3.5180
  263MPD2    N1 3989   3.626   2.844  11.532  0.6214 -0.6447  0.2511
  263MPD2    H7 3990   3.611   2.785  11.613  1.6589 -1.7452 -0.3517
  264TMC3    C1 3991   3.337   3.304  11.071 -0.6279  0.2133 -0.2515
  264TMC3    C2 3992   3.282   3.427  11.101  0.0835 -0.4059 -0.1254
  264TMC3    C3 3993   3.348   3.537  11.055 -0.3171 -0.8378  0.4512
  264TMC3    C4 3994   3.452   3.291  10.997  0.4645 -0.5344 -0.9541
  264TMC3    C5 3995   3.497   3.403  10.936 -0.4399 -0.0949 -0.2244
  264TMC3    C6 3996   3.445   3.523  10.963  0.6219  0.5349 -0.0530
  264TMC3     C 3997   3.296   3.198  11.159 -0.2948 -0.4909 -0.3587
  264TMC3     O 3998   3.177   3.186  11.188  0.1247 -0.0223  0.2896
  264TMC3     H 3999   3.237   3.428  11.200  0.6092 -0.1527  0.1145
  264TMC3    H1 4000   3.514   3.204  11.013 -1.0466 -1.9668 -2.9211
  264TMC3    H2 4001   3.477   3.608  10.904  2.3529  0.2951  0.5290
  264TMC3    C7 4002   3.652   3.404  10.925 -0.3845 -0.0180  0.0010
  264TMC3    C8 4003   3.385   3.635  11.158 -0.1529  0.0462  0.2689
  264TMC3    O1 4004   3.715   3.310  10.873  0.1527 -0.3647  0.2114
  264TMC3    O2 4005   3.489   3.692  11.128  0.0118  0.0342  0.1738
  265MPD2     C 4006   0.324   2.948  15.612 -0.2191  0.4064 -0.8564
  265MPD2    C1 4007   0.403   3.059  15.581  0.0149 -0.1720 -0.2754
  265MPD2    C2 4008   0.469   3.061  15.458 -0.7754 -0.4155 -0.4875
  265MPD2    C3 4009   0.481   2.947  15.376  0.3320  0.3514  0.0908
  265MPD2    C4 4010   0.408   2.837  15.416 -0.0822  0.0670  0.5059
  265MPD2    C5 4011   0.327   2.841  15.531  0.1549 -0.4091 -0.3307
  265MPD2     H 4012   0.526   3.146  15.424 -1.3082  1.3646  3.0901
  265MPD2    H1 4013   0.413   2.744  15.361 -1.2573 -0.2810  1.0081
  265MPD2    H2 4014   0.261   2.939  15.701 -0.3488 -0.7489 -1.0660
  265MPD2    H3 4015   0.281   2.749  15.567  1.9136 -1.0745  0.2360
  265MPD2     N 4016   0.559   2.939  15.262 -0.0563 -0.0401  0.2706
  265MPD2    H5 4017   0.572   2.841  15.239  2.3777 -0.2299  2.3862
  265MPD2    N1 4018   0.417   3.170  15.675 -0.5812  0.0185  1.1985
  265MPD2    H7 4019   0.480   3.243  15.643 -0.3824 -0.4014  0.6424
  266TMC3    C1 4020   0.386   3.302  15.873 -0.2782 -0.5798 -0.1864
  266TMC3    C2 4021   0.417   3.307  16.004 -0.6782 -0.1936  0.4656
  266TMC3    C3 4022   0.435   3.428  16.058 -0.6181 -0.3980  0.2086
  266TMC3    C4 4023   0.378   3.413  15.794 -0.0201 -0.1485 -0.1005
  266TMC3    C5 4024   0.392   3.535  15.848 -0.8422 -0.4765  0.5534
  266TMC3    C6 4025   0.418   3.544  15.979  0.1264 -0.2514  0.2460
  266TMC3     C 4026   0.377   3.173  15.804 -0.1975  0.0589  0.6373
  266TMC3     O 4027   0.367   3.075  15.878 -0.0298  0.8159  0.0737
  266TMC3     H 4028   0.428   3.212  16.054 -2.0254 -0.7069 -0.2215
  266TMC3    H1 4029   0.353   3.401  15.689  0.3845 -2.4069  0.0585
  266TMC3    H2 4030   0.438   3.644  16.015  1.9086 -0.7683  0.6933
  266TMC3    C7 4031   0.350   3.649  15.768  0.5994 -0.3259  0.3179
  266TMC3    C8 4032   0.515   3.426  16.175  0.4299  0.1635  0.1022
  266TMC3    O1 4033   0.341   3.624  15.649 -0.7287  0.0358  0.0265
  266TMC3    O2 4034   0.561   3.313  16.205 -0.2322 -0.2562  0.0251
  267MPD2     C 4035   2.342   0.550  17.223 -0.0307  0.3870 -0.5732
  267MPD2    C1 4036   2.327   0.431  17.291 -0.2812 -0.8482 -0.7545
  267MPD2    C2 4037   2.343   0.309  17.227 -0.1640 -0.5864 -0.1827
  267MPD2    C3 4038   2.367   0.310  17.092 -0.3254  0.8799  0.6496
  267MPD2    C4 4039   2.382   0.425  17.024  0.4633  0.1355 -0.6334
  267MPD2    C5 4040   2.376   0.544  17.091 -0.4169  0.1056 -0.0549
  267MPD2     H 4041   2.330   0.220  17.289  0.4759 -0.9786 -0.6184
  267MPD2    H1 4042   2.402   0.427  16.917  0.5285 -0.2418 -0.6271
  267MPD2    H2 4043   2.330   0.647  17.268  0.3696 -0.0580  0.5056
  267MPD2    H3 4044   2.405   0.640  17.050  0.8155 -1.3839 -2.6893
  267MPD2     N 4045   2.390   0.195  17.016  0.3284 -0.0964  0.0416
  267MPD2    H5 4046   2.416   0.198  16.917 -1.2608  2.9494 -0.2671
  267MPD2    N1 4047   2.303   0.455  17.424 -0.0864 -0.5696 -0.3230
  267MPD2    H7 4048   2.286   0.551  17.452  1.1899 -0.6521  0.7437
  268TMC3    C1 4049   2.293   0.410  17.646  0.1266  0.4566  0.4034
  268TMC3    C2 4050   2.387   0.509  17.666 -0.7486  0.0571 -0.7416
  268TMC3    C3 4051   2.455   0.508   0.096 -0.1835  1.1688  0.0696
  268TMC3    C4 4052   2.273   0.309   0.046  0.4294 -0.6143 -0.3036
  268TMC3    C5 4053   2.347   0.314   0.159 -0.4030 -0.5047 -0.5797
  268TMC3    C6 4054   2.436   0.418   0.193  0.2587 -0.3330 -0.3507
  268TMC3     C 4055   2.299   0.354  17.519  0.5355 -0.3407 -0.1056
  268TMC3     O 4056   2.349   0.240  17.509  0.1183  0.0617  0.6160
  268TMC3     H 4057   2.391   0.598  17.605 -1.5162  1.4765  1.2845
  268TMC3    H1 4058   2.215   0.220   0.021 -2.7627  1.3823 -0.0642
  268TMC3    H2 4059   2.483   0.420   0.291 -0.4172 -0.0218 -0.0305
  268TMC3    C7 4060   2.364   0.200   0.248 -0.1690  0.1811  0.3680
  268TMC3    C8 4061   2.592   0.553   0.087  0.1396  0.1743 -0.0516
  268TMC3    O1 4062   2.464   0.198   0.321  1.0255  0.6560  0.0863
  268TMC3    O2 4063   2.644   0.594   0.191  0.7981 -0.4365  0.0778
  269MPD2     C 4064   3.132   3.463  15.879 -0.2466  0.3148  0.1102
  269MPD2    C1 4065   3.009   3.498  15.821  0.6204 -0.0941  0.5097
  269MPD2    C2 4066   2.992   3.618  15.757  0.1497 -0.1599  0.3824
  269MPD2    C3 4067   3.091   3.706  15.731 -0.0274  0.2147 -0.6740
  269MPD2    C4 4068   3.216   3.667  15.773  0.0172 -0.3949 -0.4520
  269MPD2    C5 4069   3.232   3.555  15.850 -0.0790 -0.8678 -0.0961
  269MPD2     H 4070   2.893   3.644  15.721 -0.3542 -1.6820  0.6743
  269MPD2    H1 4071   3.298   3.737  15.760  1.8900 -2.6516 -0.7266
  269MPD2    H2 4072   3.144   3.361  15.913 -1.4599 -0.9473 -3.1793
  269MPD2    H3 4073   3.334   3.530  15.878 -0.1242 -1.2856 -0.3004
  269MPD2     N 4074   3.059   3.831  15.671 -0.3723 -0.9619 -0.5043
  269MPD2    H5 4075   2.961   3.858  15.676  0.2197  0.7256  2.4203
  269MPD2    N1 4076   2.910   3.406  15.843  0.7781  0.3361 -0.0315
  269MPD2    H7 4077   2.948   3.315  15.866  0.5968  0.1443 -0.4987
  270TMC3    C1 4078   2.699   3.299  15.822  0.1993  1.0046  0.1138
  270TMC3    C2 4079   2.581   3.285  15.748  0.0597  0.4110  0.0261
  270TMC3    C3 4080   2.506   3.177  15.777 -0.6649 -0.4184  0.1527
  270TMC3    C4 4081   2.729   3.215  15.925  0.6331  0.0948 -0.6757
  270TMC3    C5 4082   2.642   3.109  15.951 -0.5381  0.3759 -0.4673
  270TMC3    C6 4083   2.527   3.085  15.875 -1.1490 -0.4143  0.3008
  270TMC3     C 4084   2.781   3.420  15.800 -0.2698 -0.5252  0.3404
  270TMC3     O 4085   2.717   3.517  15.759  0.4125  0.4652 -0.0074
  270TMC3     H 4086   2.556   3.362  15.677 -0.2063  0.0608 -0.2602
  270TMC3    H1 4087   2.809   3.237  15.995 -0.3186 -1.0239  0.7627
  270TMC3    H2 4088   2.463   3.001  15.898 -0.8304 -0.8157 -0.2834
  270TMC3    C7 4089   2.708   2.980  15.983  0.1023  0.0520  0.5264
  270TMC3    C8 4090   2.426   3.126  15.665  0.4886  1.1472  0.1718
  270TMC3    O1 4091   2.815   2.959  15.923  0.0222  0.0025 -0.1479
  270TMC3    O2 4092   2.352   3.038  15.698 -0.3307  0.7769  0.1091
  271MPD2     C 4093   2.203   3.531  13.981  0.0238  0.5953 -0.4977
  271MPD2    C1 4094   2.159   3.440  14.075 -0.0044  0.3174  0.5813
  271MPD2    C2 4095   2.032   3.451  14.131 -0.2332 -0.3751  0.6350
  271MPD2    C3 4096   1.946   3.542  14.078  0.0517  0.1007 -0.2935
  271MPD2    C4 4097   1.984   3.632  13.982  1.0020  0.4410  0.4810
  271MPD2    C5 4098   2.113   3.630  13.939  0.4643  0.0254  0.1459
  271MPD2     H 4099   2.002   3.401  14.223 -1.9412 -0.5152 -0.0071
  271MPD2    H1 4100   1.915   3.704  13.940  0.7640  0.8373  1.5698
  271MPD2    H2 4101   2.301   3.538  13.934  1.6505 -0.0077  2.7386
  271MPD2    H3 4102   2.151   3.698  13.863  1.8159 -2.6924 -1.5713
  271MPD2     N 4103   1.805   3.543  14.108 -0.1199 -0.2097 -0.1844
  271MPD2    H5 4104   1.744   3.611  14.063  1.7546  2.1146  0.7576
  271MPD2    N1 4105   2.249   3.359  14.149  0.4758  0.0366  0.0074
  271MPD2    H7 4106   2.202   3.311  14.226 -1.5653  1.0171 -0.6262
  272TMC3    C1 4107   2.424   3.264  14.250 -0.6454 -0.1547  0.2115
  272TMC3    C2 4108   2.550   3.216  14.230 -0.1414  0.2673  0.4432
  272TMC3    C3 4109   2.591   3.118  14.314  0.1058 -0.5722  0.6790
  272TMC3    C4 4110   2.342   3.215  14.348  0.4369 -0.3479  0.4532
  272TMC3    C5 4111   2.392   3.119  14.433  0.5002  0.0101  0.0129
  272TMC3    C6 4112   2.512   3.062  14.416  0.3480 -0.1766  0.6806
  272TMC3     C 4113   2.382   3.355  14.148 -0.5465 -0.2229 -0.0775
  272TMC3     O 4114   2.469   3.401  14.071  0.1437 -0.9123  0.2426
  272TMC3     H 4115   2.618   3.262  14.159 -2.8039 -0.5696 -2.6229
  272TMC3    H1 4116   2.252   3.263  14.387  1.4178  2.2221 -0.4600
  272TMC3    H2 4117   2.538   2.980  14.482  0.7901  0.9487  1.9145
  272TMC3    C7 4118   2.316   3.099  14.549  0.0157  0.2878 -0.5181
  272TMC3    C8 4119   2.718   3.053  14.287  0.0368  0.4269  0.3036
  272TMC3    O1 4120   2.194   3.098  14.542 -0.3835  0.1057  0.0471
  272TMC3    O2 4121   2.776   3.073  14.179  0.1375  0.1031  0.1345
  273MPD2     C 4122   3.570   1.735  11.868  0.2055 -0.2485 -0.1417
  273MPD2    C1 4123   3.678   1.823  11.876 -0.6979 -0.0857 -0.0732
  273MPD2    C2 4124   3.767   1.814  11.766  0.0971 -0.8171 -0.2524
  273MPD2    C3 4125   3.746   1.727  11.663  0.2398  0.2635 -0.1523
  273MPD2    C4 4126   3.644   1.634  11.670  0.2812  0.0299 -0.1937
  273MPD2    C5 4127   3.548   1.641  11.766 -0.1810  0.1589 -0.4388
  273MPD2     H 4128   3.850   1.884  11.767 -0.9104  0.3735  2.2139
  273MPD2    H1 4129   3.640   1.563  11.588  0.9146  3.1310 -2.9132
  273MPD2    H2 4130   3.484   1.741  11.934  0.4384  0.4121  0.1038
  273MPD2    H3 4131   3.460   1.578  11.764 -0.0976  0.0670 -1.2585
  273MPD2     N 4132   3.833   1.720  11.550 -0.0313  0.5237  0.1083
  273MPD2    H5 4133   3.827   1.636  11.493 -0.7018  1.1196 -0.6911
  273MPD2    N1 4134   3.697   1.920  11.980  0.3468  0.3846 -0.0981
  273MPD2    H7 4135   3.645   1.901  12.065 -0.3348  0.0625 -0.5906
  274TMC3    C1 4136   4.000   1.768  11.399  0.7692  0.5627 -0.6411
  274TMC3    C2 4137   3.920   1.745  11.285 -1.2847  0.2829  0.4910
  274TMC3    C3 4138   3.954   1.792  11.166  0.4242 -0.1400 -0.6382
  274TMC3    C4 4139   4.106   1.841  11.384  0.6046 -0.1583  0.4096
  274TMC3    C5 4140   4.133   1.901  11.263 -0.4194  0.1985  0.2333
  274TMC3    C6 4141   4.063   1.873  11.150 -0.8300  0.5751  0.1413
  274TMC3     C 4142   3.921   1.813  11.503 -0.0622 -0.1299  0.2759
  274TMC3     O 4143   3.941   1.925  11.551  0.0797  0.4499 -0.0366
  274TMC3     H 4144   3.830   1.687  11.297  0.4901 -2.4656  0.6000
  274TMC3    H1 4145   4.158   1.867  11.475 -2.2588 -0.1299  2.0488
  274TMC3    H2 4146   4.072   1.935  11.061  1.5873 -0.8936 -0.6573
  274TMC3    C7 4147   4.169   2.038  11.283  0.4278 -0.2532 -0.1177
  274TMC3    C8 4148   3.840   1.795  11.071  0.0874 -0.1573 -0.5668
  274TMC3    O1 4149   4.099   2.130  11.246 -0.2582 -0.2321 -0.0808
  274TMC3    O2 4150   3.726   1.774  11.115  0.7537 -0.1484 -0.1608
  275MPD2     C 4151   3.796   4.353  14.690 -0.6779 -0.1157  0.1434
  275MPD2    C1 4152   3.699   4.362  14.788  0.2840 -0.4887 -0.5303
  275MPD2    C2 4153   3.588   4.286  14.788 -0.9295  0.1886  0.3891
  275MPD2    C3 4154   3.568   4.200  14.680  0.6536  0.0663 -0.1093
  275MPD2    C4 4155   3.669   4.184  14.591 -0.1976 -0.0604  0.1306
  275MPD2    C5 4156   3.784   4.257  14.599  0.5778 -0.5438  0.2431
  275MPD2     H 4157   3.516   4.279  14.869 -2.1506  0.1117 -0.7030
  275MPD2    H1 4158   3.647   4.133  14.498 -0.6856 -0.3942  0.4333
  275MPD2    H2 4159   3.891   4.404  14.698  0.6630 -2.5859  0.2130
  275MPD2    H3 4160   3.865   4.226  14.535 -0.6264 -1.5296 -0.8087
  275MPD2     N 4161   3.439   4.140  14.661  0.0702  0.1007 -0.3307
  275MPD2    H5 4162   3.423   4.084  14.578 -0.9508 -3.1056  2.0326
  275MPD2    N1 4163   3.723   4.447  14.895 -0.8764  0.2765  0.1812
  275MPD2    H7 4164   3.662   4.422  14.972 -1.0729 -1.0223 -0.3872
  276TMC3    C1 4165   3.800   4.613  15.041  0.0285  0.0727  0.2047
  276TMC3    C2 4166   3.696   4.591  15.123 -1.2871  0.3082  0.2539
  276TMC3    C3 4167   3.707   4.646  15.247 -0.5899  0.1126  0.7027
  276TMC3    C4 4168   3.914   4.665  15.089 -0.0317 -0.0976 -0.7658
  276TMC3    C5 4169   3.926   4.716  15.212 -0.6284  0.0286  0.7464
  276TMC3    C6 4170   3.818   4.705  15.289 -0.6383  0.5679  0.3347
  276TMC3     C 4171   3.814   4.551  14.912  0.4635 -0.8059 -0.4283
  276TMC3     O 4172   3.913   4.579  14.845  0.3413 -0.3469  0.3824
  276TMC3     H 4173   3.606   4.543  15.088 -1.1905 -0.5259  1.1326
  276TMC3    H1 4174   4.002   4.655  15.027  2.0815 -0.9206  2.3394
  276TMC3    H2 4175   3.833   0.012  15.392  2.8453 -0.2626  0.0543
  276TMC3    C7 4176   4.056   0.013  15.270 -0.0857 -0.2684 -0.6928
  276TMC3    C8 4177   3.627   4.585  15.351 -0.4935  0.1407 -0.2794
  276TMC3    O1 4178   4.064   0.028  15.390 -0.2242 -0.1848 -0.1299
  276TMC3    O2 4179   3.593   4.660  15.438  0.7334 -0.6957  0.3960
  277MPD2     C 4180   1.010   3.395  13.974 -0.0391  0.1877  0.1218
  277MPD2    C1 4181   0.904   3.410  13.885 -0.4834  0.6123  0.4658
  277MPD2    C2 4182   0.780   3.406  13.938  0.1308 -0.3960  0.3158
  277MPD2    C3 4183   0.753   3.387  14.072 -0.1174  0.6108  0.4316
  277MPD2    C4 4184   0.857   3.363  14.159 -0.1715  0.2092  0.7701
  277MPD2    C5 4185   0.983   3.367  14.107  0.3599 -0.1978  0.5582
  277MPD2     H 4186   0.693   3.408  13.874  0.7256 -2.8100 -0.5701
  277MPD2    H1 4187   0.846   3.324  14.260 -1.4773 -0.5524  0.3353
  277MPD2    H2 4188   1.110   3.406  13.932 -0.4808 -1.9116 -1.5230
  277MPD2    H3 4189   1.067   3.344  14.172  0.5089  0.4017  0.5823
  277MPD2     N 4190   0.617   3.372  14.106  0.0724 -0.3365  0.4264
  277MPD2    H5 4191   0.557   3.365  14.024  0.1007 -1.3676  0.5008
  277MPD2    N1 4192   0.927   3.411  13.744 -0.6473 -0.4248  0.5635
  277MPD2    H7 4193   1.024   3.408  13.715 -0.7578  0.8893  0.0605
  278TMC3    C1 4194   0.433   3.361  14.256 -0.0364  0.3616  0.0139
  278TMC3    C2 4195   0.395   3.315  14.378 -0.2248  0.0688  0.1929
  278TMC3    C3 4196   0.270   3.261  14.385 -0.9423 -0.4260  0.1679
  278TMC3    C4 4197   0.349   3.378  14.149  0.2958  0.4510 -0.2211
  278TMC3    C5 4198   0.217   3.344  14.166 -0.3530  0.0273 -0.4859
  278TMC3    C6 4199   0.178   3.286  14.283  0.0871 -0.0517  0.4233
  278TMC3     C 4200   0.574   3.368  14.233  0.0365 -0.0941  1.1733
  278TMC3     O 4201   0.635   3.390  14.336 -0.2111 -0.0074 -0.4297
  278TMC3     H 4202   0.455   3.295  14.466  1.1765 -0.0252 -0.8010
  278TMC3    H1 4203   0.389   3.422  14.059 -1.4186 -1.0977 -1.7501
  278TMC3    H2 4204   0.076   3.250  14.293  0.3447 -0.8069  0.3024
  278TMC3    C7 4205   0.152   3.283  14.049 -0.0158  0.7090  0.1328
  278TMC3    C8 4206   0.261   3.123  14.423  0.4865 -0.2817 -0.5609
  278TMC3    O1 4207   0.226   3.233  13.964 -0.2541 -0.4751  0.2894
  278TMC3    O2 4208   0.329   3.093  14.520  0.1742  0.2732  0.0638
  279MPD2     C 4209   0.026   4.112   0.686  0.3855 -0.0006 -0.6140
  279MPD2    C1 4210   0.033   3.971   0.667 -0.8072  0.1724 -0.3066
  279MPD2    C2 4211   0.065   3.919   0.539 -0.3176 -0.2401 -0.2260
  279MPD2    C3 4212   0.089   4.007   0.428 -0.0236 -0.5651  0.1920
  279MPD2    C4 4213   0.082   4.141   0.451  0.8764 -0.6405  0.1580
  279MPD2    C5 4214   0.063   4.193   0.583 -0.0605 -0.0901  0.7057
  279MPD2     H 4215   0.075   3.812   0.525 -1.2923 -0.0658 -2.2180
  279MPD2    H1 4216   0.089   4.213   0.370  0.0063 -0.3037  0.3811
  279MPD2    H2 4217   4.717   4.160   0.778  0.8502 -1.8479  0.5047
  279MPD2    H3 4218   0.056   4.300   0.593 -1.1220 -0.0525 -0.3593
  279MPD2     N 4219   0.131   3.959   0.298 -0.4502  0.1878  0.2330
  279MPD2    H5 4220   0.163   4.027   0.229  0.0410 -0.0904  0.1898
  279MPD2    N1 4221   0.011   3.893   0.779 -0.0574  0.3544 -0.1172
  279MPD2    H7 4222   4.686   3.948   0.851 -0.9907  0.9992 -1.2111
  280TMC3    C1 4223   4.694   3.714   0.914  0.0232 -0.4176  0.2726
  280TMC3    C2 4224   0.035   3.614   0.981 -0.2478  0.2022  0.0371
  280TMC3    C3 4225   4.690   3.543   1.074  0.0169 -0.9447  0.4991
  280TMC3    C4 4226   4.567   3.753   0.940  0.2398 -0.1968  0.9568
  280TMC3    C5 4227   4.502   3.669   1.033  0.5546  0.1309 -0.6706
  280TMC3    C6 4228   4.555   3.563   1.093 -0.4976  0.5149  0.6101
  280TMC3     C 4229   0.029   3.755   0.792  0.2413 -0.4394  0.7043
  280TMC3     O 4230   0.103   3.679   0.735 -0.5104 -0.2220 -0.2038
  280TMC3     H 4231   0.136   3.592   0.951 -0.9949  0.0244 -2.3036
  280TMC3    H1 4232   4.522   3.834   0.883  1.2033 -1.3803 -1.4793
  280TMC3    H2 4233   4.494   3.492   1.147 -0.6341  0.8901  0.9488
  280TMC3    C7 4234   4.353   3.667   1.030 -0.1640  0.2227  0.3261
  280TMC3    C8 4235   0.028   3.412   1.117  0.6528 -0.5117  0.2370
  280TMC3    O1 4236   4.287   3.601   1.113 -0.1128  0.3683 -0.4155
  280TMC3    O2 4237   0.121   3.366   1.048  0.1049  0.3252  0.0960
  281TMC3    C1 4238   3.197   3.570  13.085 -0.1969  0.4496  0.2336
  281TMC3    C2 4239   3.119   3.676  13.037  0.2416 -0.2677 -0.3940
  281TMC3    C3 4240   2.984   3.669  13.059  0.4439  0.1451 -0.0605
  281TMC3    C4 4241   3.141   3.456  13.138  0.4776  0.4798  0.5406
  281TMC3    C5 4242   3.010   3.460  13.158 -0.8504  0.4780 -0.1506
  281TMC3    C6 4243   2.929   3.560  13.119 -0.1319  0.2460  1.3491
  281TMC3     C 4244   3.338   3.573  13.113 -0.3438  0.0072  0.7741
  281TMC3     O 4245   3.393   3.462  13.110  0.2275 -0.2295  0.2754
  281TMC3     H 4246   3.168   3.752  12.979  2.0599 -0.6179  0.6892
  281TMC3    H1 4247   3.188   3.363  13.171  1.6103  0.1970 -1.8313
  281TMC3    H2 4248   2.824   3.562  13.147 -0.4161  1.4585  0.1589
  281TMC3    C7 4249   2.946   3.354  13.233 -0.9034 -0.1919  0.3274
  281TMC3    C8 4250   2.896   3.736  12.959  0.1422 -0.9340 -0.3933
  281TMC3    O1 4251   3.022   3.276  13.290  0.1942  0.2055  0.1459
  281TMC3    O2 4252   2.782   3.692  12.952  0.2739 -0.1380  0.2960
  282MPD2     C 4253   0.721   0.216  15.582  0.3759  0.0865  0.0906
  282MPD2    C1 4254   0.602   0.282  15.603 -0.1738  0.1994 -0.0089
  282MPD2    C2 4255   0.538   0.341  15.494 -0.2046 -0.8190  0.7387
  282MPD2    C3 4256   0.593   0.324  15.366  0.4105 -1.0119  0.5146
  282MPD2    C4 4257   0.708   0.250  15.348  0.7100  0.2988  0.2601
  282MPD2    C5 4258   0.769   0.191  15.454  1.1166 -0.3017 -0.4353
  282MPD2     H 4259   0.448   0.400  15.503  0.8977  0.8525  0.7499
  282MPD2    H1 4260   0.755   0.243  15.251  1.3934 -1.6093  0.7281
  282MPD2    H2 4261   0.776   0.173  15.665 -0.1884  2.1069  1.4958
  282MPD2    H3 4262   0.862   0.136  15.442  2.1320  1.5262 -1.0141
  282MPD2     N 4263   0.523   0.381  15.252 -0.7930 -0.6402  0.2186
  282MPD2    H5 4264   0.438   0.432  15.274 -0.3687  0.7484 -1.3526
  282MPD2    N1 4265   0.551   0.306  15.729  0.5465  0.2420 -0.0321
  282MPD2    H7 4266   0.474   0.372  15.730 -0.5607 -1.0387  0.1104
  283TMC3    C1 4267   0.485   0.252  15.950 -0.3287 -0.2071 -0.2177
  283TMC3    C2 4268   0.453   0.380  15.978 -0.1206  0.1958 -0.4366
  283TMC3    C3 4269   0.364   0.405  16.077 -0.8039 -0.2685  0.0916
  283TMC3    C4 4270   0.431   0.145  16.018 -0.3328  0.3575  0.1211
  283TMC3    C5 4271   0.326   0.175  16.107  0.2383 -0.0781  0.1627
  283TMC3    C6 4272   0.288   0.306  16.133  0.1807  0.3894  0.1632
  283TMC3     C 4273   0.571   0.221  15.834 -0.3392 -0.5656  0.2472
  283TMC3     O 4274   0.626   0.111  15.839 -0.2165  0.4415 -0.2281
  283TMC3     H 4275   0.500   0.466  15.932  0.4204 -1.5196 -3.1497
  283TMC3    H1 4276   0.475   0.047  16.006 -2.8191 -0.6477 -0.6948
  283TMC3    H2 4277   0.206   0.329  16.200 -1.5552  0.5442 -2.0522
  283TMC3    C7 4278   0.238   0.068  16.151  0.5310  0.2710 -0.3734
  283TMC3    C8 4279   0.326   0.537  16.115  0.0538 -0.6528  0.0076
  283TMC3    O1 4280   0.170   0.088  16.251  0.5917  0.1091 -0.4219
  283TMC3    O2 4281   0.265   0.546  16.218  0.1566  0.0498  0.0613
  284MPD2     C 4282   3.417   4.430  11.792 -1.0588 -0.7984 -0.1202
  284MPD2    C1 4283   3.381   4.447  11.920 -0.7647  0.2453  0.5212
  284MPD2    C2 4284   3.342   4.331  11.991 -0.1658  0.6974  0.0426
  284MPD2    C3 4285   3.316   4.219  11.915  0.2209  0.1326  0.2075
  284MPD2    C4 4286   3.338   4.206  11.781  0.0064 -0.5482  0.6173
  284MPD2    C5 4287   3.394   4.311  11.729  0.4956 -0.7403  0.1361
  284MPD2     H 4288   3.335   4.322  12.098 -1.3330  2.2388  0.0848
  284MPD2    H1 4289   3.325   4.116  11.722  0.3361 -0.0345 -0.2360
  284MPD2    H2 4290   3.470   4.504  11.735  0.9777 -2.5993 -0.5668
  284MPD2    H3 4291   3.411   4.307  11.622  2.8916  2.6017  0.4099
  284MPD2     N 4292   3.268   4.112  11.995  0.4095  0.7979  0.0623
  284MPD2    H5 4293   3.257   4.141  12.091 -1.5309 -1.6038  0.5543
  284MPD2    N1 4294   3.421   4.560  11.992  0.1413  0.9618 -0.5406
  284MPD2    H7 4295   3.407   4.554  12.093  1.0539 -1.8648 -0.5710
  285TMC3    C1 4296   3.589   4.716  12.008 -0.8180  0.0446 -0.4685
  285TMC3    C2 4297   3.675   4.616  12.049 -0.1881  0.0150  0.1222
  285TMC3    C3 4298   3.810   4.641  12.059  0.0812  0.1882 -0.0853
  285TMC3    C4 4299   3.636   0.114  11.972  0.2993  0.0843 -0.3106
  285TMC3    C5 4300   3.767   0.136  11.984  0.4890  0.0193 -0.6154
  285TMC3    C6 4301   3.859   0.041  12.020 -0.6085 -0.4490 -0.4949
  285TMC3     C 4302   3.469   4.677  11.934 -0.2891  0.3427  0.2876
  285TMC3     O 4303   3.448   4.715  11.823  0.1716 -0.8788  0.4061
  285TMC3     H 4304   3.632   4.519  12.070  2.6302 -1.5001 -1.0578
  285TMC3    H1 4305   3.573   0.201  11.954  0.0536 -0.3252 -1.4470
  285TMC3    H2 4306   3.965   0.058  12.011 -0.1169 -3.0148  0.6063
  285TMC3    C7 4307   3.807   0.273  11.986  0.0732 -0.5480  0.1239
  285TMC3    C8 4308   3.886   4.520  12.025  0.4880  0.2172  0.0468
  285TMC3    O1 4309   3.747   0.358  11.919 -0.2828  0.4460  0.0368
  285TMC3    O2 4310   3.822   4.424  11.990  0.0737 -0.3858 -0.0329
  286MPD2     C 4311   3.302   3.159   1.818 -0.6392  0.0532 -0.2731
  286MPD2    C1 4312   3.263   3.112   1.697 -0.4058  0.1246 -0.2229
  286MPD2    C2 4313   3.337   3.007   1.636  0.5927  0.3147  0.6966
  286MPD2    C3 4314   3.440   2.946   1.700 -0.3454  0.7057  0.0371
  286MPD2    C4 4315   3.488   3.009   1.816 -0.0198 -1.0160  0.4765
  286MPD2    C5 4316   3.415   3.107   1.876 -0.2836  0.4491 -0.1270
  286MPD2     H 4317   3.305   2.970   1.540 -2.8483 -0.3954  2.1003
  286MPD2    H1 4318   3.570   2.974   1.876  0.8853  1.1966  0.5131
  286MPD2    H2 4319   3.254   3.240   1.873  0.1353  0.4991 -0.2462
  286MPD2    H3 4320   3.454   3.148   1.969 -1.9192  0.8440  0.3958
  286MPD2     N 4321   3.506   2.829   1.644 -0.2006  0.2999 -0.2121
  286MPD2    H5 4322   3.584   2.797   1.700 -1.0076 -0.9498  0.2029
  286MPD2    N1 4323   3.164   3.174   1.620  0.8981 -0.8227 -0.0966
  286MPD2    H7 4324   3.168   3.150   1.521 -0.6281  0.4897 -0.4760
  287TMC3    C1 4325   3.570   2.677   1.466 -0.4066  0.3172  0.1554
  287TMC3    C2 4326   3.534   2.607   1.350 -0.1223  0.1857 -0.2961
  287TMC3    C3 4327   3.630   2.554   1.262  0.4141 -0.3204  0.2368
  287TMC3    C4 4328   3.696   2.709   1.487 -0.3826 -0.1660  0.5016
  287TMC3    C5 4329   3.787   2.649   1.410  0.1780  0.1886 -0.4711
  287TMC3    C6 4330   3.759   2.585   1.289 -0.2183 -0.1492  0.0822
  287TMC3     C 4331   3.464   2.763   1.532 -0.1196  0.2951 -0.7111
  287TMC3     O 4332   3.366   2.774   1.463 -0.3007 -0.0237  0.3499
  287TMC3     H 4333   3.430   2.593   1.322 -0.1948 -1.9221  0.9705
  287TMC3    H1 4334   3.717   2.770   1.574 -0.1594  0.0131  0.3207
  287TMC3    H2 4335   3.829   2.545   1.218  0.7910  1.5567  0.1342
  287TMC3    C7 4336   3.924   2.639   1.462 -0.1628 -0.1465  0.0926
  287TMC3    C8 4337   3.588   2.546   1.126 -0.1604 -0.4913  0.1564
  287TMC3    O1 4338   3.950   2.698   1.565 -0.2867  0.3054  0.5673
  287TMC3    O2 4339   3.470   2.518   1.104 -0.4530  0.4138 -0.5833
  288TMC3    C1 4340   0.549   2.446  14.309  0.4996  0.0122  0.7352
  288TMC3    C2 4341   0.563   2.511  14.428  0.5429 -0.5512  1.0668
  288TMC3    C3 4342   0.600   2.644  14.415 -0.5628 -0.1488 -0.1931
  288TMC3    C4 4343   0.583   2.506  14.189 -0.5479 -0.4140  0.0771
  288TMC3    C5 4344   0.615   2.636  14.187 -0.3227  0.4554  0.2463
  288TMC3    C6 4345   0.623   2.711  14.297 -0.6693  0.2925  0.0961
  288TMC3     C 4346   0.533   2.304  14.310  0.2510  0.1631 -0.1072
  288TMC3     O 4347   0.563   2.245  14.208 -0.7835  0.2873  0.0931
  288TMC3     H 4348   0.545   2.464  14.524 -1.9161 -0.2502  0.7562
  288TMC3    H1 4349   0.569   2.462  14.091  0.9293 -0.7906  0.0301
  288TMC3    H2 4350   0.627   2.819  14.295  1.3996  0.1997 -1.7686
  288TMC3    C7 4351   0.612   2.692  14.053  0.1755  0.3207 -0.2502
  288TMC3    C8 4352   0.588   2.738  14.526  0.1576  0.2009 -1.0625
  288TMC3    O1 4353   0.619   2.624  13.953  0.3090  0.0145  0.0216
  288TMC3    O2 4354   0.582   2.856  14.500 -0.2278  0.4648 -0.4242
  289MPD2     C 4355   0.657   2.231  13.637  0.1372  0.2254  0.1161
  289MPD2    C1 4356   0.637   2.330  13.732  0.1371  0.5208  0.0860
  289MPD2    C2 4357   0.530   2.339  13.814  0.3084 -0.2293  0.0905
  289MPD2    C3 4358   0.453   2.223  13.820 -0.0436  0.2753  0.1261
  289MPD2    C4 4359   0.471   2.114  13.737 -0.5934 -0.3372  0.1633
  289MPD2    C5 4360   0.570   2.121  13.642  0.1490  0.0351  0.0532
  289MPD2     H 4361   0.506   2.426  13.874 -0.7647  0.2319 -1.0210
  289MPD2    H1 4362   0.399   2.033  13.733  1.2456 -1.9250 -0.9229
  289MPD2    H2 4363   0.731   2.231  13.558  0.0396 -0.6979  0.0201
  289MPD2    H3 4364   0.569   2.050  13.559 -0.0470  0.4201 -0.2750
  289MPD2     N 4365   0.342   2.227  13.905  0.0879  0.5766  0.2535
  289MPD2    H5 4366   0.325   2.322  13.938  1.3685  0.9699 -0.2249
  289MPD2    N1 4367   0.733   2.433  13.740 -0.8799 -0.0969  0.3652
  289MPD2    H7 4368   0.721   2.507  13.809  1.7971  0.8493 -0.1646
  290TMC3    C1 4369   0.170   2.151  14.052  0.4529 -0.0502  0.2512
  290TMC3    C2 4370   0.073   2.240  14.021 -0.1781 -0.1608 -0.1374
  290TMC3    C3 4371   4.713   2.278  14.126 -0.6764  0.1903 -0.2447
  290TMC3    C4 4372   0.169   2.075  14.162  0.1787 -0.1650 -0.3970
  290TMC3    C5 4373   0.091   2.120  14.267 -0.3101  0.1547 -0.3148
  290TMC3    C6 4374   4.711   2.212  14.245  0.1905 -0.7519  0.2975
  290TMC3     C 4375   0.274   2.118  13.954 -0.1399  0.2967  0.2625
  290TMC3     O 4376   0.313   2.003  13.955 -0.5933 -0.1832 -0.5702
  290TMC3     H 4377   0.075   2.288  13.924  1.1053  2.0759  1.0007
  290TMC3    H1 4378   0.254   2.009  14.178  0.4619 -0.0069 -1.2726
  290TMC3    H2 4379   4.638   2.241  14.320  0.5714 -0.2790  0.4855
  290TMC3    C7 4380   0.090   2.045  14.392 -0.7106 -0.0867 -0.0901
  290TMC3    C8 4381   4.635   2.402  14.111  0.2500 -0.1988  0.3963
  290TMC3    O1 4382   0.017   2.082  14.482 -0.4978 -0.0291 -0.4259
  290TMC3    O2 4383   4.572   2.412  14.009  0.1158 -0.2825  0.4404
  291MPD2     C 4384   4.327   1.926   0.196 -0.4039  0.2215  0.9444
  291MPD2    C1 4385   4.366   1.798   0.218  0.1412  0.5255 -0.4805
  291MPD2    C2 4386   4.477   1.775   0.296  0.3577  0.3108 -0.3586
  291MPD2    C3 4387   4.534   1.878   0.375  0.1163  0.4479  0.3907
  291MPD2    C4 4388   4.482   2.000   0.357 -0.8227 -0.0327 -0.4015
  291MPD2    C5 4389   4.379   2.028   0.274  0.3703 -0.4655 -0.4364
  291MPD2     H 4390   4.519   1.676   0.307  0.6066  0.6308  1.5982
  291MPD2    H1 4391   4.515   2.080   0.422  0.2200  0.4683 -1.5576
  291MPD2    H2 4392   4.246   1.940   0.126 -0.5406  0.6837  1.1987
  291MPD2    H3 4393   4.353   2.133   0.269 -1.3089 -0.9035 -0.9993
  291MPD2     N 4394   4.660   1.873   0.442 -0.1078 -0.4659  0.2596
  291MPD2    H5 4395   4.690   1.955   0.495  2.2098 -1.7828  0.9901
  291MPD2    N1 4396   4.309   1.683   0.151 -0.3867  0.4551  0.5517
  291MPD2    H7 4397   4.334   1.590   0.185  1.3277  0.7699  0.1641
  292TMC3    C1 4398   4.172   1.557   0.001  0.4064  0.1418  0.3938
  292TMC3    C2 4399   4.045   1.560  17.629 -0.0557 -0.4073 -0.3812
  292TMC3    C3 4400   3.975   1.443  17.628  0.2331 -0.1459  0.0660
  292TMC3    C4 4401   4.222   1.449   0.064  0.4628  0.4610 -0.3528
  292TMC3    C5 4402   4.150   1.332   0.043 -0.2307  0.6750 -1.2272
  292TMC3    C6 4403   4.023   1.323  17.678 -0.0871  0.5992 -0.5349
  292TMC3     C 4404   4.208   1.684   0.054  0.1916  0.4337  0.2288
  292TMC3     O 4405   4.137   1.778   0.024  0.2514  0.0211 -0.4136
  292TMC3     H 4406   4.000   1.651  17.591  2.1034  0.3824 -1.0831
  292TMC3    H1 4407   4.316   1.438   0.116  1.2026  2.6359 -1.1980
  292TMC3    H2 4408   3.970   1.231  17.657 -0.6212  0.9886 -0.8879
  292TMC3    C7 4409   4.204   1.214   0.116  0.0108 -0.5086 -0.0868
  292TMC3    C8 4410   3.837   1.450  17.591  0.2189 -0.6272 -0.6382
  292TMC3    O1 4411   4.324   1.198   0.122  0.2559  0.7078 -0.1823
  292TMC3    O2 4412   3.791   1.552  17.532  0.0462  0.1344  0.3470
  293MPD2     C 4413   1.944   3.265  12.676 -0.4540 -0.1656  0.5568
  293MPD2    C1 4414   1.832   3.215  12.741  0.0868 -0.6846  0.2168
  293MPD2    C2 4415   1.814   3.242  12.878  0.2249  0.6417  0.4983
  293MPD2    C3 4416   1.897   3.339  12.931 -0.2093 -0.1152  1.0197
  293MPD2    C4 4417   1.998   3.400  12.862 -0.0786 -0.7690  0.2578
  293MPD2    C5 4418   2.032   3.347  12.739  0.4421  0.6379 -0.2823
  293MPD2     H 4419   1.743   3.187  12.939  2.8895 -0.4512  2.6393
  293MPD2    H1 4420   2.058   3.482  12.899  0.7624 -0.9376 -0.7282
  293MPD2    H2 4421   1.963   3.245  12.571 -0.0617  0.4353  0.5148
  293MPD2    H3 4422   2.107   3.388  12.672  1.6460  1.7547  1.7525
  293MPD2     N 4423   1.870   3.376  13.064  0.0132 -0.0248 -0.4173
  293MPD2    H5 4424   1.790   3.331  13.109  0.7506 -0.2350  0.6855
  293MPD2    N1 4425   1.741   3.137  12.667 -0.3151 -0.0264 -0.3631
  293MPD2    H7 4426   1.759   3.125  12.568 -2.4944 -2.6264 -0.4457
  294TMC3    C1 4427   1.537   3.038  12.612  0.3034  0.7168  0.4209
  294TMC3    C2 4428   1.423   2.973  12.649  0.8223 -0.0144  0.0702
  294TMC3    C3 4429   1.326   2.960  12.567 -0.0945 -0.1553 -0.5881
  294TMC3    C4 4430   1.553   3.092  12.487  0.3956 -0.0224  0.1185
  294TMC3    C5 4431   1.440   3.076  12.401  0.0866 -0.3250  0.1871
  294TMC3    C6 4432   1.324   3.013  12.439 -0.2327 -0.5592  0.5106
  294TMC3     C 4433   1.634   3.067  12.716  0.1488 -0.1513 -0.0765
  294TMC3     O 4434   1.603   3.035  12.828 -0.2089 -0.1572  0.0648
  294TMC3     H 4435   1.403   2.943  12.751  0.4425  0.4575  0.1366
  294TMC3    H1 4436   1.636   3.156  12.458  0.0890  1.3433  2.3295
  294TMC3    H2 4437   1.229   3.018  12.386  2.1961 -0.3073 -3.7913
  294TMC3    C7 4438   1.450   3.137  12.274 -0.1597 -0.5544  0.3564
  294TMC3    C8 4439   1.217   2.881  12.601 -0.9941 -0.1953  0.0056
  294TMC3    O1 4440   1.551   3.202  12.264  0.0400  0.0936 -0.0685
  294TMC3    O2 4441   1.190   2.877  12.720  0.0748  0.2731  0.2666
  295MPD2     C 4442   1.032   1.703   1.118 -0.0431  0.1058 -0.2338
  295MPD2    C1 4443   1.169   1.707   1.122  0.0054 -0.1358  0.0231
  295MPD2    C2 4444   1.226   1.744   1.239  0.0341  0.0124 -1.2882
  295MPD2    C3 4445   1.146   1.769   1.353 -0.0468 -0.2718  1.3112
  295MPD2    C4 4446   1.012   1.774   1.344 -0.5897  0.1488 -0.2834
  295MPD2    C5 4447   0.956   1.730   1.227 -1.3924  0.2671  0.9460
  295MPD2     H 4448   1.333   1.756   1.248 -0.0964  0.8418 -0.8554
  295MPD2    H1 4449   0.953   1.807   1.428  0.8019  1.0133  0.3584
  295MPD2    H2 4450   0.990   1.677   1.022  1.1479  1.4979 -1.1448
  295MPD2    H3 4451   0.849   1.732   1.216 -1.1479 -2.1827 -1.7237
  295MPD2     N 4452   1.196   1.797   1.479  0.5136  0.3044  0.1077
  295MPD2    H5 4453   1.127   1.831   1.545 -0.4240  0.3545 -0.8953
  295MPD2    N1 4454   1.246   1.681   1.012  0.6212  0.0938 -0.6559
  295MPD2    H7 4455   1.345   1.694   1.030  0.2839  1.0532  0.4834
  296TMC3    C1 4456   1.358   1.850   1.644 -0.1722  0.9154 -0.1447
  296TMC3    C2 4457   1.481   1.905   1.641 -0.0190  0.5200 -0.2265
  296TMC3    C3 4458   1.533   1.954   1.757  0.3467  1.2271  0.6332
  296TMC3    C4 4459   1.281   1.828   1.755 -0.0289 -0.5471 -0.4021
  296TMC3    C5 4460   1.337   1.887   1.868 -0.1525  0.4523 -0.3249
  296TMC3    C6 4461   1.468   1.933   1.867 -0.3102 -0.6282  0.3325
  296TMC3     C 4462   1.329   1.780   1.518 -0.2062  0.2672 -0.0548
  296TMC3     O 4463   1.424   1.751   1.447 -0.4546 -0.1299  0.2921
  296TMC3     H 4464   1.523   1.922   1.542  1.2860  3.2098  0.7767
  296TMC3    H1 4465   1.186   1.775   1.752  0.8397 -2.3475  3.3137
  296TMC3    H2 4466   1.497   1.987   1.957 -0.1571  0.8395 -0.5911
  296TMC3    C7 4467   1.292   1.849   1.995  0.0571 -0.3694 -0.3347
  296TMC3    C8 4468   1.663   2.017   1.745 -0.0906  0.0349 -0.3859
  296TMC3    O1 4469   1.371   1.812   2.081  0.2099 -0.1810 -0.2055
  296TMC3    O2 4470   1.686   2.062   1.633 -0.4286 -0.4084  0.2216
  297MPD2     C 4471   4.574   3.695  16.970 -0.0780 -0.0877 -0.3223
  297MPD2    C1 4472   4.542   3.706  16.839 -0.8773  0.1955  0.5746
  297MPD2    C2 4473   4.573   3.823  16.776  0.8110  0.6533 -0.0532
  297MPD2    C3 4474   4.634   3.928  16.843 -0.3891  0.3624  0.1251
  297MPD2    C4 4475   4.656   3.919  16.978  0.2479  0.3204  0.0773
  297MPD2    C5 4476   4.630   3.797  17.040 -0.3109  0.0381  0.2595
  297MPD2     H 4477   4.540   3.844  16.675 -2.2399 -1.1881  0.5745
  297MPD2    H1 4478   4.683   4.007  17.035 -0.6416 -1.1007  2.7377
  297MPD2    H2 4479   4.533   3.618  17.033 -0.3881  0.5922  0.3054
  297MPD2    H3 4480   4.644   3.788  17.147  0.4213  0.4330  0.1964
  297MPD2     N 4481   4.660   4.041  16.769 -0.4327  0.2168 -0.1478
  297MPD2    H5 4482   4.640   4.042  16.669 -0.7493 -0.3022 -0.0908
  297MPD2    N1 4483   4.468   3.613  16.764  0.0964  0.6810 -0.1384
  297MPD2    H7 4484   4.439   3.647  16.673 -1.9681 -3.9856 -1.2686
  298TMC3    C1 4485   4.334   3.416  16.733 -0.6277  0.0047 -0.0530
  298TMC3    C2 4486   4.332   3.426  16.600 -0.0115  0.1169  0.5402
  298TMC3    C3 4487   4.231   3.380  16.521  0.2812 -0.3155  0.3909
  298TMC3    C4 4488   4.215   3.384  16.788 -0.2449  0.0844 -0.1093
  298TMC3    C5 4489   4.104   3.359  16.705 -0.2786 -0.4957 -0.2831
  298TMC3    C6 4490   4.116   3.337  16.573  0.2926 -0.1798 -0.7179
  298TMC3     C 4491   4.434   3.487  16.806  0.1177 -0.3199  0.0820
  298TMC3     O 4492   4.455   3.437  16.920 -0.0862  0.1246  0.7328
  298TMC3     H 4493   4.434   3.437  16.566 -0.7515  1.2844 -1.2650
  298TMC3    H1 4494   4.208   3.379  16.896 -1.5785 -0.5246 -0.2203
  298TMC3    H2 4495   4.033   3.296  16.516 -1.1811 -1.8611  2.6804
  298TMC3    C7 4496   3.975   3.405  16.755  0.3250  0.0678 -0.6699
  298TMC3    C8 4497   4.218   3.429  16.381  0.0436 -0.2457  0.3720
  298TMC3    O1 4498   3.974   3.446  16.873 -0.1934  0.4284  0.2576
  298TMC3    O2 4499   4.108   3.416  16.331 -0.2374  0.1516  0.1128
  299MPD2     C 4500   0.758   4.272  10.732  0.4561 -0.0732 -0.7147
  299MPD2    C1 4501   0.672   4.237  10.838  0.3650 -0.1120 -0.5254
  299MPD2    C2 4502   0.548   4.175  10.810 -0.1095  0.2782  0.4594
  299MPD2    C3 4503   0.513   4.143  10.677  0.3722 -0.2385  0.2295
  299MPD2    C4 4504   0.606   4.172  10.574  0.4624 -0.3246  0.2897
  299MPD2    C5 4505   0.725   4.229  10.600  1.4019  0.5252 -0.0030
  299MPD2     H 4506   0.478   4.153  10.889  0.1656  1.5436  1.0565
  299MPD2    H1 4507   0.585   4.137  10.474 -1.7276  0.4921  0.4418
  299MPD2    H2 4508   0.857   4.317  10.743  0.3960  0.0312 -0.5985
  299MPD2    H3 4509   0.800   4.245  10.524  0.6291 -1.5923 -1.1964
  299MPD2     N 4510   0.385   4.092  10.638 -0.4955  0.5393 -0.3058
  299MPD2    H5 4511   0.356   4.103  10.541 -0.1875 -1.8537 -0.6748
  299MPD2    N1 4512   0.716   4.270  10.970  0.4472  0.6939  0.2346
  299MPD2    H7 4513   0.816   4.289  10.975  0.5110  0.4729 -0.1909
  300TMC3    C1 4514   0.178   3.975  10.669  0.1957  0.0564 -0.4295
  300TMC3    C2 4515   0.095   4.082  10.630 -0.5132 -0.0207  0.3762
  300TMC3    C3 4516   4.687   4.082  10.672  0.0696 -0.7681 -0.0496
  300TMC3    C4 4517   0.128   3.866  10.726 -0.2691 -0.0004  0.3752
  300TMC3    C5 4518   4.713   3.873  10.751  0.4104  0.2035 -0.2183
  300TMC3    C6 4519   4.633   3.974  10.722 -0.4038  0.4324  0.3586
  300TMC3     C 4520   0.301   4.029  10.731  0.1396  0.2613 -0.0001
  300TMC3     O 4521   0.325   4.001  10.846 -0.5897  0.4409  0.5695
  300TMC3     H 4522   0.132   4.166  10.574 -0.6737 -0.0705  0.1952
  300TMC3    H1 4523   0.180   3.792  10.786  0.0888  0.9006  1.1560
  300TMC3    H2 4524   4.529   3.968  10.754 -0.2084  0.7799  1.0677
  300TMC3    C7 4525   4.670   3.773  10.844  0.6147  0.4706  0.3895
  300TMC3    C8 4526   4.632   4.204  10.726 -0.7496 -0.1922  0.1623
  300TMC3    O1 4527   0.009   3.664  10.845  0.0533 -0.6163  0.2013
  300TMC3    O2 4528   4.714   4.290  10.729 -0.4517  0.5550  0.1106
  301MPD2     C 4529   2.610   0.753   1.349 -0.1023  0.3235 -0.2230
  301MPD2    C1 4530   2.553   0.698   1.235  0.6722  0.0073  0.8325
  301MPD2    C2 4531   2.601   0.571   1.196 -0.5585 -0.4574  0.5266
  301MPD2    C3 4532   2.681   0.502   1.282  0.1523 -0.2670  0.2059
  301MPD2    C4 4533   2.737   0.564   1.389  0.3810 -0.0585 -0.5210
  301MPD2    C5 4534   2.706   0.693   1.420 -0.5162 -0.9948  0.1026
  301MPD2     H 4535   2.575   0.526   1.101 -0.7391  1.8969 -0.5429
  301MPD2    H1 4536   2.800   0.511   1.460 -3.1357 -1.0768  1.8468
  301MPD2    H2 4537   2.577   0.845   1.397  1.5321 -0.2876  2.0402
  301MPD2    H3 4538   2.740   0.734   1.515  0.4556 -1.5381 -0.0142
  301MPD2     N 4539   2.717   0.368   1.254 -0.5039 -0.4879  0.0467
  301MPD2    H5 4540   2.797   0.340   1.310 -0.5527 -0.4614  0.1302
  301MPD2    N1 4541   2.453   0.761   1.154  0.2467 -0.0751 -0.0708
  301MPD2    H7 4542   2.440   0.724   1.060  1.7182 -1.6533  0.3448
  302TMC3    C1 4543   2.720   0.145   1.172 -0.0353  0.1122 -0.7932
  302TMC3    C2 4544   2.845   0.123   1.223  0.5227 -0.7668 -0.3781
  302TMC3    C3 4545   2.874   4.716   1.257  1.3897 -0.2040 -0.5907
  302TMC3    C4 4546   2.625   0.051   1.152  0.3549  0.7670  0.9551
  302TMC3    C5 4547   2.661   4.642   1.179 -0.0323 -0.0248  0.7391
  302TMC3    C6 4548   2.781   4.621   1.236 -0.4172 -0.4915  0.4955
  302TMC3     C 4549   2.673   0.282   1.158 -0.3114 -0.5839 -0.1657
  302TMC3     O 4550   2.568   0.302   1.097 -0.0688 -0.0223 -0.5161
  302TMC3     H 4551   2.921   0.201   1.221 -0.9874  0.7117  0.2876
  302TMC3    H1 4552   2.522   0.077   1.132  0.6101  0.2472 -1.0252
  302TMC3    H2 4553   2.801   4.516   1.254 -1.0126 -0.8712 -1.0771
  302TMC3    C7 4554   2.581   4.525   1.139 -0.1564  0.5032 -0.4821
  302TMC3    C8 4555   3.007   4.660   1.293 -0.0930  0.5683  0.1573
  302TMC3    O1 4556   2.608   4.412   1.178 -0.3555  0.1140  0.1275
  302TMC3    O2 4557   3.026   4.538   1.289  0.1150  0.1103  0.3139
  303MPD2     C 4558   2.813   3.111  10.676  0.3601  0.1142 -0.2572
  303MPD2    C1 4559   2.681   3.143  10.660 -0.4117 -0.4548  0.5424
  303MPD2    C2 4560   2.637   3.176  10.537 -0.0226  0.1711  0.2917
  303MPD2    C3 4561   2.728   3.178  10.430 -0.6035  0.0480 -0.0665
  303MPD2    C4 4562   2.864   3.168  10.453  0.5025 -0.2314 -0.3042
  303MPD2    C5 4563   2.912   3.126  10.576  0.0411 -0.3299 -0.9673
  303MPD2     H 4564   2.532   3.198  10.521  0.3442  1.1682 -0.7059
  303MPD2    H1 4565   2.928   3.180  10.367 -1.0570  1.2605 -1.2595
  303MPD2    H2 4566   2.847   3.076  10.773  0.7200 -1.1474 -0.8399
  303MPD2    H3 4567   3.019   3.111  10.586 -0.2004 -0.4971  1.4409
  303MPD2     N 4568   2.685   3.196  10.295 -0.4633 -0.2445 -0.4293
  303MPD2    H5 4569   2.756   3.212  10.224 -0.6360  0.7822 -0.3725
  303MPD2    N1 4570   2.603   3.155  10.777  0.5238 -0.3524  0.1479
  303MPD2    H7 4571   2.643   3.130  10.866 -2.8059 -2.1556  1.1366
  304TMC3    C1 4572   2.425   3.198  10.915  0.4739 -0.6340  0.1274
  304TMC3    C2 4573   2.356   3.306  10.953  0.5457  0.0666  0.3803
  304TMC3    C3 4574   2.271   3.302  11.061  0.0887 -0.1315 -0.7972
  304TMC3    C4 4575   2.403   3.076  10.973  0.8159  0.3838  0.7131
  304TMC3    C5 4576   2.314   3.074  11.081 -0.4100  0.3656  0.1377
  304TMC3    C6 4577   2.256   3.188  11.137  0.0672  0.0568  0.1011
  304TMC3     C 4578   2.478   3.201  10.781  1.3024 -0.0158 -0.5412
  304TMC3     O 4579   2.412   3.268  10.702  0.4442 -0.7886  0.4379
  304TMC3     H 4580   2.358   3.402  10.904  0.5176  0.8966  1.9959
  304TMC3    H1 4581   2.446   2.984  10.935 -1.1999 -0.7341  1.1574
  304TMC3    H2 4582   2.172   3.174  11.204  1.2092 -0.9380  1.3288
  304TMC3    C7 4583   2.206   2.971  11.069  0.2536 -0.3232  0.1472
  304TMC3    C8 4584   2.143   3.318  11.006 -0.3306 -0.3044  0.1478
  304TMC3    O1 4585   2.090   3.003  11.088 -0.6794  0.0202  0.1559
  304TMC3    O2 4586   2.130   3.291  10.889 -0.0189 -0.1269 -0.2180
  305MPD2     C 4587   0.432   0.821  14.579  0.9036 -0.8260 -0.3330
  305MPD2    C1 4588   0.548   0.746  14.595 -0.1592 -0.2687  0.2750
  305MPD2    C2 4589   0.614   0.704  14.486 -0.3911  0.1820 -1.0549
  305MPD2    C3 4590   0.556   0.715  14.361 -0.2915 -0.5571 -0.1770
  305MPD2    C4 4591   0.428   0.768  14.348  0.0179 -0.7464 -0.1506
  305MPD2    C5 4592   0.367   0.819  14.457  0.0139  0.9897 -0.2638
  305MPD2     H 4593   0.706   0.648  14.489 -1.6170 -1.7260  0.8345
  305MPD2    H1 4594   0.376   0.788  14.255  3.4399 -0.3497 -1.9842
  305MPD2    H2 4595   0.375   0.875  14.654  0.7722  2.4469 -2.8299
  305MPD2    H3 4596   0.269   0.865  14.444 -1.4147 -1.8280  0.5999
  305MPD2     N 4597   0.614   0.667  14.242  0.2295  0.0444 -0.5410
  305MPD2    H5 4598   0.551   0.672  14.162 -3.3331 -1.1065  2.2389
  305MPD2    N1 4599   0.603   0.732  14.724  0.5296  0.5175  0.1962
  305MPD2    H7 4600   0.563   0.772  14.808  0.9921 -1.4289  1.3513
  306TMC3    C1 4601   0.745   0.649  14.901  0.0165  0.2538  0.3386
  306TMC3    C2 4602   0.835   0.546  14.931  0.0003  0.1826 -0.0376
  306TMC3    C3 4603   0.874   0.528  15.059 -0.0020  0.4183 -0.0101
  306TMC3    C4 4604   0.702   0.736  14.999  0.0930  0.4413 -0.1496
  306TMC3    C5 4605   0.755   0.718  15.124 -0.1104 -0.6913 -0.0266
  306TMC3    C6 4606   0.845   0.619  15.155  0.1120  0.2491 -0.4415
  306TMC3     C 4607   0.711   0.654  14.756 -0.5322  0.2503 -0.9735
  306TMC3     O 4608   0.792   0.590  14.686 -0.6962 -0.3611  0.1294
  306TMC3     H 4609   0.868   0.472  14.858 -3.0892 -0.8896 -0.3205
  306TMC3    H1 4610   0.633   0.816  14.976  0.5617  1.0217  0.4971
  306TMC3    H2 4611   0.854   0.586  15.258 -1.8051 -1.0872 -0.6928
  306TMC3    C7 4612   0.695   0.769  15.243 -0.2469 -0.6626 -0.1557
  306TMC3    C8 4613   0.996   0.452  15.087 -1.3345  0.5850  0.0233
  306TMC3    O1 4614   0.574   0.778  15.242  0.3345  0.4679 -0.3430
  306TMC3    O2 4615   1.013   0.342  15.039 -0.6044  0.4127 -0.1230
  307MPD2     C 4616   2.301   2.780   1.736  0.1774  0.3866 -1.0678
  307MPD2    C1 4617   2.252   2.857   1.640 -0.6649 -0.2135  0.0345
  307MPD2    C2 4618   2.121   2.887   1.649  0.2677  0.1118 -0.7295
  307MPD2    C3 4619   2.038   2.846   1.750 -0.0814 -0.1630  0.5153
  307MPD2    C4 4620   2.089   2.761   1.849  0.3447 -0.0293 -0.4905
  307MPD2    C5 4621   2.218   2.726   1.834  0.3065  0.0019  0.8348
  307MPD2     H 4622   2.076   2.944   1.568 -1.4017 -0.7246 -0.3963
  307MPD2    H1 4623   2.022   2.718   1.923  0.5822  0.1698 -0.1564
  307MPD2    H2 4624   2.406   2.752   1.736 -0.1393 -0.8269  0.0614
  307MPD2    H3 4625   2.269   2.662   1.905  0.1957 -0.8849  0.1013
  307MPD2     N 4626   1.905   2.877   1.744 -0.2864 -0.0896  0.0514
  307MPD2    H5 4627   1.883   2.955   1.682 -0.7181 -1.5007 -1.5626
  307MPD2    N1 4628   2.329   2.912   1.535 -0.7250  0.1253 -0.3133
  307MPD2    H7 4629   2.277   2.972   1.472  1.9100  0.5626 -2.0626
  308TMC3    C1 4630   1.505   2.879   1.642  0.0002  0.1302  0.1014
  308TMC3    C2 4631   1.492   3.012   1.641  0.5395  0.4071  0.7457
  308TMC3    C3 4632   1.582   3.082   1.716 -0.8165  0.3328 -0.2161
  308TMC3    C4 4633   1.599   2.813   1.715  0.5124 -0.2410  0.1945
  308TMC3    C5 4634   1.675   2.886   1.794 -0.3102 -0.0983  0.6279
  308TMC3    C6 4635   1.676   3.022   1.791  0.7832  0.0717  0.0048
  308TMC3     C 4636   1.456   2.795   1.535 -0.2136  0.0237  0.4387
  308TMC3     O 4637   1.416   2.681   1.563  0.7303  0.4993 -0.2048
  308TMC3     H 4638   1.423   3.056   1.570  1.1799  1.7157  0.9349
  308TMC3    H1 4639   1.608   2.705   1.714 -2.1691 -0.4958  1.1708
  308TMC3    H2 4640   1.738   3.074   1.862  0.4957  0.8636 -0.3189
  308TMC3    C7 4641   1.802   2.826   1.824 -0.7856 -0.3799  0.5812
  308TMC3    C8 4642   1.573   3.228   1.713 -0.4115  0.6006  0.1105
  308TMC3    O1 4643   1.793   2.730   1.900 -0.0406  1.0837  0.5494
  308TMC3    O2 4644   1.589   3.291   1.817 -0.1068  0.2866 -0.5150
  309MPD2     C 4645   2.098   3.876  17.284 -0.0457 -0.2682 -1.0020
  309MPD2    C1 4646   2.048   3.768  17.217 -0.0600 -0.5153 -0.1918
  309MPD2    C2 4647   1.926   3.712  17.249  0.1373  0.1307 -0.0128
  309MPD2    C3 4648   1.852   3.761  17.362  0.0303 -0.2431 -0.2044
  309MPD2    C4 4649   1.910   3.868  17.433 -0.2922  0.1614  0.5127
  309MPD2    C5 4650   2.034   3.910  17.399  0.7700 -0.2703 -0.6260
  309MPD2     H 4651   1.887   3.635  17.182  3.2217 -3.0694  1.8729
  309MPD2    H1 4652   1.863   3.912  17.520  0.0317 -1.3010  1.4335
  309MPD2    H2 4653   2.187   3.927  17.250  1.1668 -0.4938  1.7939
  309MPD2    H3 4654   2.077   3.990  17.459 -0.7111  0.5733 -0.6932
  309MPD2     N 4655   1.733   3.700  17.394 -0.1747 -0.2642  0.3039
  309MPD2    H5 4656   1.675   3.754  17.458 -0.8122  1.4612 -1.7264
  309MPD2    N1 4657   2.116   3.725  17.102 -0.5503 -0.4283 -0.0602
  309MPD2    H7 4658   2.063   3.666  17.039  0.2569 -0.8924 -0.3032
  310TMC3    C1 4659   2.289   3.692  16.965 -1.1792  0.2509  0.0238
  310TMC3    C2 4660   2.195   3.675  16.867 -0.4247  0.3407 -0.9627
  310TMC3    C3 4661   2.234   3.607  16.754 -0.2674  0.1149  0.0149
  310TMC3    C4 4662   2.414   3.643  16.957 -0.5104 -0.1179 -0.3691
  310TMC3    C5 4663   2.444   3.561  16.853  0.0740  0.4266 -0.5695
  310TMC3    C6 4664   2.361   3.551  16.745  0.0646  0.4449 -0.3285
  310TMC3     C 4665   2.252   3.745  17.087 -0.7962  0.6590 -0.1714
  310TMC3     O 4666   2.345   3.793  17.158 -0.4495 -0.3430  0.4643
  310TMC3     H 4667   2.088   3.682  16.884 -0.2879  2.8576 -1.1572
  310TMC3    H1 4668   2.492   3.654  17.032 -0.9635 -0.0838  0.0925
  310TMC3    H2 4669   2.384   3.486  16.662  0.0068  0.0766 -0.0521
  310TMC3    C7 4670   2.542   3.457  16.878  0.7711 -0.3717 -0.0884
  310TMC3    C8 4671   2.166   3.648  16.633 -0.8031 -0.0992  0.6621
  310TMC3    O1 4672   2.583   3.440  16.993  0.2299  0.2080  0.7269
  310TMC3    O2 4673   2.043   3.661  16.634  0.1496 -0.1921 -0.0728
  311MPD2     C 4674   4.658   0.278  13.177  1.3195  0.2896  0.7667
  311MPD2    C1 4675   4.640   0.403  13.227  0.3169  0.6857  0.3349
  311MPD2    C2 4676   4.511   0.449  13.244 -0.2164  0.3536  0.8153
  311MPD2    C3 4677   4.401   0.373  13.216 -0.4017  0.0292  0.4895
  311MPD2    C4 4678   4.424   0.248  13.162  0.0931 -0.3957 -0.2433
  311MPD2    C5 4679   4.552   0.201  13.143 -0.6975  0.1133  0.6026
  311MPD2     H 4680   4.496   0.546  13.290 -2.0032 -0.4290  1.8756
  311MPD2    H1 4681   4.346   0.178  13.136 -0.1245  0.4541 -1.8567
  311MPD2    H2 4682   0.031   0.229  13.153  1.7109  1.4113  0.0173
  311MPD2    H3 4683   4.574   0.098  13.120  0.4782  0.4638  0.1741
  311MPD2     N 4684   4.269   0.421  13.241 -0.8466 -0.0121  0.6900
  311MPD2    H5 4685   4.260   0.510  13.288  1.2748  0.9090 -0.6627
  311MPD2    N1 4686   0.030   0.487  13.264 -0.5427  0.2590 -0.2525
  311MPD2    H7 4687   0.008   0.579  13.302 -1.5104  0.1658 -0.5840
  312TMC3    C1 4688   4.031   0.431  13.223 -0.6326 -0.4644 -0.0754
  312TMC3    C2 4689   3.911   0.370  13.186  1.0442 -0.4043 -0.8445
  312TMC3    C3 4690   3.790   0.416  13.221  0.5173  0.4026 -0.5299
  312TMC3    C4 4691   4.026   0.550  13.291  1.3671 -0.0873  0.1934
  312TMC3    C5 4692   3.905   0.596  13.318  0.1938 -0.2787  0.0266
  312TMC3    C6 4693   3.784   0.533  13.285 -0.3223  0.6178  0.9438
  312TMC3     C 4694   4.157   0.362  13.196  0.1710  0.0711  0.1850
  312TMC3     O 4695   4.144   0.265  13.123 -0.3282 -0.4229 -0.0679
  312TMC3     H 4696   3.916   0.290  13.112 -2.1130 -0.8671 -0.5497
  312TMC3    H1 4697   4.114   0.611  13.306  1.4607  0.1237 -1.3014
  312TMC3    H2 4698   3.687   0.566  13.322 -0.9271  0.5621 -0.5910
  312TMC3    C7 4699   3.896   0.681  13.437  0.0225  0.1192 -0.3164
  312TMC3    C8 4700   3.678   0.344  13.167 -0.7842  0.2929 -1.0551
  312TMC3    O1 4701   3.786   0.724  13.467  0.3597  0.3664 -0.3855
  312TMC3    O2 4702   3.697   0.219  13.162  0.0661  0.0732 -0.5058
  313MPD2     C 4703   4.021   4.226  11.307 -0.0885 -0.5312  0.0853
  313MPD2    C1 4704   3.887   4.224  11.283  0.1865 -0.4902  0.5582
  313MPD2    C2 4705   3.843   4.178  11.159  0.7458 -0.9403  0.2275
  313MPD2    C3 4706   3.933   4.145  11.056 -0.0544 -0.1748  0.0078
  313MPD2    C4 4707   4.067   4.167  11.077  0.3392  0.5179 -0.0370
  313MPD2    C5 4708   4.109   4.196  11.202  0.4953  0.3493  0.3039
  313MPD2     H 4709   3.736   4.168  11.142 -0.0517 -1.1321  5.3733
  313MPD2    H1 4710   4.142   4.157  11.000  0.4593  0.5857  0.0703
  313MPD2    H2 4711   4.056   4.250  11.407  0.2679  2.2006 -0.6979
  313MPD2    H3 4712   4.215   4.203  11.223  0.3551  1.3190  0.7036
  313MPD2     N 4713   3.885   4.109  10.929  0.5916  0.2145 -0.6455
  313MPD2    H5 4714   3.785   4.111  10.909  0.6868 -0.3780 -1.1619
  313MPD2    N1 4715   3.785   4.265  11.369  0.7488 -0.9213  0.6887
  313MPD2    H7 4716   3.692   4.253  11.330  1.1491 -1.4365 -0.1138
  314TMC3    C1 4717   3.686   4.384  11.547 -0.1440  0.4131  0.2416
  314TMC3    C2 4718   3.724   4.465  11.650 -0.1476 -0.0428  0.9046
  314TMC3    C3 4719   3.699   4.596  11.639  0.3509  0.7173  0.0655
  314TMC3    C4 4720   3.596   4.435  11.456 -0.2950 -0.1087 -0.2653
  314TMC3    C5 4721   3.555   4.567  11.463  0.2132  0.2324 -0.5505
  314TMC3    C6 4722   3.614   4.649  11.548  0.0647  0.0232  0.2151
  314TMC3     C 4723   3.803   4.311  11.499  0.3079 -0.9675 -0.0180
  314TMC3     O 4724   3.899   4.304  11.575  0.0302  0.2956  0.7238
  314TMC3     H 4725   3.791   4.425  11.725  0.4993 -1.9821 -0.7198
  314TMC3    H1 4726   3.555   4.378  11.374 -1.6967 -0.1144  0.4213
  314TMC3    H2 4727   3.593   0.033  11.534  1.1984  0.4425  1.6414
  314TMC3    C7 4728   3.510   4.625  11.339 -0.7596  0.3511 -0.7484
  314TMC3    C8 4729   3.803   4.682  11.671 -0.0540 -0.0128  0.1543
  314TMC3    O1 4730   3.420   4.709  11.345  0.5358 -0.0358  0.3814
  314TMC3    O2 4731   3.768   0.077  11.686  0.3118 -0.1108  0.1145
  315MPD2     C 4732   3.828   3.128   0.264  0.6442  0.0354  0.4913
  315MPD2    C1 4733   3.902   3.189   0.360  0.3047 -0.5237 -0.2315
  315MPD2    C2 4734   3.953   3.315   0.331 -0.8249 -0.0315  0.1996
  315MPD2    C3 4735   3.928   3.368   0.204  0.6492  0.8417  0.5920
  315MPD2    C4 4736   3.858   3.297   0.110  0.6097 -0.4018 -0.3014
  315MPD2    C5 4737   3.808   3.179   0.139 -0.5964  1.0646 -0.1801
  315MPD2     H 4738   4.024   3.361   0.398  0.0889 -0.8788 -0.1780
  315MPD2    H1 4739   3.843   3.345   0.014 -1.5020  0.2950  0.3826
  315MPD2    H2 4740   3.795   3.025   0.276  1.4307 -0.0347  1.9842
  315MPD2    H3 4741   3.744   3.121   0.074 -0.0096 -1.7064  1.7292
  315MPD2     N 4742   3.971   3.500   0.195 -0.5509  0.1189  0.1912
  315MPD2    H5 4743   4.022   3.535   0.276 -0.1865 -0.3272  0.1519
  315MPD2    N1 4744   3.925   3.141   0.489  0.3900  0.3394 -0.1600
  315MPD2    H7 4745   3.981   3.190   0.557 -1.4941 -0.1793  1.7756
  316TMC3    C1 4746   3.952   3.734   0.154 -0.7016 -0.0295 -0.2594
  316TMC3    C2 4747   3.967   3.746   0.294  0.6580 -0.3521 -0.1839
  316TMC3    C3 4748   4.048   3.854   0.333 -0.2392  0.3320 -0.3149
  316TMC3    C4 4749   3.982   3.834   0.066 -0.0955  0.0574 -0.9073
  316TMC3    C5 4750   4.053   3.935   0.116 -0.1903 -0.0390 -0.5088
  316TMC3    C6 4751   4.085   3.949   0.247 -0.0866  1.0420 -0.2076
  316TMC3     C 4752   3.933   3.599   0.104 -0.1321  0.4714 -0.8358
  316TMC3     O 4753   3.882   3.590  17.679  0.0568 -0.1432  0.0884
  316TMC3     H 4754   3.951   3.663   0.362  0.6072 -0.2945 -0.1252
  316TMC3    H1 4755   3.988   3.808  17.647  0.8439 -0.3941 -0.7483
  316TMC3    H2 4756   4.135   4.033   0.294  0.1385  1.0772 -0.5112
  316TMC3    C7 4757   4.032   4.061   0.050 -0.1042  0.3891  0.0473
  316TMC3    C8 4758   4.076   3.860   0.472 -0.0123  0.4757 -0.2882
  316TMC3    O1 4759   4.081   4.164   0.098  0.2468 -0.5277 -0.1684
  316TMC3    O2 4760   4.166   3.933   0.513 -0.5430 -0.5247 -0.1628
  317MPD2     C 4761   0.890   2.038  13.214  0.0902 -0.3289  0.0433
  317MPD2    C1 4762   0.990   1.964  13.168  0.0991  0.2460 -0.9247
  317MPD2    C2 4763   1.077   1.895  13.248  0.4533  0.0719 -0.7697
  317MPD2    C3 4764   1.077   1.917  13.385  0.6163 -0.1371 -0.3792
  317MPD2    C4 4765   0.977   1.993  13.431 -0.1749  0.6704  0.0771
  317MPD2    C5 4766   0.887   2.051  13.350 -0.6565  0.0175  0.1830
  317MPD2     H 4767   1.158   1.837  13.205  0.7735  0.8121 -1.1624
  317MPD2    H1 4768   0.983   2.023  13.536 -0.9639 -0.1811  0.3657
  317MPD2    H2 4769   0.810   2.070  13.148 -0.4547 -0.2476  0.7405
  317MPD2    H3 4770   0.823   2.124  13.397  1.2193  3.4205 -2.5027
  317MPD2     N 4771   1.193   1.874  13.456  0.0562  0.7204 -0.9933
  317MPD2    H5 4772   1.264   1.826  13.402  1.1491  0.4475  0.6987
  317MPD2    N1 4773   0.989   1.925  13.029 -0.0262  0.5863  0.0282
  317MPD2    H7 4774   1.054   1.853  13.001 -0.1866 -0.2449  1.8481
  318TMC3    C1 4775   1.337   1.854  13.635 -0.8116 -0.2285 -0.1716
  318TMC3    C2 4776   1.336   1.758  13.742  0.1596  0.3627 -1.1222
  318TMC3    C3 4777   1.426   1.648  13.738 -0.1739  0.7335 -0.0291
  318TMC3    C4 4778   1.437   1.850  13.539  0.1546  0.7623  0.4715
  318TMC3    C5 4779   1.537   1.756  13.556  0.2982  0.3739  0.2638
  318TMC3    C6 4780   1.537   1.656  13.655  0.1491  0.0077 -0.1558
  318TMC3     C 4781   1.206   1.895  13.589  0.2491 -0.4631  0.0539
  318TMC3     O 4782   1.122   1.906  13.679 -0.0357  0.3850  0.3181
  318TMC3     H 4783   1.255   1.768  13.814  0.6637  0.6693 -0.5938
  318TMC3    H1 4784   1.449   1.929  13.466  2.4194  0.0408  0.0579
  318TMC3    H2 4785   1.594   1.564  13.648  0.3692  0.2335 -1.3338
  318TMC3    C7 4786   1.642   1.760  13.459 -0.6083 -0.0833 -0.9360
  318TMC3    C8 4787   1.354   1.529  13.693 -1.0376 -0.0836  0.2219
  318TMC3    O1 4788   1.612   1.787  13.342  0.4577 -0.4073  0.1904
  318TMC3    O2 4789   1.407   1.420  13.702  0.1676 -0.1098  0.4311
  319MPD2     C 4790   1.809   3.041  16.673 -1.1685 -0.6226  0.0932
  319MPD2    C1 4791   1.717   3.033  16.774 -0.2270  0.5812  0.0208
  319MPD2    C2 4792   1.584   3.022  16.737 -0.1602  0.3501 -0.2535
  319MPD2    C3 4793   1.545   3.027  16.604 -0.0777 -0.3403  0.1121
  319MPD2    C4 4794   1.638   3.028  16.505 -0.2834  0.1098 -0.2038
  319MPD2    C5 4795   1.765   3.042  16.538  0.2487 -0.1206 -0.4338
  319MPD2     H 4796   1.505   3.013  16.811  0.6803 -0.1375  0.5891
  319MPD2    H1 4797   1.610   3.037  16.400  1.7226  0.6955 -0.6771
  319MPD2    H2 4798   1.915   3.059  16.686 -1.1694 -2.3418  2.5413
  319MPD2    H3 4799   1.831   3.075  16.458 -1.3686  2.7898 -0.5430
  319MPD2     N 4800   1.408   3.012  16.563 -0.8209  0.6741  0.5744
  319MPD2    H5 4801   1.385   3.010  16.464 -0.5295  1.5314  0.4913
  319MPD2    N1 4802   1.743   3.027  16.908  0.3918  0.2787 -0.2224
  319MPD2    H7 4803   1.667   3.037  16.975 -0.5941  0.7441 -1.4128
  320TMC3    C1 4804   1.175   3.011  16.557 -0.0677  0.7869 -0.4682
  320TMC3    C2 4805   1.175   3.072  16.436  0.0715 -0.1449 -0.7363
  320TMC3    C3 4806   1.061   3.076  16.368  0.1761  0.3856 -0.0778
  320TMC3    C4 4807   1.069   2.952  16.619  0.0496 -0.3766 -0.7502
  320TMC3    C5 4808   0.957   2.958  16.541  1.2162 -0.0323  0.4233
  320TMC3    C6 4809   0.952   3.011  16.420  0.3806  0.1758  0.0654
  320TMC3     C 4810   1.295   3.020  16.635  0.5295  0.0669  0.1819
  320TMC3     O 4811   1.281   3.020  16.754  0.0845  0.3977  0.4280
  320TMC3     H 4812   1.254   3.134  16.395  2.4234 -1.0042  2.4543
  320TMC3    H1 4813   1.076   2.908  16.717  1.4444 -0.4770 -0.8856
  320TMC3    H2 4814   0.861   3.016  16.361 -0.3412 -1.4187  1.0494
  320TMC3    C7 4815   0.857   2.858  16.566 -0.1493  0.1902  0.3855
  320TMC3    C8 4816   1.047   3.180  16.270  0.4810 -0.0328 -0.2132
  320TMC3    O1 4817   0.798   2.807  16.470 -0.1406 -0.2649 -0.3015
  320TMC3    O2 4818   1.101   3.287  16.297 -0.2455 -0.0798 -0.3004
  321TMC3    C1 4819   1.878   3.015  17.104  0.3098  0.5273  0.3197
  321TMC3    C2 4820   1.999   3.024  17.153 -0.2493  0.5267  0.0014
  321TMC3    C3 4821   2.016   3.087  17.276 -0.6007 -0.4237 -0.3106
  321TMC3    C4 4822   1.771   3.039  17.184 -0.8017 -0.9279  0.1592
  321TMC3    C5 4823   1.792   3.099  17.307  0.5912  0.4397  0.2634
  321TMC3    C6 4824   1.914   3.142  17.344  0.5966  0.3522  0.5141
  321TMC3     C 4825   1.867   3.015  16.958  0.2863  0.3208 -0.7174
  321TMC3     O 4826   1.976   3.010  16.899 -0.0293  0.3543  0.5228
  321TMC3     H 4827   2.095   3.002  17.108 -0.4776 -0.9988  0.2802
  321TMC3    H1 4828   1.671   3.009  17.156 -0.6989 -2.4243  1.4219
  321TMC3    H2 4829   1.929   3.197  17.436  1.2994 -0.0423  0.6391
  321TMC3    C7 4830   1.730   3.050  17.427  0.0721  0.2016 -0.0763
  321TMC3    C8 4831   2.135   3.051  17.355  0.7606  0.3189  0.8090
  321TMC3    O1 4832   1.792   3.060  17.531  0.0988 -0.0944 -0.8449
  321TMC3    O2 4833   2.240   3.031  17.301  0.0081  0.8329  0.8454
  322MPD2     C 4834   0.430   0.055  14.053  0.6933  0.3780 -0.2633
  322MPD2    C1 4835   0.518   0.004  14.141  0.1719 -0.0323  0.0317
  322MPD2    C2 4836   0.523   4.586  14.156 -0.0478  0.3158  0.4605
  322MPD2    C3 4837   0.448   4.503  14.068 -0.3241  0.1184 -0.6021
  322MPD2    C4 4838   0.377   4.564  13.968 -0.5093  0.5095 -0.2298
  322MPD2    C5 4839   0.369   4.696  13.965 -0.3153  0.1892  0.1943
  322MPD2     H 4840   0.567   4.546  14.247  0.9730 -0.5382 -0.4084
  322MPD2    H1 4841   0.327   4.509  13.889  0.5730 -3.2535  1.6667
  322MPD2    H2 4842   0.413   0.161  14.040  2.4415  0.6706 -0.1833
  322MPD2    H3 4843   0.297   0.016  13.895  0.4911 -1.2380 -1.4517
  322MPD2     N 4844   0.468   4.365  14.080 -0.5367 -0.6635  0.6511
  322MPD2    H5 4845   0.517   4.332  14.162 -0.8321 -0.7045  0.8102
  322MPD2    N1 4846   0.603   0.082  14.226 -0.2643  0.4439 -0.3622
  322MPD2    H7 4847   0.669   0.035  14.287  0.1036  0.6343 -0.6151
  323TMC3    C1 4848   0.660   0.254  14.368 -0.2430  0.8198  0.1262
  323TMC3    C2 4849   0.788   0.309  14.367 -0.3757 -0.0787  0.1346
  323TMC3    C3 4850   0.867   0.288  14.479 -0.1082  0.5344  0.2076
  323TMC3    C4 4851   0.627   0.168  14.470  0.0328 -0.3046 -0.3400
  323TMC3    C5 4852   0.707   0.153  14.581  0.0903 -0.4455  0.2479
  323TMC3    C6 4853   0.835   0.202  14.583  0.9514 -0.5730  0.1903
  323TMC3     C 4854   0.604   0.221  14.240 -0.2019  0.3792 -0.7312
  323TMC3     O 4855   0.567   0.302  14.161 -0.3523 -0.3057 -0.3376
  323TMC3     H 4856   0.826   0.375  14.289 -3.7338  0.5830 -0.9657
  323TMC3    H1 4857   0.527   0.127  14.477  0.6144 -1.2357  2.4933
  323TMC3    H2 4858   0.911   0.160  14.648  2.1981 -0.8211 -1.4040
  323TMC3    C7 4859   0.680   0.038  14.661 -0.5952  0.1239  0.0297
  323TMC3    C8 4860   1.012   0.317  14.472 -0.4883 -0.0478 -0.4504
  323TMC3    O1 4861   0.599   4.672  14.625 -0.1243  0.1203 -0.0673
  323TMC3    O2 4862   1.088   0.238  14.525  0.0618  0.2333  0.2592
  324MPD2     C 4863   2.870   1.734  14.577  0.0476 -0.2500 -0.4497
  324MPD2    C1 4864   2.870   1.608  14.626  0.0911 -0.2615  0.3081
  324MPD2    C2 4865   2.765   1.525  14.593  0.0940  0.0933 -0.2875
  324MPD2    C3 4866   2.670   1.561  14.504  0.5684  0.7409 -0.4100
  324MPD2    C4 4867   2.676   1.680  14.443 -0.5042  0.5093 -0.1740
  324MPD2    C5 4868   2.775   1.770  14.484 -0.1851  0.0177 -1.2580
  324MPD2     H 4869   2.753   1.429  14.641  0.0748  0.0419 -0.3948
  324MPD2    H1 4870   2.604   1.715  14.370  0.5786 -0.0781 -1.5141
  324MPD2    H2 4871   2.944   1.809  14.607  1.0231 -1.1087 -0.7119
  324MPD2    H3 4872   2.775   1.870  14.443  0.4711  0.8139  0.7033
  324MPD2     N 4873   2.561   1.475  14.480  0.3514  0.3122  0.2570
  324MPD2    H5 4874   2.482   1.512  14.428  0.4124  1.1377  0.7627
  324MPD2    N1 4875   2.971   1.555  14.703 -0.4821 -0.4153  0.3250
  324MPD2    H7 4876   2.971   1.454  14.708 -0.3366 -0.5723 -2.8333
  325TMC3    C1 4877   2.415   1.295  14.531  0.1474  1.2084 -0.5143
  325TMC3    C2 4878   2.400   1.162  14.538 -0.2520 -0.0408 -0.1101
  325TMC3    C3 4879   2.275   1.112  14.557  0.0856 -0.3653 -0.4530
  325TMC3    C4 4880   2.320   1.387  14.553 -0.6481 -0.3953 -0.1511
  325TMC3    C5 4881   2.198   1.334  14.574  0.0559  0.3516 -0.8136
  325TMC3    C6 4882   2.168   1.200  14.578  0.3792  0.0862  0.6419
  325TMC3     C 4883   2.549   1.342  14.518  0.3587 -1.2340 -0.3455
  325TMC3     O 4884   2.645   1.265  14.518 -0.2783  0.1720  0.5017
  325TMC3     H 4885   2.477   1.092  14.506  0.7028  0.5873  0.8310
  325TMC3    H1 4886   2.335   1.494  14.550  1.4162 -0.6356  1.3485
  325TMC3    H2 4887   2.065   1.170  14.591  0.0707  0.6800 -0.4089
  325TMC3    C7 4888   2.113   1.425  14.652  0.5979  0.3609  1.0243
  325TMC3    C8 4889   2.236   0.974  14.539  0.0402  0.1448 -0.1685
  325TMC3    O1 4890   2.137   1.541  14.628 -0.1321 -0.4959  0.0604
  325TMC3    O2 4891   2.308   0.904  14.471  0.0796  0.0011  0.3198
  326MPD2     C 4892   3.496   2.431  11.223 -0.6161 -0.2093  0.2155
  326MPD2    C1 4893   3.543   2.411  11.100  0.2399  0.1470 -0.2628
  326MPD2    C2 4894   3.678   2.445  11.074  0.4192  0.6784  0.6894
  326MPD2    C3 4895   3.760   2.512  11.162 -0.3722  0.2828  0.1350
  326MPD2    C4 4896   3.705   2.537  11.290 -0.0119 -0.8704  0.2532
  326MPD2    C5 4897   3.577   2.492  11.315 -0.7059 -0.3213 -0.3615
  326MPD2     H 4898   3.714   2.413  10.978 -0.3823 -0.1767  0.6674
  326MPD2    H1 4899   3.764   2.584  11.368  1.9789  0.6665 -2.2138
  326MPD2    H2 4900   3.393   2.409  11.249 -0.2219 -0.7811  1.3090
  326MPD2    H3 4901   3.531   2.519  11.410  0.0524  0.8156 -0.3168
  326MPD2     N 4902   3.896   2.544  11.135  0.4519  0.1228 -0.2843
  326MPD2    H5 4903   3.944   2.570  11.220 -0.8271  1.1814  0.1069
  326MPD2    N1 4904   3.455   2.368  10.994 -0.2594  0.4239 -0.4337
  326MPD2    H7 4905   3.508   2.343  10.912 -0.2138  2.5676 -1.0620
  327TMC3    C1 4906   3.264   2.310  10.879  0.3485 -0.6589 -0.1845
  327TMC3    C2 4907   3.161   2.362  10.820 -0.5810 -0.1384 -0.2214
  327TMC3    C3 4908   3.133   2.310  10.697 -0.1903 -0.1863  0.2043
  327TMC3    C4 4909   3.319   2.194  10.840  0.0401 -0.1878  0.5497
  327TMC3    C5 4910   3.291   2.135  10.718 -0.6907 -0.8460 -0.2560
  327TMC3    C6 4911   3.198   2.201  10.640  0.5918  0.6507  0.2043
  327TMC3     C 4912   3.318   2.388  10.990  0.6505  0.3374  0.3034
  327TMC3     O 4913   3.255   2.464  11.057  0.2394  0.6353 -0.1126
  327TMC3     H 4914   3.123   2.457  10.854  0.5404 -0.0055  0.6383
  327TMC3    H1 4915   3.402   2.159  10.899 -1.9487 -2.7727  1.8316
  327TMC3    H2 4916   3.157   2.152  10.552  1.3679  1.2579 -0.4886
  327TMC3    C7 4917   3.377   2.039  10.658 -0.5055 -0.6173 -0.9834
  327TMC3    C8 4918   2.993   2.325  10.655 -0.1605  0.8897  0.0796
  327TMC3    O1 4919   3.388   2.043  10.538 -0.0649 -0.0972 -0.8404
  327TMC3    O2 4920   2.959   2.304  10.540 -0.4748  0.1140 -0.4138
  328MPD2     C 4921   0.838   1.893  17.301  0.4294 -0.0526 -0.4286
  328MPD2    C1 4922   0.751   1.795  17.262 -0.2598  0.3348  0.3750
  328MPD2    C2 4923   0.643   1.818  17.183  0.8668  0.4712  0.2197
  328MPD2    C3 4924   0.620   1.949  17.153  0.2476 -0.0175  0.2914
  328MPD2    C4 4925   0.700   2.056  17.191 -0.0013 -0.1708  0.5974
  328MPD2    C5 4926   0.806   2.022  17.267  0.2273 -0.1681 -0.6989
  328MPD2     H 4927   0.569   1.743  17.159  0.0676  1.8204 -1.6034
  328MPD2    H1 4928   0.681   2.157  17.157 -0.0248 -0.8141 -1.2930
  328MPD2    H2 4929   0.933   1.876  17.349  0.8915  0.0791 -1.3062
  328MPD2    H3 4930   0.868   2.103  17.303 -2.0171  0.7466  1.1144
  328MPD2     N 4931   0.498   1.997  17.107  0.0376  0.3562 -0.2085
  328MPD2    H5 4932   0.474   2.095  17.116  0.0514  0.0661  3.0134
  328MPD2    N1 4933   0.788   1.663  17.303  0.4099 -0.2718  0.1254
  328MPD2    H7 4934   0.874   1.655  17.356 -0.8227 -1.0956  1.9886
  329TMC3    C1 4935   0.768   1.438  17.343 -0.4513 -0.1355 -0.1642
  329TMC3    C2 4936   0.818   1.466  17.468 -0.1368  0.4540 -0.4044
  329TMC3    C3 4937   0.838   1.363  17.557 -0.4607 -0.2681 -0.8405
  329TMC3    C4 4938   0.732   1.308  17.308 -0.5415 -0.1782  0.7698
  329TMC3    C5 4939   0.768   1.208  17.398  0.1098  0.3425  0.6458
  329TMC3    C6 4940   0.808   1.237  17.526 -0.3084 -0.6005 -0.5839
  329TMC3     C 4941   0.719   1.547  17.272  0.1916  0.1937 -0.6178
  329TMC3     O 4942   0.633   1.525  17.189  0.2123 -0.1670  0.0691
  329TMC3     H 4943   0.855   1.562  17.501 -1.4109  1.2437 -1.2842
  329TMC3    H1 4944   0.685   1.271  17.218  0.7269 -1.2130  0.5362
  329TMC3    H2 4945   0.818   1.164  17.605  0.9956 -1.1434 -1.2406
  329TMC3    C7 4946   0.724   1.067  17.375  0.1797 -0.1694  1.0693
  329TMC3    C8 4947   0.890   1.383   0.007  0.4731  0.4150 -0.2647
  329TMC3    O1 4948   0.720   1.005  17.478  0.2034  0.5208 -0.0144
  329TMC3    O2 4949   0.950   1.290   0.051  0.0065  0.4374 -0.6021
  330TMC3    C1 4950   4.453   0.291   9.589 -0.2385 -1.0146 -0.1349
  330TMC3    C2 4951   4.407   0.171   9.535  0.2091  0.6444  0.7248
  330TMC3    C3 4952   4.486   0.093   9.454  0.3974 -0.6846  0.3521
  330TMC3    C4 4953   4.586   0.321   9.560  0.2970 -0.7684 -0.0988
  330TMC3    C5 4954   4.667   0.239   9.477  0.6265 -0.1725  0.2487
  330TMC3    C6 4955   4.619   0.128   9.414 -0.6180 -0.3778  0.1901
  330TMC3     C 4956   4.377   0.377   9.686 -0.4503  0.3749  0.1422
  330TMC3     O 4957   4.439   0.437   9.773 -0.4192 -0.3984 -0.1898
  330TMC3     H 4958   4.308   0.138   9.564  0.4564  1.1109  2.0595
  330TMC3    H1 4959   4.622   0.421   9.582  0.3180 -0.5428 -1.1414
  330TMC3    H2 4960   4.688   0.057   9.371  0.1568 -0.2691  1.2499
  330TMC3    C7 4961   0.091   0.251   9.475 -0.0234  0.4624 -0.0702
  330TMC3    C8 4962   4.430   4.689   9.397  0.0157  0.4582 -0.5014
  330TMC3    O1 4963   0.150   0.202   9.378 -0.1242 -0.4431  0.7822
  330TMC3    O2 4964   4.501   4.643   9.311  0.4893 -0.0425 -0.4511
  331MPD2     C 4965   1.633   0.217  12.740  0.5643 -0.1551 -0.2990
  331MPD2    C1 4966   1.731   0.253  12.646  0.9203 -0.0908  0.0860
  331MPD2    C2 4967   1.803   0.148  12.591 -0.2745 -0.3928 -0.0346
  331MPD2    C3 4968   1.785   0.023  12.624  1.0350 -0.5890 -0.8691
  331MPD2    C4 4969   1.693   4.709  12.729 -0.2545 -0.1926 -0.5020
  331MPD2    C5 4970   1.614   0.087  12.783 -0.1681 -0.1871  0.0115
  331MPD2     H 4971   1.861   0.165  12.501  1.5315  1.5489  1.4773
  331MPD2    H1 4972   1.668   4.607  12.756 -0.7088 -0.1551 -0.7823
  331MPD2    H2 4973   1.561   0.289  12.778 -0.5871 -2.1741  1.3467
  331MPD2    H3 4974   1.531   0.070  12.851  0.9580  1.6019  1.8176
  331MPD2     N 4975   1.855   4.640  12.556  0.6284 -0.1996  0.8771
  331MPD2    H5 4976   1.922   4.665  12.484 -1.0090  0.4916 -0.3995
  331MPD2    N1 4977   1.743   0.392  12.601  0.2406  0.1866  0.1817
  331MPD2    H7 4978   1.676   0.466  12.621 -0.7749 -1.0044  1.1780
  332TMC3    C1 4979   1.976   4.441  12.520  0.2298 -0.2600 -0.0445
  332TMC3    C2 4980   2.036   4.494  12.408  0.1264 -0.0802 -0.0115
  332TMC3    C3 4981   2.155   4.450  12.354  0.1691  0.0094 -0.0228
  332TMC3    C4 4982   2.038   4.337  12.578  0.4245  0.0682 -0.1963
  332TMC3    C5 4983   2.157   4.294  12.524  0.1296  0.1535  0.4915
  332TMC3    C6 4984   2.219   4.344  12.413 -0.9972  0.0402  0.2882
  332TMC3     C 4985   1.873   4.509  12.601  0.3307  0.1161 -0.3645
  332TMC3     O 4986   1.820   4.454  12.695  0.4247  1.1308  0.6494
  332TMC3     H 4987   1.988   4.580  12.363  0.7414 -0.2247 -0.9398
  332TMC3    H1 4988   1.990   4.298  12.667  1.0935 -1.6166 -0.5591
  332TMC3    H2 4989   2.304   4.296  12.366  0.2096  0.4543  2.0559
  332TMC3    C7 4990   2.240   4.228  12.627 -0.0512 -0.9651  0.2642
  332TMC3    C8 4991   2.193   4.499  12.220 -0.1847  0.9707  0.2021
  332TMC3    O1 4992   2.181   4.163  12.714  0.1364  0.4888  0.1988
  332TMC3    O2 4993   2.150   4.609  12.181 -0.0382 -0.0499 -0.2635
  333MPD2     C 4994   2.247   0.370  11.243  0.6695  0.6744 -0.1862
  333MPD2    C1 4995   2.246   0.248  11.171 -0.1090  0.0062 -0.8056
  333MPD2    C2 4996   2.192   0.136  11.230  0.1188 -0.3057 -0.5622
  333MPD2    C3 4997   2.141   0.143  11.358  0.0906 -0.5907  0.0204
  333MPD2    C4 4998   2.157   0.259  11.431 -0.2646  0.2261  0.3922
  333MPD2    C5 4999   2.204   0.375  11.373  0.1102 -0.9192  0.1261
  333MPD2     H 5000   2.195   0.041  11.178 -0.4512 -0.8010  0.3032
  333MPD2    H1 5001   2.136   0.263  11.537 -0.4805  1.3976  0.3008
  333MPD2    H2 5002   2.278   0.461  11.193  0.2848 -0.7321 -2.9989
  333MPD2    H3 5003   2.196   0.466  11.431 -0.4324  0.0997 -1.5476
  333MPD2     N 5004   2.086   0.030  11.420 -0.1251  0.2355 -0.3587
  333MPD2    H5 5005   2.101   4.661  11.375 -1.3420 -0.3308  0.3688
  333MPD2    N1 5006   2.287   0.263  11.034  0.4955  0.6735 -0.1471
  333MPD2    H7 5007   2.306   0.360  11.009  2.9399  0.3984  0.5757
  334TMC3    C1 5008   2.340   0.211  10.811  0.0170  0.7285  0.0463
  334TMC3    C2 5009   2.444   0.144  10.754  0.7889  0.0666  0.0123
  334TMC3    C3 5010   2.523   0.206  10.663 -0.3706  0.6489 -0.1078
  334TMC3    C4 5011   2.327   0.345  10.787 -0.4422 -0.0369 -0.3200
  334TMC3    C5 5012   2.415   0.407  10.696 -0.3095  0.1017 -0.4341
  334TMC3    C6 5013   2.510   0.337  10.632 -0.6664 -0.1053  0.4491
  334TMC3     C 5014   2.300   0.158  10.941  0.9405  0.4959  0.0129
  334TMC3     O 5015   2.298   0.038  10.958 -0.5596  0.0301  0.4526
  334TMC3     H 5016   2.462   0.041  10.782  0.4358 -0.1003 -0.3638
  334TMC3    H1 5017   2.245   0.396  10.836 -1.8979 -0.5030 -2.2312
  334TMC3    H2 5018   2.572   0.396  10.565  0.8609 -0.6996  1.3256
  334TMC3    C7 5019   2.429   0.550  10.692  0.1833 -0.7826 -0.1422
  334TMC3    C8 5020   2.649   0.141  10.620  0.5440 -0.1938 -0.0329
  334TMC3    O1 5021   2.543   0.583  10.713  0.1187 -0.0699 -0.8023
  334TMC3    O2 5022   2.646   0.026  10.587  0.1281 -0.6518 -0.2722
  335TMC3    C1 5023   1.409   1.868   0.061 -0.1100  0.6408  0.3282
  335TMC3    C2 5024   1.304   1.819  17.671  0.0041 -0.1697  0.4168
  335TMC3    C3 5025   1.334   1.714  17.584 -0.0278  0.1443  0.0444
  335TMC3    C4 5026   1.528   1.800   0.065  0.2387  0.0588 -0.0936
  335TMC3    C5 5027   1.550   1.695  17.664 -1.1125 -0.3462 -0.3722
  335TMC3    C6 5028   1.456   1.648  17.575 -0.1814 -0.1091  0.2487
  335TMC3     C 5029   1.381   1.981   0.158 -0.0380 -0.3083  0.1654
  335TMC3     O 5030   1.476   2.026   0.220 -0.1616 -0.2846  0.0548
  335TMC3     H 5031   1.205   1.865  17.672  0.4833  0.8339  2.6454
  335TMC3    H1 5032   1.611   1.855   0.109  0.5589 -1.5656  1.3558
  335TMC3    H2 5033   1.483   1.573  17.502 -0.7841 -0.1519  0.0622
  335TMC3    C7 5034   1.686   1.663  17.632 -1.0651 -0.1806 -0.9396
  335TMC3    C8 5035   1.222   1.653  17.515  0.5264 -0.5302  0.0762
  335TMC3    O1 5036   1.703   1.632  17.515  1.2246  0.4262  0.6699
  335TMC3    O2 5037   1.133   1.719  17.461 -0.0253  0.0098  0.6322
  336MPD2     C 5038   1.408   4.124  16.251  0.7270 -0.7069  0.0554
  336MPD2    C1 5039   1.331   4.073  16.147  0.5446 -0.4224  0.3482
  336MPD2    C2 5040   1.331   3.934  16.129  0.5166  0.2225  0.3180
  336MPD2    C3 5041   1.399   3.843  16.207  0.8173  0.0936 -0.3377
  336MPD2    C4 5042   1.453   3.888  16.324  0.2389 -0.0383 -0.3246
  336MPD2    C5 5043   1.459   4.027  16.340  0.6998 -1.2406  0.0263
  336MPD2     H 5044   1.277   3.889  16.046 -1.1161 -1.7772  2.4975
  336MPD2    H1 5045   1.490   3.821  16.400 -0.9788  1.4291  1.5651
  336MPD2    H2 5046   1.426   4.227  16.279 -1.0752 -0.4933  0.4282
  336MPD2    H3 5047   1.514   4.064  16.425 -2.0002  0.7546  0.8949
  336MPD2     N 5048   1.408   3.707  16.181 -0.4850  0.0110 -0.0391
  336MPD2    H5 5049   1.462   3.652  16.247  1.3464  0.8456 -0.8316
  336MPD2    N1 5050   1.261   4.161  16.058 -0.2010 -0.3669  0.2762
  336MPD2    H7 5051   1.221   4.128  15.971 -0.6808 -1.3320  0.8633
  337TMC3    C1 5052   1.171   4.363  15.984 -0.4483  0.2142 -0.5127
  337TMC3    C2 5053   1.050   4.311  15.951  0.2520  0.1528  0.0012
  337TMC3    C3 5054   0.948   4.400  15.912  0.0879  0.1021 -0.8679
  337TMC3    C4 5055   1.195   4.501  15.985 -0.7984  0.0257  0.0751
  337TMC3    C5 5056   1.088   4.574  15.961 -0.0846  0.3902  0.3270
  337TMC3    C6 5057   0.963   4.536  15.915  0.1389 -0.4867  0.4667
  337TMC3     C 5058   1.240   4.292  16.086 -0.3229 -0.4536 -0.2217
  337TMC3     O 5059   1.282   4.363  16.174 -0.0955 -0.4129  0.4769
  337TMC3     H 5060   1.035   4.204  15.942  0.5850  0.1933 -0.9792
  337TMC3    H1 5061   1.283   4.545  16.030 -1.2425 -0.5956  1.5552
  337TMC3    H2 5062   0.885   4.610  15.898  1.5979  0.7791 -0.8208
  337TMC3    C7 5063   1.117   4.704  15.913 -0.1308  0.1579 -0.5496
  337TMC3    C8 5064   0.819   4.340  15.889 -0.1554  0.2682  0.9134
  337TMC3    O1 5065   1.221   4.712  15.849 -0.0302 -0.4360  0.0874
  337TMC3    O2 5066   0.813   4.224  15.921  0.3006  0.3387 -0.1302
  338MPD2     C 5067   1.299   3.662   1.073 -0.2850  0.0374 -0.3580
  338MPD2    C1 5068   1.205   3.563   1.074  0.1004 -0.1519  0.1218
  338MPD2    C2 5069   1.104   3.571   1.169 -1.0410  0.4471  0.4737
  338MPD2    C3 5070   1.095   3.669   1.261 -0.2038  0.0025 -0.6671
  338MPD2    C4 5071   1.194   3.756   1.273 -0.2129  0.2454 -0.2881
  338MPD2    C5 5072   1.302   3.761   1.178 -0.3392  0.7319  0.4050
  338MPD2     H 5073   1.024   3.498   1.171 -0.1730 -0.5091  0.0769
  338MPD2    H1 5074   1.189   3.847   1.331 -0.3220  0.9593 -1.4326
  338MPD2    H2 5075   1.375   3.673   0.997  0.3281 -0.8438  0.1232
  338MPD2    H3 5076   1.386   3.827   1.191 -0.4707  0.6679  1.5319
  338MPD2     N 5077   0.968   3.681   1.325 -0.1953  0.0608  0.1322
  338MPD2    H5 5078   0.900   3.611   1.296 -0.6037  2.2879 -4.2961
  338MPD2    N1 5079   1.188   3.467   0.976  0.1047 -0.8059 -0.5346
  338MPD2    H7 5080   1.118   3.394   0.983  0.4554 -1.1309 -0.4335
  339TMC3    C1 5081   0.780   3.815   1.364 -0.1312 -0.0964 -0.4958
  339TMC3    C2 5082   0.710   3.735   1.449  0.3650 -0.5023 -0.5117
  339TMC3    C3 5083   0.624   3.632   1.393 -0.4873 -0.1709 -0.0843
  339TMC3    C4 5084   0.748   3.817   1.230  0.1215  0.0625 -0.2571
  339TMC3    C5 5085   0.667   3.723   1.171 -0.3135  0.2146  0.7277
  339TMC3    C6 5086   0.611   3.624   1.253  0.0919  0.3849 -1.2441
  339TMC3     C 5087   0.920   3.794   1.385 -0.0237  0.1660  0.9975
  339TMC3     O 5088   0.984   3.884   1.438  0.6915  0.2890 -0.6743
  339TMC3     H 5089   0.735   3.743   1.554 -1.6115  1.5654 -0.2132
  339TMC3    H1 5090   0.808   3.882   1.168 -1.2269 -0.9840 -2.6941
  339TMC3    H2 5091   0.550   3.546   1.208 -1.2107  0.6086  0.1233
  339TMC3    C7 5092   0.713   3.682   1.033  0.3851 -0.2921  0.3534
  339TMC3    C8 5093   0.631   3.515   1.474 -0.1144 -0.7532  0.2250
  339TMC3    O1 5094   0.833   3.697   1.017  0.1617 -0.4093  0.1796
  339TMC3    O2 5095   0.662   3.412   1.415 -0.1377 -0.3364 -0.0311
  340MPD2     C 5096   2.452   0.567   9.622 -0.1761 -0.1669  0.4113
  340MPD2    C1 5097   2.554   0.565   9.710  0.1046  0.4493 -0.0007
  340MPD2    C2 5098   2.536   0.627   9.835  0.0373 -0.4460  0.0586
  340MPD2    C3 5099   2.416   0.686   9.874 -0.9989  0.4797  0.3203
  340MPD2    C4 5100   2.311   0.677   9.785  0.8120  0.6353 -0.0399
  340MPD2    C5 5101   2.329   0.626   9.661 -0.3856  0.8842 -0.4505
  340MPD2     H 5102   2.612   0.611   9.910  0.1919  2.3330  0.5079
  340MPD2    H1 5103   2.214   0.723   9.798 -0.1973 -2.1221  2.1234
  340MPD2    H2 5104   2.468   0.528   9.522 -2.9533 -0.6297  0.1693
  340MPD2    H3 5105   2.239   0.615   9.601 -0.2669 -1.4226 -0.2127
  340MPD2     N 5106   2.401   0.740  10.005 -0.3419 -0.2985  0.1386
  340MPD2    H5 5107   2.479   0.728  10.069  0.5883 -0.2050 -0.9762
  340MPD2    N1 5108   2.677   0.502   9.677 -0.7336 -0.5332 -0.6736
  340MPD2    H7 5109   2.673   0.446   9.592 -0.8926  1.2906 -1.8768
  341TMC3    C1 5110   2.864   0.373   9.715  0.2950  0.1920  0.6297
  341TMC3    C2 5111   2.802   0.265   9.655  0.9023 -0.3110  0.4556
  341TMC3    C3 5112   2.868   0.143   9.653  0.2087 -0.1068  0.3456
  341TMC3    C4 5113   2.990   0.364   9.768 -0.0855 -0.1208 -0.4918
  341TMC3    C5 5114   3.055   0.247   9.752  0.5068  0.2100 -0.1435
  341TMC3    C6 5115   2.995   0.133   9.703  0.0633 -0.0846 -0.2913
  341TMC3     C 5116   2.785   0.482   9.764 -0.2207  0.3563  0.1025
  341TMC3     O 5117   2.819   0.541   9.863 -0.1430  0.2109  0.3928
  341TMC3     H 5118   2.701   0.259   9.616  0.4403 -0.4951  1.6611
  341TMC3    H1 5119   3.044   0.453   9.797 -2.4874  1.4716 -0.8582
  341TMC3    H2 5120   3.041   0.036   9.714  0.4720  0.4563  2.6157
  341TMC3    C7 5121   3.193   0.236   9.798  0.3998 -0.4214  0.0005
  341TMC3    C8 5122   2.789   0.025   9.683  0.7013  0.3449 -0.7989
  341TMC3    O1 5123   3.234   0.326   9.873 -0.3337 -0.1424  0.0345
  341TMC3    O2 5124   2.833   4.675   9.775  0.3018  0.0186 -0.1070
  342MPD2     C 5125   4.356   0.034  17.383 -0.6201 -0.4302  0.1009
  342MPD2    C1 5126   4.447   4.700  17.469  0.1203 -0.9274 -0.1241
  342MPD2    C2 5127   4.481   0.056  17.580  0.0809 -0.2015 -0.0492
  342MPD2    C3 5128   4.415   0.167  17.614  0.1481  0.1841  0.4973
  342MPD2    C4 5129   4.320   0.209  17.531 -0.4450  0.0203 -0.6488
  342MPD2    C5 5130   4.288   0.144  17.417 -0.7273 -0.5092  0.3736
  342MPD2     H 5131   4.554   0.014  17.648  0.4240  0.5784  0.0573
  342MPD2    H1 5132   4.270   0.305  17.537  0.4941  0.2563  3.8695
  342MPD2    H2 5133   4.321   4.698  17.297  1.3779  0.2440 -1.1547
  342MPD2    H3 5134   4.205   0.167  17.352 -1.1406 -2.2691  0.2724
  342MPD2     N 5135   4.438   0.249   0.044 -0.3701  0.3804  0.0004
  342MPD2    H5 5136   4.394   0.341   0.046  1.3227  1.1968 -0.5524
  342MPD2    N1 5137   4.503   4.577  17.446  0.7664 -0.1431 -0.3761
  342MPD2    H7 5138   4.556   4.529  17.517  2.1836  1.5515 -0.3064
  343TMC3    C1 5139   4.594   4.402  17.319 -0.2991  0.2314  0.2705
  343TMC3    C2 5140   4.691   4.391  17.228  0.1310 -0.5058 -0.2147
  343TMC3    C3 5141   0.043   4.275  17.223 -1.3813  0.2960  0.2680
  343TMC3    C4 5142   4.569   4.309  17.412 -1.1949 -0.0244 -0.1929
  343TMC3    C5 5143   4.640   4.196  17.402 -0.0894  0.3175 -0.4566
  343TMC3    C6 5144   0.020   4.175  17.314  0.0061  0.1380  0.4182
  343TMC3     C 5145   4.519   4.522  17.322  1.0370 -0.4517 -0.0653
  343TMC3     O 5146   4.501   4.576  17.215  0.2382 -0.0194  0.1754
  343TMC3     H 5147   4.713   4.468  17.155  0.7014  1.9716  2.5818
  343TMC3    H1 5148   4.486   4.328  17.479 -0.5282  0.6503  0.4345
  343TMC3    H2 5149   0.080   4.085  17.323  0.4922  0.7160  2.9032
  343TMC3    C7 5150   4.615   4.097  17.492  0.0263 -0.8954 -0.1562
  343TMC3    C8 5151   0.179   4.284  17.167 -0.6517 -0.1188  0.0539
  343TMC3    O1 5152   4.630   3.983  17.456  0.5325  0.0776  0.1429
  343TMC3    O2 5153   0.250   4.385  17.185  0.3596  0.6226  0.3196
  344MPD2     C 5154   1.286   4.609  11.287  0.1756 -0.1198 -0.5765
  344MPD2    C1 5155   1.207   4.567  11.183  0.0956  0.3692 -0.5069
  344MPD2    C2 5156   1.225   4.627  11.063  0.1748 -0.4949 -0.1544
  344MPD2    C3 5157   1.329   4.717  11.043  0.5649 -0.7392  0.1497
  344MPD2    C4 5158   1.405   0.035  11.148  0.2091  0.1991 -0.1473
  344MPD2    C5 5159   1.380   4.705  11.268  0.2840 -0.7076  0.0073
  344MPD2     H 5160   1.169   4.586  10.979 -0.9904  0.0280  0.3797
  344MPD2    H1 5161   1.495   0.096  11.137 -0.8650  1.9232  0.6702
  344MPD2    H2 5162   1.264   4.584  11.390 -2.2661  0.8277 -0.8595
  344MPD2    H3 5163   1.431   0.017  11.358  1.3252 -1.6556 -0.2330
  344MPD2     N 5164   1.355   0.060  10.919 -0.4295 -0.0346 -0.4314
  344MPD2    H5 5165   1.423   0.134  10.923  0.4904 -0.9290  0.5843
  344MPD2    N1 5166   1.096   4.470  11.203  0.6732 -0.2617  0.4238
  344MPD2    H7 5167   1.038   4.439  11.125  0.2963  0.3790  0.4509
  345TMC3    C1 5168   1.354   0.122  10.693 -0.0603  0.5555  0.3334
  345TMC3    C2 5169   1.472   0.184  10.714 -0.1949 -0.7009  0.8000
  345TMC3    C3 5170   1.527   0.241  10.607 -0.0572  0.2437  0.5077
  345TMC3    C4 5171   1.278   0.130  10.584  0.3170  0.7126  0.3810
  345TMC3    C5 5172   1.337   0.191  10.473 -0.2042  0.8157 -0.6662
  345TMC3    C6 5173   1.467   0.240  10.486 -0.4880  0.4939 -0.2347
  345TMC3     C 5174   1.298   0.035  10.796 -0.1696 -0.4454  0.4301
  345TMC3     O 5175   1.206   4.682  10.769 -0.3225 -0.2579 -0.1339
  345TMC3     H 5176   1.523   0.186  10.809 -0.3194 -0.4227  0.8620
  345TMC3    H1 5177   1.185   0.078  10.566 -0.0867  1.9724 -1.1367
  345TMC3    H2 5178   1.517   0.290  10.403 -1.9989 -0.2605 -1.6064
  345TMC3    C7 5179   1.270   0.270  10.371 -0.5742 -0.2679 -0.6538
  345TMC3    C8 5180   1.607   0.359  10.633 -0.2658 -0.4445 -0.4068
  345TMC3    O1 5181   1.317   0.385  10.355 -0.5366  0.3972 -0.4052
  345TMC3    O2 5182   1.585   0.417  10.738  0.0233 -0.5469 -0.6018
  346MPD2     C 5183   1.139   0.813  14.511  0.7636 -0.8380 -0.7378
  346MPD2    C1 5184   1.251   0.892  14.509 -0.4994  0.2026  0.0512
  346MPD2    C2 5185   1.321   0.914  14.628 -0.0206  0.4836 -0.0533
  346MPD2    C3 5186   1.269   0.866  14.750 -0.5517  0.2846  0.3612
  346MPD2    C4 5187   1.146   0.805  14.746  0.5220  0.1805  0.2435
  346MPD2    C5 5188   1.085   0.768  14.628  0.1190 -0.0845  0.5207
  346MPD2     H 5189   1.416   0.965  14.622 -0.2865  1.0884  0.8753
  346MPD2    H1 5190   1.098   0.769  14.836 -1.2693 -0.1248 -0.8379
  346MPD2    H2 5191   1.082   0.781  14.424  0.2010 -0.2778 -0.5726
  346MPD2    H3 5192   1.002   0.698  14.631 -0.5550  0.7629  1.7107
  346MPD2     N 5193   1.338   0.908  14.864 -0.0397 -0.4965 -0.1211
  346MPD2    H5 5194   1.427   0.950  14.839 -0.1839  0.3418  0.7467
  346MPD2    N1 5195   1.294   0.959  14.395  0.2446 -0.1878 -0.4160
  346MPD2    H7 5196   1.376   1.018  14.402 -1.0324  1.4370  0.8709
  347TMC3    C1 5197   1.388   0.971  15.082 -0.1680  0.5564  0.8047
  347TMC3    C2 5198   1.505   1.021  15.042  0.0708 -0.0540 -0.5734
  347TMC3    C3 5199   1.569   1.120  15.108 -0.1676  0.2153 -0.1656
  347TMC3    C4 5200   1.321   1.032  15.189 -0.1886 -0.6500 -0.3186
  347TMC3    C5 5201   1.387   1.129  15.259  0.1074  0.2157  0.2509
  347TMC3    C6 5202   1.504   1.181  15.214  0.3858  0.6399  0.8358
  347TMC3     C 5203   1.297   0.896  14.993 -0.7796  0.1964 -0.0137
  347TMC3     O 5204   1.192   0.865  15.034  0.2474 -0.1155 -0.0767
  347TMC3     H 5205   1.543   1.001  14.942  0.6643  1.1820 -0.5960
  347TMC3    H1 5206   1.218   1.011  15.214 -1.0077  2.6088 -0.8918
  347TMC3    H2 5207   1.544   1.272  15.258  0.9347  0.5880  0.4453
  347TMC3    C7 5208   1.320   1.215  15.361  0.5016 -0.1265 -0.3405
  347TMC3    C8 5209   1.674   1.189  15.044 -0.0007 -0.7294  0.3705
  347TMC3    O1 5210   1.329   1.334  15.337  0.2755 -0.1362  0.3149
  347TMC3    O2 5211   1.759   1.116  14.999  0.2751  0.5450  0.0508
  348MPD2     C 5212   4.130   0.941  12.591 -0.6927 -0.8034 -0.4520
  348MPD2    C1 5213   4.130   1.081  12.601 -0.6513 -0.0590 -0.2613
  348MPD2    C2 5214   4.099   1.159  12.489  0.3154 -0.5943 -0.1897
  348MPD2    C3 5215   4.058   1.102  12.372 -0.3742  0.4052  0.5098
  348MPD2    C4 5216   4.049   0.969  12.380 -0.4072  0.2741  0.0541
  348MPD2    C5 5217   4.080   0.886  12.480  0.1788  0.6749  0.7375
  348MPD2     H 5218   4.102   1.267  12.497 -2.0846 -0.5716  0.3592
  348MPD2    H1 5219   4.005   0.912  12.299 -0.5321 -1.4592  1.3303
  348MPD2    H2 5220   4.158   0.875  12.672  1.5770 -0.4260 -0.9447
  348MPD2    H3 5221   4.075   0.778  12.470 -0.6473  0.9718 -2.1414
  348MPD2     N 5222   4.019   1.176  12.257  0.5260  0.1869  0.0665
  348MPD2    H5 5223   4.016   1.278  12.265 -2.0996  0.1216 -0.2501
  348MPD2    N1 5224   4.194   1.149  12.707  0.3694 -0.2704  0.0224
  348MPD2    H7 5225   4.205   1.250  12.702 -4.2893  0.3630  2.9358
  349TMC3    C1 5226   4.406   1.137  12.801 -0.7553 -0.3493  0.0784
  349TMC3    C2 5227   4.496   1.049  12.855  0.1735 -0.1418 -0.0596
  349TMC3    C3 5228   4.608   1.025  12.783 -1.2484  0.3679  0.0936
  349TMC3    C4 5229   4.438   1.207  12.688 -0.7000 -0.5815  0.0430
  349TMC3    C5 5230   4.553   1.171  12.617 -0.7828  0.1693  0.1734
  349TMC3    C6 5231   4.643   1.077  12.663 -0.5032 -0.3531  0.7706
  349TMC3     C 5232   4.268   1.084  12.800 -0.3526 -0.5637  0.6382
  349TMC3     O 5233   4.256   0.978  12.845 -0.4549 -0.4408  0.0423
  349TMC3     H 5234   4.477   1.017  12.957 -0.2127  0.4703  0.0595
  349TMC3    H1 5235   4.367   1.273  12.639  1.7407  1.3999 -0.7997
  349TMC3    H2 5236   4.720   1.031  12.603 -1.2950 -0.1179 -0.4352
  349TMC3    C7 5237   4.543   1.172  12.472  0.3526  0.0856 -0.1228
  349TMC3    C8 5238   4.707   0.933  12.837 -0.1619 -0.0475  0.6522
  349TMC3    O1 5239   4.547   1.066  12.410  0.5241  0.8414 -0.0511
  349TMC3    O2 5240   4.676   0.831  12.898 -0.1817 -0.3354  0.7505
  350MPD2     C 5241   4.346   3.453  10.271 -0.1399  0.9296 -0.0440
  350MPD2    C1 5242   4.238   3.395  10.330 -0.0644 -0.4656  0.4133
  350MPD2    C2 5243   4.141   3.476  10.382 -0.2606 -0.9917  0.5588
  350MPD2    C3 5244   4.135   3.616  10.365  0.5629 -0.5646  0.0732
  350MPD2    C4 5245   4.242   3.664  10.291 -0.0117  0.1841 -0.3534
  350MPD2    C5 5246   4.355   3.588  10.259  0.2118  0.1084  0.0157
  350MPD2     H 5247   4.063   3.421  10.433 -3.2762  0.3326 -2.6492
  350MPD2    H1 5248   4.246   3.766  10.254 -0.8775  0.9182  1.5718
  350MPD2    H2 5249   4.427   3.387  10.243 -2.2747 -1.4608 -0.6000
  350MPD2    H3 5250   4.437   3.632  10.203 -0.0587  0.3216 -0.2138
  350MPD2     N 5251   4.028   3.699  10.413 -0.8714  0.6931  0.5721
  350MPD2    H5 5252   3.962   3.644  10.466  1.2941 -0.0648  2.4954
  350MPD2    N1 5253   4.223   3.253  10.340  0.2208  0.1059 -0.6155
  350MPD2    H7 5254   4.132   3.221  10.371  0.3728 -0.9757 -1.2752
  351TMC3    C1 5255   4.265   3.031  10.362  1.2278 -0.0445 -0.2541
  351TMC3    C2 5256   4.325   2.922  10.305 -0.3047  0.6018 -0.0294
  351TMC3    C3 5257   4.304   2.798  10.363 -0.4407  0.4387 -0.2047
  351TMC3    C4 5258   4.203   3.023  10.488 -1.1790  0.3123 -0.4077
  351TMC3    C5 5259   4.189   2.897  10.542  0.0979 -0.5577  0.2630
  351TMC3    C6 5260   4.228   2.780  10.475 -0.3633  0.0660  0.1183
  351TMC3     C 5261   4.311   3.156  10.310 -0.2394  0.5714  0.0437
  351TMC3     O 5262   4.407   3.162  10.234 -0.2857 -0.0546 -0.4756
  351TMC3     H 5263   4.391   2.933  10.219  0.1110  1.6107  0.4150
  351TMC3    H1 5264   4.170   3.107  10.548  0.2223  1.0929 -0.7387
  351TMC3    H2 5265   4.220   2.687  10.530  1.3750 -0.3192 -0.2549
  351TMC3    C7 5266   4.135   2.873  10.677  0.1769  0.2637  0.3167
  351TMC3    C8 5267   4.266   2.686  10.279 -0.0414  0.0874  0.0060
  351TMC3    O1 5268   4.096   2.762  10.716  0.1308  0.0150 -0.1083
  351TMC3    O2 5269   4.283   2.571  10.323  0.5555 -0.2846 -0.2570
  352MPD2     C 5270   1.740   1.292   1.560  0.7973  0.6946 -0.2503
  352MPD2    C1 5271   1.684   1.237   1.451 -0.7725 -0.3071  0.5551
  352MPD2    C2 5272   1.767   1.190   1.351 -0.5190  0.1959 -0.3915
  352MPD2    C3 5273   1.904   1.191   1.358 -0.5444  0.1742  0.1079
  352MPD2    C4 5274   1.954   1.252   1.470  0.0820  0.4498  0.3265
  352MPD2    C5 5275   1.876   1.310   1.570 -0.2081 -0.9929  0.5926
  352MPD2     H 5276   1.718   1.155   1.261 -2.3405 -0.3772  0.8144
  352MPD2    H1 5277   2.060   1.274   1.478  0.5197 -1.4496 -0.1953
  352MPD2    H2 5278   1.670   1.347   1.622 -0.2454  1.0439 -1.7363
  352MPD2    H3 5279   1.920   1.361   1.655 -0.2234 -0.9374  0.5668
  352MPD2     N 5280   1.988   1.148   1.256  0.0202 -0.5696  0.1236
  352MPD2    H5 5281   2.086   1.175   1.258  0.5601 -2.6027  0.7675
  352MPD2    N1 5282   1.541   1.243   1.441  0.5997 -0.4834 -0.0010
  352MPD2    H7 5283   1.498   1.298   1.515  0.4456 -0.4288 -0.1317
  353TMC3    C1 5284   2.062   1.002   1.082 -0.0037  0.2301  0.4314
  353TMC3    C2 5285   2.180   0.984   1.153  0.2200  0.0733  1.1679
  353TMC3    C3 5286   2.270   0.890   1.109  0.2584  0.0630 -0.2985
  353TMC3    C4 5287   2.042   0.941   0.969 -0.8894 -1.3408  0.4960
  353TMC3    C5 5288   2.132   0.843   0.924  0.0955 -0.4131  0.5076
  353TMC3    C6 5289   2.247   0.819   0.993  0.1153 -0.3940 -0.0354
  353TMC3     C 5290   1.952   1.067   1.150 -0.0550 -0.1982 -0.8232
  353TMC3     O 5291   1.840   1.032   1.113 -0.0243  0.3223 -0.0596
  353TMC3     H 5292   2.202   1.048   1.237  2.7514 -0.1362  0.6852
  353TMC3    H1 5293   1.945   0.957   0.925 -0.0437 -0.6399 -1.1208
  353TMC3    H2 5294   2.319   0.746   0.957  2.4330  2.2830 -0.7596
  353TMC3    C7 5295   2.104   0.762   0.800 -0.2019  0.3985  0.1986
  353TMC3    C8 5296   2.373   0.861   1.201  0.6407 -0.3230 -0.1322
  353TMC3    O1 5297   2.182   0.673   0.764 -0.4950  0.0675  0.4171
  353TMC3    O2 5298   2.373   0.914   1.310  0.2861 -0.0517 -0.1043
  354TMC3    C1 5299   3.736   1.978  13.664 -0.0700  0.0620 -0.6452
  354TMC3    C2 5300   3.666   2.029  13.557 -1.1937  0.1544 -0.0680
  354TMC3    C3 5301   3.745   2.071  13.454  0.3558 -0.1883  0.4687
  354TMC3    C4 5302   3.876   1.968  13.674 -0.1316  0.2882 -0.1739
  354TMC3    C5 5303   3.947   2.010  13.562  0.3659 -0.2462 -0.4721
  354TMC3    C6 5304   3.881   2.065  13.456 -0.5002  0.2914  0.1571
  354TMC3     C 5305   3.658   1.970  13.784  0.0966  0.1169 -0.0896
  354TMC3     O 5306   3.538   1.944  13.765 -0.2721 -0.2935  0.7973
  354TMC3     H 5307   3.557   2.024  13.553 -1.2109  0.9417 -0.5357
  354TMC3    H1 5308   3.924   1.902  13.745  0.3470  0.9183  0.0840
  354TMC3    H2 5309   3.930   2.104  13.368 -0.6912  0.4177  0.1080
  354TMC3    C7 5310   4.089   1.980  13.553 -0.7264  0.3703  0.2247
  354TMC3    C8 5311   3.697   2.169  13.356  0.0128 -0.2745  0.7699
  354TMC3    O1 5312   4.145   1.920  13.642 -0.0321  0.8383  0.4198
  354TMC3    O2 5313   3.755   2.194  13.251  0.3820 -0.3871  0.0965
  355MPD2     C 5314   3.502   3.112  11.694 -0.1680  0.6856  0.3293
  355MPD2    C1 5315   3.581   3.187  11.619  0.0377  0.3369 -0.1801
  355MPD2    C2 5316   3.714   3.184  11.658  0.2375  0.1360  0.4790
  355MPD2    C3 5317   3.760   3.109  11.764 -0.6215  0.7559 -0.3545
  355MPD2    C4 5318   3.667   3.037  11.839 -0.4486 -0.3536 -0.0743
  355MPD2    C5 5319   3.539   3.034  11.804  0.6186 -0.9197 -0.1657
  355MPD2     H 5320   3.783   3.249  11.605  0.4091 -2.4707 -2.4686
  355MPD2    H1 5321   3.705   2.984  11.925 -0.0893 -1.7931 -1.1233
  355MPD2    H2 5322   3.399   3.100  11.661 -0.7593  1.0050  2.0090
  355MPD2    H3 5323   3.464   2.977  11.857 -0.9152  1.3888  0.1692
  355MPD2     N 5324   3.895   3.121  11.819  0.1392 -0.3248 -0.6468
  355MPD2    H5 5325   3.919   3.063  11.898  2.7797 -0.2815 -1.4319
  355MPD2    N1 5326   3.527   3.270  11.515 -0.2656 -0.3056 -0.1234
  355MPD2    H7 5327   3.429   3.259  11.493 -0.2136  0.0227 -0.5197
  356TMC3    C1 5328   4.120   3.212  11.831 -0.3502  0.1468 -0.2102
  356TMC3    C2 5329   4.209   3.279  11.763 -0.3251 -0.3424  0.5642
  356TMC3    C3 5330   4.291   3.358  11.837  0.0702 -0.4492  0.2589
  356TMC3    C4 5331   4.105   3.209  11.967 -0.2219 -0.3253 -0.3145
  356TMC3    C5 5332   4.193   3.281  12.034 -0.1397 -0.2901  0.0523
  356TMC3    C6 5333   4.281   3.366  11.977  0.4018  0.1021 -0.3305
  356TMC3     C 5334   3.993   3.189  11.757  0.5719  0.1271 -0.1038
  356TMC3     O 5335   3.993   3.246  11.647  0.2580  0.1292  0.2868
  356TMC3     H 5336   4.221   3.279  11.655  1.1807  0.4274  0.7412
  356TMC3    H1 5337   4.016   3.183  12.022  0.0452 -1.5962 -0.4793
  356TMC3    H2 5338   4.367   3.406  12.029 -1.1409 -0.5216  2.6686
  356TMC3    C7 5339   4.171   3.285  12.178  0.0081 -0.6230  0.4117
  356TMC3    C8 5340   4.408   3.408  11.777 -0.3489  0.3914 -0.8221
  356TMC3    O1 5341   4.078   3.225  12.224  0.0568 -0.3674  0.5554
  356TMC3    O2 5342   4.435   3.349  11.672  0.2794 -0.3569 -0.2761
  357MPD2     C 5343   2.683   1.712   2.179 -0.4282  0.7789  0.4214
  357MPD2    C1 5344   2.616   1.807   2.104 -0.5226  0.2857  0.5859
  357MPD2    C2 5345   2.506   1.751   2.039 -0.1146  0.4759 -0.0994
  357MPD2    C3 5346   2.456   1.617   2.045 -0.0825 -0.2196  0.0383
  357MPD2    C4 5347   2.531   1.537   2.121  0.4928 -0.2603 -0.2753
  357MPD2    C5 5348   2.645   1.580   2.178 -0.1133 -0.3301 -0.8555
  357MPD2     H 5349   2.441   1.810   1.976  1.6276  1.5351 -0.8976
  357MPD2    H1 5350   2.514   1.430   2.122  1.4357 -0.4109  0.2400
  357MPD2    H2 5351   2.775   1.738   2.230 -0.9527 -1.5412  2.5121
  357MPD2    H3 5352   2.695   1.500   2.231 -0.3830 -0.6268 -1.0441
  357MPD2     N 5353   2.341   1.569   1.979 -0.1128  0.2266  0.4093
  357MPD2    H5 5354   2.307   1.476   2.002 -1.0992 -0.5127 -4.0754
  357MPD2    N1 5355   2.655   1.940   2.092  0.9338 -0.2595 -0.2594
  357MPD2    H7 5356   2.745   1.957   2.134  0.2353  0.2585  1.0297
  358TMC3    C1 5357   2.628   2.168   2.032  0.1068  0.2042  0.1678
  358TMC3    C2 5358   2.575   2.241   1.931 -0.0380 -0.0936  0.0780
  358TMC3    C3 5359   2.655   2.343   1.886 -0.1234  0.6779  0.4961
  358TMC3    C4 5360   2.749   2.200   2.093  0.2590 -0.3963 -0.5674
  358TMC3    C5 5361   2.813   2.313   2.058  0.2932 -0.7916  0.1294
  358TMC3    C6 5362   2.771   2.379   1.941 -0.2866 -0.4979  0.5350
  358TMC3     C 5363   2.572   2.035   2.047  0.2097 -0.7749  0.2110
  358TMC3     O 5364   2.451   2.020   2.026  0.0815  0.8931 -0.6798
  358TMC3     H 5365   2.492   2.197   1.878 -1.0889  0.4910  1.2382
  358TMC3    H1 5366   2.792   2.151   2.180  1.8453  0.2009 -1.0235
  358TMC3    H2 5367   2.794   2.484   1.927 -1.4907 -0.6271 -2.3737
  358TMC3    C7 5368   2.948   2.336   2.110  1.0782  0.3577  0.5945
  358TMC3    C8 5369   2.607   2.423   1.776 -0.1212 -0.0637  0.2565
  358TMC3    O1 5370   2.984   2.274   2.209 -0.0900  0.1214 -0.0257
  358TMC3    O2 5371   2.683   2.502   1.719  0.2820  0.1784  0.3141
  359MPD2     C 5372   3.927   1.843  12.636  0.6611 -1.0011 -1.0900
  359MPD2    C1 5373   3.818   1.878  12.554 -1.2837 -0.1301  0.6757
  359MPD2    C2 5374   3.692   1.827  12.598 -0.4394  1.1272 -0.7374
  359MPD2    C3 5375   3.675   1.761  12.720  0.8216 -1.0000  0.7846
  359MPD2    C4 5376   3.782   1.730  12.797 -0.4664 -0.3168  0.1310
  359MPD2    C5 5377   3.911   1.772  12.750  0.8241 -0.3464  0.0526
  359MPD2     H 5378   3.608   1.848  12.533 -2.8798  1.1369  2.4400
  359MPD2    H1 5379   3.779   1.677  12.892 -1.9555  1.6525  1.1773
  359MPD2    H2 5380   4.024   1.882  12.608  0.7238 -0.4964 -0.1395
  359MPD2    H3 5381   3.993   1.753  12.817  1.1597  0.1834 -0.2137
  359MPD2     N 5382   3.542   1.721  12.761  0.0835 -0.1035  0.2089
  359MPD2    H5 5383   3.539   1.655  12.838 -0.5409  0.6280  0.8133
  359MPD2    N1 5384   3.820   1.948  12.425  0.0030  0.3773  0.3782
  359MPD2    H7 5385   3.737   1.960  12.368 -0.1627  0.3343  0.6133
  360TMC3    C1 5386   3.891   2.106  12.276  0.2287 -0.0605 -0.5395
  360TMC3    C2 5387   3.986   2.193  12.240  0.2822 -0.6930  0.8683
  360TMC3    C3 5388   3.989   2.245  12.116  0.0170  0.6146  0.6360
  360TMC3    C4 5389   3.800   2.057  12.191  0.2593  0.6950 -0.0821
  360TMC3    C5 5390   3.801   2.119  12.071 -0.2416 -0.3807 -0.7381
  360TMC3    C6 5391   3.885   2.221  12.029 -0.5314 -0.0675 -0.1216
  360TMC3     C 5392   3.922   2.032  12.389 -0.5643 -0.2773  0.0723
  360TMC3     O 5393   4.025   2.059  12.457  0.0778  0.4198  0.2161
  360TMC3     H 5394   4.055   2.239  12.310 -0.1362 -1.7843  2.0000
  360TMC3    H1 5395   3.726   1.983  12.218  0.0089  0.8932 -0.2204
  360TMC3    H2 5396   3.881   2.269  11.932  2.6247 -2.5762 -1.4612
  360TMC3    C7 5397   3.748   2.046  11.955  0.7030 -0.4660 -0.1818
  360TMC3    C8 5398   4.105   2.274  12.047  0.0660  0.3621  1.1459
  360TMC3    O1 5399   3.771   2.098  11.848  0.4937  0.9333 -0.5492
  360TMC3    O2 5400   4.098   2.355  11.952  0.6522 -0.5861  0.4668
  361MPD2     C 5401   0.792   0.125  16.805 -0.1987  0.6434  0.5743
  361MPD2    C1 5402   0.759   0.167  16.929  1.0509  0.6571  0.4813
  361MPD2    C2 5403   0.822   0.102  17.039 -0.4767 -0.0251 -0.1694
  361MPD2    C3 5404   0.916   4.717  17.018  0.3512  0.0232  0.5087
  361MPD2    C4 5405   0.923   4.662  16.894  0.7559 -0.6020 -0.2032
  361MPD2    C5 5406   0.860   0.008  16.790 -0.2813 -0.1037  0.3130
  361MPD2     H 5407   0.785   0.128  17.138  4.5272  0.6759  1.4887
  361MPD2    H1 5408   0.977   4.569  16.884 -0.0357 -1.0883  0.0064
  361MPD2    H2 5409   0.759   0.184  16.720  1.8311 -0.7791 -1.2016
  361MPD2    H3 5410   0.870   4.689  16.690  0.5051  1.8981 -0.4104
  361MPD2     N 5411   1.000   4.679  17.118  0.8093  0.5763  0.2152
  361MPD2    H5 5412   1.061   4.600  17.099 -0.6098 -0.1713 -1.2712
  361MPD2    N1 5413   0.663   0.273  16.949 -0.5482  0.3085 -0.4510
  361MPD2    H7 5414   0.658   0.300  17.046 -0.1164  2.0334 -0.9208
  362TMC3    C1 5415   0.501   0.430  16.943  0.0868  0.5496 -0.2896
  362TMC3    C2 5416   0.427   0.394  17.050  0.6258  0.0803  0.5502
  362TMC3    C3 5417   0.324   0.475  17.095 -0.3677  0.0800  0.0033
  362TMC3    C4 5418   0.468   0.543  16.880  0.6762  0.1179 -0.3164
  362TMC3    C5 5419   0.375   0.630  16.928  0.2970  0.2587 -0.5495
  362TMC3    C6 5420   0.301   0.604  17.038 -0.1952 -0.0246  0.5673
  362TMC3     C 5421   0.568   0.332  16.865 -0.0516  0.2775 -0.5908
  362TMC3     O 5422   0.560   0.340  16.744 -0.2894 -0.3691  0.1888
  362TMC3     H 5423   0.440   0.296  17.095 -1.3439 -1.1289 -1.5057
  362TMC3    H1 5424   0.523   0.560  16.788  0.4330 -0.8316 -0.6453
  362TMC3    H2 5425   0.206   0.655  17.052 -0.4678  0.0111 -1.3748
  362TMC3    C7 5426   0.353   0.754  16.857  0.0211 -0.4010 -0.7178
  362TMC3    C8 5427   0.202   0.408  17.102 -0.1453 -0.0372  0.2949
  362TMC3    O1 5428   0.236   0.791  16.850 -0.4994  0.5645  0.1389
  362TMC3    O2 5429   0.201   0.296  17.056  0.1520  0.1868 -0.1604
  363TMC3    C1 5430   4.217   3.444   9.962 -0.1207 -0.7989 -0.1080
  363TMC3    C2 5431   4.311   3.339   9.955 -0.2534 -0.2129  0.5155
  363TMC3    C3 5432   4.439   3.370   9.912 -0.2375 -0.0878 -0.5521
  363TMC3    C4 5433   4.251   3.574   9.931 -0.0152  0.1564 -0.0882
  363TMC3    C5 5434   4.384   3.597   9.906 -0.1885 -0.4057  0.2078
  363TMC3    C6 5435   4.479   3.497   9.894 -0.0795  0.7013 -0.1102
  363TMC3     C 5436   4.087   3.407  10.015 -0.1646 -0.2878  0.4125
  363TMC3     O 5437   4.058   3.284  10.020 -0.0262 -0.1632 -0.5176
  363TMC3     H 5438   4.279   3.241   9.990  0.7108 -1.1978 -1.3815
  363TMC3    H1 5439   4.183   3.659   9.932  0.0023  0.1963 -2.4264
  363TMC3    H2 5440   4.583   3.525   9.891 -0.6451  2.7329 -0.5759
  363TMC3    C7 5441   4.420   3.742   9.922  0.0369 -0.2861 -0.5405
  363TMC3    C8 5442   4.543   3.268   9.893  0.3366 -0.0707 -0.0002
  363TMC3    O1 5443   4.350   3.814  10.000 -0.6808  0.4972  0.0766
  363TMC3    O2 5444   4.659   3.308   9.886 -0.0010 -0.5857 -0.4302
  364MPD2     C 5445   2.524   2.458  10.746 -0.3625  0.4180  0.6123
  364MPD2    C1 5446   2.602   2.465  10.633 -0.4587 -0.0892  0.1453
  364MPD2    C2 5447   2.734   2.436  10.635  0.4470 -0.4207 -0.5690
  364MPD2    C3 5448   2.787   2.396  10.753  0.3928  0.1962 -0.7623
  364MPD2    C4 5449   2.712   2.389  10.872  0.9595 -0.7650 -0.0061
  364MPD2    C5 5450   2.579   2.413  10.861 -0.3380 -0.1416  0.1380
  364MPD2     H 5451   2.787   2.459  10.543  1.6297  1.1327  0.5016
  364MPD2    H1 5452   2.745   2.352  10.968  1.7374  0.6267  0.2494
  364MPD2    H2 5453   2.419   2.483  10.748 -0.9000 -1.7400 -1.0883
  364MPD2    H3 5454   2.516   2.403  10.948  1.5839 -1.3071  1.3946
  364MPD2     N 5455   2.920   2.359  10.767  0.1722 -0.3297 -0.1779
  364MPD2    H5 5456   2.964   2.348  10.858  1.0372  1.5065 -0.3670
  364MPD2    N1 5457   2.525   2.505  10.524  0.2183 -0.3232  0.0134
  364MPD2    H7 5458   2.425   2.520  10.534  0.1630 -0.2792 -0.5718
  365TMC3    C1 5459   2.503   2.614  10.323 -0.2646  0.4244 -0.2394
  365TMC3    C2 5460   2.543   2.620  10.197  0.6970  0.5186  0.7140
  365TMC3    C3 5461   2.607   2.729  10.154 -0.8763  0.5317  0.6819
  365TMC3    C4 5462   2.515   2.727  10.401  0.1722  0.3039  0.4063
  365TMC3    C5 5463   2.597   2.824  10.363  0.4742 -0.6023  0.0833
  365TMC3    C6 5464   2.631   2.842  10.232 -0.2001  0.0128 -0.5392
  365TMC3     C 5465   2.561   2.496  10.393  0.9511  0.9455 -0.0156
  365TMC3     O 5466   2.658   2.452  10.332 -0.0194 -0.1208 -0.2950
  365TMC3     H 5467   2.541   2.528  10.140 -5.2016  1.3415 -0.4141
  365TMC3    H1 5468   2.466   2.738  10.497  1.9762  2.0712  1.1112
  365TMC3    H2 5469   2.711   2.909  10.206  0.9747 -1.1343  0.1505
  365TMC3    C7 5470   2.716   2.820  10.445  0.3516 -0.0708 -0.4719
  365TMC3    C8 5471   2.720   2.707  10.067  0.0767 -0.4419  0.0221
  365TMC3    O1 5472   2.824   2.806  10.383  0.3539 -0.1710 -0.4636
  365TMC3    O2 5473   2.737   2.777   9.973  0.0735 -0.2423 -0.1129
  366MPD2     C 5474   0.814   3.083  15.515  0.2549  0.4344  0.3604
  366MPD2    C1 5475   0.841   3.186  15.426 -0.6514  0.1224  0.2781
  366MPD2    C2 5476   0.914   3.159  15.316  0.1769  0.0884  0.5312
  366MPD2    C3 5477   0.965   3.035  15.289  0.5499  0.5152 -0.0271
  366MPD2    C4 5478   0.922   2.930  15.372  0.4654  0.6228 -0.1312
  366MPD2    C5 5479   0.850   2.957  15.485  0.1758  0.1377  0.0123
  366MPD2     H 5480   0.929   3.237  15.242 -1.9711 -1.2201 -1.2732
  366MPD2    H1 5481   0.966   2.831  15.365 -1.5936 -0.3313  0.4946
  366MPD2    H2 5482   0.753   3.098  15.603 -0.2476  0.0352  0.0865
  366MPD2    H3 5483   0.827   2.871  15.547  1.2679 -0.0042  0.2148
  366MPD2     N 5484   1.056   3.029  15.186  0.2239 -0.1139  0.4618
  366MPD2    H5 5485   1.083   3.112  15.135 -1.4572  0.9088  1.2709
  366MPD2    N1 5486   0.797   3.322  15.438  0.1545  0.1822 -0.2564
  366MPD2    H7 5487   0.836   3.397  15.382  0.8828 -0.5976 -0.7830
  367TMC3    C1 5488   0.720   3.517  15.518 -0.0751 -0.2430 -0.7367
  367TMC3    C2 5489   0.840   3.562  15.562 -0.2057 -0.7288 -0.5502
  367TMC3    C3 5490   0.856   3.698  15.571  0.8626  0.0584  0.1747
  367TMC3    C4 5491   0.615   3.594  15.484 -0.4625  0.2421 -0.6530
  367TMC3    C5 5492   0.632   3.731  15.497  0.3524  0.6214 -0.1391
  367TMC3    C6 5493   0.754   3.778  15.540 -0.2198 -1.3580  0.4572
  367TMC3     C 5494   0.707   3.374  15.528 -0.4112 -0.0067  0.0132
  367TMC3     O 5495   0.623   3.318  15.602 -0.0559 -0.7241  0.0101
  367TMC3     H 5496   0.906   3.496  15.617 -0.0303 -1.2472 -1.3778
  367TMC3    H1 5497   0.519   3.549  15.463  0.4255 -1.1613 -1.6792
  367TMC3    H2 5498   0.762   3.884  15.559  0.5012 -1.5088  1.0259
  367TMC3    C7 5499   0.536   3.821  15.434 -0.5767  0.0255 -0.3225
  367TMC3    C8 5500   0.973   3.746  15.640 -0.4350  1.0555 -0.3919
  367TMC3    O1 5501   0.540   3.938  15.457  0.0645 -0.4321 -0.4139
  367TMC3    O2 5502   1.058   3.663  15.667 -0.6575  0.1211  0.1811
  368MPD2     C 5503   2.859   0.453  13.667  0.5434  0.0012 -0.1839
  368MPD2    C1 5504   2.902   0.468  13.537  0.4648 -0.3893 -0.2297
  368MPD2    C2 5505   3.018   0.536  13.499  0.3613  0.2486  0.6230
  368MPD2    C3 5506   3.097   0.588  13.602 -1.3965 -0.2655 -0.7586
  368MPD2    C4 5507   3.055   0.574  13.733  0.6695 -0.0094 -0.1903
  368MPD2    C5 5508   2.944   0.501  13.764  0.7901  0.4536  0.2438
  368MPD2     H 5509   3.051   0.542  13.396  2.5384 -0.7999  1.2567
  368MPD2    H1 5510   3.111   0.630  13.807 -0.2091  1.5683 -0.7148
  368MPD2    H2 5511   2.763   0.409  13.689  1.0704 -1.0522  0.0004
  368MPD2    H3 5512   2.919   0.495  13.869 -1.1236 -0.3155 -0.2669
  368MPD2     N 5513   3.217   0.656  13.578  0.5978  0.2549  0.2741
  368MPD2    H5 5514   3.281   0.674  13.655 -0.6421  2.8847  0.6577
  368MPD2    N1 5515   2.816   0.407  13.439 -0.0611  0.0476 -0.2295
  368MPD2    H7 5516   2.756   0.333  13.473 -2.5654  1.0762 -2.3408
  369TMC3    C1 5517   2.721   0.338  13.236  1.0649 -0.1343  0.1156
  369TMC3    C2 5518   2.712   0.364  13.103 -0.6754 -0.3110 -0.2187
  369TMC3    C3 5519   2.604   0.327  13.034  0.3452 -0.0473 -0.0080
  369TMC3    C4 5520   2.611   0.298  13.312  0.1468 -0.0872 -0.2533
  369TMC3    C5 5521   2.504   0.267  13.237  0.7377 -0.8331  0.0751
  369TMC3    C6 5522   2.491   0.273  13.101 -0.1231  0.4458  0.7822
  369TMC3     C 5523   2.827   0.417  13.305 -0.2369 -0.0841 -0.3613
  369TMC3     O 5524   2.897   0.494  13.237  0.5123 -0.1266  1.0842
  369TMC3     H 5525   2.800   0.400  13.051 -1.7517  0.0841 -1.7821
  369TMC3    H1 5526   2.599   0.274  13.417  1.7513 -1.1607 -0.3257
  369TMC3    H2 5527   2.400   0.239  13.052 -0.0500  1.2003  0.1197
  369TMC3    C7 5528   2.374   0.256  13.307  0.5987  0.6096 -0.3762
  369TMC3    C8 5529   2.578   0.391  12.902 -0.0912  1.2238  0.6652
  369TMC3    O1 5530   2.371   0.190  13.410  0.0689 -0.3941  0.3295
  369TMC3    O2 5531   2.473   0.448  12.884  0.1128 -0.2721  0.0009
  370TMC3    C1 5532   1.756   1.207  16.400 -0.4618 -0.0037  0.4770
  370TMC3    C2 5533   1.659   1.144  16.470 -0.3329  0.2798  0.3252
  370TMC3    C3 5534   1.637   1.014  16.445  0.3908 -0.0840 -0.3544
  370TMC3    C4 5535   1.837   1.138  16.308  0.3357  0.2400 -1.1037
  370TMC3    C5 5536   1.804   1.009  16.275 -0.9505 -0.4480  0.2880
  370TMC3    C6 5537   1.707   0.944  16.346  0.0293  0.2213  0.0019
  370TMC3     C 5538   1.820   1.313  16.482 -0.1386 -0.3963  0.4122
  370TMC3     O 5539   1.820   1.306  16.603  0.1055 -0.2462  0.1558
  370TMC3     H 5540   1.608   1.204  16.545  0.8421 -0.4288  1.6831
  370TMC3    H1 5541   1.919   1.190  16.260  0.1370  1.3863 -0.2019
  370TMC3    H2 5542   1.676   0.845  16.316 -0.7743  0.7625 -0.9735
  370TMC3    C7 5543   1.881   0.958  16.162 -0.1980 -0.2967  0.3791
  370TMC3    C8 5544   1.552   0.941  16.537  0.6173  0.1732 -0.4962
  370TMC3    O1 5545   1.961   1.031  16.102  0.0935 -0.2242  0.4498
  370TMC3    O2 5546   1.531   0.821  16.497  0.1944 -0.2048  0.4832
  371TMC3    C1 5547   3.099   4.065  15.643  0.2040 -0.2192  0.2827
  371TMC3    C2 5548   2.990   4.085  15.722  0.4920 -0.6985  0.0354
  371TMC3    C3 5549   2.923   4.203  15.729 -0.6140 -0.6165 -0.1108
  371TMC3    C4 5550   3.136   4.166  15.558  0.1463 -0.5008 -0.9842
  371TMC3    C5 5551   3.058   4.281  15.557  0.0610  0.1742 -0.8237
  371TMC3    C6 5552   2.954   4.306  15.639  0.3517  0.3751 -0.8320
  371TMC3     C 5553   3.153   3.931  15.655  0.3190  0.1176 -0.5492
  371TMC3     O 5554   3.270   3.910  15.619  0.1838  0.3113  0.0456
  371TMC3     H 5555   2.960   4.010  15.795 -2.4065  0.0704 -0.3563
  371TMC3    H1 5556   3.231   4.158  15.506  0.4623 -0.7583 -0.3701
  371TMC3    H2 5557   2.893   4.392  15.613 -0.6474  0.5795  2.0905
  371TMC3    C7 5558   3.108   4.395  15.475  0.4951 -0.4844  0.1504
  371TMC3    C8 5559   2.808   4.206  15.812  0.3122  0.2137 -0.3691
  371TMC3    O1 5560   3.067   4.508  15.502 -0.2197  0.0220 -0.2296
  371TMC3    O2 5561   2.763   4.098  15.851  0.1741 -0.2278  0.1395
  372MPD2     C 5562   2.486   0.293  13.741  0.5461 -0.0745 -0.6746
  372MPD2    C1 5563   2.548   0.372  13.833  0.3744  0.4550 -0.9522
  372MPD2    C2 5564   2.618   0.314  13.934 -0.8079  0.3117 -0.2813
  372MPD2    C3 5565   2.622   0.176  13.947  0.4557 -0.2443 -0.5198
  372MPD2    C4 5566   2.568   0.095  13.848 -0.1086 -0.0908 -0.4986
  372MPD2    C5 5567   2.507   0.159  13.738  0.3587  0.7465 -0.3505
  372MPD2     H 5568   2.660   0.373  14.015 -0.4709 -1.8287  1.1190
  372MPD2    H1 5569   2.585   4.709  13.851 -2.4633 -0.4781 -1.2939
  372MPD2    H2 5570   2.438   0.322  13.649  0.9675 -1.7505 -1.4253
  372MPD2    H3 5571   2.468   0.103  13.654  0.0442 -0.0537  0.3264
  372MPD2     N 5572   2.692   0.135  14.063 -0.1602  0.1903  1.0856
  372MPD2    H5 5573   2.720   0.219  14.113  1.6901  0.7117 -0.8043
  372MPD2    N1 5574   2.532   0.514  13.840 -1.1107 -0.2182 -0.1457
  372MPD2    H7 5575   2.596   0.557  13.905  0.7682 -1.4801 -1.1352
  373TMC3    C1 5576   2.842   0.002  14.182  0.7708 -0.2208  1.1462
  373TMC3    C2 5577   2.835   0.086  14.295  0.1495 -0.6409  0.7106
  373TMC3    C3 5578   2.951   0.112  14.360 -0.4008  1.0971  0.0553
  373TMC3    C4 5579   2.954   4.667  14.144  0.0965  0.4177  0.3786
  373TMC3    C5 5580   3.069   4.689  14.212  0.3745 -0.6578  0.4384
  373TMC3    C6 5581   3.072   0.059  14.314 -0.4237  0.1638 -0.0202
  373TMC3     C 5582   2.743   0.015  14.074  0.7886 -0.0332 -0.2362
  373TMC3     O 5583   2.733   4.645  13.996 -0.6362 -0.0043  0.6029
  373TMC3     H 5584   2.742   0.128  14.329 -0.1485  0.7556 -1.8687
  373TMC3    H1 5585   2.948   4.603  14.056  0.8810  1.1486 -0.2016
  373TMC3    H2 5586   3.165   0.098  14.353 -0.0235 -1.0693  0.2626
  373TMC3    C7 5587   3.187   4.642  14.145 -0.0191  0.2257 -0.4253
  373TMC3    C8 5588   2.952   0.236  14.434 -0.5567 -0.4432 -0.1860
  373TMC3    O1 5589   3.181   4.552  14.064 -0.1814 -0.0884  0.0705
  373TMC3    O2 5590   3.043   0.314  14.421 -0.2859  0.2700 -0.1750
  374TMC3    C1 5591   3.140   0.544  10.158 -0.7722  0.6704  0.1580
  374TMC3    C2 5592   3.244   0.500  10.235  0.5636 -0.8783 -0.3288
  374TMC3    C3 5593   3.255   0.366  10.259 -0.1332  0.0876  0.1294
  374TMC3    C4 5594   3.054   0.458  10.104  0.8428  0.1869  0.3602
  374TMC3    C5 5595   3.061   0.326  10.137  0.8372 -0.0356  0.1051
  374TMC3    C6 5596   3.169   0.279  10.201  1.0083  0.5543 -0.3958
  374TMC3     C 5597   3.073   0.671  10.189 -0.1288 -0.2660  0.6386
  374TMC3     O 5598   2.949   0.672  10.165 -0.0179 -0.5346 -0.1714
  374TMC3     H 5599   3.314   0.570  10.279 -1.0755 -0.3258  1.4133
  374TMC3    H1 5600   2.979   0.490  10.033  0.1572 -2.2149 -0.0018
  374TMC3    H2 5601   3.183   0.172  10.213  1.9887  0.7224 -0.0477
  374TMC3    C7 5602   2.944   0.247  10.120 -0.6056 -0.0333  0.0428
  374TMC3    C8 5603   3.379   0.311  10.305  0.4734 -0.4154 -0.5021
  374TMC3    O1 5604   2.951   0.128  10.106 -0.1920 -0.6477  0.3081
  374TMC3    O2 5605   3.436   0.220  10.252  0.3430 -0.0722 -0.3354
  375MPD2     C 5606   2.751   0.952  17.105 -0.0907 -0.1404  0.4126
  375MPD2    C1 5607   2.680   1.031  17.020  0.3175  0.6210 -0.2091
  375MPD2    C2 5608   2.723   1.057  16.891 -0.1145 -0.1099  0.0246
  375MPD2    C3 5609   2.854   1.019  16.853 -0.1542 -0.3266  0.5684
  375MPD2    C4 5610   2.921   0.935  16.939 -0.6448  0.4220 -0.4532
  375MPD2    C5 5611   2.875   0.897  17.060  0.0488 -0.3861  0.1402
  375MPD2     H 5612   2.663   1.126  16.831  0.5148 -0.9122 -1.5089
  375MPD2    H1 5613   3.018   0.895  16.912  0.7879  3.8499 -0.3190
  375MPD2    H2 5614   2.714   0.916  17.200 -1.0743  2.2375  0.9270
  375MPD2    H3 5615   2.938   0.834  17.121  0.4788 -0.3641 -0.2820
  375MPD2     N 5616   2.924   1.070  16.742  0.1200  0.0073 -0.2317
  375MPD2    H5 5617   3.017   1.032  16.728 -0.2540 -0.1345 -2.2614
  375MPD2    N1 5618   2.553   1.090  17.051  0.7503  0.1184  0.1282
  375MPD2    H7 5619   2.511   1.154  16.984  1.5468  0.9808  0.4436
  376TMC3    C1 5620   2.950   1.197  16.544  0.6451 -0.0560  0.4115
  376TMC3    C2 5621   3.086   1.222  16.562 -0.0016 -0.4226  0.8437
  376TMC3    C3 5622   3.152   1.275  16.453 -0.1895 -0.7607 -0.0915
  376TMC3    C4 5623   2.888   1.226  16.426  0.0622 -0.4263 -0.5972
  376TMC3    C5 5624   2.957   1.270  16.315 -0.1822 -0.5083 -0.4278
  376TMC3    C6 5625   3.087   1.301  16.332 -1.0011 -0.1000  0.1407
  376TMC3     C 5626   2.860   1.144  16.641 -0.0062 -0.1823  0.0867
  376TMC3     O 5627   2.738   1.148  16.615  0.0671  0.1674  0.3296
  376TMC3     H 5628   3.132   1.175  16.648 -2.0213 -3.0517  0.5052
  376TMC3    H1 5629   2.791   1.183  16.406  0.3069 -0.5559 -1.5382
  376TMC3    H2 5630   3.139   1.330  16.242 -0.8898 -0.2171  0.1670
  376TMC3    C7 5631   2.887   1.303  16.192  0.1926 -0.9064  0.2715
  376TMC3    C8 5632   3.300   1.276  16.452 -0.6253  0.8060  0.3127
  376TMC3    O1 5633   2.956   1.335  16.099 -0.0464  0.1299 -0.6344
  376TMC3    O2 5634   3.352   1.284  16.341 -0.1720  0.3764 -0.3825
  377MPD2     C 5635   1.424   1.129  13.044 -0.3014 -0.0070  0.2604
  377MPD2    C1 5636   1.552   1.082  13.037  0.4048  0.5576 -0.1674
  377MPD2    C2 5637   1.611   1.051  13.163  0.4081  0.8661 -0.2271
  377MPD2    C3 5638   1.551   1.072  13.284  0.1991 -0.2306 -0.0877
  377MPD2    C4 5639   1.427   1.135  13.286 -0.1946  0.1841  0.2898
  377MPD2    C5 5640   1.370   1.167  13.167  0.0712 -0.0585  0.1544
  377MPD2     H 5641   1.705   0.997  13.163 -0.8630 -1.3857  0.1832
  377MPD2    H1 5642   1.367   1.160  13.373 -0.4657 -1.9948  0.7245
  377MPD2    H2 5643   1.364   1.145  12.955 -3.2851  0.9943  2.4741
  377MPD2    H3 5644   1.268   1.203  13.171  0.3951  0.9514 -0.5356
  377MPD2     N 5645   1.602   1.027  13.412 -0.2256 -0.4590 -0.7763
  377MPD2    H5 5646   1.546   1.038  13.496 -0.1404  3.8701 -1.3205
  377MPD2    N1 5647   1.604   1.054  12.908 -0.7233 -1.1061  0.4256
  377MPD2    H7 5648   1.545   1.080  12.829  0.5950  1.0366  0.1324
  378TMC3    C1 5649   1.739   1.075  12.515 -0.2976  0.0874  0.0483
  378TMC3    C2 5650   1.711   1.080  12.650 -0.8287 -0.0565 -0.4179
  378TMC3    C3 5651   1.766   0.996  12.747 -0.3339 -0.9865  1.0256
  378TMC3    C4 5652   1.842   0.990  12.477 -0.4168  0.6008 -0.4293
  378TMC3    C5 5653   1.894   0.905  12.568  0.2357 -0.1060  0.2281
  378TMC3    C6 5654   1.865   0.915  12.705 -0.4731 -0.0090  0.6826
  378TMC3     C 5655   1.640   1.144  12.425  0.2789 -0.7440  0.1440
  378TMC3     O 5656   1.532   1.176  12.471 -0.3701 -0.4005 -0.6554
  378TMC3     H 5657   1.655   1.167  12.683  0.3047  0.7739 -0.6851
  378TMC3    H1 5658   1.867   0.987  12.371 -1.4953  1.7744 -0.7145
  378TMC3    H2 5659   1.930   0.871  12.780  0.2149  0.3912  0.3285
  378TMC3    C7 5660   2.004   0.825  12.524 -0.5355 -0.1289 -0.6224
  378TMC3    C8 5661   1.734   1.005  12.887 -0.3297  0.2062  0.6926
  378TMC3    O1 5662   2.027   0.725  12.587 -0.2769  0.6677 -0.6082
  378TMC3    O2 5663   1.806   0.952  12.971 -0.1400  0.1043  0.2346
  379MPD2     C 5664   2.259   3.782  16.133 -0.0622  0.3142 -0.5669
  379MPD2    C1 5665   2.129   3.768  16.191  0.1208 -0.4210 -0.0047
  379MPD2    C2 5666   2.127   3.739  16.331 -0.2245  0.2039 -0.6240
  379MPD2    C3 5667   2.248   3.720  16.399 -0.5519  0.0389 -0.6348
  379MPD2    C4 5668   2.369   3.731  16.332  0.2280  0.4472  0.1742
  379MPD2    C5 5669   2.375   3.750  16.199  0.1351 -0.1365  0.1977
  379MPD2     H 5670   2.033   3.735  16.385  1.4112  1.4974  2.3182
  379MPD2    H1 5671   2.464   3.726  16.385  0.7797 -1.8465 -1.0091
  379MPD2    H2 5672   2.279   3.808  16.029 -0.5414  2.3483 -0.1416
  379MPD2    H3 5673   2.474   3.760  16.156  0.0050  1.7818  0.3495
  379MPD2     N 5674   2.264   3.676  16.535  0.6768  0.3578 -0.6987
  379MPD2    H5 5675   2.359   3.668  16.570  0.5183 -2.6319 -0.9561
  379MPD2    N1 5676   2.020   3.790  16.101  0.2006  0.4611 -0.1324
  379MPD2    H7 5677   2.036   3.798  16.001  0.3204 -1.0395 -0.2371
  380TMC3    C1 5678   1.812   3.804  16.035  0.5199 -0.1732  0.1937
  380TMC3    C2 5679   1.823   3.712  15.939  1.2718  0.5880 -0.4092
  380TMC3    C3 5680   1.752   3.711  15.823 -0.1507  0.4099  0.0359
  380TMC3    C4 5681   1.725   3.907  16.021  0.4915 -0.4718 -0.2474
  380TMC3    C5 5682   1.649   3.911  15.900  0.0718 -0.0377 -0.3249
  380TMC3    C6 5683   1.670   3.822  15.793  0.3377 -0.5660  0.3095
  380TMC3     C 5684   1.896   3.793  16.147  0.2751 -0.0627  0.5607
  380TMC3     O 5685   1.852   3.820  16.259 -0.2194  0.2226 -0.0493
  380TMC3     H 5686   1.892   3.633  15.967 -1.1070 -1.6147 -0.7806
  380TMC3    H1 5687   1.703   3.981  16.097 -0.4370  0.3162 -1.2815
  380TMC3    H2 5688   1.615   3.828  15.700  1.0029  1.1748  0.0323
  380TMC3    C7 5689   1.543   4.000  15.880  0.6328  0.6051  0.0462
  380TMC3    C8 5690   1.846   3.684  15.718  0.9879  0.5244  0.4497
  380TMC3    O1 5691   1.573   4.120  15.895  0.9642 -0.0929 -0.8588
  380TMC3    O2 5692   1.867   3.784  15.654  0.4386  0.1216  0.1298
  381TMC3    C1 5693   1.570   0.322  16.276 -0.8509  0.6878 -0.1328
  381TMC3    C2 5694   1.639   0.435  16.277  0.3449  0.1305 -0.1814
  381TMC3    C3 5695   1.638   0.509  16.398 -0.9538  0.1284 -0.0615
  381TMC3    C4 5696   1.485   0.289  16.378 -0.0713 -0.0074  0.8280
  381TMC3    C5 5697   1.466   0.373  16.480 -0.1143  0.2102  0.1027
  381TMC3    C6 5698   1.553   0.481  16.501  0.2401  0.2006  0.1660
  381TMC3     C 5699   1.603   0.228  16.167  0.3459 -0.5805 -0.0691
  381TMC3     O 5700   1.689   0.266  16.086  0.5846  0.2448  0.4070
  381TMC3     H 5701   1.686   0.463  16.184 -1.0159 -0.0039 -0.9016
  381TMC3    H1 5702   1.428   0.197  16.375  1.9080 -1.1531 -2.1741
  381TMC3    H2 5703   1.551   0.536  16.594  0.9999 -1.4766  1.1813
  381TMC3    C7 5704   1.404   0.304  16.597 -0.3048 -0.4761  0.1458
  381TMC3    C8 5705   1.765   0.580  16.426 -0.2549 -0.1387 -0.0830
  381TMC3    O1 5706   1.431   0.185  16.593  0.1041  0.5371  0.8949
  381TMC3    O2 5707   1.860   0.556  16.358 -1.2439 -0.2626  0.3604
  382MPD2     C 5708   0.909   2.913  17.290 -0.6205  0.2860 -0.4656
  382MPD2    C1 5709   0.814   2.940  17.381 -0.8916 -0.0554  0.0660
  382MPD2    C2 5710   0.724   2.847  17.410  0.1820  0.4366 -0.1623
  382MPD2    C3 5711   0.739   2.717  17.361  0.0345 -0.4603  0.1275
  382MPD2    C4 5712   0.847   2.680  17.280  0.0329  0.5119 -0.5348
  382MPD2    C5 5713   0.925   2.781  17.238 -0.1988 -0.1365  0.2145
  382MPD2     H 5714   0.643   2.873  17.477  0.7564 -1.2429  1.1797
  382MPD2    H1 5715   0.865   2.578  17.247 -1.2093  0.6701 -1.6982
  382MPD2    H2 5716   0.984   2.988  17.269  0.2294 -0.8474 -1.4841
  382MPD2    H3 5717   1.008   2.749  17.176 -0.8097 -0.8711 -0.2137
  382MPD2     N 5718   0.655   2.615  17.395  0.0902 -0.4145  0.3071
  382MPD2    H5 5719   0.682   2.521  17.369 -2.4369 -1.1810  0.4001
  382MPD2    N1 5720   0.808   3.061  17.441 -0.2014 -0.8450  0.5007
  382MPD2    H7 5721   0.734   3.070  17.511 -1.4212  0.1472 -0.9162
  383TMC3    C1 5722   0.483   2.494  17.507  0.5365 -0.8327 -0.4679
  383TMC3    C2 5723   0.493   2.382  17.430  0.1134  0.6350 -0.7501
  383TMC3    C3 5724   0.484   2.261  17.486 -0.3632  0.6096  0.4387
  383TMC3    C4 5725   0.460   2.478  17.646 -0.4535 -0.5905 -0.0573
  383TMC3    C5 5726   0.458   2.353   0.011 -0.0665  0.3102  0.3760
  383TMC3    C6 5727   0.466   2.241  17.619  0.1774  0.3782 -0.3230
  383TMC3     C 5728   0.538   2.627  17.470  0.5853  0.2278 -0.5292
  383TMC3     O 5729   0.476   2.722  17.519  0.2070  0.0765 -0.3930
  383TMC3     H 5730   0.485   2.392  17.322 -2.4404 -2.7333 -0.8445
  383TMC3    H1 5731   0.459   2.569   0.018  0.4877 -1.3364  1.1287
  383TMC3    H2 5732   0.443   2.144  17.660 -0.0982  0.8456  0.6311
  383TMC3    C7 5733   0.409   2.327   0.147 -0.6410  0.2001 -0.5605
  383TMC3    C8 5734   0.417   2.163  17.404  0.2811  0.7900 -0.4006
  383TMC3    O1 5735   0.461   2.238   0.211 -0.0570  0.0985  1.0635
  383TMC3    O2 5736   0.372   2.204  17.296  0.2189 -0.3433 -0.0902
  384MPD2     C 5737   2.981   3.680  12.057 -0.7703  0.5163  0.3542
  384MPD2    C1 5738   2.959   3.592  12.161 -0.5915  0.1384  0.8875
  384MPD2    C2 5739   3.014   3.463  12.152  0.0596  0.2960  0.1230
  384MPD2    C3 5740   3.089   3.419  12.047 -0.3812  0.8451  0.0333
  384MPD2    C4 5741   3.102   3.503  11.941  0.5403 -0.2571 -0.3988
  384MPD2    C5 5742   3.048   3.630  11.943 -0.3860 -0.2643 -0.0849
  384MPD2     H 5743   2.995   3.396  12.236 -1.3138  0.6884  0.1237
  384MPD2    H1 5744   3.151   3.461  11.854  1.2517 -0.5373  0.1360
  384MPD2    H2 5745   2.936   3.778  12.047  0.1156  0.9532  0.6715
  384MPD2    H3 5746   3.055   3.698  11.859 -0.7665  0.5823  0.5676
  384MPD2     N 5747   3.143   3.290  12.045 -0.5011  0.8090  0.3081
  384MPD2    H5 5748   3.144   3.249  12.138  2.1210 -0.2959 -0.2071
  384MPD2    N1 5749   2.878   3.612  12.275 -0.3851  0.1493  0.2785
  384MPD2    H7 5750   2.897   3.540  12.344 -0.0632  0.6454  0.7115
  385TMC3    C1 5751   3.260   3.099  11.997 -0.3411  0.4416  0.5355
  385TMC3    C2 5752   3.195   2.991  11.952 -0.4625 -0.6637 -0.0763
  385TMC3    C3 5753   3.188   2.891  12.048 -0.1526  0.5523 -0.3668
  385TMC3    C4 5754   3.291   3.114  12.130  0.4777 -0.0439 -0.0196
  385TMC3    C5 5755   3.277   3.016  12.228  0.2819 -0.0502  0.1577
  385TMC3    C6 5756   3.228   2.897  12.177 -0.4884 -0.1709  0.1367
  385TMC3     C 5757   3.209   3.225  11.943  0.2274 -0.1420  0.6486
  385TMC3     O 5758   3.200   3.240  11.822  0.6033  0.3698 -0.1464
  385TMC3     H 5759   3.157   2.988  11.850 -0.0541  3.7541 -0.3520
  385TMC3    H1 5760   3.335   3.206  12.165  0.6790 -0.1600  0.0321
  385TMC3    H2 5761   3.195   2.817  12.242  1.7804 -1.2973 -0.0870
  385TMC3    C7 5762   3.194   3.074  12.333  0.4268 -0.0681  0.3134
  385TMC3    C8 5763   3.168   2.754  12.007  0.1417 -0.3528 -0.5285
  385TMC3    O1 5764   3.185   3.200  12.332  0.4491 -0.4532 -0.0983
  385TMC3    O2 5765   3.222   2.667  12.073  0.4516  0.0003  0.3128
  386TMC3    C1 5766   3.337   1.396  11.978  0.0972 -0.6643  0.2899
  386TMC3    C2 5767   3.316   1.348  11.854 -0.1340 -0.5885 -0.0014
  386TMC3    C3 5768   3.204   1.398  11.777  0.2425 -0.5601 -0.5324
  386TMC3    C4 5769   3.248   1.476  12.037  0.2833 -0.3066  0.3345
  386TMC3    C5 5770   3.131   1.509  11.968  0.3013  0.3517 -0.6517
  386TMC3    C6 5771   3.113   1.478  11.838  0.0348  0.1669 -0.2440
  386TMC3     C 5772   3.442   1.334  12.060  0.2670  0.1858  0.9341
  386TMC3     O 5773   3.498   1.421  12.129 -0.5086 -0.3159 -0.1361
  386TMC3     H 5774   3.390   1.293  11.796 -0.5707 -1.6655  0.4553
  386TMC3    H1 5775   3.230   1.481  12.144  0.0283  1.3937  0.2078
  386TMC3    H2 5776   3.028   1.519  11.786  0.0153  2.3512  1.5007
  386TMC3    C7 5777   3.007   1.475  12.047  0.5323  0.0360 -0.3033
  386TMC3    C8 5778   3.161   1.333  11.655 -0.4383 -0.8806  0.2319
  386TMC3    O1 5779   3.021   1.394  12.137 -0.4136  0.6464 -0.1720
  386TMC3    O2 5780   3.090   1.409  11.585  0.4381  0.0448  0.1751
  387MPD2     C 5781   0.816   1.454  10.642 -0.2197 -0.0199  0.0160
  387MPD2    C1 5782   0.891   1.501  10.535  0.4295 -0.1060  0.5592
  387MPD2    C2 5783   0.945   1.404  10.445  0.4406  0.6491  0.0579
  387MPD2    C3 5784   0.927   1.266  10.471 -0.2822 -0.0864 -0.7071
  387MPD2    C4 5785   0.866   1.230  10.587  0.3475 -0.4415  0.3345
  387MPD2    C5 5786   0.812   1.325  10.663  0.2521 -0.1575  0.0661
  387MPD2     H 5787   1.002   1.430  10.357 -0.9941  1.1968 -0.7009
  387MPD2    H1 5788   0.846   1.125  10.609 -1.1698 -0.0151  0.9493
  387MPD2    H2 5789   0.753   1.520  10.700  1.2537 -0.9863  2.7403
  387MPD2    H3 5790   0.753   1.293  10.749  0.5812  1.9672  1.0850
  387MPD2     N 5791   0.955   1.177  10.364 -0.6177 -0.1732 -0.2023
  387MPD2    H5 5792   0.990   1.213  10.276  1.3447 -2.4922 -0.3431
  387MPD2    N1 5793   0.891   1.634  10.489  0.4502 -0.4010  0.1601
  387MPD2    H7 5794   0.934   1.661  10.401 -0.1755  0.9207  0.2477
  388TMC3    C1 5795   0.788   1.832  10.457  0.1719  0.1982 -0.1002
  388TMC3    C2 5796   0.797   1.962  10.492  0.4873 -0.5703 -0.4991
  388TMC3    C3 5797   0.759   2.048  10.396  0.6753  0.5017 -0.4023
  388TMC3    C4 5798   0.755   1.795  10.326 -0.6343  0.4783  0.5333
  388TMC3    C5 5799   0.745   1.885  10.224 -1.1737 -0.1274  0.5510
  388TMC3    C6 5800   0.738   2.018  10.261 -0.3267 -0.5179  0.2181
  388TMC3     C 5801   0.827   1.735  10.556  0.0639  0.6838 -0.3184
  388TMC3     O 5802   0.820   1.766  10.677  0.2251 -0.0571 -0.2099
  388TMC3     H 5803   0.804   1.987  10.597 -0.3794  0.0693 -0.5930
  388TMC3    H1 5804   0.709   1.696  10.320 -1.1615  0.9767 -4.1201
  388TMC3    H2 5805   0.722   2.094  10.185  0.5880 -0.7997 -0.2596
  388TMC3    C7 5806   0.720   1.836  10.092 -0.0917  0.8862  0.2280
  388TMC3    C8 5807   0.781   2.190  10.416 -0.5348  0.0307  0.0111
  388TMC3    O1 5808   0.657   1.898  10.010 -0.1622  0.6755 -0.4784
  388TMC3    O2 5809   0.774   2.270  10.321 -0.1407  0.3002  0.4110
  389MPD2     C 5810   0.136   4.587  11.993 -0.3441 -0.2162  0.0107
  389MPD2    C1 5811   0.068   4.497  11.910 -0.0141 -0.5836  0.0702
  389MPD2    C2 5812   4.695   4.410  11.963 -0.1234 -0.1655 -0.0901
  389MPD2    C3 5813   4.673   4.410  12.101 -0.3016 -0.0161 -0.5116
  389MPD2    C4 5814   0.019   4.494  12.182 -0.2186  0.0113  0.7076
  389MPD2    C5 5815   0.111   4.587  12.130 -0.4980  0.6334 -0.0470
  389MPD2     H 5816   4.634   4.352  11.896  1.3635 -0.8578 -0.8534
  389MPD2    H1 5817   4.718   4.505  12.287 -0.3361  0.0921  0.6737
  389MPD2    H2 5818   0.209   4.659  11.958 -0.6974 -0.2532 -0.7951
  389MPD2    H3 5819   0.164   4.654  12.197 -2.9876  2.3103  0.2170
  389MPD2     N 5820   4.564   4.331  12.144 -0.2222 -0.6924 -0.1081
  389MPD2    H5 5821   4.523   4.266  12.078  0.4846 -0.7662 -0.4811
  389MPD2    N1 5822   0.092   4.514  11.776  0.0465 -0.4339  0.2688
  389MPD2    H7 5823   0.160   4.584  11.751  0.0160 -0.7081 -0.6007
  390TMC3    C1 5824   4.362   4.293  12.254 -0.6218  0.7799 -0.4676
  390TMC3    C2 5825   4.355   4.181  12.179  0.0585  0.1775 -0.0413
  390TMC3    C3 5826   4.226   4.137  12.161 -0.1742 -0.4233  0.0021
  390TMC3    C4 5827   4.251   4.353  12.320 -0.4082 -0.1567  0.3441
  390TMC3    C5 5828   4.129   4.323  12.269 -0.2453 -0.0607 -0.3188
  390TMC3    C6 5829   4.116   4.208  12.200 -0.1054 -0.1654 -0.1283
  390TMC3     C 5830   4.486   4.373  12.253 -0.1875 -0.2098 -0.1660
  390TMC3     O 5831   4.476   4.488  12.300  0.1210  0.3961  0.3454
  390TMC3     H 5832   4.432   4.129  12.124 -2.1331 -0.4125 -2.5713
  390TMC3    H1 5833   4.274   4.442  12.378  0.3601  0.0223 -0.2268
  390TMC3    H2 5834   4.018   4.168  12.175 -0.4528  2.1315 -2.4604
  390TMC3    C7 5835   4.009   4.400  12.312  0.1061 -0.5652 -0.3507
  390TMC3    C8 5836   4.200   4.007  12.102 -0.1868  0.2635 -0.5745
  390TMC3    O1 5837   4.009   4.518  12.341  0.2439  0.4261 -0.1076
  390TMC3    O2 5838   4.284   3.955  12.034  0.0702 -0.1652  0.3632
  391MPD2     C 5839   3.495   0.880  11.710 -0.0273  0.9819  0.2268
  391MPD2    C1 5840   3.601   0.960  11.675  0.5101  0.4059  0.0000
  391MPD2    C2 5841   3.669   0.940  11.559  0.8314  0.4000 -0.7272
  391MPD2    C3 5842   3.624   0.850  11.461 -0.0541  0.6478 -0.9221
  391MPD2    C4 5843   3.505   0.787  11.491 -0.2836 -0.4549  0.8199
  391MPD2    C5 5844   3.443   0.800  11.614  0.2723  0.0279 -0.0072
  391MPD2     H 5845   3.758   0.998  11.542 -0.6705  3.5176  1.9985
  391MPD2    H1 5846   3.458   0.733  11.409 -1.2631 -0.5322  1.4348
  391MPD2    H2 5847   3.429   0.899  11.794 -1.2858 -1.5872 -0.1665
  391MPD2    H3 5848   3.356   0.742  11.639 -0.0186  0.1508 -0.7209
  391MPD2     N 5849   3.709   0.818  11.356 -0.2904  0.6143  0.2438
  391MPD2    H5 5850   3.793   0.873  11.342  0.3298 -0.7685 -1.6830
  391MPD2    N1 5851   3.657   1.042  11.776  0.6282  0.6740 -0.4036
  391MPD2    H7 5852   3.635   1.021  11.873  0.2354 -0.2357 -0.6873
  392TMC3    C1 5853   3.743   0.747  11.137  0.0571 -0.2131 -0.0369
  392TMC3    C2 5854   3.690   0.676  11.025  0.5592  0.4860 -0.5888
  392TMC3    C3 5855   3.737   0.718  10.902 -0.2137  0.4264 -0.5735
  392TMC3    C4 5856   3.844   0.844  11.120 -0.5071 -0.1838 -0.1695
  392TMC3    C5 5857   3.895   0.864  10.997 -0.3076 -1.1316 -0.3013
  392TMC3    C6 5858   3.834   0.811  10.883 -0.3552  0.1828 -0.6767
  392TMC3     C 5859   3.674   0.732  11.258 -0.5596 -0.5259 -0.5277
  392TMC3     O 5860   3.591   0.640  11.257  0.2133 -0.3686 -0.4029
  392TMC3     H 5861   3.610   0.604  11.037 -1.1817  2.3387 -0.8496
  392TMC3    H1 5862   3.895   0.889  11.203  4.4534  0.8656 -3.8132
  392TMC3    H2 5863   3.871   0.842  10.786  2.0430 -0.1218  0.1321
  392TMC3    C7 5864   4.004   0.960  10.985 -0.5607 -0.7608  0.3535
  392TMC3    C8 5865   3.665   0.662  10.783  0.6350 -0.1924 -0.2000
  392TMC3    O1 5866   4.003   1.044  11.074 -0.4324 -0.1829  0.1136
  392TMC3    O2 5867   3.544   0.644  10.791  0.0540  0.2676  0.3732
  393TMC3    C1 5868   2.770   3.569  10.570  0.0659 -0.8436 -0.4047
  393TMC3    C2 5869   2.673   3.578  10.671  0.1519 -0.2746  0.0636
  393TMC3    C3 5870   2.692   3.518  10.791  0.2800  0.2458 -0.7611
  393TMC3    C4 5871   2.895   3.523  10.593  0.2094  1.0381  0.9644
  393TMC3    C5 5872   2.917   3.467  10.716  0.1274 -0.2343  0.0875
  393TMC3    C6 5873   2.819   3.467  10.818 -0.1951  0.0623 -0.4353
  393TMC3     C 5874   2.739   3.564  10.427 -0.2929 -0.1934 -0.0701
  393TMC3     O 5875   2.830   3.562  10.346  0.1463 -0.2600 -0.3733
  393TMC3     H 5876   2.574   3.618  10.648  1.0769  1.4024 -0.9581
  393TMC3    H1 5877   2.972   3.529  10.517  0.0488  2.3016  0.8983
  393TMC3    H2 5878   2.833   3.419  10.914 -1.1709  0.9192  0.1354
  393TMC3    C7 5879   3.049   3.415  10.744 -0.2398  0.3560 -0.0515
  393TMC3    C8 5880   2.614   3.571  10.896 -0.5308 -0.1369 -0.7298
  393TMC3    O1 5881   3.064   3.315  10.812 -0.6613 -0.6764 -0.0937
  393TMC3    O2 5882   2.586   3.691  10.883 -0.1366 -0.5518  0.0116
  394TMC3    C1 5883   0.037   4.517  11.543  0.3555 -0.3615  0.0462
  394TMC3    C2 5884   4.652   4.502  11.464  0.0926  0.1630 -0.2350
  394TMC3    C3 5885   4.672   4.531  11.332 -0.0423  0.3386  0.1886
  394TMC3    C4 5886   0.160   4.540  11.497  0.6649  0.8820  1.2467
  394TMC3    C5 5887   0.170   4.573  11.365  0.9159 -0.4354  0.1361
  394TMC3    C6 5888   0.064   4.584  11.279  0.1341 -0.4804  0.0940
  394TMC3     C 5889   0.020   4.450  11.675  0.5059 -0.4533 -0.3617
  394TMC3     O 5890   4.655   4.361  11.681  0.0860  0.4188 -0.2869
  394TMC3     H 5891   4.559   4.461  11.503  0.0945 -0.2461 -0.6515
  394TMC3    H1 5892   0.242   4.517  11.564  0.4430  1.2684  1.6467
  394TMC3    H2 5893   0.081   4.594  11.173  0.1609  0.3893  0.1826
  394TMC3    C7 5894   0.306   4.595  11.303 -0.4617  0.2450 -0.6843
  394TMC3    C8 5895   4.552   4.523  11.257  0.1960  0.9675  0.1651
  394TMC3    O1 5896   0.316   4.625  11.186  0.0962  0.2314  0.5308
  394TMC3    O2 5897   4.445   4.532  11.324  0.1496 -0.6852  0.1862
  395TMC3    C1 5898   4.654   1.258  15.326  0.3823 -0.2260  0.4380
  395TMC3    C2 5899   4.585   1.250  15.210 -0.7305 -0.3958  0.8732
  395TMC3    C3 5900   4.570   1.360  15.131  0.7951 -0.4158  0.1750
  395TMC3    C4 5901   0.000   1.374  15.356  0.5760  0.4058 -1.0109
  395TMC3    C5 5902   4.704   1.480  15.275 -0.1575 -0.0450 -0.5329
  395TMC3    C6 5903   4.639   1.476  15.152  0.1575  0.8490  0.3333
  395TMC3     C 5904   4.556   1.229  15.424  0.4735  0.0744 -0.1736
  395TMC3     O 5905   4.484   1.323  15.452  0.1603 -0.2003  0.1808
  395TMC3     H 5906   4.528   1.160  15.188 -0.6376 -0.3160  0.3175
  395TMC3    H1 5907   0.059   1.388  15.446 -0.0174  2.0910 -0.8709
  395TMC3    H2 5908   4.628   1.558  15.081  0.9439 -0.1847 -0.9606
  395TMC3    C7 5909   0.084   1.582  15.296  0.8229  0.6318  0.0251
  395TMC3    C8 5910   4.458   1.372  15.047  1.2346  0.1262  0.3555
  395TMC3    O1 5911   0.090   1.645  15.400  0.0223 -0.1887 -0.1146
  395TMC3    O2 5912   4.411   1.485  15.046 -0.1454  0.0388 -0.2848
  396MPD2     C 5913   3.901   2.448  17.522  0.0228 -0.6288  0.7262
  396MPD2    C1 5914   3.905   2.440  17.385  0.5435  0.2038 -0.2815
  396MPD2    C2 5915   3.959   2.549  17.314 -0.1455  0.1650 -0.5631
  396MPD2    C3 5916   4.009   2.662  17.375 -0.1898  0.8209 -0.8551
  396MPD2    C4 5917   3.984   2.676  17.512 -0.0319 -0.5322 -0.3920
  396MPD2    C5 5918   3.941   2.566  17.581  1.0752 -0.9812  0.5151
  396MPD2     H 5919   3.970   2.541  17.206 -1.5193 -0.2432 -0.6773
  396MPD2    H1 5920   4.006   2.759  17.578  2.8050 -0.3798 -1.5603
  396MPD2    H2 5921   3.868   2.370  17.589 -2.6632 -0.4295 -0.3764
  396MPD2    H3 5922   3.930   2.580   0.002  0.0557 -2.1869  0.5692
  396MPD2     N 5923   4.060   2.764  17.297  0.5969 -0.1134 -0.0555
  396MPD2    H5 5924   4.057   2.745  17.198 -1.5813 -2.7467  0.5257
  396MPD2    N1 5925   3.847   2.315  17.328 -0.2019  0.1929 -0.2856
  396MPD2    H7 5926   3.807   2.250  17.394 -0.6891  2.6246  1.8077
  397TMC3    C1 5927   3.737   2.186  17.166 -0.3586  0.2307 -0.3773
  397TMC3    C2 5928   3.731   2.145  17.036 -0.5033 -0.2012  0.3832
  397TMC3    C3 5929   3.622   2.073  17.003 -1.1179  0.5245 -0.0157
  397TMC3    C4 5930   3.613   2.196  17.232  0.5167  0.2265  0.2381
  397TMC3    C5 5931   3.497   2.145  17.172 -0.4006 -0.4991  1.1956
  397TMC3    C6 5932   3.501   2.078  17.063  0.5669 -0.1591 -0.6839
  397TMC3     C 5933   3.816   2.300  17.192  0.8752  0.1481 -0.1155
  397TMC3     O 5934   3.843   2.373  17.099  0.0157  0.1890  0.4797
  397TMC3     H 5935   3.829   2.123  16.995  0.0922  3.0693  0.0384
  397TMC3    H1 5936   3.597   2.250  17.325 -0.2988  0.1943  0.1131
  397TMC3    H2 5937   3.407   2.052  17.017 -0.3648  0.0097  1.1263
  397TMC3    C7 5938   3.363   2.192  17.216  0.0333  0.3591  0.6018
  397TMC3    C8 5939   3.640   1.990  16.885  0.1931 -0.0870  0.0847
  397TMC3    O1 5940   3.281   2.197  17.125  0.1214 -0.6107  0.0000
  397TMC3    O2 5941   3.721   2.030  16.803  0.3116  0.0363  0.2148
  398MPD2     C 5942   1.563   3.000   0.515  0.8237 -0.3604  0.7042
  398MPD2    C1 5943   1.562   3.004   0.651  1.0304  0.0834 -0.6613
  398MPD2    C2 5944   1.587   3.122   0.713  0.5089 -0.6772  0.3217
  398MPD2    C3 5945   1.599   3.242   0.640 -0.0830 -0.3917  0.1248
  398MPD2    C4 5946   1.596   3.241   0.501 -0.5116 -0.5231  0.6875
  398MPD2    C5 5947   1.584   3.122   0.441 -0.1576 -0.2434  0.3172
  398MPD2     H 5948   1.595   3.124   0.821  2.0449 -0.5569  0.2019
  398MPD2    H1 5949   1.615   3.326   0.437 -0.8266 -1.2818 -0.4119
  398MPD2    H2 5950   1.557   2.906   0.461  0.8590  0.4186 -0.6666
  398MPD2    H3 5951   1.591   3.127   0.333 -3.2230  1.0178  0.1565
  398MPD2     N 5952   1.620   3.361   0.714 -0.1108 -0.2433 -0.1646
  398MPD2    H5 5953   1.632   3.352   0.815  2.3992 -3.5766 -0.7642
  398MPD2    N1 5954   1.554   2.890   0.736  0.1481 -0.2747 -0.0565
  398MPD2    H7 5955   1.570   2.909   0.835 -0.0687 -0.8981  0.1033
  399TMC3    C1 5956   1.561   2.667   0.799 -0.4609  0.7474 -0.2904
  399TMC3    C2 5957   1.615   2.703   0.916 -0.0646  0.8561 -0.1526
  399TMC3    C3 5958   1.596   2.627   1.031 -0.1791  0.3698 -0.3828
  399TMC3    C4 5959   1.479   2.558   0.798  0.5427  0.6065 -0.1432
  399TMC3    C5 5960   1.461   2.488   0.913  0.9677 -0.1795 -0.2546
  399TMC3    C6 5961   1.521   2.511   1.029  0.2944  0.0486 -0.5023
  399TMC3     C 5962   1.535   2.762   0.692  0.3857 -0.1145  0.6489
  399TMC3     O 5963   1.495   2.724   0.583 -0.0481  0.0348 -0.1343
  399TMC3     H 5964   1.694   2.778   0.920  0.6947 -0.0771  2.2490
  399TMC3    H1 5965   1.426   2.538   0.705 -2.9223 -0.2359  2.0465
  399TMC3    H2 5966   1.479   2.466   1.119 -1.2089  0.2311 -1.1082
  399TMC3    C7 5967   1.383   2.365   0.913 -0.1483  0.1816  0.4066
  399TMC3    C8 5968   1.688   2.647   1.139 -0.2715  0.1237 -0.4270
  399TMC3    O1 5969   1.352   2.312   1.022 -0.3166  0.4172 -0.3619
  399TMC3    O2 5970   1.752   2.751   1.140 -0.0234  0.1833  0.3551
  400TMC3    C1 5971   0.286   2.000  17.012  0.5077 -0.2338  0.7963
  400TMC3    C2 5972   0.163   1.936  16.983  0.2478 -0.5193 -0.4058
  400TMC3    C3 5973   0.052   2.013  16.975  0.5697  0.1789 -0.3937
  400TMC3    C4 5974   0.292   2.130  17.007  0.3333 -0.8094  1.0437
  400TMC3    C5 5975   0.181   2.203  16.990  0.1411 -0.2450  0.3212
  400TMC3    C6 5976   0.055   2.147  16.984  0.9923  0.3491 -0.3455
  400TMC3     C 5977   0.398   1.919  17.059  0.4665 -0.4321  1.0108
  400TMC3     O 5978   0.400   1.797  17.029 -0.4711 -0.9001  0.0820
  400TMC3     H 5979   0.157   1.832  17.014 -0.1511  1.1957  5.1905
  400TMC3    H1 5980   0.386   2.183  17.019 -0.4639  1.3065 -2.1502
  400TMC3    H2 5981   4.692   2.213  16.963  0.4409  0.0991  1.0613
  400TMC3    C7 5982   0.171   2.346  17.019  0.6091 -0.2926  0.1187
  400TMC3    C8 5983   4.656   1.956  16.929  0.2929 -0.5676  0.0963
  400TMC3    O1 5984   0.069   2.396  17.062  0.1132  0.4433  0.0444
  400TMC3    O2 5985   4.550   2.020  16.930 -0.4279 -0.0240  0.0652
  401MPD2     C 5986   3.365   0.252  17.431 -0.5461  0.1193 -0.3845
  401MPD2    C1 5987   3.317   0.264  17.563  0.0614 -0.8584 -0.6390
  401MPD2    C2 5988   3.255   0.151  17.618 -0.3942 -0.9447  0.1141
  401MPD2    C3 5989   3.234   0.040  17.547 -0.2439  0.2026  0.0466
  401MPD2    C4 5990   3.277   0.028  17.418  0.5179  0.2724 -0.2290
  401MPD2    C5 5991   3.341   0.133  17.364 -0.5420 -0.2239 -0.0632
  401MPD2     H 5992   3.200   0.161   0.024 -0.3575 -0.2271  0.0586
  401MPD2    H1 5993   3.260   4.658  17.360  3.3657  0.1112 -0.8299
  401MPD2    H2 5994   3.419   0.322  17.369 -1.9954  0.2876 -1.4780
  401MPD2    H3 5995   3.378   0.115  17.264  0.6256  1.2602  0.1092
  401MPD2     N 5996   3.171   4.650  17.616  0.0873 -0.0761  0.1657
  401MPD2    H5 5997   3.129   4.667   0.021 -1.2858 -0.1511 -0.4507
  401MPD2    N1 5998   3.332   0.377  17.645  0.6972  0.4913  0.2625
  401MPD2    H7 5999   3.288   0.375   0.050 -1.4828  0.7506 -0.7955
  402TMC3    C1 6000   3.116   4.434  17.685 -0.0458  0.7770 -0.6277
  402TMC3    C2 6001   3.029   4.481   0.092 -0.0806 -0.6721  0.5396
  402TMC3    C3 6002   3.015   4.404   0.210  0.7345 -0.6615  0.0236
  402TMC3    C4 6003   3.197   4.326   0.013  0.2399  0.7326 -0.4212
  402TMC3    C5 6004   3.173   4.248   0.125 -0.2612 -0.8655  0.7531
  402TMC3    C6 6005   3.076   4.279   0.219  0.4682  0.1876  0.0145
  402TMC3     C 6006   3.149   4.519  17.577  0.1207  0.7942 -0.7482
  402TMC3     O 6007   3.185   4.466  17.471 -0.2305 -0.0481 -0.1097
  402TMC3     H 6008   2.961   4.563   0.071  2.9623  1.7236 -0.1420
  402TMC3    H1 6009   3.276   4.296  17.631 -1.2187  1.8267 -2.5951
  402TMC3    H2 6010   3.075   4.220   0.309 -0.5036  0.2654  0.0548
  402TMC3    C7 6011   3.292   4.176   0.167 -0.5223 -0.4390 -0.6658
  402TMC3    C8 6012   3.053   4.481   0.324  0.1730  0.4598  0.6916
  402TMC3    O1 6013   3.269   4.072   0.226 -0.1244  0.1692 -0.1736
  402TMC3    O2 6014   3.136   4.436   0.401 -0.1494  0.2115 -0.4204
  403MPD2     C 6015   1.784   3.947  13.808 -0.2978 -0.7452  0.1690
  403MPD2    C1 6016   1.891   3.893  13.732  0.1263  0.0326  0.0803
  403MPD2    C2 6017   2.020   3.928  13.763  0.0583 -0.1486  0.2623
  403MPD2    C3 6018   2.047   4.021  13.863  0.2934  0.5561 -0.4041
  403MPD2    C4 6019   1.944   4.085  13.920 -0.4300  0.3636 -0.5356
  403MPD2    C5 6020   1.816   4.054  13.893  0.2298 -0.4521 -0.6624
  403MPD2     H 6021   2.102   3.878  13.713  0.5523  2.5397 -1.6301
  403MPD2    H1 6022   1.952   4.162  13.996  0.2539 -1.4817  1.2774
  403MPD2    H2 6023   1.680   3.921  13.790 -0.8012 -0.7105  3.0242
  403MPD2    H3 6024   1.736   4.100  13.950  0.4600 -1.2039  0.2825
  403MPD2     N 6025   2.183   4.031  13.902  0.5108 -0.0371 -0.0213
  403MPD2    H5 6026   2.249   3.998  13.832 -0.8720 -0.1064 -1.3131
  403MPD2    N1 6027   1.855   3.786  13.644 -0.6118 -0.2975 -0.2430
  403MPD2    H7 6028   1.761   3.748  13.642 -1.2633  1.1859  2.4582
  404TMC3    C1 6029   1.888   3.618  13.478 -0.2256 -0.2090 -0.2678
  404TMC3    C2 6030   1.874   3.500  13.551  0.6134 -0.2227  0.3212
  404TMC3    C3 6031   1.849   3.383  13.487 -0.1290 -0.2509  0.1348
  404TMC3    C4 6032   1.922   3.606  13.347 -0.0168 -0.4024  0.0327
  404TMC3    C5 6033   1.907   3.483  13.282  0.3791  0.3420  0.0155
  404TMC3    C6 6034   1.867   3.374  13.352 -0.9012  0.3507  0.4126
  404TMC3     C 6035   1.942   3.731  13.550 -0.1429  0.1970  0.1210
  404TMC3     O 6036   2.048   3.779  13.512 -0.1796  0.2342 -0.0058
  404TMC3     H 6037   1.869   3.516  13.658 -0.4442 -0.4723  0.3014
  404TMC3    H1 6038   1.942   3.700  13.297 -0.9358 -1.0498 -1.5303
  404TMC3    H2 6039   1.875   3.279  13.299  0.3210 -0.5115  2.1370
  404TMC3    C7 6040   1.910   3.489  13.136 -0.2322 -0.1833  0.3450
  404TMC3    C8 6041   1.875   3.272  13.568 -0.0354 -0.1134  0.3172
  404TMC3    O1 6042   1.959   3.594  13.101  0.2646 -0.3242 -0.7692
  404TMC3    O2 6043   1.934   3.182  13.512 -0.5089 -0.0127  0.5681
  405MPD2     C 6044   2.468   4.311  14.761  0.5190  0.1188 -1.0020
  405MPD2    C1 6045   2.435   4.212  14.667  0.0136  0.0253 -0.3276
  405MPD2    C2 6046   2.313   4.214  14.594 -0.7509  0.1426 -0.2311
  405MPD2    C3 6047   2.235   4.329  14.606 -0.3874  0.1332  1.1546
  405MPD2    C4 6048   2.273   4.423  14.703 -0.1289 -0.3547 -0.0802
  405MPD2    C5 6049   2.379   4.407  14.783  0.3049 -0.0617 -0.1259
  405MPD2     H 6050   2.282   4.136  14.526  0.1322  1.7628 -2.4953
  405MPD2    H1 6051   2.203   4.503  14.725 -0.0241 -0.0432 -0.8465
  405MPD2    H2 6052   2.559   4.297  14.820  0.9383  1.3691 -1.3498
  405MPD2    H3 6053   2.388   4.473  14.868 -1.3668 -0.2509  0.2050
  405MPD2     N 6054   2.126   4.335  14.517  0.1015  0.0417  0.5601
  405MPD2    H5 6055   2.109   4.247  14.470  1.6668  1.6414 -2.9753
  405MPD2    N1 6056   2.521   4.104  14.643 -0.1713 -0.5568 -0.3927
  405MPD2    H7 6057   2.604   4.096  14.701  1.4179 -2.0713 -2.8577
  406TMC3    C1 6058   1.698   4.383  14.378 -0.2828 -0.7798 -0.1914
  406TMC3    C2 6059   1.707   4.267  14.306 -0.4074  0.5154 -0.2315
  406TMC3    C3 6060   1.837   4.227  14.281  0.4679 -0.0063 -0.0148
  406TMC3    C4 6061   1.809   4.451  14.429 -0.3695 -0.2144 -0.7729
  406TMC3    C5 6062   1.934   4.411  14.399  0.1630  0.6665 -0.0972
  406TMC3    C6 6063   1.948   4.303  14.311 -0.4985  0.4797  0.2272
  406TMC3     C 6064   1.569   4.429  14.410  0.6382  0.2914 -1.0077
  406TMC3     O 6065   1.488   4.439  14.321 -0.3562  0.4609 -0.4824
  406TMC3     H 6066   1.616   4.211  14.285 -1.4408  1.9376  0.4965
  406TMC3    H1 6067   1.787   4.542  14.485  2.2631  0.8649 -1.4796
  406TMC3    H2 6068   2.048   4.270  14.286 -1.4858 -2.5112  0.3329
  406TMC3    C7 6069   2.039   4.432  14.501  0.9163  0.3755  0.1030
  406TMC3    C8 6070   1.844   4.085  14.276  0.4129 -0.6013  0.2363
  406TMC3    O1 6071   2.031   4.538  14.562 -0.2238  0.1484  0.3428
  406TMC3    O2 6072   1.746   4.029  14.302  0.2097  0.4907  0.6198
  407MPD2     C 6073   4.701   1.120   9.603  0.3870  0.5269 -0.2080
  407MPD2    C1 6074   0.041   1.029   9.693  0.3856 -1.0135  0.2980
  407MPD2    C2 6075   0.059   1.083   9.813  0.0467 -0.6314  0.0724
  407MPD2    C3 6076   0.025   1.218   9.856 -0.0420  0.2420  0.1527
  407MPD2    C4 6077   4.666   1.290   9.773  0.0592 -0.7002  0.4776
  407MPD2    C5 6078   4.638   1.235   9.649  0.6800  0.0757  0.4406
  407MPD2     H 6079   0.128   1.035   9.881 -0.9290 -2.2832 -0.1062
  407MPD2    H1 6080   4.623   1.387   9.791 -2.0095 -1.3209 -1.1870
  407MPD2    H2 6081   4.662   1.075   9.512  0.1733 -0.9676  0.6159
  407MPD2    H3 6082   4.561   1.286   9.592  1.5422 -0.4584 -1.1921
  407MPD2     N 6083   0.051   1.274   9.983 -0.3176 -0.0846  0.0908
  407MPD2    H5 6084   0.024   1.372   9.989  4.2420  0.9536  3.5930
  407MPD2    N1 6085   0.098   0.910   9.662  0.3452  0.1411 -0.2150
  407MPD2    H7 6086   0.147   0.864   9.738  0.4110  1.6539  0.6660
  408TMC3    C1 6087   0.180   0.718   9.554  0.1768 -0.2065 -0.1656
  408TMC3    C2 6088   0.285   0.714   9.466 -0.5593 -0.4925  0.0697
  408TMC3    C3 6089   0.406   0.694   9.527 -0.0110 -0.7384  0.5229
  408TMC3    C4 6090   0.188   0.673   9.680 -0.4284  0.0632 -0.1160
  408TMC3    C5 6091   0.313   0.660   9.733 -0.5555  0.5288  0.2435
  408TMC3    C6 6092   0.427   0.666   9.656  0.0794 -0.0893  0.1376
  408TMC3     C 6093   0.099   0.842   9.548 -0.9741  0.3837 -0.0723
  408TMC3     O 6094   0.053   0.879   9.439  0.4164 -0.2918  0.5042
  408TMC3     H 6095   0.265   0.730   9.361  0.5417  0.1961 -0.0226
  408TMC3    H1 6096   0.101   0.664   9.743 -1.0865  0.5442 -0.9556
  408TMC3    H2 6097   0.525   0.682   9.701 -0.2917 -0.6219  1.1358
  408TMC3    C7 6098   0.324   0.722   9.863  0.4692  0.1784 -0.0234
  408TMC3    C8 6099   0.525   0.724   9.441 -0.0318  0.4526  0.1363
  408TMC3    O1 6100   0.232   0.798   9.880 -0.7476 -0.3938  0.1835
  408TMC3    O2 6101   0.509   0.709   9.321 -0.7573 -0.4465 -0.0996
  409MPD2     C 6102   3.990   1.194  17.341  0.0596 -0.0006  0.0435
  409MPD2    C1 6103   4.127   1.193  17.360 -0.5644  0.0379  0.2635
  409MPD2    C2 6104   4.197   1.309  17.337  0.4635 -0.5356  0.0061
  409MPD2    C3 6105   4.131   1.423  17.291  0.4104  0.8064  0.0453
  409MPD2    C4 6106   3.995   1.418  17.266 -0.1137 -0.1677 -0.4700
  409MPD2    C5 6107   3.922   1.308  17.291  0.2013 -0.1604 -0.3594
  409MPD2     H 6108   4.303   1.305  17.359  0.5160  0.5763 -0.0225
  409MPD2    H1 6109   3.943   1.507  17.231  1.9316  1.0979 -0.3027
  409MPD2    H2 6110   3.934   1.102  17.354 -2.1680  1.5631  1.3393
  409MPD2    H3 6111   3.816   1.297  17.273 -0.2273  1.0135  1.5268
  409MPD2     N 6112   4.195   1.544  17.247 -0.0923  0.0438  0.2859
  409MPD2    H5 6113   4.136   1.608  17.194 -0.5933 -0.9513 -0.3441
  409MPD2    N1 6114   4.201   1.088  17.414 -0.2308  0.2062 -0.2331
  409MPD2    H7 6115   4.300   1.104  17.425 -0.1957  0.4088 -0.8069
  410TMC3    C1 6116   4.372   1.697  17.196 -0.4833 -0.4578  0.5279
  410TMC3    C2 6117   4.495   1.732  17.246 -0.1325  0.6064  0.3280
  410TMC3    C3 6118   4.530   1.866  17.235  0.8649 -0.7236  0.3845
  410TMC3    C4 6119   4.279   1.785  17.153 -0.2702 -0.2837  0.7724
  410TMC3    C5 6120   4.322   1.915  17.153 -0.2358 -0.0696 -1.0382
  410TMC3    C6 6121   4.444   1.963  17.193  0.5790  0.2726  0.1357
  410TMC3     C 6122   4.330   1.566  17.243 -0.0271  0.3031 -0.3177
  410TMC3     O 6123   4.418   1.487  17.276  0.6162 -0.1830 -0.2395
  410TMC3     H 6124   4.563   1.656  17.283  0.3168  0.7669 -0.1781
  410TMC3    H1 6125   4.196   1.754  17.091 -0.9464  0.0810  1.5066
  410TMC3    H2 6126   4.474   2.068  17.193 -0.3555  0.5409 -0.7560
  410TMC3    C7 6127   4.226   2.007  17.093 -0.3577 -0.3544  0.2521
  410TMC3    C8 6128   4.656   1.910  17.285 -0.0130  0.1597 -0.9431
  410TMC3    O1 6129   4.112   1.967  17.079 -0.2041  0.0143  0.2805
  410TMC3    O2 6130   4.685   2.031  17.289  0.1103  0.4074 -0.5066
  411MPD2     C 6131   4.715   2.314  14.986  0.3192  0.7346  0.1937
  411MPD2    C1 6132   4.635   2.297  14.871  0.2935  0.1346  1.0907
  411MPD2    C2 6133   4.599   2.168  14.831 -1.2897  0.0569 -0.6916
  411MPD2    C3 6134   4.628   2.057  14.902 -0.1183  0.9986 -0.1607
  411MPD2    C4 6135   4.715   2.071  15.009  0.0771 -0.2576  0.1540
  411MPD2    C5 6136   0.043   2.196  15.042  0.3441  0.0631  0.1191
  411MPD2     H 6137   4.535   2.152  14.745 -1.8380  0.3040 -0.3251
  411MPD2    H1 6138   0.012   1.996  15.085 -1.6969 -1.4092 -0.5600
  411MPD2    H2 6139   0.027   2.406  15.032  0.5938  1.1908 -0.9041
  411MPD2    H3 6140   0.112   2.201  15.125 -0.6896 -0.1178  0.9917
  411MPD2     N 6141   4.573   1.929  14.862  0.0194  0.0479 -0.5977
  411MPD2    H5 6142   4.508   1.932  14.784 -0.9073  2.0299  0.2495
  411MPD2    N1 6143   4.586   2.410  14.812  0.5876  0.1961 -0.1118
  411MPD2    H7 6144   4.598   2.497  14.863 -2.6814  0.1100  0.8341
  412TMC3    C1 6145   4.523   1.704  14.852 -0.7224 -0.1455  0.0297
  412TMC3    C2 6146   4.387   1.729  14.835  0.0091  0.2156  0.5943
  412TMC3    C3 6147   4.325   1.646  14.744 -0.5344 -0.4044 -0.0573
  412TMC3    C4 6148   4.592   1.611  14.780 -0.1083  0.0088 -0.3879
  412TMC3    C5 6149   4.522   1.546  14.683 -0.6010  0.1037 -0.3939
  412TMC3    C6 6150   4.391   1.555  14.670  0.3446  0.6227 -0.0280
  412TMC3     C 6151   4.593   1.810  14.925 -0.3074  0.3310  0.7659
  412TMC3     O 6152   4.664   1.781  15.019  0.3090 -0.2044  0.3448
  412TMC3     H 6153   4.333   1.805  14.888 -1.8873 -0.9476  0.3182
  412TMC3    H1 6154   4.700   1.604  14.782 -0.3081 -2.7711 -0.2192
  412TMC3    H2 6155   4.348   1.482  14.602  0.0590  0.6579  0.1134
  412TMC3    C7 6156   4.589   1.543  14.556  1.1000 -0.2775 -0.9729
  412TMC3    C8 6157   4.236   1.726  14.664 -0.1662 -0.1114  0.0615
  412TMC3    O1 6158   4.694   1.481  14.543  0.5205  0.0372  0.0183
  412TMC3    O2 6159   4.261   1.721  14.547 -0.4785  0.5437  0.6834
  413MPD2     C 6160   1.784   0.753  15.688 -1.1934 -0.0738 -0.3223
  413MPD2    C1 6161   1.698   0.638  15.681 -0.2073  0.0655  0.6586
  413MPD2    C2 6162   1.739   0.529  15.604  0.3842  0.8710  0.5194
  413MPD2    C3 6163   1.862   0.522  15.544  0.1629  0.2813  0.0197
  413MPD2    C4 6164   1.937   0.632  15.557  0.2503  0.0757  0.3135
  413MPD2    C5 6165   1.903   0.747  15.631  0.6223  0.2386 -0.2844
  413MPD2     H 6166   1.674   0.443  15.594 -0.3824  1.2847  1.8920
  413MPD2    H1 6167   2.037   0.631  15.514  0.1073 -0.2087 -0.0145
  413MPD2    H2 6168   1.751   0.835  15.750 -0.4375 -1.7791  2.3149
  413MPD2    H3 6169   1.971   0.832  15.627 -0.3754  1.1564  2.1014
  413MPD2     N 6170   1.910   0.412  15.469  0.4014  0.7128  0.1723
  413MPD2    H5 6171   1.837   0.350  15.437  0.0749 -0.4043  3.1061
  413MPD2    N1 6172   1.574   0.642  15.758  0.0890 -0.0067 -0.2124
  413MPD2    H7 6173   1.562   0.731  15.805  1.0839  0.3015 -0.5453
  414TMC3    C1 6174   2.053   0.270  15.349  0.0111  0.3057 -0.7625
  414TMC3    C2 6175   2.135   0.162  15.377 -0.3462  0.0962 -0.1778
  414TMC3    C3 6176   2.139   0.063  15.279  0.1471  0.0331  0.4008
  414TMC3    C4 6177   2.003   0.289  15.228 -0.1505 -0.0007  0.0522
  414TMC3    C5 6178   2.040   0.207  15.124 -0.2455 -0.2918  0.3624
  414TMC3    C6 6179   2.100   0.088  15.152 -0.1514 -0.0431 -0.2685
  414TMC3     C 6180   2.046   0.383  15.446  0.1891  0.1295 -0.0113
  414TMC3     O 6181   2.149   0.439  15.485  0.1302  0.1539  0.2604
  414TMC3     H 6182   2.173   0.136  15.475 -1.6826 -2.4618 -0.3449
  414TMC3    H1 6183   1.952   0.382  15.207  0.0195  0.1439  0.2875
  414TMC3    H2 6184   2.113   0.021  15.068  1.3732 -0.2952  0.1686
  414TMC3    C7 6185   1.995   0.229  14.982 -0.5999 -0.5070 -0.3514
  414TMC3    C8 6186   2.228   4.674  15.311 -0.3402  0.9968 -0.2291
  414TMC3    O1 6187   1.879   0.275  14.972  0.3512  0.4439  0.2890
  414TMC3    O2 6188   2.186   4.571  15.262  0.1315  0.4198 -0.0727
  415TMC3    C1 6189   2.518   3.195  10.113 -0.5500  0.0865 -0.0668
  415TMC3    C2 6190   2.612   3.196  10.018  0.5652 -0.3591 -0.8414
  415TMC3    C3 6191   2.572   3.189   9.886  0.1674 -0.5722 -0.6493
  415TMC3    C4 6192   2.380   3.169  10.077 -0.7318  0.0442  0.2940
  415TMC3    C5 6193   2.349   3.149   9.945 -0.1883 -0.4631  0.7338
  415TMC3    C6 6194   2.443   3.173   9.846 -0.5056  0.3742 -0.0394
  415TMC3     C 6195   2.549   3.196  10.258 -0.3245  0.0395  0.4590
  415TMC3     O 6196   2.450   3.165  10.329 -0.7523  0.4315  0.5181
  415TMC3     H 6197   2.716   3.198  10.049  0.6692  0.3745 -1.2253
  415TMC3    H1 6198   2.302   3.190  10.149 -0.2279 -0.3468  0.9578
  415TMC3    H2 6199   2.415   3.162   9.742  1.5310 -0.6615 -0.4757
  415TMC3    C7 6200   2.221   3.101   9.902 -0.1724 -0.4360 -0.1448
  415TMC3    C8 6201   2.658   3.243   9.788  0.3508  0.7225  0.4820
  415TMC3    O1 6202   2.195   3.107   9.783  0.1189 -0.2679  0.2942
  415TMC3    O2 6203   2.601   3.282   9.686  0.0329  0.3791 -0.1395
  416MPD2     C 6204   4.404   2.345  11.623 -0.3655  0.2105 -0.0041
  416MPD2    C1 6205   4.289   2.370  11.555  0.1712 -1.1333 -0.1084
  416MPD2    C2 6206   4.240   2.271  11.472  0.3690  0.2440  0.9375
  416MPD2    C3 6207   4.315   2.158  11.442  0.8880 -0.4090 -0.1671
  416MPD2    C4 6208   4.436   2.136  11.510 -0.5137  0.1119  0.1324
  416MPD2    C5 6209   4.483   2.238  11.601 -1.1456 -0.0570 -0.3495
  416MPD2     H 6210   4.138   2.269  11.434 -0.3792  1.0879  2.9123
  416MPD2    H1 6211   4.505   2.054  11.494  0.3873  1.3725 -2.5250
  416MPD2    H2 6212   4.433   2.425  11.690  1.4330  0.0808 -0.6371
  416MPD2    H3 6213   4.583   2.231  11.644 -1.2573 -0.3974 -0.1488
  416MPD2     N 6214   4.271   2.046  11.364 -0.1284  0.1134  0.2919
  416MPD2    H5 6215   4.328   1.962  11.365 -0.3163  0.0245  2.5501
  416MPD2    N1 6216   4.214   2.483  11.599 -0.7494 -0.0882 -0.0723
  416MPD2    H7 6217   4.257   2.540  11.670 -1.8714  0.3195  0.2892
  417TMC3    C1 6218   4.041   2.641  11.603 -0.0741  0.2958 -0.0668
  417TMC3    C2 6219   4.005   2.612  11.734  0.5294 -0.2223  0.8847
  417TMC3    C3 6220   3.900   2.681  11.788 -0.5199 -1.0065  0.3413
  417TMC3    C4 6221   3.966   2.721  11.524  0.1809 -0.3706  0.4318
  417TMC3    C5 6222   3.853   2.779  11.575 -0.0332 -0.0611 -0.6639
  417TMC3    C6 6223   3.814   2.755  11.709  0.3362  0.8422 -0.5790
  417TMC3     C 6224   4.096   2.527  11.536 -0.4059 -0.4182 -0.3580
  417TMC3     O 6225   4.045   2.480  11.433 -0.3124  0.2206  0.1518
  417TMC3     H 6226   4.061   2.531  11.780 -2.4113 -2.4424  0.6228
  417TMC3    H1 6227   3.994   2.727  11.419  0.6240 -1.6498  0.4710
  417TMC3    H2 6228   3.745   2.824  11.755  1.0257  0.0005  1.7277
  417TMC3    C7 6229   3.755   2.849  11.487  0.6048 -0.5531  0.1341
  417TMC3    C8 6230   3.875   2.679  11.934 -0.0693  0.4751 -0.3700
  417TMC3    O1 6231   3.797   2.876  11.374 -0.0861 -0.3957  0.3742
  417TMC3    O2 6232   3.780   2.748  11.966 -0.4280 -0.6749  0.1478
  418TMC3    C1 6233   1.866   3.681   0.875 -0.2500 -0.4421 -0.1404
  418TMC3    C2 6234   1.788   3.648   0.764  0.4165 -0.4592 -0.3330
  418TMC3    C3 6235   1.676   3.575   0.778  0.5834  0.6400  0.8990
  418TMC3    C4 6236   1.830   3.638   0.999  0.0733 -0.2971  0.5755
  418TMC3    C5 6237   1.704   3.583   1.005  0.4227  0.0182 -0.0202
  418TMC3    C6 6238   1.624   3.549   0.903  0.6967  0.3011  0.0207
  418TMC3     C 6239   2.006   3.683   0.853  0.0629 -0.4888  0.2145
  418TMC3     O 6240   2.050   3.744   0.757  0.0813  0.1490  0.5416
  418TMC3     H 6241   1.815   3.673   0.662  2.9228  0.9833  0.6951
  418TMC3    H1 6242   1.887   3.662   1.088  0.5298  0.5916  0.0429
  418TMC3    H2 6243   1.532   3.493   0.912  3.6441 -4.5930 -0.3675
  418TMC3    C7 6244   1.661   3.513   1.125 -0.1852 -0.4651 -0.2339
  418TMC3    C8 6245   1.640   3.488   0.662  0.4432 -0.3782  0.7318
  418TMC3    O1 6246   1.586   3.421   1.108 -0.1772 -0.6251  0.3016
  418TMC3    O2 6247   1.674   3.514   0.549 -0.0088  0.1029 -0.5150
  419MPD2     C 6248   1.425   1.951  12.508 -0.7766  0.0196 -0.3292
  419MPD2    C1 6249   1.316   2.039  12.497  0.6070  0.4349  0.2942
  419MPD2    C2 6250   1.259   2.089  12.615 -0.1077  0.0715 -0.0015
  419MPD2    C3 6251   1.309   2.062  12.741 -0.0547 -0.2313  0.2053
  419MPD2    C4 6252   1.421   1.979  12.757  0.4431  0.1622 -0.9806
  419MPD2    C5 6253   1.474   1.927  12.633 -0.1182 -0.7496 -0.5203
  419MPD2     H 6254   1.185   2.167  12.603 -0.8920  0.0587  5.0156
  419MPD2    H1 6255   1.466   1.962  12.854  0.8188 -0.9094 -1.3381
  419MPD2    H2 6256   1.481   1.912  12.424  0.3355 -0.7430  0.7517
  419MPD2    H3 6257   1.568   1.874  12.641  0.7905  0.8848 -0.4053
  419MPD2     N 6258   1.248   2.138  12.853 -0.6092 -0.0536 -0.2586
  419MPD2    H5 6259   1.190   2.212  12.815 -1.3338 -0.8284 -0.6520
  419MPD2    N1 6260   1.278   2.090  12.369  0.5960  0.0189 -0.2218
  419MPD2    H7 6261   1.204   2.160  12.365 -1.7369 -2.4810 -1.0120
  420TMC3    C1 6262   1.198   2.207  13.084  0.4603 -0.0856  0.1526
  420TMC3    C2 6263   1.098   2.285  13.043 -0.0770 -0.2055 -0.5835
  420TMC3    C3 6264   1.038   2.377  13.125  0.6009  0.6703  0.4263
  420TMC3    C4 6265   1.239   2.210  13.215 -0.4001  0.1100 -0.2853
  420TMC3    C5 6266   1.187   2.302  13.298  0.1588  0.2403 -0.3086
  420TMC3    C6 6267   1.071   2.376  13.259 -0.4260  0.4281 -0.1166
  420TMC3     C 6268   1.272   2.126  12.988 -0.4248 -0.1933 -0.0853
  420TMC3     O 6269   1.343   2.043  13.046 -0.1455 -0.0481 -0.9871
  420TMC3     H 6270   1.064   2.280  12.940 -0.0416  1.2820 -0.6713
  420TMC3    H1 6271   1.314   2.140  13.249 -3.5855 -3.2423 -0.1702
  420TMC3    H2 6272   1.016   2.441  13.326 -1.3762  0.5483 -1.0109
  420TMC3    C7 6273   1.226   2.290  13.432 -0.7363  1.0699  0.0638
  420TMC3    C8 6274   0.919   2.449  13.088 -0.5031  0.3084 -0.2330
  420TMC3    O1 6275   1.276   2.190  13.473  0.1147 -0.1512 -0.0754
  420TMC3    O2 6276   0.889   2.551  13.151 -0.4211  0.1748  0.1950
  421TMC3    C1 6277   2.371   4.079  14.050  0.0648 -1.2076 -0.1557
  421TMC3    C2 6278   2.416   4.151  14.157 -0.3942  0.0878 -0.5742
  421TMC3    C3 6279   2.546   4.128  14.201 -0.4361  0.3896  0.2902
  421TMC3    C4 6280   2.459   4.005  13.970 -0.0513 -0.6604  0.2986
  421TMC3    C5 6281   2.593   4.005  14.011  0.9077  0.6154  0.5401
  421TMC3    C6 6282   2.636   4.064  14.125 -0.2963 -0.0306 -0.4231
  421TMC3     C 6283   2.227   4.077  14.022  0.0685 -0.1711 -0.2504
  421TMC3     O 6284   2.157   4.124  14.107 -0.1002  0.3335  0.1040
  421TMC3     H 6285   2.349   4.222  14.206 -0.0090 -0.7699  1.2035
  421TMC3    H1 6286   2.413   3.966  13.880 -0.9458 -0.6606  0.7587
  421TMC3    H2 6287   2.740   4.056  14.156 -0.6516 -1.5305  0.3847
  421TMC3    C7 6288   2.695   3.960  13.919 -0.0209  0.1432  0.2263
  421TMC3    C8 6289   2.589   4.227  14.306  0.1309  0.2232  0.4581
  421TMC3    O1 6290   2.810   3.971  13.956  0.1451  0.5231  0.2833
  421TMC3    O2 6291   2.497   4.295  14.349  0.1804 -0.0397  0.3533
  422TMC3    C1 6292   0.458   0.575  13.416  0.4031  0.1482  0.2307
  422TMC3    C2 6293   0.448   0.708  13.390 -0.0715 -0.1986  0.1790
  422TMC3    C3 6294   0.331   0.757  13.327 -0.3067 -0.3085  0.3147
  422TMC3    C4 6295   0.359   0.492  13.385 -0.5647  0.2159 -0.1783
  422TMC3    C5 6296   0.246   0.540  13.318 -0.0365 -0.1145  0.1415
  422TMC3    C6 6297   0.230   0.673  13.274  0.1944  0.5143 -0.9518
  422TMC3     C 6298   0.586   0.525  13.438 -0.6589 -0.0358 -0.5846
  422TMC3     O 6299   0.618   0.413  13.393  0.0827 -0.1314  0.1144
  422TMC3     H 6300   0.530   0.778  13.401  0.5990 -1.0260  0.4263
  422TMC3    H1 6301   0.377   0.387  13.403 -0.1267  0.8838  3.2559
  422TMC3    H2 6302   0.149   0.707  13.212 -1.4670 -0.5215  0.6455
  422TMC3    C7 6303   0.154   0.432  13.283  0.3406  0.8510 -0.2837
  422TMC3    C8 6304   0.319   0.902  13.301 -0.2925  0.2810  0.0432
  422TMC3    O1 6305   0.195   0.318  13.277  0.3378 -0.0977 -1.0352
  422TMC3    O2 6306   0.403   0.974  13.353 -0.5264  0.3653  0.1274
  423MPD2     C 6307   0.954   1.315   0.818  0.1446 -0.0971  0.0270
  423MPD2    C1 6308   1.065   1.253   0.866  0.1581  0.2191 -0.4992
  423MPD2    C2 6309   1.132   1.166   0.772  0.2357 -0.1480  0.1723
  423MPD2    C3 6310   1.101   1.173   0.640 -0.2877  0.0885  0.8934
  423MPD2    C4 6311   0.990   1.235   0.601  0.0782  0.0738  0.3612
  423MPD2    C5 6312   0.923   1.310   0.693 -0.0169  0.9125 -0.6398
  423MPD2     H 6313   1.217   1.106   0.804  0.7183 -0.1794 -1.1338
  423MPD2    H1 6314   0.957   1.232   0.497 -2.4281 -2.9663  1.2398
  423MPD2    H2 6315   0.893   1.383   0.876 -1.7472 -1.2729 -0.5957
  423MPD2    H3 6316   0.836   1.365   0.660 -2.4788 -2.1399  0.8598
  423MPD2     N 6317   1.168   1.090   0.546  0.1896 -0.3761 -0.9198
  423MPD2    H5 6318   1.140   1.093   0.449 -0.2202 -0.1739 -0.7907
  423MPD2    N1 6319   1.114   1.256   1.001  0.2135  0.1844  0.2398
  423MPD2    H7 6320   1.193   1.197   1.023  0.3550  0.5922  0.8198
  424TMC3    C1 6321   1.157   1.354   1.211  0.4143  0.2238 -0.0986
  424TMC3    C2 6322   1.265   1.263   1.226  1.0634  0.4236  0.3662
  424TMC3    C3 6323   1.320   1.236   1.348  0.4412  0.7316 -0.5317
  424TMC3    C4 6324   1.118   1.424   1.316  0.3357  0.5599 -0.2575
  424TMC3    C5 6325   1.171   1.389   1.442 -0.3785 -0.0799  0.2849
  424TMC3    C6 6326   1.281   1.305   1.459 -0.0508 -0.1862 -0.1719
  424TMC3     C 6327   1.067   1.342   1.094 -0.3630 -0.0731  0.5309
  424TMC3     O 6328   0.954   1.388   1.110 -0.0714  0.1748  0.2442
  424TMC3     H 6329   1.311   1.235   1.132 -0.9932 -1.1078 -0.1849
  424TMC3    H1 6330   1.037   1.493   1.297 -0.2379  0.3029  1.2812
  424TMC3    H2 6331   1.330   1.304   1.556  0.2560 -0.2145 -0.3257
  424TMC3    C7 6332   1.123   1.457   1.567  0.1469  0.0951  0.3272
  424TMC3    C8 6333   1.459   1.195   1.338 -0.0932 -0.5629 -0.4636
  424TMC3    O1 6334   1.197   1.461   1.663  0.1953 -0.1305 -0.0501
  424TMC3    O2 6335   1.493   1.129   1.239 -0.0462  0.0665  0.0338
  425MPD2     C 6336   0.566   0.583   0.028  0.6439 -0.0400  0.0955
  425MPD2    C1 6337   0.497   0.491  17.641 -0.5206  0.3442  0.4703
  425MPD2    C2 6338   0.361   0.472  17.667  0.0629  0.2799  0.0219
  425MPD2    C3 6339   0.305   0.539   0.090 -0.4521 -0.9561  0.8362
  425MPD2    C4 6340   0.381   0.616   0.171 -0.1034  0.2017  0.2395
  425MPD2    C5 6341   0.512   0.648   0.134 -0.1261  0.1434  0.3811
  425MPD2     H 6342   0.311   0.399  17.605 -1.0669 -0.5034  1.8845
  425MPD2    H1 6343   0.350   0.652   0.268  1.1583  0.3708  0.5745
  425MPD2    H2 6344   0.663   0.611  17.676 -0.8760  0.8341 -3.1771
  425MPD2    H3 6345   0.566   0.721   0.193 -1.3826  0.9010  0.6095
  425MPD2     N 6346   0.167   0.516   0.119  0.1095 -0.4904 -0.1907
  425MPD2    H5 6347   0.122   0.443   0.065 -0.9404 -0.9850  1.3465
  425MPD2    N1 6348   0.565   0.408  17.550 -0.1944  0.1621 -0.0196
  425MPD2    H7 6349   0.665   0.394  17.566 -0.5293 -0.5233  1.4923
  426TMC3    C1 6350   0.607   0.214  17.426  0.7307  0.1441 -0.4772
  426TMC3    C2 6351   0.561   0.123  17.341  0.2799  0.6587  0.2434
  426TMC3    C3 6352   0.595   4.712  17.351  0.4567 -0.1880 -0.2360
  426TMC3    C4 6353   0.685   0.169  17.530 -0.6810  0.2538  0.2613
  426TMC3    C5 6354   0.712   0.034  17.541  0.2993  0.6132  0.0322
  426TMC3    C6 6355   0.679   4.666  17.447  0.0042 -0.3475 -0.6372
  426TMC3     C 6356   0.515   0.322  17.452  0.4048  0.2987  0.2095
  426TMC3     O 6357   0.408   0.324  17.392  0.4956 -0.1829 -0.2225
  426TMC3     H 6358   0.520   0.173  17.254  0.6670  0.4860 -0.0423
  426TMC3    H1 6359   0.738   0.237  17.595 -0.1620 -0.7440  0.8877
  426TMC3    H2 6360   0.698   4.559  17.452  0.7768 -0.0541  2.7542
  426TMC3    C7 6361   0.777   4.714  17.660 -0.5952  0.0216  0.1452
  426TMC3    C8 6362   0.572   4.625  17.231 -0.0503 -0.0625 -0.3390
  426TMC3    O1 6363   0.863   4.627  17.654 -0.6504 -0.2542  0.1115
  426TMC3    O2 6364   0.652   4.532  17.221  0.3224 -0.7635  0.4615
  427MPD2     C 6365   3.781   2.405  14.813 -0.0277  0.1632 -0.0100
  427MPD2    C1 6366   3.732   2.413  14.945 -0.6529 -0.1310 -0.5853
  427MPD2    C2 6367   3.602   2.428  14.967  0.1701  0.2926 -0.6365
  427MPD2    C3 6368   3.510   2.445  14.862 -0.0249  0.3067 -0.4728
  427MPD2    C4 6369   3.560   2.461  14.735 -0.7527 -0.3137  0.1914
  427MPD2    C5 6370   3.693   2.441  14.717 -0.4353  0.0292 -0.8252
  427MPD2     H 6371   3.566   2.423  15.069  1.3355  0.5742 -0.2036
  427MPD2    H1 6372   3.501   2.497  14.652 -2.0182 -0.5421  1.0089
  427MPD2    H2 6373   3.883   2.379  14.785 -0.1267  0.4835 -0.6905
  427MPD2    H3 6374   3.720   2.440  14.612 -3.0653 -1.0958 -1.5042
  427MPD2     N 6375   3.379   2.490  14.891 -0.2480  0.0537 -0.0421
  427MPD2    H5 6376   3.330   2.518  14.807 -0.3644 -1.3355 -0.4353
  427MPD2    N1 6377   3.804   2.385  15.062 -0.1232  0.3940  0.4119
  427MPD2    H7 6378   3.762   2.400  15.154 -0.0480  0.0712  0.4980
  428TMC3    C1 6379   3.957   2.283  15.205 -0.1043  0.5890  0.2781
  428TMC3    C2 6380   3.851   2.223  15.271 -0.2847 -0.4188  0.4769
  428TMC3    C3 6381   3.881   2.132  15.368  0.9123  0.2457 -0.2384
  428TMC3    C4 6382   4.088   2.256  15.232  0.2293  0.1430 -0.1493
  428TMC3    C5 6383   4.115   2.168  15.336  0.1374 -0.4773 -0.0845
  428TMC3    C6 6384   4.015   2.113  15.405  0.2118 -0.7360  0.4444
  428TMC3     C 6385   3.932   2.341  15.074 -0.3741 -0.1704  0.2337
  428TMC3     O 6386   4.017   2.326  14.987  0.4987  0.2163  0.2574
  428TMC3     H 6387   3.749   2.238  15.239  0.1786  0.8870 -0.4206
  428TMC3    H1 6388   4.162   2.311  15.174  0.9451  0.1570  0.7767
  428TMC3    H2 6389   4.024   2.070  15.504  2.3052 -1.1370  0.0836
  428TMC3    C7 6390   4.246   2.171  15.401  0.5544 -0.5687 -0.3093
  428TMC3    C8 6391   3.780   2.042  15.424 -0.2663  0.0892  0.1517
  428TMC3    O1 6392   4.228   2.181  15.520  0.1314 -0.9105  0.5257
  428TMC3    O2 6393   3.664   2.066  15.392 -0.2958 -0.0301 -0.4214
  429MPD2     C 6394   4.338   2.237  17.397  0.2846  0.0171  0.2446
  429MPD2    C1 6395   4.453   2.258  17.462  0.0959  0.1291 -0.2630
  429MPD2    C2 6396   4.508   2.381  17.480  0.7329  0.2609 -0.1220
  429MPD2    C3 6397   4.449   2.488  17.414 -0.6480 -0.5850 -0.2062
  429MPD2    C4 6398   4.338   2.464  17.333 -0.2575  0.3976  0.0237
  429MPD2    C5 6399   4.283   2.341  17.334  0.5128  0.9092 -0.0816
  429MPD2     H 6400   4.593   2.406  17.544  1.0874 -0.2100 -0.4128
  429MPD2    H1 6401   4.276   2.535  17.279 -0.1861  0.5554  0.1490
  429MPD2    H2 6402   4.288   2.143  17.380  1.0132 -0.2522 -0.3935
  429MPD2    H3 6403   4.194   2.326  17.275  0.3796  1.1126  0.0641
  429MPD2     N 6404   4.514   2.613  17.426 -0.0834 -0.3383  0.6225
  429MPD2    H5 6405   4.598   2.624  17.482  0.3435 -0.3151 -0.0141
  429MPD2    N1 6406   4.523   2.151  17.522 -0.1802 -0.6421  1.0455
  429MPD2    H7 6407   4.608   2.173  17.573  0.2637  1.0561 -0.4180
  430TMC3    C1 6408   4.586   2.829  17.370 -0.4516 -0.3525 -0.3801
  430TMC3    C2 6409   4.574   2.933  17.277 -0.6767  0.4249  0.6043
  430TMC3    C3 6410   4.688   3.004  17.247  0.1228  0.7868 -0.2364
  430TMC3    C4 6411   4.705   2.808  17.438 -0.6725 -0.3216 -0.4762
  430TMC3    C5 6412   0.095   2.871  17.393 -0.1367  0.7725  0.5986
  430TMC3    C6 6413   0.089   2.981  17.305 -0.1063  0.0356 -0.2334
  430TMC3     C 6414   4.485   2.722  17.351 -0.3025  0.2245 -0.2300
  430TMC3     O 6415   4.392   2.752  17.282  0.6312  0.3466  0.0100
  430TMC3     H 6416   4.486   2.942  17.215 -0.5432 -0.6276  0.2666
  430TMC3    H1 6417   4.708   2.728  17.511  0.3787 -0.6216 -0.8488
  430TMC3    H2 6418   0.163   3.060  17.309  0.0260  0.0405 -2.5003
  430TMC3    C7 6419   0.195   2.772  17.355 -0.4611 -0.1633 -0.3328
  430TMC3    C8 6420   4.689   3.045  17.102  0.5964  0.6621 -0.1119
  430TMC3    O1 6421   0.183   2.661  17.401  0.1772 -0.5774  0.8845
  430TMC3    O2 6422   4.584   3.043  17.038 -0.4370 -0.4495 -0.7254
  431MPD2     C 6423   0.968   2.683  12.603 -0.0823 -0.1031 -0.5138
  431MPD2    C1 6424   1.069   2.706  12.502  0.0395 -0.4841 -1.0283
  431MPD2    C2 6425   1.065   2.630  12.389 -0.9182 -0.0308  0.9058
  431MPD2    C3 6426   0.989   2.521  12.377 -0.4250 -0.0062  0.4026
  431MPD2    C4 6427   0.897   2.488  12.475 -0.1996  0.6722 -0.1516
  431MPD2    C5 6428   0.885   2.579  12.578 -0.2541  0.4593  0.1012
  431MPD2     H 6429   1.139   2.667  12.319 -1.4451  1.2923  1.0350
  431MPD2    H1 6430   0.837   2.399  12.464 -1.3946  1.2907  1.2443
  431MPD2    H2 6431   0.962   2.740  12.695  0.9681  0.3428 -0.7247
  431MPD2    H3 6432   0.810   2.563  12.654  0.2559  0.2978  0.5768
  431MPD2     N 6433   1.005   2.427  12.269 -1.0152  0.0805 -0.4331
  431MPD2    H5 6434   0.961   2.336  12.283  0.4810 -0.8430 -1.8272
  431MPD2    N1 6435   1.167   2.808  12.500  0.2147  0.3899 -0.1733
  431MPD2    H7 6436   1.215   2.819  12.412 -0.9773 -1.4364 -1.0385
  432TMC3    C1 6437   1.122   2.335  12.088 -0.0216 -0.3099 -0.0233
  432TMC3    C2 6438   1.193   2.364  11.977 -0.2071 -1.1083 -0.2210
  432TMC3    C3 6439   1.309   2.289  11.947  0.2242 -0.2752 -0.4766
  432TMC3    C4 6440   1.165   2.232  12.168 -0.2392  0.0273 -0.6523
  432TMC3    C5 6441   1.277   2.158  12.142 -0.1777 -0.5522 -0.1336
  432TMC3    C6 6442   1.353   2.188  12.028  0.2615 -0.1407  0.8541
  432TMC3     C 6443   1.074   2.456  12.156 -0.4542 -0.6032  0.7539
  432TMC3     O 6444   1.087   2.565  12.094 -0.7216  0.3201  0.5820
  432TMC3     H 6445   1.174   2.453  11.918  0.7334  0.1760  1.4161
  432TMC3    H1 6446   1.103   2.222  12.256 -0.2445  0.8500 -0.5610
  432TMC3    H2 6447   1.445   2.137  12.006  0.8104  1.0750  0.3281
  432TMC3    C7 6448   1.339   2.082  12.249  0.1991 -0.4939 -0.6956
  432TMC3    C8 6449   1.410   2.363  11.872  0.3819 -0.4850 -0.5586
  432TMC3    O1 6450   1.446   2.028  12.221 -1.0329 -0.5940  0.5361
  432TMC3    O2 6451   1.381   2.433  11.777 -0.1052 -0.0516  0.2255
  433MPD2     C 6452   0.176   1.477  11.164  0.0970  0.5225 -0.6926
  433MPD2    C1 6453   0.085   1.392  11.223  0.2545  0.0993  0.2085
  433MPD2    C2 6454   0.033   1.425  11.349  0.4216 -0.7922 -0.0058
  433MPD2    C3 6455   0.046   1.549  11.402 -0.8485  0.6302 -0.2650
  433MPD2    C4 6456   0.120   1.642  11.325  0.4001 -0.2128  0.3691
  433MPD2    C5 6457   0.200   1.602  11.220 -0.4886 -0.5689 -0.3128
  433MPD2     H 6458   4.688   1.351  11.394  0.1975  0.0604  1.0734
  433MPD2    H1 6459   0.131   1.745  11.359 -1.5568  0.6220 -1.5212
  433MPD2    H2 6460   0.232   1.450  11.076  1.2041  0.1195  0.1430
  433MPD2    H3 6461   0.262   1.683  11.181 -2.2800 -0.5014 -2.9772
  433MPD2     N 6462   4.705   1.591  11.520 -0.0234  0.0757 -0.2987
  433MPD2    H5 6463   4.657   1.518  11.571 -3.1501  2.6068  0.3794
  433MPD2    N1 6464   0.062   1.270  11.152  0.5191  0.0926 -0.8421
  433MPD2    H7 6465   0.137   1.245  11.089  0.9900  1.4862 -0.8247
  434TMC3    C1 6466   4.706   1.054  11.114  0.0011 -0.3165  0.1853
  434TMC3    C2 6467   0.021   0.949  11.191 -0.0612  0.2287 -0.2001
  434TMC3    C3 6468   0.091   0.849  11.141 -0.0698  0.4929 -0.2592
  434TMC3    C4 6469   0.025   1.063  10.979 -0.0957 -0.2098 -0.4930
  434TMC3    C5 6470   0.080   0.957  10.923 -0.2530  0.2346 -0.3292
  434TMC3    C6 6471   0.120   0.852  11.006  0.1402  0.0262  0.5840
  434TMC3     C 6472   4.691   1.171  11.188 -0.6354  0.3233 -0.1469
  434TMC3     O 6473   4.602   1.164  11.275  0.3439  0.0628 -0.4453
  434TMC3     H 6474   4.715   0.947  11.296  0.6359 -1.2937 -0.0551
  434TMC3    H1 6475   4.712   1.141  10.910  0.4089  0.2851 -0.1779
  434TMC3    H2 6476   0.174   0.766  10.970  1.3340  0.8055  0.5394
  434TMC3    C7 6477   0.096   0.948  10.780  0.8044 -0.1372 -0.0574
  434TMC3    C8 6478   0.193   0.805  11.232 -0.2500 -0.2237  1.0365
  434TMC3    O1 6479   0.074   1.051  10.723 -0.1331  0.2183  0.1447
  434TMC3    O2 6480   0.166   0.815  11.350  0.5662  0.3226 -0.3708
  435MPD2     C 6481   1.968   1.428  15.719 -0.1303 -0.2594  0.7007
  435MPD2    C1 6482   1.892   1.333  15.782 -0.3577  0.1427  0.5825
  435MPD2    C2 6483   1.953   1.232  15.858  0.3730 -0.1875  0.2232
  435MPD2    C3 6484   2.087   1.218  15.848 -0.3917 -0.1232 -0.9098
  435MPD2    C4 6485   2.159   1.298  15.767 -0.0508  0.2135  0.2296
  435MPD2    C5 6486   2.100   1.406  15.715 -0.1103  0.6879  0.0527
  435MPD2     H 6487   1.893   1.166  15.920  2.6939 -0.0810  2.6317
  435MPD2    H1 6488   2.266   1.289  15.748 -0.0368 -0.9582  0.8257
  435MPD2    H2 6489   1.937   1.526  15.684  0.2268 -0.3732  0.0600
  435MPD2    H3 6490   2.156   1.493  15.686 -0.5134  0.7913 -0.4101
  435MPD2     N 6491   2.147   1.121  15.930 -0.4171 -0.3888  0.3682
  435MPD2    H5 6492   2.091   1.069  15.996 -0.3900 -0.4500  0.3436
  435MPD2    N1 6493   1.749   1.355  15.785 -0.0118 -0.5457  0.2115
  435MPD2    H7 6494   1.718   1.443  15.747  0.0244  0.3801  2.3212
  436TMC3    C1 6495   1.383   1.480  15.919  0.3753 -0.7574 -0.0906
  436TMC3    C2 6496   1.500   1.450  15.855 -0.1259 -0.1538 -0.5526
  436TMC3    C3 6497   1.524   1.322  15.822  0.5090 -0.0548 -0.4293
  436TMC3    C4 6498   1.291   1.382  15.940  0.9207  0.5026 -0.1082
  436TMC3    C5 6499   1.313   1.251  15.891  0.2303 -0.0108 -0.2029
  436TMC3    C6 6500   1.430   1.222  15.834  0.1474 -0.2818 -0.7609
  436TMC3     C 6501   1.376   1.600  15.997 -0.7964  0.0308  0.5857
  436TMC3     O 6502   1.466   1.681  15.970  0.9290 -0.0051  0.7346
  436TMC3     H 6503   1.577   1.526  15.857 -0.1875 -0.0759 -1.1245
  436TMC3    H1 6504   1.200   1.413  15.991 -0.3888 -2.8392 -0.3856
  436TMC3    H2 6505   1.444   1.116  15.815 -1.9060 -0.1375 -3.1336
  436TMC3    C7 6506   1.234   1.138  15.941 -0.5805  0.0719 -0.1763
  436TMC3    C8 6507   1.659   1.266  15.831 -0.2282  0.1061  0.0519
  436TMC3    O1 6508   1.294   1.034  15.960  0.2291 -0.0984  0.1086
  436TMC3    O2 6509   1.676   1.147  15.842  0.1625 -0.2498 -0.1459
  437TMC3    C1 6510   0.666   3.602  12.627  0.0009 -0.7706  0.0103
  437TMC3    C2 6511   0.601   3.631  12.739  0.2253  0.6638  0.0526
  437TMC3    C3 6512   0.634   3.746  12.805  0.3339 -0.0475  0.0702
  437TMC3    C4 6513   0.748   3.696  12.567 -0.5604 -0.0604  0.5993
  437TMC3    C5 6514   0.773   3.815  12.639  0.1790  0.2161 -0.8350
  437TMC3    C6 6515   0.727   3.841  12.762 -0.4805  0.2877  0.0381
  437TMC3     C 6516   0.714   3.468  12.625  0.1277  0.0948  0.1881
  437TMC3     O 6517   0.786   3.450  12.531  0.1303  0.6282  0.0273
  437TMC3     H 6518   0.523   3.566  12.777  0.6290  0.7764  1.0738
  437TMC3    H1 6519   0.798   3.680  12.472 -1.5045 -2.3291  0.5027
  437TMC3    H2 6520   0.757   3.931  12.814  0.9951 -0.1950  0.0312
  437TMC3    C7 6521   0.889   3.891  12.589 -0.3574 -0.4060  0.4244
  437TMC3    C8 6522   0.629   3.733  12.949  0.3505  0.6929 -0.1756
  437TMC3    O1 6523   0.889   4.014  12.595 -0.4770  0.0491  0.1974
  437TMC3    O2 6524   0.612   3.615  12.983  0.0951 -0.3408 -0.1554
  438MPD2     C 6525   2.986   3.526  16.956  0.1511  0.7744 -0.4299
  438MPD2    C1 6526   3.098   3.527  17.035 -0.1694 -0.1983 -0.4199
  438MPD2    C2 6527   3.089   3.595  17.158 -0.0316 -0.9405  0.0226
  438MPD2    C3 6528   2.981   3.668  17.193 -0.6822 -0.3477 -0.6411
  438MPD2    C4 6529   2.880   3.683  17.103 -0.4333 -0.2468 -1.1002
  438MPD2    C5 6530   2.880   3.600  16.991 -0.3041  0.2271  1.0969
  438MPD2     H 6531   3.182   3.588  17.214 -0.1909  1.8187  0.5956
  438MPD2    H1 6532   2.792   3.743  17.123  0.0432 -0.2783  1.1236
  438MPD2    H2 6533   2.987   3.467  16.865  1.1559  0.4969 -0.2344
  438MPD2    H3 6534   2.789   3.592  16.933 -0.3675  1.8991  0.9580
  438MPD2     N 6535   2.965   3.733  17.314  0.3914 -0.4694 -0.2908
  438MPD2    H5 6536   2.898   3.809  17.324  1.7985  0.5179  1.6589
  438MPD2    N1 6537   3.226   3.470  17.004 -0.2190  0.2152  0.3151
  438MPD2    H7 6538   3.282   3.461  17.088  1.2228  1.2876 -0.5377
  439TMC3    C1 6539   3.399   3.392  16.860 -0.7355 -0.2062 -0.4143
  439TMC3    C2 6540   3.410   3.288  16.775  0.1830  0.0019  0.1315
  439TMC3    C3 6541   3.512   3.203  16.786  0.3857 -0.2855 -0.5189
  439TMC3    C4 6542   3.496   3.416  16.956 -0.4089 -0.3538 -0.4334
  439TMC3    C5 6543   3.604   3.331  16.963  0.5710  0.0402 -0.0163
  439TMC3    C6 6544   3.611   3.225  16.878 -0.0768  0.5157 -0.3919
  439TMC3     C 6545   3.257   3.430  16.876  0.1999  0.3185  0.1992
  439TMC3     O 6546   3.182   3.423  16.778  0.2498 -0.0859 -0.4710
  439TMC3     H 6547   3.337   3.283  16.695  0.2951 -3.9295  0.2625
  439TMC3    H1 6548   3.497   3.505  17.017 -0.0310 -1.1188  0.6730
  439TMC3    H2 6549   3.688   3.152  16.897 -1.6280 -1.0035 -0.0182
  439TMC3    C7 6550   3.665   3.316  17.092  0.3162 -0.2655  0.1167
  439TMC3    C8 6551   3.539   3.095  16.696 -0.7211 -0.5282  0.1834
  439TMC3    O1 6552   3.713   3.419  17.142  0.3459 -0.3489  0.5067
  439TMC3    O2 6553   3.643   3.036  16.711  0.0259  0.6430  0.2157
  440MPD2     C 6554   1.942   4.141  14.718 -0.1544 -0.3780 -0.0519
  440MPD2    C1 6555   1.994   4.218  14.818 -0.3365 -0.3890 -0.4120
  440MPD2    C2 6556   2.104   4.177  14.883  0.1088  0.3403 -0.6707
  440MPD2    C3 6557   2.158   4.051  14.862 -0.1214  0.3352  0.1127
  440MPD2    C4 6558   2.105   3.967  14.769 -0.1685  0.3567 -0.3323
  440MPD2    C5 6559   1.992   4.014  14.693 -0.7658 -0.8929  0.3259
  440MPD2     H 6560   2.130   4.237  14.970  1.4916  0.4395 -1.1541
  440MPD2    H1 6561   2.146   3.869  14.748 -0.7920  0.0815 -0.2682
  440MPD2    H2 6562   1.853   4.168  14.663  1.3677  1.1314 -1.8057
  440MPD2    H3 6563   1.940   3.950  14.622 -1.0569  1.4358 -1.5914
  440MPD2     N 6564   2.269   4.003  14.945 -0.3127 -0.2908 -0.3761
  440MPD2    H5 6565   2.298   3.907  14.936  1.5514  0.4663 -2.4747
  440MPD2    N1 6566   1.948   4.343  14.863 -0.3952  0.4279  0.5045
  440MPD2    H7 6567   2.000   4.384  14.940 -0.9464 -0.0553  1.1298
  441TMC3    C1 6568   2.408   4.004  15.136 -0.2141 -0.5560  0.2747
  441TMC3    C2 6569   2.505   4.069  15.207 -0.4170  0.0559  0.0463
  441TMC3    C3 6570   2.531   4.030  15.335 -0.2870  0.0454 -0.1780
  441TMC3    C4 6571   2.338   3.904  15.188  0.0172 -0.1854  0.8608
  441TMC3    C5 6572   2.365   3.860  15.316 -0.2447 -0.1623  0.2419
  441TMC3    C6 6573   2.467   3.926  15.391 -0.0196 -0.4962 -0.3837
  441TMC3     C 6574   2.345   4.081  15.033  0.4820 -0.6897  0.2805
  441TMC3     O 6575   2.358   4.200  15.045  0.5991  0.4113  0.5704
  441TMC3     H 6576   2.567   4.141  15.155 -1.6279 -0.1261 -1.6692
  441TMC3    H1 6577   2.247   3.868  15.141 -0.1583  1.0995  0.2182
  441TMC3    H2 6578   2.479   3.898  15.495 -3.7548 -2.4281 -0.4523
  441TMC3    C7 6579   2.265   3.767  15.377  0.6692  0.4897 -0.4859
  441TMC3    C8 6580   2.560   4.139  15.420  0.0517 -0.3672 -0.7095
  441TMC3    O1 6581   2.154   3.779  15.332  0.6294 -0.1421 -0.3628
  441TMC3    O2 6582   2.606   4.110  15.528  0.0201  0.0907 -0.3791
  442MPD2     C 6583   4.594   0.401  16.584 -0.8112 -0.0119 -0.1460
  442MPD2    C1 6584   4.508   0.319  16.647  0.0215  0.0605 -0.1629
  442MPD2    C2 6585   4.535   0.182  16.659  0.2875  0.4682 -0.4334
  442MPD2    C3 6586   4.635   0.120  16.585 -0.5764  0.2459 -0.7270
  442MPD2    C4 6587   4.711   0.208  16.508  0.1879  0.2412 -0.4398
  442MPD2    C5 6588   4.694   0.344  16.516  0.5823 -0.4752 -0.0253
  442MPD2     H 6589   4.470   0.116  16.714 -0.2573  2.7029  1.6305
  442MPD2    H1 6590   0.073   0.171  16.448 -0.8405 -2.5470 -0.1339
  442MPD2    H2 6591   4.576   0.508  16.573 -0.1601  0.0344 -0.7782
  442MPD2    H3 6592   0.042   0.407  16.460  2.7565 -2.6681  0.2045
  442MPD2     N 6593   4.661   4.705  16.579  0.0038  0.1691  0.2515
  442MPD2    H5 6594   0.020   4.676  16.523  0.5195  1.5185  0.2913
  442MPD2    N1 6595   4.395   0.376  16.713  0.6154  1.1356  0.4679
  442MPD2    H7 6596   4.328   0.311  16.753  2.6337 -1.4391 -0.2814
  443TMC3    C1 6597   4.206   0.516  16.739  0.3663  0.6313 -0.2077
  443TMC3    C2 6598   4.108   0.527  16.643  0.5778 -0.0492  0.6924
  443TMC3    C3 6599   3.975   0.499  16.671  0.2843 -0.3268  0.0432
  443TMC3    C4 6600   4.169   0.471  16.863  0.1083 -0.2875  0.3390
  443TMC3    C5 6601   4.039   0.439  16.887  1.0120  0.2370 -0.7952
  443TMC3    C6 6602   3.942   0.441  16.791  0.5384 -0.1883  0.3178
  443TMC3     C 6603   4.343   0.503  16.686  0.1484 -0.0946 -0.0500
  443TMC3     O 6604   4.374   0.583  16.599 -0.2008 -0.0853 -0.3439
  443TMC3     H 6605   4.137   0.537  16.539 -0.3770 -1.3746  0.2850
  443TMC3    H1 6606   4.246   0.465  16.940 -0.5927 -1.3092  0.9456
  443TMC3    H2 6607   3.841   0.405  16.811 -0.6680  1.8227 -2.2403
  443TMC3    C7 6608   4.010   0.354  16.999 -1.0441  0.3788  0.6584
  443TMC3    C8 6609   3.899   0.450  16.555 -0.0026 -1.3031 -0.4002
  443TMC3    O1 6610   4.103   0.282  17.039 -0.3157  0.2027 -0.1631
  443TMC3    O2 6611   3.894   0.538  16.472  0.3503  0.1627 -0.0617
  444MPD2     C 6612   0.454   4.213  17.084 -0.0526  0.3815 -0.1021
  444MPD2    C1 6613   0.349   4.123  17.099  0.2343  0.1380  0.3302
  444MPD2    C2 6614   0.374   3.986  17.079  1.0432  0.5624  1.1487
  444MPD2    C3 6615   0.495   3.941  17.031  0.5738 -0.7466 -0.1999
  444MPD2    C4 6616   0.595   4.027  16.991  0.0480  0.2338  0.1698
  444MPD2    C5 6617   0.567   4.165  17.026 -0.5350  0.1727  0.1127
  444MPD2     H 6618   0.298   3.912  17.101  1.0800  0.4676  0.9504
  444MPD2    H1 6619   0.685   3.995  16.940 -0.7101 -0.8979 -0.4562
  444MPD2    H2 6620   0.439   4.320  17.091  0.7123  0.4984 -0.2133
  444MPD2    H3 6621   0.641   4.243  17.008  0.4636 -0.5819  0.9062
  444MPD2     N 6622   0.519   3.803  17.001  0.0955 -0.1837  0.6442
  444MPD2    H5 6623   0.440   3.742  17.019 -0.9761  0.6410 -1.2020
  444MPD2    N1 6624   0.221   4.155  17.131 -0.0933 -0.3013 -0.1841
  444MPD2    H7 6625   0.149   4.084  17.123  0.8224 -1.4492  1.6949
  445TMC3    C1 6626   0.624   3.606  16.911  0.2931  0.6981 -0.8476
  445TMC3    C2 6627   0.521   3.590  16.827  0.3798  0.3663  0.1741
  445TMC3    C3 6628   0.539   3.510  16.718  0.4474 -0.5665  0.3027
  445TMC3    C4 6629   0.743   3.538  16.886  0.2914  0.2317 -0.1653
  445TMC3    C5 6630   0.756   3.453  16.786 -0.7125  0.3463 -0.0464
  445TMC3    C6 6631   0.656   3.438  16.696  0.7613  0.4342 -0.0068
  445TMC3     C 6632   0.640   3.745  16.960 -0.9154  0.3274 -0.8937
  445TMC3     O 6633   0.752   3.794  16.955  0.7487  0.3890  0.1382
  445TMC3     H 6634   0.435   3.655  16.838 -1.3176 -2.0345  0.9502
  445TMC3    H1 6635   0.824   3.557  16.956  1.5268  0.1668 -1.5705
  445TMC3    H2 6636   0.659   3.368  16.613 -0.2567 -0.1343  0.4368
  445TMC3    C7 6637   0.881   3.397  16.738  0.1582 -0.1928 -0.5065
  445TMC3    C8 6638   0.418   3.491  16.641  0.3073 -0.1259 -0.0183
  445TMC3    O1 6639   0.880   3.311  16.651 -0.0920  0.3295 -0.2068
  445TMC3    O2 6640   0.324   3.569  16.651 -0.0800  0.4079  0.9954
  446MPD2     C 6641   4.545   0.969  11.790 -0.6440  0.1203 -0.1692
  446MPD2    C1 6642   4.541   0.935  11.652 -0.2991  0.4998 -0.5449
  446MPD2    C2 6643   4.645   0.980  11.569  0.2962 -0.3663  0.4018
  446MPD2    C3 6644   0.024   1.062  11.616  0.0382 -0.2639 -0.2331
  446MPD2    C4 6645   0.020   1.108  11.747  0.0279 -0.4205 -0.8536
  446MPD2    C5 6646   4.638   1.062  11.827 -0.3266  0.0121  0.3226
  446MPD2     H 6647   4.651   0.941  11.468  2.2326 -0.8963  0.7073
  446MPD2    H1 6648   0.090   1.183  11.783 -0.4062  0.6219 -2.1849
  446MPD2    H2 6649   4.477   0.930  11.864  0.4733  1.0224  1.3207
  446MPD2    H3 6650   4.627   1.101  11.928 -0.0935  0.9049  0.0010
  446MPD2     N 6651   0.141   1.072  11.537 -0.5786  0.2015 -0.4359
  446MPD2    H5 6652   0.140   1.031  11.444  3.7673  2.4798 -1.4955
  446MPD2    N1 6653   4.451   0.845  11.602 -0.1272  0.0880 -0.2191
  446MPD2    H7 6654   4.452   0.825  11.502  2.9827 -0.5904 -0.0412
  447TMC3    C1 6655   0.371   1.105  11.483 -0.6879  0.2215 -0.4758
  447TMC3    C2 6656   0.343   1.113  11.354 -0.5505  0.0260 -0.1311
  447TMC3    C3 6657   0.446   1.135  11.268 -0.1463  0.2592 -0.7650
  447TMC3    C4 6658   0.497   1.119  11.532  0.9476 -0.5388  0.3008
  447TMC3    C5 6659   0.597   1.150  11.445 -0.9952  0.0556  0.7212
  447TMC3    C6 6660   0.575   1.159  11.308 -0.9985 -0.5633 -0.3261
  447TMC3     C 6661   0.264   1.109  11.583  0.0881 -0.4994 -0.1456
  447TMC3     O 6662   0.303   1.131  11.697  0.3296  0.1556  0.7433
  447TMC3     H 6663   0.238   1.112  11.327 -0.8424 -0.0612  1.0032
  447TMC3    H1 6664   0.524   1.087  11.632  0.1473 -0.6064  0.4990
  447TMC3    H2 6665   0.661   1.173  11.245  0.1476  0.6652  1.5187
  447TMC3    C7 6666   0.735   1.138  11.490 -0.2263  0.6958  0.3595
  447TMC3    C8 6667   0.416   1.146  11.125  0.6254  0.5824 -0.2168
  447TMC3    O1 6668   0.819   1.121  11.403  0.7488  0.0749 -0.1339
  447TMC3    O2 6669   0.302   1.129  11.084 -0.5380 -0.3865 -0.1279
  448TMC3    C1 6670   2.857   0.328  16.928  0.5507  0.8760  0.2494
  448TMC3    C2 6671   2.881   0.193  16.918  0.2780  0.2072 -0.6785
  448TMC3    C3 6672   2.982   0.137  16.993 -0.3625  0.6353  0.4604
  448TMC3    C4 6673   2.924   0.409  17.018 -0.0099  0.0593  0.6487
  448TMC3    C5 6674   3.025   0.353  17.083 -0.2046  0.2213  0.0338
  448TMC3    C6 6675   3.051   0.218  17.079  0.1844 -0.2732  0.3905
  448TMC3     C 6676   2.736   0.383  16.870  0.8813 -0.8769  0.2149
  448TMC3     O 6677   2.652   0.300  16.832 -0.2813  0.1134 -0.0646
  448TMC3     H 6678   2.818   0.137  16.850 -0.4553 -0.2925  0.4027
  448TMC3    H1 6679   2.894   0.511  17.037 -2.3008 -0.5795  0.4851
  448TMC3    H2 6680   3.139   0.177  17.127  0.1564 -0.2688  0.4454
  448TMC3    C7 6681   3.062   0.404  17.213  0.4771  0.5522 -0.5831
  448TMC3    C8 6682   3.047   0.010  16.958 -0.4944 -0.0272 -0.1935
  448TMC3    O1 6683   3.168   0.376  17.266 -0.3914 -0.1245 -0.0075
  448TMC3    O2 6684   3.135   4.682  17.033  0.1363 -0.2582  0.4155
  449MPD2     C 6685   4.638   3.727  14.079 -0.2349 -0.2781  0.1765
  449MPD2    C1 6686   4.543   3.658  14.004  0.2258  0.0685 -0.5044
  449MPD2    C2 6687   4.414   3.645  14.053  0.3274  0.1808 -0.9549
  449MPD2    C3 6688   4.364   3.722  14.152 -0.1082  0.5042  0.1562
  449MPD2    C4 6689   4.454   3.781  14.227  0.0502 -0.0983 -0.3219
  449MPD2    C5 6690   4.588   3.791  14.194 -0.5073 -0.0164  0.4038
  449MPD2     H 6691   4.335   3.587  14.006  0.9690 -2.4378  1.2126
  449MPD2    H1 6692   4.431   3.831  14.321 -1.1395 -1.1603 -0.0436
  449MPD2    H2 6693   0.018   3.736  14.039  0.2854  0.8678  1.7456
  449MPD2    H3 6694   4.651   3.844  14.264  0.3148 -0.4857  0.0263
  449MPD2     N 6695   4.225   3.713  14.168 -0.0712 -0.0087 -0.0388
  449MPD2    H5 6696   4.180   3.662  14.092 -0.7390  0.6841 -0.1124
  449MPD2    N1 6697   4.568   3.581  13.888 -0.1706  0.0728  0.4258
  449MPD2    H7 6698   4.497   3.518  13.852  1.3640 -1.3723 -0.0551
  450TMC3    C1 6699   4.661   3.492  13.696  0.3528  0.2474  0.1500
  450TMC3    C2 6700   0.021   3.390  13.675 -0.4726 -0.1114  0.6236
  450TMC3    C3 6701   4.693   3.272  13.613 -0.2598  0.1238 -0.5296
  450TMC3    C4 6702   4.535   3.491  13.645  1.0125 -0.2151  0.5572
  450TMC3    C5 6703   4.486   3.374  13.599  0.4142  0.3952  0.1046
  450TMC3    C6 6704   4.560   3.257  13.590 -0.0996 -0.4694  0.2848
  450TMC3     C 6705   4.688   3.567  13.819 -0.1703  0.3838  0.0121
  450TMC3     O 6706   0.079   3.619  13.839 -0.4093 -0.0794  0.2499
  450TMC3     H 6707   0.117   3.383  13.725 -0.3063  0.0608  0.3317
  450TMC3    H1 6708   4.470   3.578  13.651  0.7099 -0.3978 -0.0840
  450TMC3    H2 6709   4.506   3.165  13.576  0.5579 -0.4229 -2.4293
  450TMC3    C7 6710   4.364   3.357  13.674 -0.4214 -0.6169 -0.1853
  450TMC3    C8 6711   0.062   3.173  13.568 -0.0902 -0.1151 -0.5311
  450TMC3    O1 6712   4.351   3.417  13.779 -0.0121 -0.1884  0.0309
  450TMC3    O2 6713   0.013   3.063  13.554 -0.9944  0.3239  0.3065
  451MPD2     C 6714   0.776   3.040   1.359 -0.4363  0.9229 -0.2708
  451MPD2    C1 6715   0.705   3.030   1.476 -0.4840 -0.2483  0.3960
  451MPD2    C2 6716   0.762   2.972   1.589  0.5699  0.0434 -0.1993
  451MPD2    C3 6717   0.879   2.901   1.593 -0.0982 -0.5461  0.0722
  451MPD2    C4 6718   0.947   2.900   1.474 -0.4514 -0.3736  0.4872
  451MPD2    C5 6719   0.900   2.983   1.377  0.8205 -0.1838 -0.3796
  451MPD2     H 6720   0.716   3.003   1.682 -2.4824  0.3355 -1.7758
  451MPD2    H1 6721   1.031   2.833   1.455 -0.2918  0.6140 -2.2314
  451MPD2    H2 6722   0.746   3.106   1.278 -1.0130  1.2348  0.1964
  451MPD2    H3 6723   0.972   2.984   1.295  0.8688  2.7416 -0.2989
  451MPD2     N 6724   0.935   2.844   1.705  0.0607  0.2411 -0.3759
  451MPD2    H5 6725   1.014   2.782   1.686 -0.4711 -0.8714  1.1007
  451MPD2    N1 6726   0.579   3.094   1.480  0.4554  0.2229  0.3650
  451MPD2    H7 6727   0.538   3.128   1.394 -1.1408 -0.6338  0.7764
  452TMC3    C1 6728   0.929   2.760   1.918 -0.2037  0.1517  0.1633
  452TMC3    C2 6729   0.871   2.778   2.043  0.3589 -0.2643 -0.1976
  452TMC3    C3 6730   0.792   2.684   2.098 -0.1365  0.0553  0.4044
  452TMC3    C4 6731   0.922   2.636   1.857  0.0540 -0.2347  0.1175
  452TMC3    C5 6732   0.848   2.539   1.916 -0.3080  0.1822  0.1019
  452TMC3    C6 6733   0.773   2.566   2.026  0.2273  0.3587 -0.1055
  452TMC3     C 6734   0.907   2.875   1.833  0.2782  0.1503  0.6153
  452TMC3     O 6735   0.832   2.961   1.881 -0.2817  0.1011 -1.1501
  452TMC3     H 6736   0.876   2.878   2.084 -1.2285 -0.1325 -0.3221
  452TMC3    H1 6737   0.972   2.614   1.763  1.2049  1.1774  0.4042
  452TMC3    H2 6738   0.726   2.481   2.074  0.9936 -0.3268 -0.5808
  452TMC3    C7 6739   0.786   2.444   1.819 -0.9191  0.1762  0.6338
  452TMC3    C8 6740   0.694   2.708   2.203 -0.1927  0.8519  0.0515
  452TMC3    O1 6741   0.862   2.376   1.756 -0.4224  0.0038  0.2836
  452TMC3    O2 6742   0.622   2.611   2.230 -0.1300 -0.7791  0.0820
  453TMC3    C1 6743   2.988   4.421  11.847  0.2031 -0.7490 -0.2995
  453TMC3    C2 6744   2.905   4.315  11.872  0.0037 -0.0409  0.7711
  453TMC3    C3 6745   2.880   4.221  11.778  0.3638  0.2576 -0.6228
  453TMC3    C4 6746   3.050   4.428  11.723  0.5379 -0.1756 -0.1478
  453TMC3    C5 6747   3.031   4.324  11.640 -0.5904 -0.2234  1.0671
  453TMC3    C6 6748   2.942   4.222  11.658 -0.4474  0.5654 -0.5480
  453TMC3     C 6749   2.985   4.540  11.928 -0.0086 -0.2303  0.3024
  453TMC3     O 6750   3.063   4.630  11.891  0.4823 -0.4241 -0.1796
  453TMC3     H 6751   2.878   4.299  11.976 -2.1427  0.5063  0.2936
  453TMC3    H1 6752   3.120   4.507  11.702  1.4122 -0.6720  0.8866
  453TMC3    H2 6753   2.929   4.142  11.585  2.3125 -0.9077  0.5481
  453TMC3    C7 6754   3.118   4.319  11.522 -0.1690 -0.6165  0.2575
  453TMC3    C8 6755   2.824   4.093  11.817  0.4034  0.3194 -0.0391
  453TMC3    O1 6756   3.164   4.421  11.484  0.3466  0.0524 -0.3107
  453TMC3    O2 6757   2.842   3.998  11.745 -0.0217 -0.0252 -0.4869
  454MPD2     C 6758   1.177   3.776  16.463 -0.5273 -1.1929 -0.0944
  454MPD2    C1 6759   1.107   3.896  16.436 -0.1030 -0.1995 -0.2030
  454MPD2    C2 6760   1.104   3.985  16.532 -0.5665 -0.2501  0.2569
  454MPD2    C3 6761   1.133   3.947  16.663 -0.6824 -1.0884  0.9958
  454MPD2    C4 6762   1.191   3.827  16.693  0.3730 -0.1962 -0.1222
  454MPD2    C5 6763   1.215   3.742  16.592 -0.8531 -0.6913 -0.5874
  454MPD2     H 6764   1.060   4.082  16.512 -0.0951 -0.0168  0.3660
  454MPD2    H1 6765   1.208   3.806  16.798  2.6104 -1.7805 -0.8068
  454MPD2    H2 6766   1.192   3.696  16.391 -0.4216 -0.0374 -1.3665
  454MPD2    H3 6767   1.250   3.639  16.601  0.1331 -0.0642  2.4941
  454MPD2     N 6768   1.133   4.042  16.767  0.1155  0.3285  0.2708
  454MPD2    H5 6769   1.193   4.021  16.846 -0.5825  1.2998  1.0569
  454MPD2    N1 6770   1.055   3.939  16.317  0.7569  0.6811 -0.3913
  454MPD2    H7 6771   1.024   4.035  16.305 -0.7384 -0.0638 -2.3674
  455TMC3    C1 6772   0.929   4.163  16.715  0.0983  0.5590 -0.3121
  455TMC3    C2 6773   0.875   4.284  16.693 -0.2087  0.1411  0.0028
  455TMC3    C3 6774   0.746   4.291  16.666  1.1450 -0.5089  0.3700
  455TMC3    C4 6775   0.858   4.051  16.694 -0.9074  0.1134  0.3136
  455TMC3    C5 6776   0.731   4.062  16.650 -0.3219 -0.1853  0.6570
  455TMC3    C6 6777   0.668   4.183  16.647 -0.0299 -0.1070 -0.3182
  455TMC3     C 6778   1.064   4.159  16.776 -0.8753 -0.1994 -0.2112
  455TMC3     O 6779   1.085   4.261  16.844 -0.2268  0.2420  0.1280
  455TMC3     H 6780   0.935   4.370  16.722 -1.9049  0.2838  3.0765
  455TMC3    H1 6781   0.888   3.951  16.724  0.4414  0.1319 -0.9853
  455TMC3    H2 6782   0.561   4.182  16.628  0.1042  2.5729 -1.2209
  455TMC3    C7 6783   0.681   3.950  16.572 -0.0074 -0.0391  0.1029
  455TMC3    C8 6784   0.686   4.384  16.760 -0.0558  0.4670  0.2487
  455TMC3    O1 6785   0.576   3.967  16.508  0.1915  0.0810  0.4327
  455TMC3    O2 6786   0.760   4.436  16.842  0.2761  0.2927  0.2643
  456MPD2     C 6787   3.668   3.450  16.571  0.0254 -0.6811 -0.7161
  456MPD2    C1 6788   3.750   3.464  16.676  0.0120  0.1361 -0.6051
  456MPD2    C2 6789   3.725   3.570  16.772  0.2157  0.0567 -0.0463
  456MPD2    C3 6790   3.608   3.653  16.755 -0.1164  0.7196  0.2589
  456MPD2    C4 6791   3.535   3.631  16.636 -0.9175 -0.3840  0.0334
  456MPD2    C5 6792   3.561   3.530  16.548 -0.3218  0.8425 -0.2741
  456MPD2     H 6793   3.791   3.589  16.855  0.4672 -3.3388  0.5534
  456MPD2    H1 6794   3.446   3.686  16.609 -0.4125  0.5915  0.3448
  456MPD2    H2 6795   3.690   3.379  16.491  0.7326 -2.0302  0.6594
  456MPD2    H3 6796   3.502   3.519  16.458  1.0785  3.3563 -1.5019
  456MPD2     N 6797   3.575   3.748  16.847 -0.4171 -0.0889  0.4866
  456MPD2    H5 6798   3.650   3.762  16.914  0.5513 -2.5352 -0.0594
  456MPD2    N1 6799   3.866   3.394  16.668  0.6651  0.1483 -0.4987
  456MPD2    H7 6800   3.876   3.326  16.594  2.4504 -0.5842  0.4302
  457TMC3    C1 6801   3.477   3.949  16.933  0.3018  0.0072  0.5175
  457TMC3    C2 6802   3.368   4.034  16.936  0.6151  0.0071  0.3166
  457TMC3    C3 6803   3.385   4.149  17.005 -0.3835 -0.0757 -0.6696
  457TMC3    C4 6804   3.592   3.975  17.009 -0.1524  0.5620 -0.1974
  457TMC3    C5 6805   3.586   4.080  17.092 -0.4847 -0.3846 -0.5006
  457TMC3    C6 6806   3.485   4.166  17.092 -0.0625 -0.1567 -0.6622
  457TMC3     C 6807   3.464   3.828  16.850  0.2665 -1.0712  0.0155
  457TMC3     O 6808   3.363   3.826  16.773  0.3727  0.0003 -0.1662
  457TMC3     H 6809   3.280   4.010  16.878  0.5418  1.6433 -0.2325
  457TMC3    H1 6810   3.681   3.914  17.013 -1.4317 -1.2394  1.0482
  457TMC3    H2 6811   3.481   4.256  17.151  0.3716 -0.6855  0.1647
  457TMC3    C7 6812   3.673   4.078  17.201  0.8043  0.2012 -0.1067
  457TMC3    C8 6813   3.302   4.262  16.972 -0.0617 -0.0983  0.0832
  457TMC3    O1 6814   3.753   3.985  17.206 -0.4666 -0.4885 -0.6511
  457TMC3    O2 6815   3.314   4.355  17.051 -0.7149  0.8452 -0.5955
  458MPD2     C 6816   1.314   3.883  12.307  0.5210 -0.1971 -0.6992
  458MPD2    C1 6817   1.298   3.760  12.358  0.5859  0.8805  0.0009
  458MPD2    C2 6818   1.180   3.732  12.423  0.3644  0.3862 -0.6400
  458MPD2    C3 6819   1.090   3.838  12.454  0.2949  0.2606  0.5160
  458MPD2    C4 6820   1.121   3.966  12.413 -0.6853 -0.1483 -0.4647
  458MPD2    C5 6821   1.228   3.985  12.337 -0.1240  0.2221  0.2631
  458MPD2     H 6822   1.156   3.634  12.463  0.8168  0.3943 -0.3574
  458MPD2    H1 6823   1.077   4.059  12.448 -0.6541 -0.3085 -0.0007
  458MPD2    H2 6824   1.401   3.894  12.242  0.4735  2.0090 -0.3936
  458MPD2    H3 6825   1.255   4.085  12.306  0.1083  0.4760  1.2644
  458MPD2     N 6826   0.987   3.803  12.538  0.0506  0.3174  0.0865
  458MPD2    H5 6827   0.987   3.703  12.558  0.1078  0.1514 -0.7294
  458MPD2    N1 6828   1.402   3.666  12.339  0.2936  0.2503  0.1805
  458MPD2    H7 6829   1.493   3.699  12.308  0.1161  0.2191 -0.3664
  459TMC3    C1 6830   1.509   3.487  12.436  0.1355 -0.2254  0.8630
  459TMC3    C2 6831   1.628   3.556  12.411 -0.4541 -0.9087 -0.3807
  459TMC3    C3 6832   1.717   3.565  12.515  0.2387 -0.3958  0.3401
  459TMC3    C4 6833   1.480   3.424  12.558 -0.1599  0.1504  0.1119
  459TMC3    C5 6834   1.566   3.456  12.658  0.0928 -0.4418 -0.0234
  459TMC3    C6 6835   1.683   3.525  12.647 -0.1495 -0.7744 -0.6191
  459TMC3     C 6836   1.392   3.533  12.366 -0.9967  0.3202 -0.2905
  459TMC3     O 6837   1.296   3.463  12.379  0.1173  0.0014 -0.0099
  459TMC3     H 6838   1.640   3.616  12.321 -3.5953 -0.1187 -0.2776
  459TMC3    H1 6839   1.391   3.368  12.584 -0.3900  0.2833 -0.3756
  459TMC3    H2 6840   1.755   3.539  12.727 -0.0178  1.6018 -1.1578
  459TMC3    C7 6841   1.508   3.430  12.792 -0.2703  0.8196 -1.1178
  459TMC3    C8 6842   1.857   3.548  12.482 -0.0790 -0.4483 -0.2010
  459TMC3    O1 6843   1.430   3.334  12.806 -0.2901  0.5298 -1.0949
  459TMC3    O2 6844   1.935   3.599  12.565  0.4437 -0.3987 -0.3418
  460MPD2     C 6845   0.634   1.064  10.838  0.2212 -0.0860  0.3283
  460MPD2    C1 6846   0.524   1.124  10.900  0.2832  0.1865  0.3881
  460MPD2    C2 6847   0.419   1.176  10.826  0.5155 -0.0581  0.1649
  460MPD2    C3 6848   0.431   1.170  10.687 -0.4813 -0.6591  0.2352
  460MPD2    C4 6849   0.532   1.101  10.630  0.4946 -0.1004  0.2334
  460MPD2    C5 6850   0.632   1.042  10.705 -0.1566  0.4904 -0.0595
  460MPD2     H 6851   0.332   1.229  10.864 -1.5116 -2.4885 -1.0562
  460MPD2    H1 6852   0.550   1.089  10.524  0.3387 -0.0939  0.2063
  460MPD2    H2 6853   0.716   1.026  10.898  1.0004  1.3813  0.1931
  460MPD2    H3 6854   0.715   0.984  10.666  0.4499  0.5043  1.1903
  460MPD2     N 6855   0.337   1.250  10.612 -0.4494  0.8773 -1.6728
  460MPD2    H5 6856   0.261   1.295  10.663  0.4926 -0.5841  0.9853
  460MPD2    N1 6857   0.531   1.141  11.043 -0.9234  0.3127 -0.3953
  460MPD2    H7 6858   0.624   1.124  11.080 -0.4698  0.8364 -1.3034
  461TMC3    C1 6859   0.218   1.309  10.422  0.1402  0.0178 -0.2408
  461TMC3    C2 6860   0.172   1.225  10.328 -0.2598  0.0059 -0.2868
  461TMC3    C3 6861   0.117   1.287  10.216  0.8391  0.1019  0.4393
  461TMC3    C4 6862   0.207   1.445  10.423  0.7150 -0.2256  0.4318
  461TMC3    C5 6863   0.134   1.500  10.322  0.1392  0.4686  0.1651
  461TMC3    C6 6864   0.092   1.424  10.213  0.0996 -0.4909  0.3676
  461TMC3     C 6865   0.341   1.258  10.474  0.1423 -0.6314 -0.5408
  461TMC3     O 6866   0.413   1.199  10.396 -0.0115 -0.2108 -0.1767
  461TMC3     H 6867   0.192   1.119  10.321 -2.1151 -0.3327 -0.3382
  461TMC3    H1 6868   0.234   1.493  10.516 -0.4518  1.1149  0.0793
  461TMC3    H2 6869   0.044   1.475  10.130  1.3726 -0.5001 -0.3704
  461TMC3    C7 6870   0.072   1.633  10.333  0.3108  0.4701  0.2269
  461TMC3    C8 6871   0.095   1.203  10.092 -0.1920 -0.1977 -0.6674
  461TMC3    O1 6872   0.056   1.697  10.228  0.6657 -0.0565  0.2377
  461TMC3    O2 6873   0.111   1.084  10.107 -0.3987  0.1385  0.5315
  462TMC3    C1 6874   0.238   1.877   0.720  0.5660  0.3064  0.1830
  462TMC3    C2 6875   0.354   1.808   0.699 -0.0131  0.1270 -0.1411
  462TMC3    C3 6876   0.361   1.738   0.579  0.8586  1.0803 -0.3384
  462TMC3    C4 6877   0.132   1.877   0.632 -0.2315  0.6010  0.5688
  462TMC3    C5 6878   0.143   1.787   0.527 -0.0515 -0.0613 -0.6068
  462TMC3    C6 6879   0.260   1.724   0.493 -0.3122  0.8954 -0.8740
  462TMC3     C 6880   0.219   1.972   0.829  0.4303 -0.0307  0.5808
  462TMC3     O 6881   0.111   2.000   0.876  0.1765  0.2683 -0.4112
  462TMC3     H 6882   0.446   1.825   0.754 -0.4342 -1.5372  1.1107
  462TMC3    H1 6883   0.037   1.909   0.673  0.3966  2.2807  0.6986
  462TMC3    H2 6884   0.274   1.656   0.410  1.9068 -0.4609  0.6026
  462TMC3    C7 6885   0.028   1.768   0.447 -0.1086  0.3525 -0.6571
  462TMC3    C8 6886   0.476   1.652   0.576  0.0248  0.3040 -0.6031
  462TMC3    O1 6887   0.032   1.673   0.366  0.1978  0.5446  0.3341
  462TMC3    O2 6888   0.520   1.610   0.680  0.3011  1.0485  0.1328
  463MPD2     C 6889   4.517   1.937   1.891  0.0114  0.0100  0.2890
  463MPD2    C1 6890   4.627   1.861   1.883 -0.2016  0.3834  0.1355
  463MPD2    C2 6891   0.012   1.886   1.969 -0.2301 -0.1634 -0.5188
  463MPD2    C3 6892   0.007   2.003   2.042 -0.7201 -0.3559  0.2023
  463MPD2    C4 6893   4.626   2.087   2.034 -0.2291  0.0488  0.0047
  463MPD2    C5 6894   4.519   2.061   1.949 -0.5454  0.4153  0.6639
  463MPD2     H 6895   0.095   1.816   1.966  0.4239  0.6073 -0.2094
  463MPD2    H1 6896   4.619   2.176   2.095  0.4789  0.3784 -0.3898
  463MPD2    H2 6897   4.423   1.923   1.838 -0.4672  0.5589  0.9941
  463MPD2    H3 6898   4.424   2.113   1.948 -0.5446  0.4211  0.8666
  463MPD2     N 6899   0.119   2.040   2.125 -0.2200  0.2206 -0.4366
  463MPD2    H5 6900   0.100   2.117   2.188 -2.7995 -0.0081 -0.9248
  463MPD2    N1 6901   4.624   1.732   1.827  0.8156  0.3881 -0.2444
  463MPD2    H7 6902   4.716   1.689   1.836 -1.0538 -2.7785  3.5292
  464TMC3    C1 6903   4.555   1.532   1.725 -0.0382  0.9958  0.1809
  464TMC3    C2 6904   4.650   1.461   1.799 -0.6235  0.6253 -0.2217
  464TMC3    C3 6905   4.718   1.360   1.732 -0.3021  0.5948  0.0887
  464TMC3    C4 6906   4.509   1.491   1.603  0.2351  0.0565  0.3492
  464TMC3    C5 6907   4.583   1.386   1.542 -0.1175 -0.0190  0.7538
  464TMC3    C6 6908   4.677   1.320   1.611  0.2915 -0.1190 -0.1200
  464TMC3     C 6909   4.519   1.668   1.766  0.8353 -0.8046  0.4971
  464TMC3     O 6910   4.418   1.715   1.720  0.6057  0.2520  0.2241
  464TMC3     H 6911   4.677   1.496   1.898 -3.6819  1.6753  0.2119
  464TMC3    H1 6912   4.428   1.547   1.557 -0.2375  0.0567  1.1779
  464TMC3    H2 6913   0.014   1.239   1.569 -1.5387 -0.2585 -2.3675
  464TMC3    C7 6914   4.542   1.354   1.410 -0.2203 -0.3797  0.1951
  464TMC3    C8 6915   0.132   1.327   1.769 -0.4013 -0.0517 -0.1648
  464TMC3    O1 6916   4.464   1.436   1.362 -0.3056 -0.3417  0.9083
  464TMC3    O2 6917   0.198   1.270   1.679  0.4310 -0.1262  0.0701
  465MPD2     C 6918   2.627   4.094  16.414  0.5672  0.0227 -0.1518
  465MPD2    C1 6919   2.558   4.162  16.516 -0.4407 -0.2793 -0.2345
  465MPD2    C2 6920   2.420   4.176  16.500 -0.2638  0.3639 -0.0583
  465MPD2    C3 6921   2.356   4.126  16.388 -0.0789 -0.7797  0.2403
  465MPD2    C4 6922   2.427   4.077  16.287  0.7909 -0.2853  0.1746
  465MPD2    C5 6923   2.566   4.057  16.300 -0.2734 -0.4815  0.1840
  465MPD2     H 6924   2.367   4.218  16.584 -2.4652  0.1946 -1.3735
  465MPD2    H1 6925   2.382   4.032  16.200 -0.1323  0.0534  0.4790
  465MPD2    H2 6926   2.728   4.053  16.417  2.0999  3.7458 -0.9507
  465MPD2    H3 6927   2.615   3.999  16.223  0.2234 -2.5403  2.0861
  465MPD2     N 6928   2.219   4.149  16.363 -0.4191  0.0065  0.4479
  465MPD2    H5 6929   2.164   4.197  16.434  1.3709  2.1066  0.4059
  465MPD2    N1 6930   2.617   4.207  16.633 -0.5156 -0.1007 -0.2444
  465MPD2    H7 6931   2.564   4.263  16.698  1.2019 -0.9781  1.8856
  466TMC3    C1 6932   1.836   4.129  16.418 -0.0731  0.3963 -0.1242
  466TMC3    C2 6933   1.780   4.244  16.371 -0.6330 -0.4482  0.1213
  466TMC3    C3 6934   1.843   4.312  16.273  0.1533  0.3511  0.1024
  466TMC3    C4 6935   1.953   4.077  16.374  0.2600 -0.2647  0.5563
  466TMC3    C5 6936   2.010   4.147  16.275  0.2181 -0.6093 -0.6506
  466TMC3    C6 6937   1.952   4.254  16.216 -0.3766  0.6093  0.4308
  466TMC3     C 6938   1.757   4.070  16.530  0.3505  0.2054  0.0099
  466TMC3     O 6939   1.685   4.148  16.588  0.8344 -0.1351 -0.1131
  466TMC3     H 6940   1.681   4.278  16.401 -0.7106 -0.2935 -0.3143
  466TMC3    H1 6941   1.990   3.977  16.393 -1.2075 -1.2928 -1.9510
  466TMC3    H2 6942   2.008   4.308  16.140 -1.7541  0.3457 -0.7656
  466TMC3    C7 6943   2.150   4.125  16.249  0.2084  0.3504 -1.0126
  466TMC3    C8 6944   1.853   4.458  16.275 -0.0089  0.0253  0.2022
  466TMC3    O1 6945   2.181   4.111  16.133 -0.5779 -0.7637 -0.2841
  466TMC3    O2 6946   1.915   4.513  16.183  0.6331  0.4029  0.1228
  467TMC3    C1 6947   3.027   2.873  13.856  0.8149 -0.2248  0.3283
  467TMC3    C2 6948   2.951   2.894  13.745  0.1172 -0.0802 -0.2318
  467TMC3    C3 6949   2.816   2.859  13.754  0.3178 -0.2851  0.8237
  467TMC3    C4 6950   2.973   2.815  13.965 -0.8206  0.6154  0.8225
  467TMC3    C5 6951   2.840   2.785  13.968 -0.2432  0.9095 -0.3705
  467TMC3    C6 6952   2.757   2.802  13.862  0.1288  0.0517 -0.3574
  467TMC3     C 6953   3.163   2.927  13.862  0.2392  0.1426 -0.2790
  467TMC3     O 6954   3.210   2.959  13.968 -0.2616 -0.6037 -0.5207
  467TMC3     H 6955   2.996   2.936  13.656  0.7674 -0.9584 -0.3168
  467TMC3    H1 6956   3.035   2.803  14.053  0.9659  1.4481 -0.3351
  467TMC3    H2 6957   2.654   2.772  13.870  0.3676 -0.7497 -0.2803
  467TMC3    C7 6958   2.806   2.691  14.068 -0.2613  0.2115 -0.3645
  467TMC3    C8 6959   2.721   2.917  13.662  0.6371  0.2858  0.3083
  467TMC3    O1 6960   2.898   2.620  14.110  0.0044  0.2382  0.2735
  467TMC3    O2 6961   2.601   2.897  13.682 -0.1737  0.6778  0.0528
  468MPD2     C 6962   2.257   1.024  10.731 -0.1784  0.2165 -0.3324
  468MPD2    C1 6963   2.380   0.972  10.761  0.3142  0.0751 -0.5579
  468MPD2    C2 6964   2.401   0.839  10.743  0.0740  0.3595 -0.2165
  468MPD2    C3 6965   2.296   0.757  10.698  0.1432 -0.0148  0.5728
  468MPD2    C4 6966   2.166   0.814  10.681 -0.0833  0.2703 -0.1647
  468MPD2    C5 6967   2.154   0.946  10.687  0.0424  0.4068 -1.0484
  468MPD2     H 6968   2.492   0.798  10.785 -0.7718  0.1117  1.3812
  468MPD2    H1 6969   2.079   0.757  10.651 -0.9825  1.7675 -0.3642
  468MPD2    H2 6970   2.232   1.129  10.743 -1.6551 -0.1449 -0.1370
  468MPD2    H3 6971   2.056   0.990  10.669 -0.0212  0.7548  0.1180
  468MPD2     N 6972   2.308   0.617  10.691 -0.4063  0.3226 -0.9476
  468MPD2    H5 6973   2.218   0.576  10.674  0.0360 -1.1679  0.3658
  468MPD2    N1 6974   2.495   1.047  10.814 -0.1779  0.8838 -0.4224
  468MPD2    H7 6975   2.584   0.999  10.822 -1.8516 -2.1583 -0.3007
  469TMC3    C1 6976   2.625   1.227  10.904 -0.1438  0.4264  0.2519
  469TMC3    C2 6977   2.709   1.143  10.964 -0.2904  0.3768 -0.2086
  469TMC3    C3 6978   2.829   1.188  11.015 -0.1317  0.6335  0.8940
  469TMC3    C4 6979   2.656   1.363  10.888  0.0423 -0.0463  0.6771
  469TMC3    C5 6980   2.778   1.408  10.939  0.1736 -0.7362 -0.1070
  469TMC3    C6 6981   2.860   1.321  11.003 -0.2034  0.8428 -0.4127
  469TMC3     C 6982   2.501   1.181  10.843  0.3139 -0.0069  0.2034
  469TMC3     O 6983   2.411   1.262  10.818  0.7329  0.6437 -0.3636
  469TMC3     H 6984   2.684   1.038  10.975 -0.8999  0.5887  0.4843
  469TMC3    H1 6985   2.589   1.430  10.836  1.7683 -0.3342 -1.9034
  469TMC3    H2 6986   2.956   1.356  11.040  0.6418 -1.0824 -0.7636
  469TMC3    C7 6987   2.824   1.541  10.916  0.1354 -0.0587 -0.2686
  469TMC3    C8 6988   2.899   1.096  11.100 -0.3885  0.3701 -0.0769
  469TMC3    O1 6989   2.937   1.567  10.960  0.3566 -0.3344  0.2636
  469TMC3    O2 6990   2.872   0.980  11.086  0.4744  0.1946  0.5267
  470TMC3    C1 6991   4.025   2.410   0.650  0.6055 -0.7251  0.3488
  470TMC3    C2 6992   4.074   2.496   0.742  0.3090  0.1809 -0.1128
  470TMC3    C3 6993   4.040   2.473   0.874  0.6712  0.5506  1.0887
  470TMC3    C4 6994   3.925   2.317   0.674 -0.5484 -0.0883 -0.6663
  470TMC3    C5 6995   3.886   2.300   0.807  0.4384 -0.7074 -0.3755
  470TMC3    C6 6996   3.944   2.383   0.910 -0.6493  0.6815  0.1065
  470TMC3     C 6997   4.082   2.442   0.523  0.1112 -0.4579 -0.6515
  470TMC3     O 6998   4.122   2.553   0.495 -0.0092  0.1637  0.0911
  470TMC3     H 6999   4.149   2.568   0.712  1.4321 -1.1891 -0.6213
  470TMC3    H1 7000   3.880   2.257   0.595 -3.6376 -0.4284  1.3692
  470TMC3    H2 7001   3.902   2.392   1.010 -1.1806 -2.5675  0.1484
  470TMC3    C7 7002   3.760   2.226   0.831 -0.1475  0.4294 -0.0117
  470TMC3    C8 7003   4.064   2.580   0.970  0.7768  0.7990  0.6628
  470TMC3    O1 7004   3.694   2.177   0.738  0.0446 -0.0660  0.4644
  470TMC3    O2 7005   3.981   2.597   1.062 -0.4005 -0.2245 -0.5927
  471MPD2     C 7006   0.226   2.961  16.676  0.0075  0.2474  0.3116
  471MPD2    C1 7007   0.102   2.924  16.716 -0.1767 -0.3815  0.4859
  471MPD2    C2 7008   0.056   2.952  16.843  0.0130 -0.0699  0.1350
  471MPD2    C3 7009   0.135   3.031  16.922  0.2685 -0.3540  0.0955
  471MPD2    C4 7010   0.256   3.076  16.874  0.1829  0.4322  0.2346
  471MPD2    C5 7011   0.302   3.040  16.753 -0.0537 -0.7551  0.6461
  471MPD2     H 7012   4.686   2.910  16.884 -0.3799  1.9216  1.3532
  471MPD2    H1 7013   0.312   3.151  16.927  0.1847  1.6300 -1.4698
  471MPD2    H2 7014   0.255   2.921  16.579 -1.2620 -0.5397  0.2613
  471MPD2    H3 7015   0.398   3.081  16.721 -1.7869  2.8307  0.0179
  471MPD2     N 7016   0.094   3.071  17.053 -0.2460  0.1461  0.2680
  471MPD2    H5 7017   0.168   3.085  17.122 -1.0855  0.5289  1.0906
  471MPD2    N1 7018   0.022   2.843  16.644 -0.4866 -0.1018  0.3305
  471MPD2    H7 7019   4.664   2.810  16.698  0.6880 -0.7085  1.6741
  472TMC3    C1 7020   4.643   2.725  16.471 -0.3711 -0.3322 -0.7933
  472TMC3    C2 7021   4.552   2.764  16.368 -0.2943 -0.5750  0.5993
  472TMC3    C3 7022   4.439   2.692  16.363  0.2669  0.6024 -0.1680
  472TMC3    C4 7023   4.614   2.630  16.561  0.1773  0.0200 -0.2668
  472TMC3    C5 7024   4.490   2.578  16.562 -0.1535  0.2448 -0.3930
  472TMC3    C6 7025   4.402   2.599  16.462 -0.7086  0.4321  0.4277
  472TMC3     C 7026   0.023   2.825  16.507 -0.1724 -0.2922  0.4051
  472TMC3     O 7027   0.098   2.861  16.417  0.1546  0.0677 -0.1814
  472TMC3     H 7028   4.575   2.828  16.285  2.3266 -1.9258  0.2797
  472TMC3    H1 7029   4.685   2.605  16.639 -0.2985  0.0482  0.1751
  472TMC3    H2 7030   4.295   2.580  16.464 -0.8354  0.7959 -2.5483
  472TMC3    C7 7031   4.458   2.481  16.671  0.0227 -0.8036  0.6961
  472TMC3    C8 7032   4.356   2.704  16.253 -0.0257  0.5953  0.0328
  472TMC3    O1 7033   4.553   2.434  16.733  0.4122  0.2363 -0.3451
  472TMC3    O2 7034   4.380   2.807  16.189  0.9424 -0.3677 -0.0129
  473MPD2     C 7035   0.669   0.884  13.881 -0.9835 -0.2461 -0.0270
  473MPD2    C1 7036   0.540   0.899  13.945 -0.1564  0.5330  0.6560
  473MPD2    C2 7037   0.531   0.966  14.059  0.2366  0.1308  0.5314
  473MPD2    C3 7038   0.645   1.022  14.118 -0.1472  1.1124 -0.1768
  473MPD2    C4 7039   0.767   1.010  14.055  0.0770 -0.1658  0.5165
  473MPD2    C5 7040   0.779   0.938  13.941  0.0479 -0.9375 -0.5437
  473MPD2     H 7041   0.432   0.962  14.103  0.3998  0.7750  0.9668
  473MPD2    H1 7042   0.857   1.047  14.104 -0.2948 -0.7498  1.6333
  473MPD2    H2 7043   0.679   0.822  13.792 -1.1985 -1.2960  0.6763
  473MPD2    H3 7044   0.876   0.923  13.895 -0.2074  0.3887 -1.5097
  473MPD2     N 7045   0.635   1.073  14.251  0.2797  0.0326 -0.2353
  473MPD2    H5 7046   0.721   1.089  14.303 -0.9276 -0.3129  1.9009
  473MPD2    N1 7047   0.421   0.853  13.895  0.4191 -0.4455  0.8483
  473MPD2    H7 7048   0.331   0.884  13.929 -0.9030 -2.1957 -1.0525
  474TMC3    C1 7049   0.550   1.185  14.441 -0.0411 -0.1699 -0.0870
  474TMC3    C2 7050   0.489   1.302  14.479 -0.1144 -0.4090 -0.2711
  474TMC3    C3 7051   0.485   1.333  14.612 -0.1552 -0.4756 -0.5104
  474TMC3    C4 7052   0.628   1.113  14.525  0.7589  0.3765 -0.5322
  474TMC3    C5 7053   0.626   1.148  14.657  0.3382 -0.0461 -0.6557
  474TMC3    C6 7054   0.549   1.256  14.709 -0.3034 -0.3642  0.5639
  474TMC3     C 7055   0.523   1.135  14.305 -0.6679  0.1932  0.4851
  474TMC3     O 7056   0.417   1.167  14.250 -0.2854 -0.0861 -0.3298
  474TMC3     H 7057   0.438   1.366  14.407 -1.5350  0.6416  1.6618
  474TMC3    H1 7058   0.677   1.022  14.493  1.9234  1.1109 -0.8577
  474TMC3    H2 7059   0.569   1.291  14.809  1.5299 -0.0267  0.0773
  474TMC3    C7 7060   0.748   1.117  14.736  0.2689  0.2745  0.7294
  474TMC3    C8 7061   0.406   1.452  14.657 -0.2250 -0.1001 -0.1553
  474TMC3    O1 7062   0.857   1.135  14.682  0.2878 -1.1291  0.5099
  474TMC3    O2 7063   0.414   1.471  14.777  0.1593 -0.5257  0.1183
  475MPD2     C 7064   3.541   3.414  10.587 -0.6508  0.3418  0.1412
  475MPD2    C1 7065   3.510   3.544  10.620 -0.5817  0.2545 -0.0274
  475MPD2    C2 7066   3.371   3.579  10.648 -0.3901 -0.2554 -0.3245
  475MPD2    C3 7067   3.280   3.473  10.667 -0.7441 -1.0139 -0.0623
  475MPD2    C4 7068   3.319   3.342  10.643 -0.0381  0.2858  0.1612
  475MPD2    C5 7069   3.449   3.313  10.599 -0.0419 -0.3896  0.4135
  475MPD2     H 7070   3.340   3.678  10.679  0.1858 -1.1139  2.9897
  475MPD2    H1 7071   3.258   3.253  10.650  1.5457 -0.8873 -0.8129
  475MPD2    H2 7072   3.642   3.385  10.558 -1.5396 -1.3874 -1.2331
  475MPD2    H3 7073   3.466   3.209  10.577  0.0342  0.0246 -1.5154
  475MPD2     N 7074   3.143   3.506  10.697 -0.1270  1.1833 -0.8495
  475MPD2    H5 7075   3.112   3.596  10.661  0.2999  1.3385 -0.8398
  475MPD2    N1 7076   3.619   3.630  10.617  0.0805  0.0693 -0.0681
  475MPD2    H7 7077   3.706   3.592  10.582  0.0116 -0.1792  0.0332
  476TMC3    C1 7078   3.737   3.832  10.652  0.0951 -0.1508 -0.7163
  476TMC3    C2 7079   3.819   3.791  10.544 -0.7119  0.1885 -0.1007
  476TMC3    C3 7080   3.918   3.882  10.515 -0.2872 -0.0840  1.0072
  476TMC3    C4 7081   3.762   3.938  10.734 -0.0532 -0.2217  0.5022
  476TMC3    C5 7082   3.873   4.018  10.710  0.1348 -0.1981  0.0513
  476TMC3    C6 7083   3.944   3.984  10.600 -0.4034  0.0187 -0.5780
  476TMC3     C 7084   3.620   3.753  10.676 -0.2849  0.6337  0.1575
  476TMC3     O 7085   3.549   3.797  10.766  0.0570  0.2332 -0.3757
  476TMC3     H 7086   3.794   3.706  10.482  0.7109  0.9491 -1.6986
  476TMC3    H1 7087   3.714   3.962  10.828  0.2222  1.9725  0.0727
  476TMC3    H2 7088   4.040   4.032  10.584  0.2118  0.2948  3.9353
  476TMC3    C7 7089   3.955   4.090  10.806 -0.6853  0.0218 -1.0873
  476TMC3    C8 7090   4.028   3.835  10.431 -0.4274 -0.4115 -0.7787
  476TMC3    O1 7091   4.068   4.129  10.783  0.1380  0.1015  0.3937
  476TMC3    O2 7092   4.124   3.903  10.402  0.0097 -0.0549  0.0608
  477MPD2     C 7093   1.254   0.650  11.947 -0.3709 -0.3516 -0.5693
  477MPD2    C1 7094   1.149   0.623  12.033  0.4140 -0.2906  0.0278
  477MPD2    C2 7095   1.162   0.547  12.148  0.3858 -0.3572  0.4820
  477MPD2    C3 7096   1.294   0.509  12.186 -0.1123  0.1078  0.6613
  477MPD2    C4 7097   1.399   0.557  12.114 -0.7197 -0.4107 -0.3637
  477MPD2    C5 7098   1.387   0.632  11.993 -0.0045 -0.4736 -0.1447
  477MPD2     H 7099   1.074   0.514  12.202 -0.0071  1.4655  0.9324
  477MPD2    H1 7100   1.504   0.547  12.139 -0.8238 -0.9590 -0.1607
  477MPD2    H2 7101   1.224   0.719  11.869  0.2737  0.5788  0.0030
  477MPD2    H3 7102   1.472   0.669  11.938  0.7929 -0.2906  1.2126
  477MPD2     N 7103   1.303   0.423  12.292  0.7672  0.0280  0.0532
  477MPD2    H5 7104   1.215   0.393  12.332  0.5286  0.9503  0.2177
  477MPD2    N1 7105   1.013   0.664  11.993  0.4679 -0.1290  0.2672
  477MPD2    H7 7106   1.010   0.692  11.895  1.2934  0.3310  0.3790
  478TMC3    C1 7107   0.783   0.721  11.993 -0.6154 -0.6909  0.3519
  478TMC3    C2 7108   0.683   0.791  12.065  0.7751  0.8125  0.1972
  478TMC3    C3 7109   0.590   0.866  11.994 -0.5332  0.4007  0.1009
  478TMC3    C4 7110   0.790   0.727  11.861  0.4252 -0.2364  0.1918
  478TMC3    C5 7111   0.687   0.791  11.798 -0.4130  0.4611 -0.0954
  478TMC3    C6 7112   0.586   0.862  11.858  0.4241 -0.7197 -0.0726
  478TMC3     C 7113   0.898   0.666  12.066  0.8456 -0.9855  0.9120
  478TMC3     O 7114   0.882   0.667  12.189 -0.1657 -0.3687 -0.2368
  478TMC3     H 7115   0.681   0.785  12.173 -1.4611 -0.0273  0.1111
  478TMC3    H1 7116   0.862   0.668  11.805  0.1190  0.4751 -0.9687
  478TMC3    H2 7117   0.521   0.924  11.796 -0.5481 -1.9279 -0.2686
  478TMC3    C7 7118   0.696   0.790  11.653 -0.0188 -0.1303  0.2526
  478TMC3    C8 7119   0.462   0.895  12.066 -0.0768  0.3519  0.2554
  478TMC3    O1 7120   0.805   0.749  11.607 -0.3498  0.1023 -0.2965
  478TMC3    O2 7121   0.444   0.825  12.162 -0.6449  0.0594 -0.4761
  479MPD2     C 7122   4.496   2.369  15.240  0.1880 -0.1561  0.2628
  479MPD2    C1 7123   4.424   2.331  15.347 -0.6792  0.0729  0.2090
  479MPD2    C2 7124   4.440   2.393  15.468 -0.2170  0.3763  0.0882
  479MPD2    C3 7125   4.506   2.505  15.480  0.5134  0.0649 -0.8368
  479MPD2    C4 7126   4.572   2.552  15.368  0.0573 -0.1324 -0.9845
  479MPD2    C5 7127   4.580   2.479  15.256  0.7120 -0.5072  0.4700
  479MPD2     H 7128   4.387   2.354  15.554  0.1052  0.7151  0.4397
  479MPD2    H1 7129   4.631   2.643  15.378  0.4316 -0.7367  2.3965
  479MPD2    H2 7130   4.487   2.311  15.149  0.6585  2.1550 -1.2561
  479MPD2    H3 7131   4.642   2.513  15.175 -1.9244 -1.3228 -1.8792
  479MPD2     N 7132   4.498   2.595  15.591  0.1241 -0.7890 -0.2230
  479MPD2    H5 7133   4.565   2.672  15.588  0.3637 -1.0416 -1.3815
  479MPD2    N1 7134   4.336   2.224  15.314 -0.0329 -0.7233 -0.1222
  479MPD2    H7 7135   4.331   2.191  15.218  0.2697  0.0126 -0.3926
  480TMC3    C1 7136   4.108   2.399  15.710 -0.4179 -0.3774 -0.0606
  480TMC3    C2 7137   4.047   2.434  15.590 -0.4047  0.2539  0.0908
  480TMC3    C3 7138   4.096   2.546  15.523  0.2467  0.7949 -0.4664
  480TMC3    C4 7139   4.223   2.459  15.759 -0.1266 -0.4336 -0.2735
  480TMC3    C5 7140   4.281   2.545  15.669 -0.2599  0.2310 -0.7375
  480TMC3    C6 7141   4.215   2.600  15.561 -0.3840  0.1930  1.0482
  480TMC3     C 7142   4.061   2.282  15.778  0.5309 -0.4205 -0.8197
  480TMC3     O 7143   4.132   2.250  15.871  1.0646 -0.2007 -0.1132
  480TMC3     H 7144   3.956   2.389  15.551  0.5130 -0.1347 -1.6010
  480TMC3    H1 7145   4.274   2.425  15.848  2.1185 -4.1517 -3.0215
  480TMC3    H2 7146   4.256   2.691  15.519 -1.2013  0.9475  1.8819
  480TMC3    C7 7147   4.416   2.593  15.695  0.4400 -0.1024 -0.1182
  480TMC3    C8 7148   4.030   2.579  15.395  0.0938 -0.0207  0.2108
  480TMC3    O1 7149   4.437   2.648  15.802 -0.0615  0.1716  0.0458
  480TMC3    O2 7150   3.914   2.540  15.387  0.1231 -0.1970  0.8024
  481MPD2     C 7151   1.460   2.487  14.685  0.1790  0.0893 -0.1062
  481MPD2    C1 7152   1.372   2.383  14.690  0.6618  0.4771  0.0409
  481MPD2    C2 7153   1.376   2.293  14.802 -0.0246 -0.6785  0.2398
  481MPD2    C3 7154   1.462   2.304  14.910  0.7182  0.7074  0.2936
  481MPD2    C4 7155   1.542   2.420  14.905 -0.0385  0.7250  0.1830
  481MPD2    C5 7156   1.546   2.503  14.792 -0.1401 -1.0398 -0.8470
  481MPD2     H 7157   1.310   2.208  14.802  0.2995 -0.9329  0.7929
  481MPD2    H1 7158   1.605   2.446  14.990 -0.3730 -1.9195  1.2135
  481MPD2    H2 7159   1.450   2.561  14.607 -0.4539 -1.4965 -1.5359
  481MPD2    H3 7160   1.617   2.584  14.797  0.7191 -1.9096  0.9269
  481MPD2     N 7161   1.452   2.223  15.030 -0.2635  0.0276  0.7096
  481MPD2    H5 7162   1.529   2.230  15.096 -0.5753  1.6130  0.9162
  481MPD2    N1 7163   1.304   2.357  14.569  0.2021 -0.0259 -0.7188
  481MPD2    H7 7164   1.337   2.394  14.480  0.8800  1.0595 -0.0274
  482TMC3    C1 7165   1.199   2.212  14.408 -0.7102  0.3647 -0.6799
  482TMC3    C2 7166   1.163   2.088  14.379 -1.1625  0.6084 -0.0349
  482TMC3    C3 7167   1.167   2.057  14.249  0.1660 -0.7429  0.1455
  482TMC3    C4 7168   1.222   2.310  14.310 -0.0960  0.0906 -0.3233
  482TMC3    C5 7169   1.213   2.276  14.184 -0.2120 -0.8182 -0.0050
  482TMC3    C6 7170   1.200   2.143  14.149 -0.3512  0.4665 -0.2084
  482TMC3     C 7171   1.214   2.252  14.551 -0.0684 -1.2812 -0.5744
  482TMC3     O 7172   1.151   2.185  14.629 -0.2718  0.2893  0.1845
  482TMC3     H 7173   1.149   2.004  14.446 -0.0558  0.8963  0.5578
  482TMC3    H1 7174   1.239   2.412  14.341 -1.4161  0.5003 -0.9799
  482TMC3    H2 7175   1.215   2.098  14.052  2.8362 -0.0816  0.5504
  482TMC3    C7 7176   1.267   2.359  14.092  0.2384  0.4717  0.2319
  482TMC3    C8 7177   1.126   1.924  14.213 -0.8204  0.1537  0.7633
  482TMC3    O1 7178   1.329   2.454  14.139 -0.8073  0.2049 -0.3410
  482TMC3    O2 7179   1.172   1.839  14.291 -0.1996  0.2512 -0.4123
  483TMC3    C1 7180   3.389   0.594   0.037  0.0328  0.6528 -0.1906
  483TMC3    C2 7181   3.382   0.731   0.004  0.1364 -0.5812 -0.6738
  483TMC3    C3 7182   3.403   0.816   0.111  0.4468  0.4268  0.3480
  483TMC3    C4 7183   3.397   0.552   0.165  0.5407  0.8125  0.4327
  483TMC3    C5 7184   3.422   0.641   0.270  0.0116 -0.4521  0.0296
  483TMC3    C6 7185   3.419   0.776   0.244  0.3359  0.2956 -0.3257
  483TMC3     C 7186   3.386   0.500  17.612  0.5803 -0.1904  0.4155
  483TMC3     O 7187   3.430   0.542  17.506  0.2109 -0.2522  0.1901
  483TMC3     H 7188   3.385   0.752  17.584  0.2854  1.1344 -0.3361
  483TMC3    H1 7189   3.396   0.444   0.176  0.3616  0.8013  0.3019
  483TMC3    H2 7190   3.426   0.855   0.317 -3.1504  1.7074 -1.4649
  483TMC3    C7 7191   3.513   0.610   0.379 -0.2670 -0.1908 -0.2266
  483TMC3    C8 7192   3.460   0.945   0.075 -0.2576 -0.2650 -0.0979
  483TMC3    O1 7193   3.555   0.698   0.449  0.2333  0.3192 -0.0886
  483TMC3    O2 7194   3.518   1.012   0.160  0.5012 -0.2788 -0.0934
  484MPD2     C 7195   1.979   3.484  12.133  0.0849  0.4552 -0.3045
  484MPD2    C1 7196   1.992   3.492  12.274  0.6660 -0.6157 -0.2147
  484MPD2    C2 7197   2.118   3.504  12.333  0.6667 -0.3370 -0.4064
  484MPD2    C3 7198   2.229   3.517  12.250  0.5147 -0.3985 -0.0360
  484MPD2    C4 7199   2.220   3.503  12.114  0.1581 -0.1296  0.3456
  484MPD2    C5 7200   2.096   3.484  12.059  0.4313 -0.1268  0.3359
  484MPD2     H 7201   2.127   3.501  12.442  1.9484  3.2057 -0.4393
  484MPD2    H1 7202   2.304   3.505  12.045 -0.0850 -0.2736  0.0440
  484MPD2    H2 7203   1.888   3.484  12.074 -0.7119 -0.0145  0.9277
  484MPD2    H3 7204   2.093   3.473  11.951 -2.0151 -0.2346  0.4191
  484MPD2     N 7205   2.363   3.534  12.296  0.0678  0.0669  0.1214
  484MPD2    H5 7206   2.433   3.548  12.225  0.4345  2.4722  0.9774
  484MPD2    N1 7207   1.871   3.496  12.356  0.4724 -0.0609 -0.0410
  484MPD2    H7 7208   1.783   3.475  12.310  0.1919  1.4901 -0.2027
  485TMC3    C1 7209   2.543   3.549  12.448 -0.0937  0.3789 -0.3042
  485TMC3    C2 7210   2.599   3.471  12.542  0.5499 -0.0366 -0.9170
  485TMC3    C3 7211   2.729   3.495  12.582  0.4885 -0.6573 -0.0819
  485TMC3    C4 7212   2.597   3.658  12.392 -0.6928 -0.4058  0.4405
  485TMC3    C5 7213   2.723   3.684  12.431 -0.1916 -0.3880  0.3514
  485TMC3    C6 7214   2.788   3.601  12.521  0.1654  0.3687  0.1249
  485TMC3     C 7215   2.400   3.525  12.427 -0.1854 -1.1386  0.2574
  485TMC3     O 7216   2.333   3.498  12.521  0.5131  0.2090 -0.6360
  485TMC3     H 7217   2.547   3.384  12.582  1.1655  2.0096  4.3458
  485TMC3    H1 7218   2.542   3.713  12.317  2.1615  3.0778  0.9202
  485TMC3    H2 7219   2.890   3.628  12.543 -0.1851  0.9326  1.0623
  485TMC3    C7 7220   2.805   3.721  12.314 -0.5119  0.3433 -0.3872
  485TMC3    C8 7221   2.825   3.386  12.558 -0.7449 -0.1375 -0.3636
  485TMC3    O1 7222   2.795   3.829  12.256  0.1668  0.0569 -0.1147
  485TMC3    O2 7223   2.919   3.404  12.482 -0.8250  0.5010 -0.6824
  486MPD2     C 7224   4.419   3.058  12.997 -0.1089  0.7462  0.3763
  486MPD2    C1 7225   4.338   2.948  12.968  0.1283  0.5287 -0.2518
  486MPD2    C2 7226   4.203   2.981  12.937  0.2485  0.1050  0.0795
  486MPD2    C3 7227   4.166   3.111  12.915 -0.4760 -0.2280 -0.2558
  486MPD2    C4 7228   4.253   3.209  12.948 -0.2286  0.3148  0.3509
  486MPD2    C5 7229   4.377   3.184  12.981 -0.1967 -0.4716 -0.1845
  486MPD2     H 7230   4.136   2.898  12.916  1.3416 -0.7148 -0.1786
  486MPD2    H1 7231   4.220   3.310  12.929 -0.1700 -0.3235 -3.0866
  486MPD2    H2 7232   4.519   3.047  13.037  0.6572  2.2136 -1.1175
  486MPD2    H3 7233   4.438   3.266  13.019 -2.5743  0.5573  1.4295
  486MPD2     N 7234   4.032   3.134  12.886 -0.3699  0.6426  0.0291
  486MPD2    H5 7235   3.970   3.054  12.882  0.6453 -0.0876 -1.1297
  486MPD2    N1 7236   4.374   2.822  13.023 -0.6012  0.4892 -0.2414
  486MPD2    H7 7237   4.463   2.805  13.068  0.0036 -0.5045 -1.8186
  487TMC3    C1 7238   4.378   2.602  13.063  0.2226 -0.0855  0.0577
  487TMC3    C2 7239   4.424   2.488  13.001 -0.4580 -0.0042  0.1117
  487TMC3    C3 7240   4.502   2.407  13.077 -0.6638  0.7195 -0.3196
  487TMC3    C4 7241   4.402   2.635  13.193  0.0921 -0.2857  0.5853
  487TMC3    C5 7242   4.470   2.545  13.273 -0.2174  0.8233 -0.3321
  487TMC3    C6 7243   4.527   2.438  13.210  0.5300 -0.0077 -0.6648
  487TMC3     C 7244   4.320   2.705  12.983  0.5668  0.0603 -0.3822
  487TMC3     O 7245   4.243   2.678  12.893  0.7355  0.4870  0.2189
  487TMC3     H 7246   4.387   2.463  12.903  1.0113  0.2632 -0.5133
  487TMC3    H1 7247   4.364   2.722  13.245  2.0566 -0.3048  2.0423
  487TMC3    H2 7248   4.569   2.365  13.278  1.6093  0.4874 -0.7988
  487TMC3    C7 7249   4.401   2.487  13.388  0.2523  0.1173  0.2127
  487TMC3    C8 7250   4.427   2.285  13.082  0.3079 -0.0380  0.0623
  487TMC3    O1 7251   4.469   2.444  13.477  0.6135 -0.4169 -0.1654
  487TMC3    O2 7252   4.312   2.280  13.041 -0.5487 -0.7395  0.6022
  488MPD2     C 7253   4.330   4.077  16.865 -0.4926  0.2883 -0.3492
  488MPD2    C1 7254   4.277   4.205  16.850  0.6907 -0.0115 -0.3739
  488MPD2    C2 7255   4.229   4.270  16.964 -0.6188 -0.1099 -0.8401
  488MPD2    C3 7256   4.258   4.220  17.091  0.1306 -0.0771  0.7431
  488MPD2    C4 7257   4.311   4.094  17.101  0.8752  0.8397  0.4746
  488MPD2    C5 7258   4.341   4.023  16.989  0.5079  0.1586 -0.0745
  488MPD2     H 7259   4.189   4.370  16.956  1.4557  0.8009  0.2307
  488MPD2    H1 7260   4.329   4.048  17.197  1.8819 -2.0806 -1.1059
  488MPD2    H2 7261   4.367   4.020  16.781 -2.6808 -1.1599 -0.3339
  488MPD2    H3 7262   4.376   3.921  16.994 -1.6234 -0.5849 -0.2291
  488MPD2     N 7263   4.218   4.306  17.199  0.0046  0.0124 -0.2634
  488MPD2    H5 7264   4.187   4.399  17.174 -0.0432 -0.0489 -0.4336
  488MPD2    N1 7265   4.265   4.272  16.722 -0.7157 -0.2710 -0.0628
  488MPD2    H7 7266   4.226   4.365  16.729  1.8142  0.6838  1.3159
  489TMC3    C1 7267   4.127   4.356  17.410 -0.0700  0.1606  0.4580
  489TMC3    C2 7268   4.058   4.459  17.348 -0.1312  0.7886 -0.1751
  489TMC3    C3 7269   4.030   4.573  17.413  0.2559 -0.1324  0.3943
  489TMC3    C4 7270   4.153   4.376  17.546 -0.3565  0.7832 -0.4184
  489TMC3    C5 7271   4.110   4.490  17.613 -0.2443  0.0960  0.0011
  489TMC3    C6 7272   4.052   4.596  17.552  0.8055 -0.3818 -0.2818
  489TMC3     C 7273   4.214   4.268  17.336  0.5992  0.3913 -0.2913
  489TMC3     O 7274   4.259   4.168  17.398  0.3201 -0.7617 -0.0712
  489TMC3     H 7275   4.018   4.451  17.247  1.7443 -1.0155 -0.7633
  489TMC3    H1 7276   4.213   4.295  17.585 -3.0078  0.0545  2.1304
  489TMC3    H2 7277   4.043   4.691  17.602 -1.2766 -1.7790  2.0026
  489TMC3    C7 7278   4.205   4.528   0.030  0.2355 -0.9844 -0.7359
  489TMC3    C8 7279   3.968   4.678  17.335  0.2824 -0.6164  0.4031
  489TMC3    O1 7280   4.212   4.649   0.039  0.6246 -0.2775  0.7099
  489TMC3    O2 7281   3.972   4.663  17.212 -0.0750  0.5732  0.2706
  490MPD2     C 7282   0.539   4.113  17.403  0.1026  0.0090 -0.1062
  490MPD2    C1 7283   0.484   4.131  17.534 -0.0946 -0.1307 -0.5067
  490MPD2    C2 7284   0.548   4.217  17.625  0.3918 -0.0326 -0.3406
  490MPD2    C3 7285   0.676   4.267  17.592  0.2215 -0.0060 -0.1844
  490MPD2    C4 7286   0.724   4.248  17.465 -0.6474 -0.3237  0.6009
  490MPD2    C5 7287   0.650   4.187  17.373  0.0486  0.0427 -0.0152
  490MPD2     H 7288   0.504   4.227   0.038  3.0104  0.6332  0.7405
  490MPD2    H1 7289   0.815   4.289  17.423 -0.2280 -1.2939  0.5732
  490MPD2    H2 7290   0.486   4.047  17.336 -0.7404  0.5959 -0.0271
  490MPD2    H3 7291   0.677   4.183  17.268 -1.8041 -3.4485 -0.3671
  490MPD2     N 7292   0.747   4.346  17.684 -0.1731  0.2867 -0.4675
  490MPD2    H5 7293   0.830   4.389  17.643 -0.5862  0.4269 -1.1590
  490MPD2    N1 7294   0.378   4.054  17.585  0.5773  0.7236 -0.1298
  490MPD2    H7 7295   0.345   4.079  17.677  2.3801 -2.2300  1.3303
  491TMC3    C1 7296   0.201   3.906  17.596 -0.1015  0.1905 -0.3733
  491TMC3    C2 7297   0.204   3.921   0.053 -0.2692 -0.5825 -0.3554
  491TMC3    C3 7298   0.149   3.807   0.116  0.5756 -0.2750  0.2689
  491TMC3    C4 7299   0.131   3.807  17.531 -0.4607  0.0272  0.1559
  491TMC3    C5 7300   0.061   3.718  17.608  0.5198  0.3918  1.0469
  491TMC3    C6 7301   0.080   3.710   0.059  0.1325  0.5041  0.0854
  491TMC3     C 7302   0.311   3.954  17.521  0.1846 -0.1482 -0.2379
  491TMC3     O 7303   0.318   3.924  17.400 -0.3125 -0.0240  0.0792
  491TMC3     H 7304   0.282   3.973   0.108  0.2308 -0.4868 -1.1670
  491TMC3    H1 7305   0.114   3.812  17.424 -0.6680 -0.0208  0.1853
  491TMC3    H2 7306   0.025   3.632   0.111 -1.5250  2.3971  1.1529
  491TMC3    C7 7307   4.684   3.641  17.543 -0.7847  0.3407  0.2035
  491TMC3    C8 7308   0.129   3.826   0.260 -0.4356 -0.1661 -0.2756
  491TMC3    O1 7309   4.674   3.524  17.569  0.6072  0.3346 -0.9241
  491TMC3    O2 7310   0.078   3.732   0.313  0.2423  0.5583 -0.1594
  492MPD2     C 7311   0.875   4.202  11.866 -0.2119  0.4636 -0.0420
  492MPD2    C1 7312   0.778   4.169  11.781  0.2208 -0.2065  0.8616
  492MPD2    C2 7313   0.668   4.085  11.818  0.3155 -0.5143 -0.2053
  492MPD2    C3 7314   0.674   4.041  11.949  0.2839  0.2292  0.3632
  492MPD2    C4 7315   0.780   4.061  12.036  0.5576 -0.2689 -0.6416
  492MPD2    C5 7316   0.875   4.157  11.999 -0.1572 -0.2438  0.4349
  492MPD2     H 7317   0.593   4.050  11.747  1.5966 -0.7350 -1.4592
  492MPD2    H1 7318   0.779   4.030  12.140 -1.0839 -1.0726 -0.8925
  492MPD2    H2 7319   0.960   4.265  11.844  1.0807 -0.8301  1.2890
  492MPD2    H3 7320   0.958   4.179  12.065  0.2213  1.5841 -0.6469
  492MPD2     N 7321   0.577   3.950  11.994 -0.0899  0.0151  0.1137
  492MPD2    H5 7322   0.600   3.930  12.091  1.1545  1.0758  0.0292
  492MPD2    N1 7323   0.782   4.229  11.656  0.2099 -0.5806 -0.4021
  492MPD2    H7 7324   0.872   4.274  11.643 -0.1400 -0.0561 -0.9694
  493TMC3    C1 7325   0.751   4.249  11.427  0.4976  0.3363  0.1025
  493TMC3    C2 7326   0.883   4.288  11.421 -0.2054 -0.2354 -0.8725
  493TMC3    C3 7327   0.929   4.345  11.308 -0.3212 -0.2824 -0.0267
  493TMC3    C4 7328   0.669   4.257  11.316  0.4797 -0.0668 -0.6753
  493TMC3    C5 7329   0.724   4.313  11.207  0.3052 -0.6065 -0.0711
  493TMC3    C6 7330   0.852   4.354  11.191  0.4109  0.3308 -0.5850
  493TMC3     C 7331   0.700   4.198  11.551 -0.3299 -0.5846 -1.0096
  493TMC3     O 7332   0.582   4.166  11.553 -0.6643  0.2281 -0.9453
  493TMC3     H 7333   0.947   4.285  11.509 -0.7157  1.3028 -0.4418
  493TMC3    H1 7334   0.573   4.209  11.310  0.4872 -0.0157 -1.1965
  493TMC3    H2 7335   0.882   4.405  11.101  1.2370 -0.4209 -0.7285
  493TMC3    C7 7336   0.649   4.274  11.085 -0.7507  0.6168  0.0195
  493TMC3    C8 7337   1.062   4.413  11.319 -0.5845  0.0024 -0.3567
  493TMC3    O1 7338   0.528   4.280  11.104  0.1121 -0.5188 -0.2152
  493TMC3    O2 7339   1.113   4.426  11.434  0.1830 -0.3523 -0.4669
  494TMC3    C1 7340   1.062   0.755   0.828  0.7940 -0.5315 -0.0735
  494TMC3    C2 7341   1.123   0.635   0.859  0.0622  0.6059  0.9067
  494TMC3    C3 7342   1.137   0.547   0.758  0.5450 -0.1952  0.7115
  494TMC3    C4 7343   1.020   0.787   0.700  0.1321  0.3582 -0.4854
  494TMC3    C5 7344   1.032   0.689   0.604 -0.4209  0.0501 -0.0976
  494TMC3    C6 7345   1.110   0.579   0.622  0.6214  0.4749 -0.4066
  494TMC3     C 7346   1.016   0.827   0.942  0.7827  0.2570 -0.4596
  494TMC3     O 7347   1.046   0.787   1.053 -0.2202  0.4924  0.5037
  494TMC3     H 7348   1.146   0.610   0.961 -0.5696  0.8397  1.1048
  494TMC3    H1 7349   0.997   0.889   0.672 -0.7325 -0.0615 -1.3288
  494TMC3    H2 7350   1.115   0.500   0.548  0.6400 -0.3999  0.5249
  494TMC3    C7 7351   0.999   0.727   0.466  0.1582  0.3197  0.4790
  494TMC3    C8 7352   1.228   0.437   0.775 -0.0906 -0.3395 -0.3340
  494TMC3    O1 7353   1.066   0.666   0.384 -0.4524 -0.6269 -0.4098
  494TMC3    O2 7354   1.319   0.466   0.854 -0.1779 -0.0768  0.4507
  495TMC3    C1 7355   4.469   2.554  14.659 -0.0408  0.2259 -0.2162
  495TMC3    C2 7356   4.415   2.575  14.535 -0.3255  0.4628  0.2145
  495TMC3    C3 7357   4.344   2.684  14.516 -0.5665  0.1776 -0.1174
  495TMC3    C4 7358   4.466   2.649  14.759 -0.1805  0.1126 -0.3223
  495TMC3    C5 7359   4.399   2.766  14.730  0.0445 -0.5154 -0.0496
  495TMC3    C6 7360   4.337   2.777  14.611  0.1927 -0.1812 -0.2657
  495TMC3     C 7361   4.513   2.420  14.690 -0.3649  0.7384 -0.0097
  495TMC3     O 7362   4.466   2.332  14.619 -0.1434  0.5940  0.3353
  495TMC3     H 7363   4.427   2.492  14.466 -1.2110 -2.0306  3.0682
  495TMC3    H1 7364   4.499   2.630  14.861 -0.5301 -0.9970 -0.4262
  495TMC3    H2 7365   4.284   2.871  14.596  2.2697  1.3132  1.7845
  495TMC3    C7 7366   4.325   2.804  14.849 -0.2181  0.0557 -0.8382
  495TMC3    C8 7367   4.242   2.692  14.416 -0.5179 -0.3931  0.2684
  495TMC3    O1 7368   4.388   2.804  14.954  0.2902 -0.0937  0.0103
  495TMC3    O2 7369   4.147   2.763  14.436 -0.1782 -0.3921 -0.1225
  496MPD2     C 7370   1.273   2.015  15.808  0.3254 -0.2247 -1.0588
  496MPD2    C1 7371   1.314   2.127  15.737 -0.2710 -0.4394 -0.4520
  496MPD2    C2 7372   1.238   2.245  15.757 -0.8745  0.4125 -0.5539
  496MPD2    C3 7373   1.123   2.248  15.837 -0.9984 -0.4896  0.1295
  496MPD2    C4 7374   1.088   2.132  15.908  0.5592 -0.3148  0.1988
  496MPD2    C5 7375   1.159   2.019  15.890  0.0087 -0.7207  0.1545
  496MPD2     H 7376   1.275   2.335  15.708 -0.3330  0.1132 -0.6957
  496MPD2    H1 7377   1.005   2.139  15.977 -0.6145  4.4480 -1.7069
  496MPD2    H2 7378   1.319   1.917  15.801  1.8241  0.5740 -2.5280
  496MPD2    H3 7379   1.140   1.943  15.965 -2.2449  2.1899  2.5218
  496MPD2     N 7380   1.058   2.369  15.866 -0.1894  0.2127  0.1368
  496MPD2    H5 7381   0.982   2.360  15.932  0.5657 -2.3953  0.6564
  496MPD2    N1 7382   1.436   2.120  15.673  0.6556  0.4207  0.7920
  496MPD2    H7 7383   1.485   2.032  15.684  0.4736  0.0245 -1.4771
  497TMC3    C1 7384   1.033   2.602  15.917  0.2209 -0.2140 -0.9736
  497TMC3    C2 7385   1.080   2.720  15.881 -0.3667 -0.3525 -0.0315
  497TMC3    C3 7386   1.127   2.807  15.982 -0.1827 -0.2794 -0.1018
  497TMC3    C4 7387   1.020   2.564  16.048 -0.2237 -0.2989 -0.4189
  497TMC3    C5 7388   1.060   2.656  16.145 -0.0612  0.9388  0.3084
  497TMC3    C6 7389   1.110   2.776  16.112 -0.0367 -0.2679  0.7072
  497TMC3     C 7390   1.096   2.498  15.833 -0.4345  0.3329 -0.5235
  497TMC3     O 7391   1.178   2.535  15.754 -0.1006 -0.1947  0.0481
  497TMC3     H 7392   1.089   2.748  15.777  0.4655  1.3997  0.5032
  497TMC3    H1 7393   0.970   2.470  16.070 -0.4096 -0.2368 -0.5713
  497TMC3    H2 7394   1.159   2.846  16.178  0.4847  0.5331 -0.5236
  497TMC3    C7 7395   1.058   2.621  16.286 -0.3222 -0.4474 -0.3033
  497TMC3    C8 7396   1.176   2.937  15.951 -0.4957 -0.3925 -0.0265
  497TMC3    O1 7397   0.974   2.545  16.333 -0.4381  0.0804  0.1041
  497TMC3    O2 7398   1.227   3.002  16.046 -0.2429  0.6128 -0.1802
  498MPD2     C 7399   3.099   3.410   9.602  0.1624 -0.2735  0.1800
  498MPD2    C1 7400   3.134   3.342   9.719 -0.4095  0.5910  0.1873
  498MPD2    C2 7401   3.029   3.285   9.797  0.1594 -0.4606  0.3285
  498MPD2    C3 7402   2.899   3.294   9.746  0.5718  0.3164 -0.0938
  498MPD2    C4 7403   2.875   3.351   9.625  0.5651 -0.6947 -0.2520
  498MPD2    C5 7404   2.973   3.412   9.558  0.3716  0.9305 -0.0270
  498MPD2     H 7405   3.067   3.247   9.891 -0.6806 -2.3948 -0.1097
  498MPD2    H1 7406   2.778   3.360   9.578  0.3138 -0.3126  0.3456
  498MPD2    H2 7407   3.174   3.463   9.545 -0.7582 -0.3897 -1.1254
  498MPD2    H3 7408   2.956   3.463   9.464  1.1733  0.4806 -0.4206
  498MPD2     N 7409   2.794   3.248   9.822 -0.3817  0.2229  0.2749
  498MPD2    H5 7410   2.828   3.200   9.905  0.3926  1.1922  0.5116
  498MPD2    N1 7411   3.267   3.328   9.753  0.4679 -0.6000  0.4470
  498MPD2    H7 7412   3.286   3.267   9.833 -2.7897 -1.9665  0.1943
  499TMC3    C1 7413   3.499   3.368   9.752 -0.0595  0.1660  0.3979
  499TMC3    C2 7414   3.514   3.242   9.808 -0.3714  0.1188 -1.0275
  499TMC3    C3 7415   3.635   3.216   9.868  0.1968  0.2532  0.1424
  499TMC3    C4 7416   3.605   3.455   9.754 -0.6105 -0.1980 -0.1077
  499TMC3    C5 7417   3.726   3.416   9.807  0.7232 -0.3618 -0.7384
  499TMC3    C6 7418   3.742   3.293   9.867 -0.2696  0.4366  0.2961
  499TMC3     C 7419   3.369   3.402   9.706 -0.3753 -0.1142 -0.3584
  499TMC3     O 7420   3.371   3.503   9.638  0.2931 -0.4752 -0.0563
  499TMC3     H 7421   3.437   3.166   9.802 -0.6105  0.2101  0.9529
  499TMC3    H1 7422   3.601   3.555   9.713  1.5155 -0.3033 -0.5821
  499TMC3    H2 7423   3.829   3.267   9.927  0.6698  0.8040 -0.9133
  499TMC3    C7 7424   3.841   3.482   9.753 -0.1650  0.3537  0.1560
  499TMC3    C8 7425   3.659   3.081   9.917 -0.2998  0.0835 -0.2253
  499TMC3    O1 7426   3.830   3.603   9.726 -0.1423  0.7614 -0.2811
  499TMC3    O2 7427   3.776   3.053   9.928 -0.5556  0.5032 -0.1028
  500MPD2     C 7428   4.713   4.394  10.362 -0.1112 -0.1135 -0.6956
  500MPD2    C1 7429   4.656   4.492  10.445  0.2115  0.4537 -0.0417
  500MPD2    C2 7430   4.526   4.482  10.478  0.2355  0.3367 -0.7497
  500MPD2    C3 7431   4.451   4.372  10.437  0.4581 -0.2706 -0.2961
  500MPD2    C4 7432   4.504   4.279  10.354  0.4917  0.0611  0.1216
  500MPD2    C5 7433   4.637   4.284  10.321 -0.3737 -0.4959  0.0915
  500MPD2     H 7434   4.483   4.548  10.553 -1.4714  2.5898 -3.7145
  500MPD2    H1 7435   4.441   4.201  10.314  1.5086 -0.5036 -0.4014
  500MPD2    H2 7436   0.096   4.384  10.335  0.0831 -0.4287  0.1589
  500MPD2    H3 7437   4.689   4.212  10.258 -0.7394 -1.2290  0.6255
  500MPD2     N 7438   4.317   4.360  10.469  0.2177 -0.1036  0.3431
  500MPD2    H5 7439   4.267   4.283  10.425 -0.1240  0.1403  0.3056
  500MPD2    N1 7440   0.015   4.607  10.479  0.1411 -0.1235  0.3176
  500MPD2    H7 7441   4.686   4.682  10.526 -1.3709 -1.4572  0.8360
  501TMC3    C1 7442   0.207   0.013  10.523 -0.3311 -0.3582  0.3059
  501TMC3    C2 7443   0.150   0.136  10.479 -0.0889  0.1121 -0.5620
  501TMC3    C3 7444   0.231   0.249  10.486  0.0552 -0.2932  0.3720
  501TMC3    C4 7445   0.336   0.017  10.563 -0.2900  0.7414  0.7294
  501TMC3    C5 7446   0.407   0.132  10.577  0.4040 -0.1290  0.5260
  501TMC3    C6 7447   0.356   0.252  10.530  0.5891 -0.4633  0.4409
  501TMC3     C 7448   0.154   4.608  10.478  0.0814 -0.4805  0.1028
  501TMC3     O 7449   0.231   4.523  10.434  0.3571 -0.0586  0.4661
  501TMC3     H 7450   0.046   0.140  10.451 -0.2197 -1.7837 -0.3436
  501TMC3    H1 7451   0.375   4.645  10.603 -0.1080 -0.0725 -1.3531
  501TMC3    H2 7452   0.402   0.347  10.555 -0.0531  0.2594 -1.1719
  501TMC3    C7 7453   0.476   0.138  10.701  0.5861  0.2711 -0.8512
  501TMC3    C8 7454   0.148   0.375  10.500 -0.5836 -0.4089 -0.2031
  501TMC3    O1 7455   0.443   0.058  10.786 -0.5375 -0.2348  0.2287
  501TMC3    O2 7456   0.039   0.375  10.557  0.0123  0.1574 -0.0068
  502TMC3    C1 7457   3.886   3.648  15.496 -0.2480 -0.0245 -0.1046
  502TMC3    C2 7458   3.848   3.779  15.485 -0.4459 -0.7026 -0.5749
  502TMC3    C3 7459   3.718   3.809  15.503  0.1495  0.5005 -0.9216
  502TMC3    C4 7460   3.791   3.556  15.539 -0.1591  0.3058 -0.3098
  502TMC3    C5 7461   3.656   3.589  15.565  0.0387 -0.7350  0.0709
  502TMC3    C6 7462   3.622   3.723  15.558 -0.1460 -0.5114 -1.2376
  502TMC3     C 7463   4.021   3.626  15.547 -0.5001  0.2075  0.1723
  502TMC3     O 7464   4.116   3.685  15.506  0.4190 -0.3164  0.3126
  502TMC3     H 7465   3.921   3.851  15.449 -0.2865 -0.0298  1.0841
  502TMC3    H1 7466   3.803   3.452  15.511 -1.1967 -0.6112  2.6625
  502TMC3    H2 7467   3.519   3.754  15.571  0.3447 -0.5695  2.9689
  502TMC3    C7 7468   3.565   3.483  15.595 -0.3262  0.0959  0.3375
  502TMC3    C8 7469   3.679   3.941  15.460  0.8204  0.7088  0.0773
  502TMC3    O1 7470   3.616   3.374  15.624 -0.3154 -0.5993 -0.0766
  502TMC3    O2 7471   3.738   3.982  15.361  0.2129  0.3686 -0.1735
  503MPD2     C 7472   0.993   4.066  17.181 -0.3570 -0.6592 -1.1489
  503MPD2    C1 7473   1.064   4.108  17.293  0.6730 -0.2058  0.0792
  503MPD2    C2 7474   1.141   4.011  17.364  0.4072  0.7197 -0.5409
  503MPD2    C3 7475   1.152   3.881  17.321  1.0019 -0.6931 -0.1953
  503MPD2    C4 7476   1.081   3.846  17.204 -1.0387  0.2985  1.2068
  503MPD2    C5 7477   1.002   3.937  17.136  1.1190 -0.3402 -0.6132
  503MPD2     H 7478   1.202   4.041  17.448  2.0649 -0.2332 -1.3920
  503MPD2    H1 7479   1.081   3.750  17.153  0.8155  0.0578  1.6543
  503MPD2    H2 7480   0.932   4.134  17.123  0.0993  2.3080  1.8407
  503MPD2    H3 7481   0.938   3.902  17.056  0.4561 -0.8007  0.1156
  503MPD2     N 7482   1.232   3.788  17.394  0.3901 -0.5351  0.7446
  503MPD2    H5 7483   1.292   3.827  17.466 -0.0353  1.5891 -0.0643
  503MPD2    N1 7484   1.055   4.245  17.325  0.2740  0.1800 -0.1979
  503MPD2    H7 7485   0.998   4.294  17.257 -1.3866 -0.7836  0.4977
  504TMC3    C1 7486   1.337   3.585  17.457  0.1673  0.5680 -0.5153
  504TMC3    C2 7487   1.311   3.452  17.459 -0.0278 -0.5195 -0.3847
  504TMC3    C3 7488   1.411   3.365  17.440 -0.8746  1.0688  0.2847
  504TMC3    C4 7489   1.464   3.629  17.428 -0.1795 -0.6758  0.1380
  504TMC3    C5 7490   1.565   3.536  17.414 -0.0792 -0.2781  0.2017
  504TMC3    C6 7491   1.539   3.404  17.419  0.3061 -0.3024  0.0454
  504TMC3     C 7492   1.224   3.649  17.382  0.9226  0.1944 -0.0859
  504TMC3     O 7493   1.157   3.578  17.310 -0.2419 -0.0045 -0.0271
  504TMC3     H 7494   1.208   3.421  17.470  0.3818 -2.2108 -1.3357
  504TMC3    H1 7495   1.484   3.735  17.418 -1.8301 -0.2211  1.7356
  504TMC3    H2 7496   1.622   3.336  17.406  1.6728  1.1876  1.0914
  504TMC3    C7 7497   1.687   3.578  17.349 -0.5581  0.6215  0.1731
  504TMC3    C8 7498   1.394   3.232  17.495  0.7630 -0.6080 -0.1452
  504TMC3    O1 7499   1.739   3.498  17.277 -0.4903 -0.1563 -0.1303
  504TMC3    O2 7500   1.436   3.135  17.434  0.3747  0.1299 -0.1413
  505MPD2     C 7501   1.630   3.299  11.047  0.1049 -0.0617  0.5570
  505MPD2    C1 7502   1.712   3.243  10.950  0.5371 -0.0521  0.3330
  505MPD2    C2 7503   1.850   3.274  10.965 -0.1851  0.3946  0.0842
  505MPD2    C3 7504   1.908   3.340  11.069  1.0144  0.0175 -0.0270
  505MPD2    C4 7505   1.819   3.400  11.166 -0.1837  0.3339 -0.3134
  505MPD2    C5 7506   1.683   3.374  11.147 -0.0960  0.1422  0.5890
  505MPD2     H 7507   1.913   3.235  10.887 -1.7217 -0.4272 -0.7507
  505MPD2    H1 7508   1.851   3.462  11.249  2.9243 -0.0667 -1.2287
  505MPD2    H2 7509   1.524   3.281  11.041  0.2894 -1.9278  2.7948
  505MPD2    H3 7510   1.619   3.410  11.227 -1.7262  3.0718 -2.0262
  505MPD2     N 7511   2.043   3.350  11.097  0.0899  0.4173 -0.2688
  505MPD2    H5 7512   2.062   3.374  11.193 -2.0933  0.2127  0.2174
  505MPD2    N1 7513   1.660   3.159  10.850 -0.6075  0.1519 -0.3417
  505MPD2    H7 7514   1.562   3.133  10.850 -0.9028  1.2895  1.1853
  506TMC3    C1 7515   1.666   3.004  10.670 -0.1958  0.6480 -0.0590
  506TMC3    C2 7516   1.687   2.999  10.532 -0.2051  0.0917  0.5631
  506TMC3    C3 7517   1.666   2.876  10.472  0.4423 -0.1950  0.5831
  506TMC3    C4 7518   1.633   2.884  10.741  0.1432  0.2598 -0.0936
  506TMC3    C5 7519   1.617   2.761  10.678 -0.9107 -0.2012  0.0788
  506TMC3    C6 7520   1.629   2.760  10.541  0.4179 -0.3148  0.3406
  506TMC3     C 7521   1.738   3.105  10.749 -0.1077  1.1415  0.3233
  506TMC3     O 7522   1.854   3.117  10.719 -0.5847  0.6825  0.8257
  506TMC3     H 7523   1.724   3.083  10.475  0.6711 -1.1673 -0.7207
  506TMC3    H1 7524   1.618   2.904  10.846  1.2713  1.7869 -0.2116
  506TMC3    H2 7525   1.615   2.668  10.485  0.5283  0.0172 -0.2290
  506TMC3    C7 7526   1.735   2.687  10.721 -0.5999  0.0204  0.2540
  506TMC3    C8 7527   1.696   2.863  10.329  1.5637 -0.0386 -0.2962
  506TMC3    O1 7528   1.742   2.574  10.682  0.0476 -0.1222  0.3713
  506TMC3    O2 7529   1.646   2.768  10.270 -0.2385  0.6478 -0.3799
  507TMC3    C1 7530   2.538   3.709  14.738  0.4861 -0.8250 -0.2187
  507TMC3    C2 7531   2.534   3.617  14.641  0.0927  0.6790 -0.1723
  507TMC3    C3 7532   2.523   3.657  14.508  0.5124 -0.8339  0.3767
  507TMC3    C4 7533   2.547   3.846  14.706 -0.0694 -0.0680 -1.0363
  507TMC3    C5 7534   2.567   3.879  14.575  0.2387  0.2441  0.1020
  507TMC3    C6 7535   2.555   3.787  14.475  0.2915 -0.2076 -0.2335
  507TMC3     C 7536   2.438   3.684  14.845  0.0074 -0.2623  0.2105
  507TMC3     O 7537   2.445   3.758  14.938 -0.2857  0.2757 -0.0919
  507TMC3     H 7538   2.502   3.516  14.662  1.6869  0.2111  0.0635
  507TMC3    H1 7539   2.522   3.918  14.783 -2.5737 -0.4205 -1.5172
  507TMC3    H2 7540   2.554   3.820  14.372  0.7936 -1.3642 -0.6128
  507TMC3    C7 7541   2.501   4.006  14.548 -0.2498 -0.4427  1.2556
  507TMC3    C8 7542   2.385   3.623  14.462  0.6543 -0.6174 -0.5497
  507TMC3    O1 7543   2.429   3.997  14.447  0.8544  0.1727 -0.0274
  507TMC3    O2 7544   2.334   3.528  14.524 -0.6299  0.3560  0.6670
  508MPD2     C 7545   2.527   1.346  16.171  0.8873  0.0607 -0.7676
  508MPD2    C1 7546   2.654   1.355  16.127 -0.0918 -0.5446  0.2535
  508MPD2    C2 7547   2.683   1.402  16.005 -0.5258  0.1141  0.3116
  508MPD2    C3 7548   2.581   1.443  15.921  0.1282 -0.2581 -0.7091
  508MPD2    C4 7549   2.448   1.433  15.965  0.0284  0.2003 -0.4202
  508MPD2    C5 7550   2.425   1.377  16.084  0.1949 -0.3726 -0.2652
  508MPD2     H 7551   2.783   1.413  15.964 -0.4481  0.0848  0.4939
  508MPD2    H1 7552   2.360   1.453  15.906 -0.1643  1.7008  0.3910
  508MPD2    H2 7553   2.494   1.323  16.272 -0.2298  0.0596 -1.1242
  508MPD2    H3 7554   2.323   1.365  16.117  0.9326  0.0894  2.2218
  508MPD2     N 7555   2.622   1.482  15.789 -0.2790  0.4512 -0.1578
  508MPD2    H5 7556   2.719   1.513  15.783 -0.5058  1.7318  2.8008
  508MPD2    N1 7557   2.755   1.320  16.217  0.0161  0.3661  0.0207
  508MPD2    H7 7558   2.732   1.298  16.313 -0.1634 -0.5842 -0.2459
  509TMC3    C1 7559   2.646   1.738  15.422  0.1090  0.2629 -0.7953
  509TMC3    C2 7560   2.770   1.696  15.391 -1.0197  0.2242  0.7775
  509TMC3    C3 7561   2.812   1.580  15.454  0.0502 -0.1615 -0.0399
  509TMC3    C4 7562   2.557   1.664  15.497 -0.0423 -0.2563  0.1559
  509TMC3    C5 7563   2.613   1.563  15.569  0.2536  0.0241  0.2596
  509TMC3    C6 7564   2.739   1.521  15.545 -0.0225 -0.0241  0.4530
  509TMC3     C 7565   2.579   1.818  15.321 -0.5368 -0.5774  0.6666
  509TMC3     O 7566   2.468   1.780  15.278 -0.2747  0.3979 -0.1308
  509TMC3     H 7567   2.819   1.754  15.314  0.6548 -0.7190  1.1467
  509TMC3    H1 7568   2.459   1.698  15.529 -0.2882 -1.3915  0.6124
  509TMC3    H2 7569   2.769   1.436  15.605  1.6313  0.4480  0.3063
  509TMC3    C7 7570   2.536   1.520  15.685  0.0268 -0.4927 -0.6696
  509TMC3    C8 7571   2.953   1.567  15.491 -0.4539  1.1471 -0.2268
  509TMC3    O1 7572   2.413   1.536  15.676  0.5722  0.0629  0.3084
  509TMC3    O2 7573   2.989   1.451  15.514  0.5318  0.0310  0.5174
  510MPD2     C 7574   0.752   3.081  14.383  0.3305 -0.5635 -1.0423
  510MPD2    C1 7575   0.812   3.095  14.505  0.0575  0.4902  0.7193
  510MPD2    C2 7576   0.949   3.128  14.516  0.1658 -0.3306  0.3205
  510MPD2    C3 7577   1.027   3.124  14.403 -0.0043 -1.5735 -0.5960
  510MPD2    C4 7578   0.969   3.091  14.277  0.5523  0.0886 -0.2079
  510MPD2    C5 7579   0.835   3.066  14.268  0.3793 -0.0907  0.9993
  510MPD2     H 7580   1.005   3.126  14.608 -0.0320 -0.9208  0.4265
  510MPD2    H1 7581   1.024   3.069  14.187 -0.8264 -1.9942 -0.5495
  510MPD2    H2 7582   0.648   3.052  14.375  0.5813 -2.9588  3.8545
  510MPD2    H3 7583   0.784   3.047  14.174  1.4074 -1.1645  0.6639
  510MPD2     N 7584   1.166   3.139  14.418 -0.4391  0.1118 -0.0551
  510MPD2    H5 7585   1.194   3.152  14.514 -3.4171 -1.9137  1.0963
  510MPD2    N1 7586   0.727   3.084  14.622 -0.2958  0.2022  0.3903
  510MPD2    H7 7587   0.655   3.013  14.616 -0.3354  0.2596  0.1822
  511TMC3    C1 7588   0.701   3.041  14.845  0.1706  0.1449  0.2300
  511TMC3    C2 7589   0.681   3.089  14.969 -0.0351  0.4528  0.4706
  511TMC3    C3 7590   0.677   3.004  15.070 -0.6697  0.2489  0.5105
  511TMC3    C4 7591   0.728   2.909  14.819 -0.1629  0.4045  0.2859
  511TMC3    C5 7592   0.721   2.824  14.922  0.6412  0.5450  0.1806
  511TMC3    C6 7593   0.706   2.872  15.048  0.3915 -0.7648  0.4891
  511TMC3     C 7594   0.761   3.124  14.746  0.0404 -0.2485 -0.1836
  511TMC3     O 7595   0.836   3.213  14.781  0.4494  0.7608 -0.2248
  511TMC3     H 7596   0.650   3.192  14.977 -0.9459  0.1900  0.4025
  511TMC3    H1 7597   0.741   2.863  14.721 -3.3708 -2.1025  1.0119
  511TMC3    H2 7598   0.723   2.799  15.126  0.3788 -0.6645  0.5855
  511TMC3    C7 7599   0.793   2.703  14.906 -0.6783 -0.1321  0.0536
  511TMC3    C8 7600   0.612   3.044  15.189  0.5635 -0.4304 -0.2194
  511TMC3    O1 7601   0.883   2.710  14.822 -0.0072 -0.2827 -0.2469
  511TMC3    O2 7602   0.607   3.168  15.209  0.2955  0.7322  0.5936
  512TMC3    C1 7603   4.716   2.647  13.682  0.0828 -0.1569  0.1396
  512TMC3    C2 7604   0.040   2.633  13.811  0.3124  0.3524  0.1634
  512TMC3    C3 7605   0.146   2.557  13.836  0.2035 -0.0880  0.8296
  512TMC3    C4 7606   0.055   2.592  13.575  0.4094 -0.4422  0.1559
  512TMC3    C5 7607   0.163   2.518  13.603  0.0155 -0.6540  0.4052
  512TMC3    C6 7608   0.214   2.496  13.730  0.4488  1.0252  0.6505
  512TMC3     C 7609   4.579   2.703  13.674 -0.1541  0.4916  0.1688
  512TMC3     O 7610   4.511   2.683  13.772 -0.3812 -0.5288  0.2844
  512TMC3     H 7611   4.698   2.670  13.892 -2.1923 -0.4939 -1.4165
  512TMC3    H1 7612   0.020   2.600  13.472  0.6276 -0.4241  0.0826
  512TMC3    H2 7613   0.314   2.454  13.739 -1.3396 -3.0526  1.4627
  512TMC3    C7 7614   0.249   2.510  13.490 -0.5606  0.3732  0.6607
  512TMC3    C8 7615   0.220   2.575  13.957  0.0057  0.0039 -0.0547
  512TMC3    O1 7616   0.252   2.607  13.415  1.0128  0.0262 -0.0846
  512TMC3    O2 7617   0.273   2.480  14.013  0.1004 -0.0722  0.2731
  513MPD2     C 7618   1.727   2.457  13.866  0.5667 -0.1901 -0.5744
  513MPD2    C1 7619   1.836   2.483  13.785  0.0982 -0.3244 -0.7306
  513MPD2    C2 7620   1.964   2.477  13.835 -0.2047 -0.0674  0.3992
  513MPD2    C3 7621   1.982   2.460  13.970 -0.0917  0.1496  0.1491
  513MPD2    C4 7622   1.877   2.454  14.053  0.2552 -0.0929  0.7526
  513MPD2    C5 7623   1.750   2.450  13.999  0.6636 -0.6660  0.0654
  513MPD2     H 7624   2.042   2.490  13.760 -0.9119 -1.3656 -0.5644
  513MPD2    H1 7625   1.878   2.448  14.161 -0.6827 -1.5040  0.6922
  513MPD2    H2 7626   1.629   2.439  13.823 -0.7755  1.1808  1.8787
  513MPD2    H3 7627   1.670   2.428  14.069  0.0544  1.5334  0.0792
  513MPD2     N 7628   2.115   2.461  14.013 -0.5535 -0.1353 -0.1573
  513MPD2    H5 7629   2.177   2.470  13.933  0.5523 -1.0641  0.5923
  513MPD2    N1 7630   1.809   2.502  13.648  0.0159 -0.5857 -0.0369
  513MPD2    H7 7631   1.723   2.468  13.606 -1.8115  2.3935  1.3580
  514TMC3    C1 7632   1.886   2.533  13.429 -0.0004 -0.0034  0.7544
  514TMC3    C2 7633   1.905   2.626  13.339  0.0372 -0.2206 -0.0373
  514TMC3    C3 7634   1.982   2.597  13.230 -0.5916  0.1590  0.1788
  514TMC3    C4 7635   1.954   2.410  13.427 -0.5857 -0.2964  0.8095
  514TMC3    C5 7636   2.052   2.391  13.324 -0.3643 -0.6345 -0.0589
  514TMC3    C6 7637   2.062   2.486  13.222  0.5271 -0.6834 -0.4839
  514TMC3     C 7638   1.898   2.569  13.566 -0.7875 -0.2905 -0.5223
  514TMC3     O 7639   1.999   2.632  13.592 -0.3094  0.9148  0.1538
  514TMC3     H 7640   1.855   2.722  13.346  1.0445  0.3880 -1.2695
  514TMC3    H1 7641   1.943   2.347  13.515 -2.4651  1.3330  1.7563
  514TMC3    H2 7642   2.129   2.458  13.141 -0.7613 -3.1683 -0.7019
  514TMC3    C7 7643   2.178   2.352  13.388 -0.2519  0.0222 -0.3187
  514TMC3    C8 7644   1.990   2.692  13.116 -0.7544 -0.0452 -0.6926
  514TMC3    O1 7645   2.176   2.281  13.484  0.3893 -0.5449  0.7982
  514TMC3    O2 7646   1.961   2.807  13.142  0.2248  0.0773 -0.4672
  515MPD2     C 7647   4.361   4.090  15.458 -0.0423 -0.4069 -0.1771
  515MPD2    C1 7648   4.370   4.113  15.326 -0.4379 -0.0692  0.0549
  515MPD2    C2 7649   4.467   4.192  15.273 -0.3763  0.9967  0.6840
  515MPD2    C3 7650   4.560   4.254  15.355  0.6869 -0.3393 -0.0781
  515MPD2    C4 7651   4.550   4.230  15.487  0.0093 -0.4107 -0.0671
  515MPD2    C5 7652   4.449   4.152  15.545  0.6091 -0.1695 -0.5821
  515MPD2     H 7653   4.469   4.210  15.166 -3.0514 -0.7192  0.3326
  515MPD2    H1 7654   4.621   4.274  15.555 -0.4725  0.2071  0.0338
  515MPD2    H2 7655   4.280   4.033  15.501 -0.3387  0.2378  0.1179
  515MPD2    H3 7656   4.448   4.137  15.652 -0.6890 -0.3193 -0.6201
  515MPD2     N 7657   4.669   4.336  15.312 -0.6556  0.2525  0.1018
  515MPD2    H5 7658   0.023   4.364  15.374  1.0859 -1.1698 -1.3509
  515MPD2    N1 7659   4.281   4.073  15.223  0.1550 -0.0747  0.3872
  515MPD2    H7 7660   4.309   4.092  15.127  0.6199 -2.1236  0.1112
  516TMC3    C1 7661   4.099   3.949  15.122  0.0912  0.0408 -1.1569
  516TMC3    C2 7662   4.123   4.022  15.010 -0.0926 -0.6816 -0.7676
  516TMC3    C3 7663   4.021   4.035  14.917  0.2893  0.4890 -0.5628
  516TMC3    C4 7664   3.985   3.876  15.140  0.1956  0.2202 -0.5402
  516TMC3    C5 7665   3.884   3.890  15.050 -0.8928  0.2317  0.0454
  516TMC3    C6 7666   3.901   3.971  14.932  0.1913 -0.8540 -0.1718
  516TMC3     C 7667   4.168   3.996  15.246 -0.2520 -0.5520  0.4966
  516TMC3     O 7668   4.119   3.959  15.353  0.1778  0.4473 -0.1381
  516TMC3     H 7669   4.208   4.090  15.006 -0.6740  0.1555  1.0311
  516TMC3    H1 7670   3.960   3.832  15.236  1.0960 -1.5774 -1.1299
  516TMC3    H2 7671   3.819   3.986  14.863 -2.2928 -1.1436  2.7448
  516TMC3    C7 7672   3.759   3.826  15.068  0.5467  0.0715 -0.0459
  516TMC3    C8 7673   4.056   4.071  14.782 -0.6465  0.5528  1.1648
  516TMC3    O1 7674   3.656   3.873  15.019 -0.7275  0.0946 -0.4159
  516TMC3    O2 7675   3.988   4.017  14.695  0.4487  0.2982  0.1599
  517MPD2     C 7676   4.127   0.809   0.411 -0.0561 -0.3534 -0.3157
  517MPD2    C1 7677   4.244   0.845   0.337  0.0673 -0.0003 -0.0465
  517MPD2    C2 7678   4.242   0.964   0.264 -0.6455  0.6457 -0.4349
  517MPD2    C3 7679   4.124   1.041   0.271  0.4336  0.1845 -0.6552
  517MPD2    C4 7680   4.016   1.012   0.359  0.1842  0.3806 -0.4166
  517MPD2    C5 7681   4.021   0.895   0.431 -0.7034  0.1084  0.0461
  517MPD2     H 7682   4.333   0.992   0.214 -0.0798  1.8733  1.2867
  517MPD2    H1 7683   3.931   1.080   0.359 -0.2534 -0.1640 -0.0639
  517MPD2    H2 7684   4.119   0.718   0.470  2.0801 -0.8851 -0.8565
  517MPD2    H3 7685   3.941   0.868   0.499 -1.0294 -1.2121 -0.8553
  517MPD2     N 7686   4.105   1.155   0.190 -0.4545 -0.1667 -0.0767
  517MPD2    H5 7687   4.011   1.190   0.179 -0.3702 -0.1619 -0.7479
  517MPD2    N1 7688   4.354   0.757   0.332  0.8692  0.0173  0.8662
  517MPD2    H7 7689   4.437   0.803   0.296  0.1502 -0.5584 -1.5018
  518TMC3    C1 7690   4.466   0.544   0.304  0.3102 -0.1268  0.1621
  518TMC3    C2 7691   4.439   0.413   0.268  0.4224 -0.0521  0.5464
  518TMC3    C3 7692   4.551   0.343   0.227  0.3205  0.0059  0.1207
  518TMC3    C4 7693   4.591   0.601   0.292 -0.6444  0.1268 -0.2271
  518TMC3    C5 7694   4.689   0.531   0.247 -0.0515 -0.4535  0.2402
  518TMC3    C6 7695   4.673   0.401   0.214 -0.3894  0.4223 -0.1868
  518TMC3     C 7696   4.357   0.619   0.362 -0.6853  0.5034 -0.1779
  518TMC3     O 7697   4.276   0.552   0.418 -0.1324 -0.1958  0.2422
  518TMC3     H 7698   4.339   0.373   0.263 -0.3063  1.6195  2.0096
  518TMC3    H1 7699   4.604   0.706   0.312 -1.3437  0.0351  0.7083
  518TMC3    H2 7700   0.032   0.333   0.183  0.4537  1.2182  0.2265
  518TMC3    C7 7701   0.095   0.589   0.209  0.8356 -0.5319 -0.2802
  518TMC3    C8 7702   4.529   0.230   0.143 -0.2732 -0.8338  0.5339
  518TMC3    O1 7703   0.119   0.699   0.260  0.2227 -0.2979  0.3574
  518TMC3    O2 7704   4.620   0.145   0.141 -0.0608 -0.5605 -0.2238
  519MPD2     C 7705   1.251   3.817  14.829 -0.5746  0.5931 -0.5774
  519MPD2    C1 7706   1.285   3.884  14.711 -0.0452 -0.0786  0.6244
  519MPD2    C2 7707   1.312   3.811  14.592 -0.4844  0.2683 -0.2852
  519MPD2    C3 7708   1.315   3.674  14.600  0.1358  0.1085  0.5179
  519MPD2    C4 7709   1.285   3.603  14.719  0.5929  0.2640  0.4341
  519MPD2    C5 7710   1.264   3.681  14.832 -0.3129  0.4014  0.1024
  519MPD2     H 7711   1.330   3.864  14.499  0.8196 -2.2819 -1.4844
  519MPD2    H1 7712   1.276   3.495  14.725  0.4673  0.2274 -0.4712
  519MPD2    H2 7713   1.226   3.878  14.916  0.1972 -0.4524  0.3783
  519MPD2    H3 7714   1.260   3.626  14.925  2.7988  1.0544  0.6066
  519MPD2     N 7715   1.342   3.610  14.481 -0.2424 -0.3631 -0.2553
  519MPD2    H5 7716   1.333   3.664  14.395 -0.6156  1.3197  0.8504
  519MPD2    N1 7717   1.256   4.027  14.703  0.0254  0.6161 -0.4331
  519MPD2    H7 7718   1.197   4.056  14.780  0.3348  1.4912 -0.5322
  520TMC3    C1 7719   1.404   3.446  14.327  0.5299  0.3751 -0.1075
  520TMC3    C2 7720   1.327   3.499  14.229  0.4361 -0.0380 -0.8504
  520TMC3    C3 7721   1.392   3.531  14.110 -0.0432 -0.6341  0.1173
  520TMC3    C4 7722   1.536   3.416  14.310 -0.3896 -0.0772 -0.2126
  520TMC3    C5 7723   1.601   3.455  14.193  0.8475 -0.3532 -0.2823
  520TMC3    C6 7724   1.528   3.513  14.093 -0.4235  0.9176 -0.3529
  520TMC3     C 7725   1.373   3.481  14.467  0.1586  0.1877  0.2166
  520TMC3     O 7726   1.435   3.417  14.548  0.5971 -0.2600  0.0845
  520TMC3     H 7727   1.220   3.500  14.244  0.3349 -2.0327 -1.4536
  520TMC3    H1 7728   1.596   3.378  14.392  0.5314 -1.8335 -1.6944
  520TMC3    H2 7729   1.572   3.533  13.996 -0.5979 -1.1086 -0.8413
  520TMC3    C7 7730   1.749   3.452  14.193  0.4848 -0.2257  0.9298
  520TMC3    C8 7731   1.331   3.599  14.000  0.1822 -0.0119 -0.0576
  520TMC3    O1 7732   1.802   3.365  14.262  0.3277  0.2985 -0.0054
  520TMC3    O2 7733   1.397   3.610  13.896  0.7164  0.3755  0.3321
  521MPD2     C 7734   1.947   1.524   0.186 -1.0022 -1.1626 -0.1507
  521MPD2    C1 7735   1.896   1.572   0.057  0.5307  0.5896 -0.7107
  521MPD2    C2 7736   1.965   1.537  17.629  0.5467  0.1615 -0.4747
  521MPD2    C3 7737   2.066   1.451  17.636  0.3259 -0.8625  0.5267
  521MPD2    C4 7738   2.105   1.400   0.073 -0.1124  0.6403  0.1125
  521MPD2    C5 7739   2.043   1.435   0.191 -0.5711  0.4498 -0.3255
  521MPD2     H 7740   1.933   1.570  17.531 -0.3007 -0.5877 -0.4571
  521MPD2    H1 7741   2.180   1.322   0.077 -0.6573  0.0509 -0.9710
  521MPD2    H2 7742   1.902   1.558   0.278 -0.8713 -0.8052 -0.2158
  521MPD2    H3 7743   2.080   1.383   0.279  0.1793 -0.6046 -1.2578
  521MPD2     N 7744   2.108   1.403  17.511 -0.4506  0.0754  0.6201
  521MPD2    H5 7745   2.074   1.459  17.433  0.9189  1.7323  1.2305
  521MPD2    N1 7746   1.767   1.637   0.053 -0.1411  0.1621 -0.1291
  521MPD2    H7 7747   1.730   1.655   0.145 -2.2400 -2.8037 -0.4078
  522TMC3    C1 7748   2.261   1.298  17.349  0.5664 -0.6402  0.0227
  522TMC3    C2 7749   2.322   1.178  17.304  0.2597 -0.6868 -0.0825
  522TMC3    C3 7750   2.375   1.168  17.178 -0.3544 -0.3874 -0.4826
  522TMC3    C4 7751   2.238   1.398  17.260 -0.4861  0.4258 -0.5482
  522TMC3    C5 7752   2.307   1.392  17.142 -0.2427 -0.3415  0.2993
  522TMC3    C6 7753   2.377   1.276  17.099 -0.4422  0.0001  0.0713
  522TMC3     C 7754   2.208   1.310  17.488 -0.1802 -0.0783  0.0805
  522TMC3     O 7755   2.255   1.226  17.566  0.5792 -0.4625  0.8141
  522TMC3     H 7756   2.334   1.100  17.379 -2.4860 -0.6566  0.4087
  522TMC3    H1 7757   2.195   1.493  17.289 -0.1461  0.6729 -0.8629
  522TMC3    H2 7758   2.443   1.287  17.013  0.4243  2.3300  1.0351
  522TMC3    C7 7759   2.309   1.504  17.049 -0.8024  0.1264  0.0339
  522TMC3    C8 7760   2.490   1.078  17.170  0.5672  0.4047 -0.8868
  522TMC3    O1 7761   2.384   1.489  16.957 -0.5321  0.1941  0.0905
  522TMC3    O2 7762   2.523   1.012  17.271 -0.6352 -0.2018 -0.4907
  523MPD2     C 7763   0.005   1.839  10.633 -0.1571  0.8577 -0.0275
  523MPD2    C1 7764   0.007   1.809  10.500  0.4674  0.3063  0.1145
  523MPD2    C2 7765   4.687   1.906  10.405  0.0991  0.0683  0.3434
  523MPD2    C3 7766   4.625   2.022  10.438  0.0731 -0.3691 -0.5153
  523MPD2    C4 7767   4.621   2.047  10.568  0.5341 -0.6877 -0.1412
  523MPD2    C5 7768   4.666   1.961  10.665  0.2258 -0.4518  0.7047
  523MPD2     H 7769   4.698   1.887  10.299  0.9297 -1.1865  0.6590
  523MPD2    H1 7770   4.579   2.144  10.592  0.7658 -0.8526  0.9128
  523MPD2    H2 7771   0.054   1.775  10.704  0.9240  0.1140 -1.4432
  523MPD2    H3 7772   4.667   2.000  10.766 -0.1612 -0.3243  0.6572
  523MPD2     N 7773   4.572   2.116  10.348 -0.5019 -0.1840  0.9250
  523MPD2    H5 7774   4.540   2.199  10.398 -1.2309 -0.1268  0.3638
  523MPD2    N1 7775   0.063   1.683  10.463 -0.4745  0.3213  0.1425
  523MPD2    H7 7776   0.104   1.617  10.528  0.3300 -0.5056 -1.2104
  524TMC3    C1 7777   4.518   2.213  10.145  0.0996  0.5531  0.3322
  524TMC3    C2 7778   4.420   2.182  10.050 -0.4122  0.4781 -0.5212
  524TMC3    C3 7779   4.373   2.286   9.974 -0.6037  0.8869  0.2726
  524TMC3    C4 7780   4.565   2.333  10.178 -0.4288 -0.6666 -0.2455
  524TMC3    C5 7781   4.507   2.439  10.113  0.3409 -0.2976  0.1172
  524TMC3    C6 7782   4.417   2.410  10.007 -0.1375 -0.1530 -0.1271
  524TMC3     C 7783   4.570   2.100  10.218  0.2008 -0.1199  0.6117
  524TMC3     O 7784   4.587   2.000  10.151  0.1149  0.5824 -0.1390
  524TMC3     H 7785   4.390   2.081  10.025  0.9460  0.2118 -1.0315
  524TMC3    H1 7786   4.632   2.341  10.263  1.0513 -1.3000 -1.3501
  524TMC3    H2 7787   4.375   2.495   9.953  0.5065  1.1002  1.3509
  524TMC3    C7 7788   4.581   2.561  10.119 -0.2498  0.0131 -0.7170
  524TMC3    C8 7789   4.301   2.256   9.854  0.0264  0.1215 -0.3045
  524TMC3    O1 7790   4.691   2.552  10.166 -0.5590  0.0474  0.0008
  524TMC3    O2 7791   4.263   2.139   9.832 -0.0436 -0.4236 -0.3979
  525MPD2     C 7792   2.776   3.420  14.410  0.1607  0.8973 -0.5481
  525MPD2    C1 7793   2.856   3.448  14.516 -0.2326 -0.0806  0.0785
  525MPD2    C2 7794   2.919   3.571  14.519  0.8885 -0.6083 -0.1102
  525MPD2    C3 7795   2.902   3.667  14.422 -0.4060 -0.3821  0.1599
  525MPD2    C4 7796   2.802   3.639  14.326 -0.2310  0.1489 -0.8315
  525MPD2    C5 7797   2.746   3.516  14.318  0.0673 -0.2266  0.4932
  525MPD2     H 7798   2.985   3.588  14.603  1.3237 -0.5500 -0.4644
  525MPD2    H1 7799   2.777   3.712  14.249  2.0851  1.3508 -0.4807
  525MPD2    H2 7800   2.722   3.326  14.416  0.4350  0.8212  0.6529
  525MPD2    H3 7801   2.664   3.485  14.254  1.4760 -1.7059 -0.5920
  525MPD2     N 7802   2.959   3.795  14.426 -0.0848  0.0826 -0.5748
  525MPD2    H5 7803   2.931   3.865  14.357 -1.4380  0.5004  0.4039
  525MPD2    N1 7804   2.877   3.356  14.625  0.1882  0.4076 -0.3787
  525MPD2    H7 7805   2.938   3.387  14.700  0.5484 -1.2056 -0.0075
  526TMC3    C1 7806   2.864   3.189  14.781  0.3367 -0.2323  0.0352
  526TMC3    C2 7807   2.780   3.141  14.882 -0.3630  0.4506 -0.2287
  526TMC3    C3 7808   2.844   3.083  14.990 -0.1606  0.9332 -0.4107
  526TMC3    C4 7809   3.004   3.173  14.783 -0.3480 -0.0313 -0.4559
  526TMC3    C5 7810   3.054   3.109  14.893  0.6600 -0.2340 -0.8108
  526TMC3    C6 7811   2.976   3.074  14.999 -0.0287 -0.6691  0.1013
  526TMC3     C 7812   2.804   3.240  14.662  0.2088 -0.3627  0.1544
  526TMC3     O 7813   2.705   3.183  14.616 -0.4037  0.1605 -0.3792
  526TMC3     H 7814   2.672   3.154  14.881 -0.2382  1.5284  0.4359
  526TMC3    H1 7815   3.065   3.196  14.696  1.4991  1.0867  1.1379
  526TMC3    H2 7816   3.024   3.035  15.088  1.4190 -0.2116 -0.4721
  526TMC3    C7 7817   3.166   3.021  14.889  0.1368 -0.2819  0.5057
  526TMC3    C8 7818   2.768   3.066  15.112  0.0407  0.4132  0.7871
  526TMC3    O1 7819   3.211   2.976  14.998 -0.0182 -0.0272  0.3003
  526TMC3    O2 7820   2.823   3.110  15.212  0.6298  0.0595  0.2003
  527MPD2     C 7821   0.786   1.733   1.829 -0.2003  0.5960 -0.5054
  527MPD2    C1 7822   0.745   1.734   1.699 -0.3718 -0.2271 -0.3807
  527MPD2    C2 7823   0.812   1.648   1.608 -0.1811  0.7222  0.0508
  527MPD2    C3 7824   0.920   1.576   1.648 -1.0129  0.7042 -0.0746
  527MPD2    C4 7825   0.970   1.582   1.779 -0.0639  0.0383  0.7886
  527MPD2    C5 7826   0.894   1.651   1.869 -0.0034  0.0916  0.3005
  527MPD2     H 7827   0.778   1.640   1.506 -2.4335 -1.2060  0.9412
  527MPD2    H1 7828   1.047   1.514   1.814  2.3053  1.9079 -0.8606
  527MPD2    H2 7829   0.735   1.782   1.911 -0.5302  2.6323 -1.9293
  527MPD2    H3 7830   0.930   1.653   1.971 -1.9516 -0.8507  0.9936
  527MPD2     N 7831   0.991   1.497   1.551 -0.1358 -0.2256  0.0537
  527MPD2    H5 7832   0.951   1.487   1.458 -1.4114  0.1284  0.5672
  527MPD2    N1 7833   0.625   1.806   1.653 -0.7328 -0.2141  0.6231
  527MPD2    H7 7834   0.585   1.759   1.572 -3.2921  0.4817  1.5187
  528TMC3    C1 7835   0.420   1.918   1.680 -0.1491 -0.6312 -0.5891
  528TMC3    C2 7836   0.350   2.020   1.742  0.2219  0.8250  0.4890
  528TMC3    C3 7837   0.215   2.021   1.718  0.6464 -0.1750  0.3997
  528TMC3    C4 7838   0.365   1.819   1.600  0.6392 -0.1307 -0.9134
  528TMC3    C5 7839   0.232   1.835   1.582 -0.4196  0.5294  0.8472
  528TMC3    C6 7840   0.152   1.930   1.638 -0.6006  0.2770 -0.0953
  528TMC3     C 7841   0.561   1.902   1.724  0.1062 -0.3572 -0.3320
  528TMC3     O 7842   0.597   1.967   1.823 -0.0043  0.5194  0.1758
  528TMC3     H 7843   0.402   2.106   1.785 -0.8667  0.7578  1.9333
  528TMC3    H1 7844   0.424   1.757   1.534 -0.6521  1.2591 -3.3783
  528TMC3    H2 7845   0.053   1.939   1.596  0.8396  2.2166 -3.0558
  528TMC3    C7 7846   0.157   1.735   1.505 -0.9590  0.3536  0.5710
  528TMC3    C8 7847   0.153   2.147   1.756 -0.3294  0.3546 -0.0296
  528TMC3    O1 7848   0.059   1.771   1.443  0.2764 -0.3305  1.2504
  528TMC3    O2 7849   0.206   2.220   1.838  0.1324  0.2981  0.2093
  529MPD2     C 7850   2.258   4.446   0.440  0.2769 -0.2225  0.7273
  529MPD2    C1 7851   2.357   4.539   0.470  0.1166 -0.0268 -0.3444
  529MPD2    C2 7852   2.362   4.663   0.408 -0.5480  1.2832  0.1206
  529MPD2    C3 7853   2.274   4.692   0.302  0.2891 -0.6370 -0.1942
  529MPD2    C4 7854   2.183   4.597   0.269 -0.3946  0.3917  0.1421
  529MPD2    C5 7855   2.171   4.481   0.346 -0.2528  0.2199 -0.7375
  529MPD2     H 7856   2.435   0.012   0.447  0.2086  1.7827 -2.1760
  529MPD2    H1 7857   2.107   4.620   0.195 -1.1435 -1.9489  0.1829
  529MPD2    H2 7858   2.249   4.356   0.499 -3.3681  1.1874  2.3290
  529MPD2    H3 7859   2.084   4.416   0.341 -1.8174  2.4016 -2.2348
  529MPD2     N 7860   2.272   0.098   0.230 -0.7938 -0.5764 -0.2392
  529MPD2    H5 7861   2.202   0.116   0.160 -2.5509 -0.9794  1.4193
  529MPD2    N1 7862   2.460   4.507   0.557  0.5040  0.0865 -0.2952
  529MPD2    H7 7863   2.522   4.587   0.568 -0.3499  0.6184  0.6771
  530TMC3    C1 7864   2.613   4.391   0.694  0.2902 -0.4401  0.0251
  530TMC3    C2 7865   2.643   4.516   0.752  0.4114 -0.1918 -0.5327
  530TMC3    C3 7866   2.761   4.524   0.821  0.0355  0.3519  0.4652
  530TMC3    C4 7867   2.687   4.277   0.712  0.6184  0.0697 -0.2783
  530TMC3    C5 7868   2.805   4.288   0.780  0.3589  0.4075 -0.3603
  530TMC3    C6 7869   2.847   4.413   0.827  0.3666 -0.3827 -0.5502
  530TMC3     C 7870   2.487   4.382   0.615 -0.6169 -0.1624  0.7425
  530TMC3     O 7871   2.444   4.269   0.586  0.6312 -0.0728  0.4794
  530TMC3     H 7872   2.570   4.595   0.763  0.7259 -0.0472  0.5228
  530TMC3    H1 7873   2.645   4.184   0.675  0.0174  0.4605 -0.5738
  530TMC3    H2 7874   2.952   4.423   0.852 -0.7729  0.2238  3.9072
  530TMC3    C7 7875   2.862   4.165   0.822  0.2193 -0.5886  0.8462
  530TMC3    C8 7876   2.818   4.652   0.854 -0.4580 -0.1769  0.3471
  530TMC3    O1 7877   2.793   4.066   0.811  0.1574  0.3803  0.1047
  530TMC3    O2 7878   2.741   0.025   0.858 -0.2706  0.0509  0.0020
  531MPD2     C 7879   2.636   2.537  13.530 -0.3353  0.1006 -0.3115
  531MPD2    C1 7880   2.532   2.486  13.606 -0.4119 -0.3500 -0.1017
  531MPD2    C2 7881   2.416   2.448  13.541  0.0539 -0.1634 -0.9373
  531MPD2    C3 7882   2.395   2.466  13.405 -0.5922 -0.1602 -0.4055
  531MPD2    C4 7883   2.501   2.524  13.339 -0.8224  0.0729 -0.2566
  531MPD2    C5 7884   2.620   2.547  13.397 -0.1766 -0.0329  0.0747
  531MPD2     H 7885   2.331   2.413  13.599 -0.6382  1.2961 -1.0715
  531MPD2    H1 7886   2.507   2.544  13.232  0.4983  1.6907  0.1201
  531MPD2    H2 7887   2.725   2.581  13.574 -0.4176  1.4657 -1.4932
  531MPD2    H3 7888   2.694   2.592  13.333 -1.2302  1.9095  0.2238
  531MPD2     N 7889   2.279   2.430  13.334 -0.6967 -0.2246 -0.0687
  531MPD2    H5 7890   2.271   2.449  13.235 -0.1567 -3.2796 -0.6827
  531MPD2    N1 7891   2.547   2.481  13.747 -0.5163 -0.3577  0.8892
  531MPD2    H7 7892   2.639   2.493  13.787 -0.4109  1.7472  0.0255
  532TMC3    C1 7893   2.471   2.519  13.974  1.0753  0.9559  0.1056
  532TMC3    C2 7894   2.358   2.561  14.036 -0.8813 -0.1041  0.3523
  532TMC3    C3 7895   2.310   2.492  14.148  0.0411  0.0501 -0.5603
  532TMC3    C4 7896   2.552   2.424  14.029  0.3070 -0.1484 -0.6230
  532TMC3    C5 7897   2.503   2.363  14.142  0.2485  0.4003  0.0040
  532TMC3    C6 7898   2.387   2.401  14.210 -0.2338  0.0101  0.2243
  532TMC3     C 7899   2.440   2.501  13.834  0.4577 -0.0601 -0.3211
  532TMC3     O 7900   2.321   2.504  13.814  0.6635 -0.2183  0.4347
  532TMC3     H 7901   2.300   2.642  13.993  0.6699  0.8665  0.0919
  532TMC3    H1 7902   2.623   2.369  13.968  0.7118 -0.7927  0.4206
  532TMC3    H2 7903   2.354   2.347  14.298 -2.4316  2.2218  0.7733
  532TMC3    C7 7904   2.597   2.275  14.213  0.9287 -1.3444 -0.1697
  532TMC3    C8 7905   2.163   2.459  14.141 -0.5749  0.3069  0.5583
  532TMC3    O1 7906   2.555   2.207  14.310  0.1448 -0.0530 -0.1933
  532TMC3    O2 7907   2.107   2.424  14.247  0.1581 -0.7027 -0.7208
  533TMC3    C1 7908   3.085   3.975  14.529 -0.4020  0.2725 -0.0038
  533TMC3    C2 7909   3.206   4.015  14.580 -0.1532 -0.6207 -0.0688
  533TMC3    C3 7910   3.204   4.125  14.663  0.2323 -0.9501 -0.1039
  533TMC3    C4 7911   2.968   4.044  14.567 -0.7486 -0.3268  0.3588
  533TMC3    C5 7912   2.972   4.158  14.652  0.4948  0.6919 -0.4415
  533TMC3    C6 7913   3.091   4.196  14.701  0.0764 -0.3262  0.7688
  533TMC3     C 7914   3.069   3.829  14.505 -0.8526  0.3708 -0.2273
  533TMC3     O 7915   3.136   3.762  14.579 -0.2400  0.0611 -0.0188
  533TMC3     H 7916   3.293   3.952  14.569 -0.6482 -1.4931  1.0418
  533TMC3    H1 7917   2.871   4.014  14.531 -1.0021 -0.5368  1.2286
  533TMC3    H2 7918   3.096   4.280  14.770 -1.6458 -0.5085  1.0937
  533TMC3    C7 7919   2.856   4.166  14.738  0.2002 -0.0151 -0.0955
  533TMC3    C8 7920   3.329   4.181  14.721 -0.0448 -0.2051  0.4383
  533TMC3    O1 7921   2.773   4.077  14.723  1.0090  0.1939 -0.1335
  533TMC3    O2 7922   3.306   4.273  14.788  0.0536  0.1538 -0.2767
  534MPD2     C 7923   4.494   1.259   1.141 -0.2393  0.2735  0.3510
  534MPD2    C1 7924   4.579   1.192   1.231  1.0107  0.6202  0.5762
  534MPD2    C2 7925   4.621   1.066   1.198 -0.2024 -0.2627 -0.7064
  534MPD2    C3 7926   4.592   1.006   1.076  0.7852 -0.1439  0.1761
  534MPD2    C4 7927   4.514   1.077   0.980  0.4130  0.2139  0.4186
  534MPD2    C5 7928   4.468   1.200   1.014  0.2326 -0.7948 -0.3182
  534MPD2     H 7929   4.689   1.016   1.265 -1.2467 -0.7873 -0.0369
  534MPD2    H1 7930   4.497   1.027   0.885  1.0214  0.1885  0.3233
  534MPD2    H2 7931   4.464   1.362   1.152  0.1657  0.6301 -1.9679
  534MPD2    H3 7932   4.406   1.258   0.946 -0.6813 -1.9773 -0.4973
  534MPD2     N 7933   4.645   0.876   1.043  0.5196  0.2257  0.2069
  534MPD2    H5 7934   4.610   0.828   0.961 -1.6828  1.3186  0.5279
  534MPD2    N1 7935   4.607   1.245   1.359 -0.7516  0.0502 -0.1837
  534MPD2    H7 7936   4.671   1.198   1.423 -1.0914  0.0738  0.1704
  535TMC3    C1 7937   0.002   0.663   1.108 -0.5667 -0.5489 -0.3809
  535TMC3    C2 7938   4.601   0.610   1.081 -0.2577 -0.5231  0.2229
  535TMC3    C3 7939   4.593   0.472   1.055  0.3835  0.3506  0.6551
  535TMC3    C4 7940   0.119   0.602   1.080 -0.3564 -0.5708  0.0106
  535TMC3    C5 7941   0.114   0.469   1.040  0.4722  0.6583 -0.2924
  535TMC3    C6 7942   4.711   0.401   1.030 -0.4852 -0.8257  0.0645
  535TMC3     C 7943   0.005   0.806   1.130 -0.5432  0.7727 -0.3341
  535TMC3     O 7944   0.101   0.854   1.189 -0.0075  0.3775 -0.4165
  535TMC3     H 7945   4.514   0.675   1.081 -0.1562 -0.3910  2.0378
  535TMC3    H1 7946   0.214   0.650   1.100 -0.0986 -1.0834  0.0087
  535TMC3    H2 7947   4.713   0.297   0.999  2.0304 -0.3434 -1.4077
  535TMC3    C7 7948   0.237   0.396   1.021 -0.4734 -0.3970 -0.1912
  535TMC3    C8 7949   4.467   0.398   1.053  0.4070  0.5620  0.3198
  535TMC3    O1 7950   0.235   0.278   0.990 -0.6954 -0.2362 -0.1278
  535TMC3    O2 7951   4.460   0.298   0.988 -0.3197 -0.8997  0.1265
  536MPD2     C 7952   4.525   3.115  16.666 -0.1585 -0.3185 -1.2789
  536MPD2    C1 7953   4.397   3.073  16.701 -1.1262 -0.4401  0.1069
  536MPD2    C2 7954   4.297   3.062  16.606 -0.4080 -0.0358 -0.2599
  536MPD2    C3 7955   4.333   3.057  16.469  0.4620 -0.4332  0.2920
  536MPD2    C4 7956   4.464   3.085  16.432  0.5452  0.1798 -0.3085
  536MPD2    C5 7957   4.556   3.128  16.527  0.7327 -0.8772  0.3044
  536MPD2     H 7958   4.198   3.031  16.636  0.5470 -2.0526  0.8099
  536MPD2    H1 7959   4.498   3.086  16.329 -1.8105 -0.0256 -1.1061
  536MPD2    H2 7960   4.605   3.143  16.734 -0.8609  1.2151 -1.0830
  536MPD2    H3 7961   4.654   3.154  16.488  0.9755 -1.4200  0.5547
  536MPD2     N 7962   4.247   3.022  16.358  0.0650 -0.3376  0.1112
  536MPD2    H5 7963   4.295   3.008  16.269 -1.9843  1.7401 -1.3186
  536MPD2    N1 7964   4.375   3.067  16.841 -0.9280  0.4041  0.6496
  536MPD2    H7 7965   4.446   3.097  16.908 -0.0297 -1.4221  0.5292
  537TMC3    C1 7966   4.260   3.035  17.047 -0.2131  0.2732 -0.5611
  537TMC3    C2 7967   4.312   3.150  17.098  0.2539 -0.3234 -0.0902
  537TMC3    C3 7968   4.313   3.159  17.230 -0.7124  0.1307  0.6113
  537TMC3    C4 7969   4.186   2.943  17.118  0.3554  0.2432 -0.2092
  537TMC3    C5 7970   4.196   2.953  17.254 -0.0412 -0.0597  0.0548
  537TMC3    C6 7971   4.268   3.060  17.310  0.2728 -0.0983  0.4835
  537TMC3     C 7972   4.258   3.023  16.903 -0.3223  0.7346 -0.1513
  537TMC3     O 7973   4.174   2.946  16.856 -0.2631  0.2397 -0.3710
  537TMC3     H 7974   4.339   3.231  17.031 -2.9310  1.3124  0.6056
  537TMC3    H1 7975   4.141   2.857  17.069  0.0138  0.4625 -0.2829
  537TMC3    H2 7976   4.277   3.069  17.418  0.8104 -0.9348  0.5084
  537TMC3    C7 7977   4.123   2.873  17.347  0.6949 -0.2759 -0.2662
  537TMC3    C8 7978   4.355   3.277  17.300 -0.1875 -1.2842 -0.0628
  537TMC3    O1 7979   4.135   2.903  17.466  0.3490 -0.6471  0.2505
  537TMC3    O2 7980   4.409   3.255  17.411  0.0102  0.0609  0.0656
  538TMC3    C1 7981   0.686   1.469  11.125  0.1321  0.0521 -0.2198
  538TMC3    C2 7982   0.798   1.544  11.129  0.2611 -0.1051  0.3516
  538TMC3    C3 7983   0.815   1.641  11.034  0.2704  0.3712 -0.2976
  538TMC3    C4 7984   0.593   1.481  11.025  0.4553  0.7478  0.2867
  538TMC3    C5 7985   0.603   1.590  10.942 -0.2960  0.1579  0.4349
  538TMC3    C6 7986   0.715   1.674  10.948 -0.2413  0.3169 -0.1447
  538TMC3     C 7987   0.612   1.477  11.248 -0.3134 -0.1295  0.0154
  538TMC3     O 7988   0.492   1.492  11.226 -0.6866  0.2939  0.4623
  538TMC3     H 7989   0.880   1.540  11.200  0.4825  1.8444  0.2141
  538TMC3    H1 7990   0.508   1.415  11.015  0.4342  0.9014 -0.5885
  538TMC3    H2 7991   0.720   1.757  10.879 -0.7850 -1.1946 -1.9970
  538TMC3    C7 7992   0.479   1.653  10.888  0.3492 -0.3203  0.4635
  538TMC3    C8 7993   0.940   1.720  11.045 -0.3061 -0.5027  0.3740
  538TMC3    O1 7994   0.394   1.574  10.853  0.0983  0.2555  0.3298
  538TMC3    O2 7995   0.982   1.731  11.159 -0.1200  0.2235  0.3936
  539MPD2     C 7996   0.184   0.956  12.131 -0.0716  0.2103 -0.4874
  539MPD2    C1 7997   0.272   1.041  12.059 -0.7705 -0.1230 -0.2039
  539MPD2    C2 7998   0.226   1.164  12.031 -0.4770  1.0556 -0.0691
  539MPD2    C3 7999   0.107   1.216  12.083  0.4329 -0.1009  0.1020
  539MPD2    C4 8000   0.026   1.130  12.155  0.2258 -0.6917  1.3802
  539MPD2    C5 8001   0.070   1.005  12.185  0.2097 -0.2791  0.2332
  539MPD2     H 8002   0.284   1.212  11.953  0.0619  2.4158  1.1737
  539MPD2    H1 8003   4.652   1.160  12.199 -0.8114  1.4970 -2.2850
  539MPD2    H2 8004   0.209   0.852  12.150 -1.5063 -0.6399 -3.2583
  539MPD2    H3 8005   0.008   0.948  12.254  1.1166 -0.3207  1.0034
  539MPD2     N 8006   0.051   1.342  12.051  0.1688  0.7803  0.3153
  539MPD2    H5 8007   4.685   1.373  12.092 -0.7010 -0.2104 -0.7701
  539MPD2    N1 8008   0.397   0.999  12.015 -0.2944 -0.5527  0.1867
  539MPD2    H7 8009   0.446   1.047  11.941 -0.2304 -0.5862  0.2076
  540TMC3    C1 8010   0.022   1.534  11.919 -0.0654  0.3471  0.0708
  540TMC3    C2 8011   0.027   1.550  11.780  0.9670 -0.4145 -0.0299
  540TMC3    C3 8012   0.004   1.677  11.730  0.0157 -0.2758 -0.8124
  540TMC3    C4 8013   4.681   1.627  12.000 -0.7760  0.1720 -0.5859
  540TMC3    C5 8014   4.659   1.748  11.941 -0.2224 -0.0316 -0.3732
  540TMC3    C6 8015   4.671   1.773  11.809 -0.2275 -0.0310  0.6102
  540TMC3     C 8016   0.108   1.429  11.959  0.3091 -0.7477 -0.0076
  540TMC3     O 8017   0.205   1.416  11.886  0.7667 -0.7323 -0.3384
  540TMC3     H 8018   0.067   1.467  11.722 -2.1789 -2.6011  0.9175
  540TMC3    H1 8019   4.668   1.597  12.103  1.2156  0.5156 -0.2352
  540TMC3    H2 8020   4.620   1.862  11.774 -0.5431  0.1293  1.4805
  540TMC3    C7 8021   4.598   1.853  12.023 -0.1557  0.7143  0.1975
  540TMC3    C8 8022   4.710   1.706  11.587 -0.2786  0.1772 -0.7291
  540TMC3    O1 8023   4.508   1.808  12.093 -0.1478 -0.4649 -0.5232
  540TMC3    O2 8024   0.033   1.818  11.551 -0.4629 -0.1079  0.3549
  541MPD2     C 8025   3.363   2.321  13.356 -0.4705 -0.3669 -0.3656
  541MPD2    C1 8026   3.495   2.309  13.316  0.0751  0.1464 -0.2218
  541MPD2    C2 8027   3.529   2.377  13.197 -0.3415 -0.5427  0.1109
  541MPD2    C3 8028   3.442   2.465  13.132 -0.2455 -0.5926 -0.3600
  541MPD2    C4 8029   3.314   2.480  13.181  0.7540  0.0865 -1.0809
  541MPD2    C5 8030   3.277   2.401  13.288 -0.2376  0.5080  0.2013
  541MPD2     H 8031   3.624   2.368  13.146 -0.5041 -0.7023 -0.1708
  541MPD2    H1 8032   3.240   2.543  13.134 -2.5412 -0.3673  3.3942
  541MPD2    H2 8033   3.328   2.285  13.452  0.2619  0.6581  0.2846
  541MPD2    H3 8034   3.173   2.404  13.317 -1.1958  1.7440 -3.3570
  541MPD2     N 8035   3.472   2.539  13.012 -0.0838 -0.3175 -0.4506
  541MPD2    H5 8036   3.396   2.601  12.983 -0.1943  0.4920  1.6146
  541MPD2    N1 8037   3.579   2.224  13.389 -0.3694  0.3051 -0.3072
  541MPD2    H7 8038   3.547   2.201  13.482 -1.5893  2.2154 -0.2538
  542TMC3    C1 8039   3.554   2.632  12.815  0.2521  0.9409  0.6034
  542TMC3    C2 8040   3.623   2.606  12.700  0.0417 -0.1939 -0.3417
  542TMC3    C3 8041   3.618   2.699  12.607 -0.2972  0.1202  0.4016
  542TMC3    C4 8042   3.476   2.743  12.842  0.0289  0.0236  0.3924
  542TMC3    C5 8043   3.478   2.835  12.739 -0.4326 -0.3213  0.1101
  542TMC3    C6 8044   3.542   2.816  12.619  0.1677  0.0052 -0.1241
  542TMC3     C 8045   3.576   2.534  12.924  0.3008  0.2401 -0.0886
  542TMC3     O 8046   3.667   2.455  12.915 -0.1169 -1.0170  0.6945
  542TMC3     H 8047   3.674   2.512  12.683  0.1095 -0.2678  0.2911
  542TMC3    H1 8048   3.423   2.762  12.935 -3.1186 -0.6285 -1.2682
  542TMC3    H2 8049   3.536   2.887  12.538 -1.0799 -1.1872 -1.0732
  542TMC3    C7 8050   3.378   2.940  12.748  0.2645 -0.3693 -0.5572
  542TMC3    C8 8051   3.668   2.676  12.473 -0.4796  0.0304  0.2476
  542TMC3    O1 8052   3.399   3.031  12.674 -0.0076  0.3983 -0.3645
  542TMC3    O2 8053   3.590   2.715  12.382  0.4538 -0.2443 -0.2143
  543TMC3    C1 8054   3.037   3.815  17.526 -0.8306  0.3605  0.0696
  543TMC3    C2 8055   3.049   3.788  17.656  0.1126 -0.3807  0.3321
  543TMC3    C3 8056   3.003   3.872   0.066  0.9201 -0.4304 -0.4455
  543TMC3    C4 8057   2.990   3.934  17.482  0.3114  0.2839 -0.4241
  543TMC3    C5 8058   2.943   4.022  17.577 -0.3432 -0.0502 -0.6151
  543TMC3    C6 8059   2.943   3.991   0.022 -0.2782 -0.3428  0.1475
  543TMC3     C 8060   3.046   3.711  17.422 -0.1482  0.0902  0.1072
  543TMC3     O 8061   3.111   3.612  17.455 -1.2164 -0.1124  0.2691
  543TMC3     H 8062   3.086   3.692   0.002 -0.0274 -0.0488  1.4755
  543TMC3    H1 8063   2.994   3.976  17.382  3.1391  1.7582  0.3142
  543TMC3    H2 8064   2.907   4.061   0.097 -0.0342 -2.0335  1.8294
  543TMC3    C7 8065   2.901   4.158  17.539  0.5821 -0.4816 -0.1634
  543TMC3    C8 8066   2.914   3.799   0.155  0.8102 -0.3338 -0.5690
  543TMC3    O1 8067   2.930   4.200  17.429  0.0889 -0.4191 -0.1975
  543TMC3    O2 8068   2.805   3.851   0.155 -0.0612  0.3016 -0.0965
  544MPD2     C 8069   2.757   3.391   0.411 -0.2056 -0.4095  0.0811
  544MPD2    C1 8070   2.690   3.460   0.317 -0.0557  0.5818 -0.0498
  544MPD2    C2 8071   2.756   3.567   0.260 -0.3916 -0.0536  0.3974
  544MPD2    C3 8072   2.887   3.597   0.291 -0.7992 -0.5544 -0.1031
  544MPD2    C4 8073   2.954   3.514   0.376  0.1736  0.8029  0.0511
  544MPD2    C5 8074   2.886   3.416   0.446 -0.1495  0.6944  0.6120
  544MPD2     H 8075   2.704   3.636   0.195 -1.1633  0.4338  1.5219
  544MPD2    H1 8076   3.060   3.536   0.385  0.3283  0.0914 -0.0156
  544MPD2    H2 8077   2.711   3.308   0.463 -0.3886 -0.4709 -0.1838
  544MPD2    H3 8078   2.937   3.365   0.527  1.5340 -1.8095 -2.0077
  544MPD2     N 8079   2.963   3.694   0.221  0.0673  0.0187 -0.5379
  544MPD2    H5 8080   3.062   3.695   0.245  0.1152 -1.6682 -0.6918
  544MPD2    N1 8081   2.561   3.417   0.279  0.6684 -0.6713  0.1630
  544MPD2    H7 8082   2.523   3.330   0.313 -0.8200  0.0104  0.2176
  545TMC3    C1 8083   2.372   3.398   0.137 -0.4091 -0.2802  0.5756
  545TMC3    C2 8084   2.312   3.441   0.022  0.1291  0.3962 -0.6675
  545TMC3    C3 8085   2.187   3.392  17.680 -0.0348  0.5529 -0.2450
  545TMC3    C4 8086   2.302   3.323   0.232 -1.1683  0.0359 -0.0813
  545TMC3    C5 8087   2.178   3.267   0.195 -1.0745  0.2214 -0.1072
  545TMC3    C6 8088   2.119   3.309   0.081 -0.3911  0.4635 -0.3086
  545TMC3     C 8089   2.482   3.486   0.188 -0.2414 -0.6726 -0.7189
  545TMC3     O 8090   2.492   3.595   0.136  0.0027  0.2445  0.2862
  545TMC3     H 8091   2.372   3.497  17.637  1.3178 -1.4576 -1.1150
  545TMC3    H1 8092   2.343   3.322   0.332 -2.6866 -0.9466  0.5260
  545TMC3    H2 8093   2.030   3.264   0.038 -1.3590  2.0848  0.0005
  545TMC3    C7 8094   2.102   3.190   0.289 -0.1859  0.1591  0.1453
  545TMC3    C8 8095   2.132   3.422  17.547  0.0455  0.5464  0.0947
  545TMC3    O1 8096   1.982   3.209   0.272  0.1884  0.3863  0.2991
  545TMC3    O2 8097   2.015   3.396  17.526 -0.5771  0.3374  0.5980
  546MPD2     C 8098   4.459   3.885   0.237  0.6027  0.2038  0.1411
  546MPD2    C1 8099   4.428   3.852   0.110  0.4582 -0.1405  0.3790
  546MPD2    C2 8100   4.463   3.944   0.010 -0.2351 -0.3246 -0.5761
  546MPD2    C3 8101   4.537   4.057   0.037  0.7928  0.1229 -0.5415
  546MPD2    C4 8102   4.568   4.086   0.168 -0.0214  0.4894 -0.2359
  546MPD2    C5 8103   4.522   4.002   0.266  0.2640  0.0693 -0.8198
  546MPD2     H 8104   4.445   3.923  17.591  0.3503 -0.3489 -0.6739
  546MPD2    H1 8105   4.633   4.171   0.188 -0.5639  1.6545 -3.4823
  546MPD2    H2 8106   4.424   3.819   0.315 -0.1947  0.0946 -0.3082
  546MPD2    H3 8107   4.562   4.034   0.362 -0.9260  0.0160 -0.2998
  546MPD2     N 8108   4.598   4.138  17.622  0.2211 -0.3013  0.1210
  546MPD2    H5 8109   4.608   4.237  17.640 -3.4918  0.1984 -0.4817
  546MPD2    N1 8110   4.377   3.723   0.082  0.2784 -0.4841 -0.7999
  546MPD2    H7 8111   4.375   3.662   0.162 -4.2559  1.3760  0.5045
  547TMC3    C1 8112   4.273   3.535  17.658  0.9199  0.0185 -0.2729
  547TMC3    C2 8113   4.181   3.496  17.575  0.4102 -0.6378 -0.4129
  547TMC3    C3 8114   4.146   3.361  17.575  0.5160  0.7171 -0.1855
  547TMC3    C4 8115   4.338   3.450   0.062 -0.4835 -0.5947 -0.2022
  547TMC3    C5 8116   4.296   3.316   0.052  0.8664 -0.4031 -0.2869
  547TMC3    C6 8117   4.196   3.272  17.660  0.5266  0.0545  0.6346
  547TMC3     C 8118   4.302   3.682  17.659  0.5608 -0.1152  0.1848
  547TMC3     O 8119   4.245   3.760  17.583 -0.3761  0.0878 -0.0068
  547TMC3     H 8120   4.154   3.565  17.495 -0.6082 -1.3508 -0.6861
  547TMC3    H1 8121   4.409   3.487   0.135 -0.3886 -0.8044 -0.1897
  547TMC3    H2 8122   4.180   3.165  17.653 -1.3334  0.3491  0.4366
  547TMC3    C7 8123   4.315   3.227   0.166 -0.6842  1.2673 -0.7169
  547TMC3    C8 8124   4.042   3.326  17.484  0.1499  0.2188 -0.0156
  547TMC3    O1 8125   4.220   3.154   0.194  0.6511 -0.4803 -0.1546
  547TMC3    O2 8126   4.015   3.411  17.402  0.0038 -0.2017 -0.4375
  548MPD2     C 8127   4.118   4.513  12.752 -0.2527 -0.0487 -0.1791
  548MPD2    C1 8128   4.063   4.392  12.717  0.0922 -0.0468 -0.0879
  548MPD2    C2 8129   4.141   4.286  12.687  0.3523  0.2671  0.5765
  548MPD2    C3 8130   4.276   4.297  12.677 -0.6946 -0.2040  0.0225
  548MPD2    C4 8131   4.329   4.425  12.678 -0.8713  0.4883  0.2130
  548MPD2    C5 8132   4.246   4.531  12.725 -0.9227  0.5467 -0.1998
  548MPD2     H 8133   4.091   4.189  12.681 -0.0575  0.6521 -2.0823
  548MPD2    H1 8134   4.432   4.454  12.659 -0.0604 -1.4726  1.5814
  548MPD2    H2 8135   4.054   4.598  12.775 -0.7163  0.1793 -2.3360
  548MPD2    H3 8136   4.288   4.631  12.730 -1.1685  0.6291  0.1848
  548MPD2     N 8137   4.363   4.189  12.661  0.5219 -0.6868  0.1326
  548MPD2    H5 8138   4.321   4.099  12.641 -0.2578 -0.4506  0.7201
  548MPD2    N1 8139   3.920   4.383  12.717  0.3239  0.1598 -0.3021
  548MPD2    H7 8140   3.879   4.473  12.740  0.6912  0.6630 -1.6045
  549TMC3    C1 8141   3.693   4.298  12.716  0.2383  0.7168  0.2893
  549TMC3    C2 8142   3.660   4.430  12.708 -0.4214  1.0955 -0.2667
  549TMC3    C3 8143   3.526   4.457  12.688  0.4450  0.4782 -0.0881
  549TMC3    C4 8144   3.602   4.198  12.722  0.1529 -0.0509  0.7619
  549TMC3    C5 8145   3.474   4.243  12.712  0.5925 -0.2704 -0.7286
  549TMC3    C6 8146   3.428   4.367  12.681  0.7555 -0.5197  0.3345
  549TMC3     C 8147   3.836   4.270  12.714  0.3932  0.0625  0.3776
  549TMC3     O 8148   3.857   4.154  12.696 -0.0585  0.0079  0.8330
  549TMC3     H 8149   3.731   4.511  12.704  1.3571 -0.4651 -0.5443
  549TMC3    H1 8150   3.640   4.098  12.730 -0.7055 -0.4449 -0.0877
  549TMC3    H2 8151   3.323   4.393  12.681  1.1552  1.1028  1.1371
  549TMC3    C7 8152   3.380   4.134  12.687  0.1798 -0.0705 -0.2038
  549TMC3    C8 8153   3.486   4.598  12.658 -0.1966 -0.5116 -1.1935
  549TMC3    O1 8154   3.287   4.167  12.612 -0.5983 -0.2057 -0.9043
  549TMC3    O2 8155   3.377   4.615  12.609  0.0963 -0.1957 -0.1931
  550TMC3    C1 8156   2.884   1.809  12.767 -0.0099 -0.6853 -0.3257
  550TMC3    C2 8157   2.923   1.878  12.886  0.3320  1.1707  1.0612
  550TMC3    C3 8158   3.001   1.991  12.878 -0.2356 -0.2105  0.0340
  550TMC3    C4 8159   2.936   1.861  12.651  0.2989  0.1622  0.2429
  550TMC3    C5 8160   3.032   1.957  12.655  0.0319  0.1874  0.3538
  550TMC3    C6 8161   3.073   2.021  12.766  0.6317  0.0245 -0.8012
  550TMC3     C 8162   2.753   1.752  12.780 -0.3837 -0.3438  0.5541
  550TMC3     O 8163   2.732   1.669  12.863 -0.4387 -0.1436 -0.2411
  550TMC3     H 8164   2.893   1.834  12.981 -1.6839  0.1571 -0.0468
  550TMC3    H1 8165   2.906   1.827  12.552  0.1064  0.6717  0.1268
  550TMC3    H2 8166   3.125   2.114  12.749 -0.1794  0.7448  0.6752
  550TMC3    C7 8167   3.047   2.031  12.538  0.7491  0.1127 -0.3001
  550TMC3    C8 8168   2.935   2.106  12.925 -0.7498 -0.3865  0.0566
  550TMC3    O1 8169   3.162   2.054  12.504 -0.2448  0.7969 -0.4530
  550TMC3    O2 8170   2.938   2.212  12.861 -0.2643 -0.1993  0.5368
  551TMC3    C1 8171   0.704   0.436  13.908 -0.0819 -0.0728  0.3016
  551TMC3    C2 8172   0.836   0.418  13.874 -0.2111 -0.3503 -0.1410
  551TMC3    C3 8173   0.924   0.488  13.948 -0.2980  0.7721  0.1402
  551TMC3    C4 8174   0.660   0.519  14.005 -0.5914 -0.0400 -0.6275
  551TMC3    C5 8175   0.759   0.583  14.084 -0.1296  0.9134 -0.7963
  551TMC3    C6 8176   0.891   0.571  14.058 -0.5042 -0.3788  0.0890
  551TMC3     C 8177   0.604   0.351  13.846  0.4309 -0.5067 -0.1284
  551TMC3     O 8178   0.493   0.390  13.819  0.0698 -0.3546  0.3077
  551TMC3     H 8179   0.860   0.353  13.791  1.3046  1.2022 -0.9250
  551TMC3    H1 8180   0.556   0.536  14.032  0.2936  0.2754  2.4581
  551TMC3    H2 8181   0.970   0.613  14.119  2.0861 -1.9179 -2.1977
  551TMC3    C7 8182   0.741   0.635  14.219  0.2962 -0.7022 -0.3012
  551TMC3    C8 8183   1.058   0.431  13.958  0.0034 -0.3042 -0.0914
  551TMC3    O1 8184   0.839   0.627  14.297  0.4924  0.1298 -0.2025
  551TMC3    O2 8185   1.052   0.311  13.933  0.2509 -0.0453  0.3607
  552MPD2     C 8186   2.350   1.835  14.582  0.1675 -0.1039 -0.1905
  552MPD2    C1 8187   2.418   1.923  14.502  0.4462 -0.0638 -0.0920
  552MPD2    C2 8188   2.523   1.991  14.568  0.1804 -1.1253  0.1316
  552MPD2    C3 8189   2.582   1.957  14.690  0.0277 -0.5774 -0.7954
  552MPD2    C4 8190   2.517   1.853  14.761 -0.4472 -0.0559 -0.6192
  552MPD2    C5 8191   2.403   1.796  14.705 -0.0433  0.1355 -0.2476
  552MPD2     H 8192   2.575   2.065  14.509  0.3679 -1.5000 -0.1792
  552MPD2    H1 8193   2.553   1.814  14.856 -0.1172  3.4971  0.7132
  552MPD2    H2 8194   2.260   1.781  14.556 -0.3509  2.2660 -3.3115
  552MPD2    H3 8195   2.340   1.728  14.763  0.4372 -1.1004 -1.1677
  552MPD2     N 8196   2.686   2.026  14.755  0.6400  0.2120 -0.0057
  552MPD2    H5 8197   2.717   2.001  14.849 -2.5983 -2.1594  0.4070
  552MPD2    N1 8198   2.385   1.947  14.369 -0.2252  0.0134 -0.4963
  552MPD2    H7 8199   2.443   2.011  14.315 -0.1116  0.8158  0.5697
  553TMC3    C1 8200   2.279   1.900  14.160  0.7626 -0.0491  0.1063
  553TMC3    C2 8201   2.359   1.999  14.093  0.3996 -0.3361 -0.6996
  553TMC3    C3 8202   2.376   1.986  13.962  0.4472  0.2772 -0.1161
  553TMC3    C4 8203   2.218   1.795  14.087 -0.2005 -0.0627  0.4349
  553TMC3    C5 8204   2.229   1.800  13.949 -0.2539  0.2615 -0.0370
  553TMC3    C6 8205   2.299   1.900  13.885 -0.9043  0.6279  0.6550
  553TMC3     C 8206   2.272   1.888  14.308 -0.6747  0.0045  0.6705
  553TMC3     O 8207   2.180   1.813  14.341  0.1492 -0.3370 -0.1813
  553TMC3     H 8208   2.420   2.071  14.146  1.1189 -0.7609 -0.9455
  553TMC3    H1 8209   2.161   1.714  14.130  0.4090 -1.4695 -1.4427
  553TMC3    H2 8210   2.324   1.892  13.780 -0.7733  0.1239  0.7214
  553TMC3    C7 8211   2.281   1.665  13.913  0.8066  0.1511 -0.6800
  553TMC3    C8 8212   2.477   2.075  13.900 -0.0305  0.0218  0.0821
  553TMC3    O1 8213   2.268   1.649  13.792  0.2407  0.6555  0.1807
  553TMC3    O2 8214   2.568   2.096  13.974 -0.1706 -0.1648 -0.3782
  554TMC3    C1 8215   3.943   1.210  12.042 -0.1877  0.3076  0.0207
  554TMC3    C2 8216   3.837   1.158  11.964  0.1043 -0.0639 -0.3976
  554TMC3    C3 8217   3.784   1.234  11.863 -0.5077 -0.3173 -0.0346
  554TMC3    C4 8218   4.001   1.332  12.005  0.2533 -0.0213  0.7623
  554TMC3    C5 8219   3.945   1.395  11.889 -0.0949 -0.2303  0.3634
  554TMC3    C6 8220   3.837   1.350  11.822  0.4962 -0.3552 -0.1928
  554TMC3     C 8221   3.986   1.117  12.138 -0.7685 -0.0582  0.0179
  554TMC3     O 8222   3.986   1.001  12.104  0.1171 -0.0349 -0.5062
  554TMC3     H 8223   3.815   1.051  11.963  0.8744 -0.2292  0.2996
  554TMC3    H1 8224   4.086   1.369  12.061  0.5766  0.7720 -0.2388
  554TMC3    H2 8225   3.805   1.408  11.736 -2.6731  0.3831  1.4832
  554TMC3    C7 8226   4.026   1.469  11.797  0.0143  0.1756 -0.1130
  554TMC3    C8 8227   3.733   1.157  11.751  0.3749  0.3309  0.7352
  554TMC3    O1 8228   4.024   1.441  11.681  0.3042 -0.3172  0.6124
  554TMC3    O2 8229   3.749   1.212  11.644 -0.4124  0.0701  0.0178
  555TMC3    C1 8230   3.366   0.499  15.218  0.0925  0.0800 -0.1652
  555TMC3    C2 8231   3.383   0.556  15.342  0.5211  0.3566  0.6414
  555TMC3    C3 8232   3.379   0.476  15.449 -0.0365 -0.1656  0.2804
  555TMC3    C4 8233   3.342   0.362  15.199 -0.1945  0.3469  0.4814
  555TMC3    C5 8234   3.327   0.291  15.313 -0.1713 -0.0107 -0.1878
  555TMC3    C6 8235   3.343   0.343  15.439 -0.2871  0.3970  0.2717
  555TMC3     C 8236   3.406   0.580  15.105 -0.0026 -0.0643  0.4005
  555TMC3     O 8237   3.444   0.512  15.014 -0.1636 -0.3554 -0.1656
  555TMC3     H 8238   3.419   0.658  15.354 -0.5411  0.9118 -0.9177
  555TMC3    H1 8239   3.298   0.325  15.106 -2.4315 -0.6517  1.9396
  555TMC3    H2 8240   3.335   0.276  15.524 -1.4786 -0.0383 -0.1790
  555TMC3    C7 8241   3.262   0.162  15.305 -0.3062  0.6282  0.1051
  555TMC3    C8 8242   3.413   0.535  15.578 -0.1690  0.6323  0.3755
  555TMC3    O1 8243   3.180   0.139  15.396 -0.1478  0.2924  0.8314
  555TMC3    O2 8244   3.410   0.657  15.590  0.0150 -0.1030 -0.3781
  556MPD2     C 8245   1.343   2.908  10.617  0.1117 -0.5866  0.8898
  556MPD2    C1 8246   1.277   2.818  10.702  0.1599  0.8225 -0.4766
  556MPD2    C2 8247   1.220   2.706  10.647 -0.2237 -0.4997 -0.3289
  556MPD2    C3 8248   1.235   2.668  10.521 -0.2104  1.0116 -0.4604
  556MPD2    C4 8249   1.301   2.754  10.433 -0.1223 -0.3912  0.1223
  556MPD2    C5 8250   1.340   2.874  10.484 -0.1133  0.0403  0.7530
  556MPD2     H 8251   1.166   2.644  10.718  0.1761  0.5990  0.9173
  556MPD2    H1 8252   1.320   2.739  10.327  1.7779  1.9948  0.1328
  556MPD2    H2 8253   1.371   3.008  10.648 -0.5950  0.0437 -0.4902
  556MPD2    H3 8254   1.392   2.938  10.413  0.2138 -0.4084  0.5890
  556MPD2     N 8255   1.173   2.551  10.476  0.4494 -0.3349  0.3920
  556MPD2    H5 8256   1.145   2.487  10.550  0.8192 -0.5621  0.3390
  556MPD2    N1 8257   1.259   2.845  10.844  0.2769 -0.4846 -0.1337
  556MPD2    H7 8258   1.208   2.771  10.890 -2.0615 -0.3462 -2.4609
  557TMC3    C1 8259   1.136   2.373  10.326  0.3671 -0.7150 -0.3655
  557TMC3    C2 8260   1.082   2.331  10.209  0.4144  0.0524  0.0399
  557TMC3    C3 8261   1.074   2.195  10.196  0.8455 -0.1803  0.0756
  557TMC3    C4 8262   1.179   2.284  10.427 -0.1779 -0.9833  0.6186
  557TMC3    C5 8263   1.155   2.147  10.410 -0.6155 -0.8146  0.4494
  557TMC3    C6 8264   1.109   2.099  10.292  0.1841 -0.6252 -1.0330
  557TMC3     C 8265   1.160   2.511  10.346  1.0331 -0.3254 -0.3307
  557TMC3     O 8266   1.184   2.563  10.237  0.3698  0.3326  0.2642
  557TMC3     H 8267   1.058   2.407  10.135 -0.7683 -2.4140 -2.0808
  557TMC3    H1 8268   1.213   2.316  10.524  0.8307  2.4768 -0.8417
  557TMC3    H2 8269   1.095   1.992  10.278 -1.1046 -0.6925  0.7265
  557TMC3    C7 8270   1.133   2.064  10.532  0.2429  0.4495 -0.5401
  557TMC3    C8 8271   1.003   2.146  10.075  0.1042  0.1484  0.0136
  557TMC3    O1 8272   1.097   1.950  10.509 -0.1153  0.2420 -0.0538
  557TMC3    O2 8273   0.921   2.224  10.022  0.0814  0.4757  0.1935
  558TMC3    C1 8274   4.096   4.410  10.543 -0.4067 -0.3199  0.1827
  558TMC3    C2 8275   4.025   4.415  10.662 -0.1727 -0.9069 -0.3723
  558TMC3    C3 8276   3.888   4.406  10.667 -0.2126 -0.0427  0.4824
  558TMC3    C4 8277   4.036   4.403  10.424 -0.0172  0.0705 -1.1174
  558TMC3    C5 8278   3.901   4.380  10.432 -0.3783  0.4762 -0.0567
  558TMC3    C6 8279   3.823   4.381  10.548 -0.0978  0.4731  0.1867
  558TMC3     C 8280   4.234   4.449  10.542  0.2154  0.5586 -0.2226
  558TMC3     O 8281   4.252   4.553  10.606 -0.1102  0.8739  0.3204
  558TMC3     H 8282   4.076   4.456  10.748 -0.3794 -2.0513  0.2933
  558TMC3    H1 8283   4.092   4.419  10.333  0.0364  0.9566 -0.9243
  558TMC3    H2 8284   3.715   4.377  10.547 -0.1098  0.9405 -0.5854
  558TMC3    C7 8285   3.823   4.369  10.309 -0.0354 -0.1208  0.8264
  558TMC3    C8 8286   3.822   4.475  10.780  0.5288 -0.0722 -0.4873
  558TMC3    O1 8287   3.702   4.355  10.324  0.2039  0.3074 -0.2390
  558TMC3    O2 8288   3.895   4.476  10.880 -0.0043  0.4687  0.2700
  559MPD2     C 8289   3.920   0.364  10.903 -0.4404  0.8716  0.1084
  559MPD2    C1 8290   3.843   0.331  11.012  0.0929  0.3131 -0.7884
  559MPD2    C2 8291   3.881   0.394  11.141 -0.3650  0.3450  0.1123
  559MPD2    C3 8292   3.979   0.485  11.149  0.3789 -0.4150  0.4334
  559MPD2    C4 8293   4.050   0.521  11.034  0.1862  0.8025  1.0242
  559MPD2    C5 8294   4.020   0.455  10.916  0.0433 -0.1687  0.5642
  559MPD2     H 8295   3.823   0.372  11.230 -2.1774 -0.9465 -1.3804
  559MPD2    H1 8296   4.144   0.575  11.035  2.6854 -3.4876 -0.3570
  559MPD2    H2 8297   3.899   0.330  10.803  1.1110  0.2151  0.0039
  559MPD2    H3 8298   4.087   0.474  10.833  1.0677 -0.0638  1.4168
  559MPD2     N 8299   4.012   0.536  11.276  0.4958  0.0599 -0.6532
  559MPD2    H5 8300   3.973   0.489  11.358 -2.2869  2.7505 -0.4322
  559MPD2    N1 8301   3.708   0.277  10.992  0.2057  0.2956 -0.1663
  559MPD2    H7 8302   3.680   0.261  10.895 -2.6091  0.6620  0.6023
  560TMC3    C1 8303   4.110   0.668  11.455 -0.7322  0.0976  0.4372
  560TMC3    C2 8304   4.042   0.589  11.545 -0.3657  0.3586  1.0135
  560TMC3    C3 8305   4.104   0.539  11.653  0.4787 -0.1791  0.4067
  560TMC3    C4 8306   4.227   0.718  11.490 -0.2363 -0.3419 -0.5796
  560TMC3    C5 8307   4.287   0.671  11.601 -0.6851 -0.4216  0.1737
  560TMC3    C6 8308   4.234   0.576  11.679 -0.7877 -0.1703 -0.1082
  560TMC3     C 8309   4.100   0.639  11.314  0.3467  0.3947  0.2056
  560TMC3     O 8310   4.189   0.675  11.236  0.4773 -0.2418  0.1153
  560TMC3     H 8311   3.939   0.562  11.525  0.0958 -0.4860 -0.2677
  560TMC3    H1 8312   4.269   0.796  11.428  0.9238 -1.9139 -1.7621
  560TMC3    H2 8313   4.280   0.538  11.770  0.2675  1.8671  0.2089
  560TMC3    C7 8314   4.367   0.766  11.677 -0.2121  0.4525 -0.4480
  560TMC3    C8 8315   4.073   0.404  11.693  0.4764 -0.4258  0.4150
  560TMC3    O1 8316   4.362   0.756  11.799  0.7757 -0.7256  0.2102
  560TMC3    O2 8317   3.953   0.391  11.716 -0.1128 -0.3619 -0.1269
  561TMC3    C1 8318   1.893   4.409  11.520 -0.3052  0.5756 -0.4659
  561TMC3    C2 8319   1.876   4.381  11.658 -0.2190  0.1650  0.0509
  561TMC3    C3 8320   1.897   4.477  11.749 -0.0510  0.5541  0.2301
  561TMC3    C4 8321   1.952   4.519  11.479  0.7032  0.1730  0.2827
  561TMC3    C5 8322   1.976   4.616  11.576  0.2204  0.2358  0.0116
  561TMC3    C6 8323   1.945   4.597  11.710 -0.7376  0.3551 -0.7767
  561TMC3     C 8324   1.841   4.307  11.426  0.1523  0.0941 -0.1001
  561TMC3     O 8325   1.837   4.191  11.466 -0.3644  0.1756 -0.1355
  561TMC3     H 8326   1.834   4.283  11.682 -0.0367 -0.2434 -1.2989
  561TMC3    H1 8327   1.976   4.533  11.374  0.5670 -0.1118  0.2124
  561TMC3    H2 8328   1.965   4.665  11.791 -0.8711 -0.0895 -0.3676
  561TMC3    C7 8329   2.027   0.025  11.544 -0.5966  0.0163 -0.5995
  561TMC3    C8 8330   1.887   4.431  11.888 -0.9975  0.3003 -0.5352
  561TMC3    O1 8331   2.012   0.112  11.630  0.1988 -0.6648 -0.0455
  561TMC3    O2 8332   1.920   4.314  11.907  1.0323  0.3938 -0.4952
  562TMC3    C1 8333   3.177   0.575  16.191 -0.4136  0.1675 -0.3647
  562TMC3    C2 8334   3.107   0.682  16.149  0.3255  0.1574  0.3686
  562TMC3    C3 8335   3.081   0.690  16.015  0.1643  0.1650 -0.1122
  562TMC3    C4 8336   3.223   0.480  16.105 -0.1384 -0.3286  0.6203
  562TMC3    C5 8337   3.176   0.486  15.975 -0.0131 -0.9639 -0.0836
  562TMC3    C6 8338   3.120   0.596  15.926 -0.4510  0.3032 -0.3524
  562TMC3     C 8339   3.194   0.563  16.340  0.2922  0.4428  0.4466
  562TMC3     O 8340   3.185   0.668  16.399  0.4497  0.6443  0.1556
  562TMC3     H 8341   3.066   0.757  16.216 -0.7485  1.3066 -1.5598
  562TMC3    H1 8342   3.297   0.408  16.136  2.8594  1.3338 -2.6504
  562TMC3    H2 8343   3.086   0.596  15.823  0.9440  0.5590 -0.8130
  562TMC3    C7 8344   3.188   0.369  15.888 -0.3209  0.7345  0.1319
  562TMC3    C8 8345   2.992   0.804  15.981  0.4134 -0.4214  0.1320
  562TMC3    O1 8346   3.176   0.395  15.766  0.4109 -0.6006 -0.3609
  562TMC3    O2 8347   2.934   0.860  16.072  0.7561 -0.2015  0.5344
  563MPD2     C 8348   0.164   2.436  16.177 -0.3324  0.2184 -0.0347
  563MPD2    C1 8349   0.152   2.316  16.250  0.0936  0.7459 -0.2567
  563MPD2    C2 8350   0.270   2.250  16.275  0.2979  0.3997 -0.5071
  563MPD2    C3 8351   0.387   2.290  16.220  0.0848 -0.9704  0.5095
  563MPD2    C4 8352   0.398   2.396  16.142  0.1997  0.6765  0.4192
  563MPD2    C5 8353   0.282   2.470  16.120  0.0660  0.6368 -0.1655
  563MPD2     H 8354   0.274   2.163  16.340 -1.3548  0.2336 -0.6194
  563MPD2    H1 8355   0.487   2.427  16.089 -0.4100  2.0122  0.1783
  563MPD2    H2 8356   0.079   2.504  16.169 -0.7741 -0.4317 -0.8091
  563MPD2    H3 8357   0.297   2.564  16.067  2.2874 -0.6368 -1.7973
  563MPD2     N 8358   0.505   2.220  16.248  0.0536 -1.1647  0.1334
  563MPD2    H5 8359   0.484   2.133  16.296 -0.6842 -0.8482  0.3944
  563MPD2    N1 8360   0.032   2.277  16.311 -0.9591  0.3832  0.1103
  563MPD2    H7 8361   0.052   2.197  16.370  2.8023  0.6423 -0.8282
  564TMC3    C1 8362   4.560   2.297  16.427  0.2159  0.3268 -0.4038
  564TMC3    C2 8363   4.453   2.217  16.392  0.1550 -0.8806  0.0260
  564TMC3    C3 8364   4.417   2.116  16.475  0.5906  0.0334 -0.2934
  564TMC3    C4 8365   4.647   2.265  16.527 -0.5045 -0.1919  0.5334
  564TMC3    C5 8366   4.609   2.164  16.607 -0.0462 -0.2536 -0.0397
  564TMC3    C6 8367   4.497   2.088  16.588 -0.0465  0.0365  0.4523
  564TMC3     C 8368   4.635   2.344  16.308 -0.0654  0.1382 -0.2920
  564TMC3     O 8369   4.582   2.420  16.228 -0.2031 -0.1865 -0.0262
  564TMC3     H 8370   4.401   2.258  16.307 -0.1760 -1.6040 -0.1248
  564TMC3    H1 8371   0.013   2.322  16.559 -1.2646  0.9002  0.6601
  564TMC3    H2 8372   4.473   2.014  16.663  0.3231  1.0029  1.5224
  564TMC3    C7 8373   4.721   2.078  16.629  0.8173  0.1221 -0.0315
  564TMC3    C8 8374   4.400   1.995  16.409  0.0175 -0.5762  0.1455
  564TMC3    O1 8375   0.105   2.136  16.661 -0.4252 -0.3517 -0.1134
  564TMC3    O2 8376   4.417   1.897  16.474 -0.0743  0.4021 -0.2185
  565TMC3    C1 8377   1.529   3.678  10.389  0.2371 -0.5711  0.6370
  565TMC3    C2 8378   1.431   3.694  10.482  0.3314 -0.5800  1.0017
  565TMC3    C3 8379   1.307   3.632  10.468 -0.5173 -0.1879 -0.3894
  565TMC3    C4 8380   1.506   3.611  10.272 -0.6237  0.3562  0.5012
  565TMC3    C5 8381   1.376   3.567  10.254 -0.1900  0.0057  0.3505
  565TMC3    C6 8382   1.275   3.584  10.347 -0.4448 -0.7430  0.1979
  565TMC3     C 8383   1.666   3.733  10.407  0.2786 -0.2035 -0.0172
  565TMC3     O 8384   1.746   3.703  10.321 -0.1068 -0.1239 -0.5469
  565TMC3     H 8385   1.468   3.720  10.580  2.3795  2.5753 -0.5794
  565TMC3    H1 8386   1.587   3.577  10.208 -0.0465 -0.6293  1.7475
  565TMC3    H2 8387   1.187   3.523  10.330 -2.2957  1.7000  1.1519
  565TMC3    C7 8388   1.344   3.471  10.144  0.3971  0.5469 -0.9909
  565TMC3    C8 8389   1.234   3.608  10.594  0.3555  0.2770 -0.0047
  565TMC3    O1 8390   1.257   3.390  10.169  0.9860  0.0632  0.3279
  565TMC3    O2 8391   1.304   3.595  10.696 -0.2832  0.1353  0.1178
  566MPD2     C 8392   2.734   0.520  14.799 -0.2204 -0.6117  0.6692
  566MPD2    C1 8393   2.808   0.556  14.687  0.4350  0.4687  0.2423
  566MPD2    C2 8394   2.855   0.458  14.605  0.1949  0.0931  1.0407
  566MPD2    C3 8395   2.817   0.327  14.620  0.2256  0.3654 -0.5300
  566MPD2    C4 8396   2.738   0.290  14.729  0.1378  0.5078 -0.0179
  566MPD2    C5 8397   2.705   0.385  14.819  0.4049  0.0674  0.7081
  566MPD2     H 8398   2.925   0.489  14.528 -1.8725  1.8213 -0.1397
  566MPD2    H1 8399   2.736   0.184  14.750  0.5389  0.3015 -1.0206
  566MPD2    H2 8400   2.710   0.588  14.879 -2.2805 -1.5993  0.8873
  566MPD2    H3 8401   2.678   0.355  14.920 -0.9870  0.8638  0.5688
  566MPD2     N 8402   2.849   0.230  14.525 -0.3608 -0.4627  0.0524
  566MPD2    H5 8403   2.799   0.142  14.536 -0.1195 -0.4387  1.2727
  566MPD2    N1 8404   2.853   0.697  14.674 -0.3533  0.2110 -0.5279
  566MPD2    H7 8405   2.831   0.756  14.754 -1.5259  1.9789 -2.1667
  567TMC3    C1 8406   3.002   0.861  14.599 -0.0369 -0.1539  0.3938
  567TMC3    C2 8407   3.053   0.933  14.491  0.3737  0.2736  1.1817
  567TMC3    C3 8408   3.183   0.923  14.463  0.4829  0.0792 -0.1510
  567TMC3    C4 8409   3.078   0.803  14.690  0.6423 -0.2555  0.1724
  567TMC3    C5 8410   3.209   0.782  14.651 -0.0027 -0.4240 -0.3869
  567TMC3    C6 8411   3.262   0.840  14.539 -0.4924 -0.6327 -0.0072
  567TMC3     C 8412   2.903   0.759  14.563 -0.3202 -0.5223 -1.2300
  567TMC3     O 8413   2.912   0.722  14.446 -0.0843  0.1795  0.1601
  567TMC3     H 8414   2.980   0.980  14.426 -0.9351 -3.1142  0.1640
  567TMC3    H1 8415   3.038   0.774  14.786 -1.1311  1.2657 -0.1107
  567TMC3    H2 8416   3.346   0.801  14.484 -0.9052 -1.0294 -0.3603
  567TMC3    C7 8417   3.262   0.658  14.692 -0.3422  0.4134  0.3459
  567TMC3    C8 8418   3.229   0.940  14.326  0.4055  0.8633 -0.1009
  567TMC3    O1 8419   3.351   0.607  14.626  0.0033  0.6233 -0.3313
  567TMC3    O2 8420   3.346   0.947  14.294 -0.3251  0.0361 -0.7194
  568MPD2     C 8421   0.597   0.951  16.668 -0.6744  0.4898  0.7531
  568MPD2    C1 8422   0.468   0.906  16.704  0.3021  0.1921 -0.5151
  568MPD2    C2 8423   0.358   0.968  16.646 -0.1732  0.2647  0.5039
  568MPD2    C3 8424   0.370   1.077  16.568  0.3093 -0.1568 -0.5076
  568MPD2    C4 8425   0.497   1.121  16.539  0.6231 -0.0229 -0.3796
  568MPD2    C5 8426   0.610   1.062  16.588 -0.6853  0.0462 -0.1547
  568MPD2     H 8427   0.264   0.917  16.662 -0.8890  1.4297  0.0159
  568MPD2    H1 8428   0.509   1.205  16.471  1.5853  0.3164  0.2052
  568MPD2    H2 8429   0.683   0.911  16.721 -0.2638 -1.8937 -1.7366
  568MPD2    H3 8430   0.710   1.093  16.561 -0.2693 -0.7144  0.5360
  568MPD2     N 8431   0.255   1.141  16.507  0.0975  0.0140 -0.8146
  568MPD2    H5 8432   0.163   1.100  16.522  0.1342 -0.2220 -1.2319
  568MPD2    N1 8433   0.471   0.797  16.797  0.2551 -0.6705 -0.0584
  568MPD2    H7 8434   0.560   0.756  16.821 -0.9829 -2.3072  1.6627
  569TMC3    C1 8435   0.113   1.271  16.374  0.1730 -0.0380 -0.6485
  569TMC3    C2 8436   0.007   1.273  16.471 -0.4474  0.4297  0.5711
  569TMC3    C3 8437   4.599   1.299  16.435 -0.4529 -0.2075 -0.5010
  569TMC3    C4 8438   0.088   1.316  16.250  0.3903  0.0658  0.0516
  569TMC3    C5 8439   4.680   1.347  16.214 -0.3004  0.4645  0.3037
  569TMC3    C6 8440   4.576   1.336  16.301 -0.6852 -0.3913  0.1190
  569TMC3     C 8441   0.254   1.250  16.414  0.5958 -0.2478  0.3254
  569TMC3     O 8442   0.349   1.273  16.338  0.6074 -0.1603  0.1728
  569TMC3     H 8443   0.030   1.237  16.570  0.5760  1.9439  0.8884
  569TMC3    H1 8444   0.172   1.311  16.181  0.5125 -1.0116  0.2769
  569TMC3    H2 8445   4.474   1.358  16.272  0.2216  2.2512 -1.0713
  569TMC3    C7 8446   4.677   1.469  16.129  0.4944 -0.0387  0.3210
  569TMC3    C8 8447   4.518   1.385  16.515 -0.7691  0.3413 -0.5065
  569TMC3    O1 8448   0.059   1.490  16.061  0.2251  0.3260 -0.7506
  569TMC3    O2 8449   4.410   1.420  16.468  0.5779  0.1068  0.1442
  570TMC3    C1 8450   4.280   4.300  16.481  0.4760  0.3078 -0.1959
  570TMC3    C2 8451   4.382   4.322  16.393 -0.2451 -0.4564  0.4333
  570TMC3    C3 8452   4.372   4.439  16.325 -0.4925  0.1598  0.0608
  570TMC3    C4 8453   4.160   4.370  16.484 -0.2473 -0.6289  0.7380
  570TMC3    C5 8454   4.148   4.468  16.387 -0.0067 -0.2139  0.3110
  570TMC3    C6 8455   4.258   4.507  16.312 -0.1005 -0.6018  0.0075
  570TMC3     C 8456   4.312   4.218  16.600  0.4286 -0.0040  0.0690
  570TMC3     O 8457   4.396   4.130  16.592  0.1099 -0.3418 -0.3089
  570TMC3     H 8458   4.478   4.276  16.409  0.6170  1.0813 -0.3323
  570TMC3    H1 8459   4.075   4.338  16.544 -1.6344 -0.2525 -1.0426
  570TMC3    H2 8460   4.260   4.590  16.243 -1.2837  1.8588  2.9304
  570TMC3    C7 8461   4.043   4.560  16.409 -0.5048  0.5470  0.3157
  570TMC3    C8 8462   4.498   4.494  16.280 -0.5876  0.2442 -0.1936
  570TMC3    O1 8463   3.999   4.552  16.523 -0.1626 -0.7227  0.0323
  570TMC3    O2 8464   4.500   4.618  16.272 -0.1116 -0.2709  0.2487
  571MPD2     C 8465   1.660   1.119   0.394 -0.2009 -0.2720 -0.0098
  571MPD2    C1 8466   1.628   1.213   0.296  0.7527 -0.1505  0.2932
  571MPD2    C2 8467   1.544   1.315   0.335  0.2536 -0.2367  0.0256
  571MPD2    C3 8468   1.490   1.317   0.466 -0.0276  0.2186  0.4438
  571MPD2    C4 8469   1.512   1.211   0.546  0.6756 -0.6366  0.0116
  571MPD2    C5 8470   1.596   1.117   0.515  0.1938  0.1608  0.6163
  571MPD2     H 8471   1.526   1.389   0.257  1.8421 -0.2195 -0.3327
  571MPD2    H1 8472   1.464   1.220   0.643  1.1359 -2.1405  0.3723
  571MPD2    H2 8473   1.728   1.039   0.367 -0.4503 -0.4340 -0.1680
  571MPD2    H3 8474   1.614   1.033   0.581 -2.3803  0.6757  1.9629
  571MPD2     N 8475   1.409   1.420   0.522  0.4264 -0.7000  0.1982
  571MPD2    H5 8476   1.390   1.405   0.620  1.8874 -0.6979  0.4692
  571MPD2    N1 8477   1.704   1.202   0.174  0.1824 -0.7172  0.1580
  571MPD2    H7 8478   1.786   1.143   0.177  0.3926 -0.3559  1.3396
  572TMC3    C1 8479   1.334   1.633   0.559  0.0654 -0.8077  0.4097
  572TMC3    C2 8480   1.303   1.580   0.681  0.5454  0.4544 -0.3397
  572TMC3    C3 8481   1.309   1.667   0.790  0.1004  0.2684  0.0484
  572TMC3    C4 8482   1.398   1.759   0.562  0.0974 -0.1463  0.6623
  572TMC3    C5 8483   1.420   1.835   0.673 -0.5692  0.3029  0.1078
  572TMC3    C6 8484   1.377   1.787   0.796  0.6088 -0.3837  0.2726
  572TMC3     C 8485   1.382   1.545   0.466 -0.0393 -0.1265  0.5682
  572TMC3     O 8486   1.411   1.586   0.353  0.3084  0.5807  0.6560
  572TMC3     H 8487   1.224   1.506   0.682 -0.4360  1.4713 -2.5518
  572TMC3    H1 8488   1.434   1.797   0.466  2.0272 -0.8516  1.1105
  572TMC3    H2 8489   1.377   1.859   0.877 -1.7355  0.9690 -0.9087
  572TMC3    C7 8490   1.524   1.942   0.657 -0.1402  0.0149  0.0682
  572TMC3    C8 8491   1.203   1.644   0.887  0.1706 -0.5231  0.0506
  572TMC3    O1 8492   1.540   1.984   0.544  0.0980 -0.3119 -0.3484
  572TMC3    O2 8493   1.095   1.607   0.839  0.3997  0.2253  0.0862
  573MPD2     C 8494   2.263   2.411   1.668 -0.2396  0.2537 -0.7245
  573MPD2    C1 8495   2.390   2.453   1.659 -0.0201 -0.6645  0.4221
  573MPD2    C2 8496   2.432   2.538   1.556 -0.0360 -0.0385 -0.3762
  573MPD2    C3 8497   2.340   2.565   1.446  0.3244  0.6416 -0.0785
  573MPD2    C4 8498   2.210   2.522   1.470 -0.5737 -0.7603 -0.5467
  573MPD2    C5 8499   2.173   2.449   1.575  0.1604 -0.1326 -1.2773
  573MPD2     H 8500   2.536   2.565   1.545  0.2010 -0.4962  0.7192
  573MPD2    H1 8501   2.124   2.544   1.407  0.2483  1.7148 -0.8296
  573MPD2    H2 8502   2.241   2.355   1.758 -1.6409  0.2100 -1.0876
  573MPD2    H3 8503   2.068   2.425   1.586  0.6802 -2.5870 -1.5345
  573MPD2     N 8504   2.373   2.618   1.319 -0.0380 -0.0706 -1.0327
  573MPD2    H5 8505   2.305   2.619   1.243 -0.1455  0.6810 -0.9230
  573MPD2    N1 8506   2.474   2.402   1.763 -0.1621 -0.6133  0.3936
  573MPD2    H7 8507   2.428   2.350   1.836  0.9107 -2.1074  0.0148
  574TMC3    C1 8508   2.492   2.704   1.137 -0.6337  0.3641 -0.2023
  574TMC3    C2 8509   2.368   2.723   1.077  0.3219 -0.2009 -0.0543
  574TMC3    C3 8510   2.361   2.733   0.946 -0.2185 -0.0735 -0.6212
  574TMC3    C4 8511   2.604   2.708   1.067 -0.9639 -0.5307  0.1922
  574TMC3    C5 8512   2.593   2.708   0.932  0.5261 -0.0293 -0.0789
  574TMC3    C6 8513   2.472   2.713   0.866 -0.0608  0.5101 -0.2669
  574TMC3     C 8514   2.495   2.664   1.278 -0.5157  0.2869 -0.2885
  574TMC3     O 8515   2.600   2.664   1.342  0.2661 -0.1525  0.1229
  574TMC3     H 8516   2.278   2.733   1.137  1.5670  1.8372  1.4658
  574TMC3    H1 8517   2.702   2.707   1.114 -0.7592 -2.6664 -0.2687
  574TMC3    H2 8518   2.473   2.717   0.758 -1.6736 -0.5432 -0.3248
  574TMC3    C7 8519   2.716   2.722   0.848 -0.2468  0.3416  0.0290
  574TMC3    C8 8520   2.244   2.799   0.894  0.3698 -0.7340  0.5404
  574TMC3    O1 8521   2.698   2.747   0.734  0.4004  0.2454  0.4762
  574TMC3    O2 8522   2.155   2.814   0.976  0.2139  0.1322 -0.1285
  575TMC3    C1 8523   1.114   3.797  11.426  0.3566  0.1111  0.0507
  575TMC3    C2 8524   1.060   3.708  11.507  0.1322  0.4495  0.1388
  575TMC3    C3 8525   1.006   3.593  11.458  0.4660 -0.5512  0.6909
  575TMC3    C4 8526   1.112   3.775  11.291  0.0797 -0.3320  0.1721
  575TMC3    C5 8527   1.069   3.655  11.242  0.0897 -0.1543  0.0794
  575TMC3    C6 8528   1.021   3.558  11.325  0.3023  0.0915 -0.3355
  575TMC3     C 8529   1.147   3.928  11.475 -0.2430 -0.4327 -0.5729
  575TMC3     O 8530   1.150   4.015  11.392  0.9985  0.0190 -0.0855
  575TMC3     H 8531   1.044   3.718  11.614  1.2786  1.7959  0.1693
  575TMC3    H1 8532   1.131   3.857  11.223 -0.3592 -2.3994 -2.4639
  575TMC3    H2 8533   0.990   3.460  11.290  0.0169 -0.1514  0.5824
  575TMC3    C7 8534   1.073   3.641  11.099  0.1558  0.8690 -0.0526
  575TMC3    C8 8535   0.945   3.509  11.559  0.1325  0.4551  0.9949
  575TMC3    O1 8536   1.166   3.697  11.045  0.6022  0.7853 -0.0923
  575TMC3    O2 8537   1.006   3.506  11.666  0.5735 -0.1032  0.4725
  576MPD2     C 8538   0.791   0.128  12.397 -0.0341  0.1668  0.0370
  576MPD2    C1 8539   0.849   0.082  12.514 -0.5432 -0.3464  0.7598
  576MPD2    C2 8540   0.773   0.030  12.621  0.5560 -0.2588 -0.2529
  576MPD2    C3 8541   0.636   0.010  12.603  0.1260  0.3786  0.9456
  576MPD2    C4 8542   0.573   0.055  12.488  0.0427 -0.0921 -0.1668
  576MPD2    C5 8543   0.653   0.110  12.389  0.8398 -0.4711 -0.2832
  576MPD2     H 8544   0.825   4.712  12.708  0.7715 -0.1612 -0.3384
  576MPD2    H1 8545   0.467   0.043  12.468  0.0033  1.4957 -0.9172
  576MPD2    H2 8546   0.844   0.180  12.317 -0.1833 -0.1263 -0.2530
  576MPD2    H3 8547   0.603   0.149  12.300 -0.9561 -2.1987 -0.0348
  576MPD2     N 8548   0.571   4.676  12.715  0.4189 -0.0360 -0.3933
  576MPD2    H5 8549   0.622   4.655  12.800 -0.6522 -1.4570 -0.1007
  576MPD2    N1 8550   0.990   0.098  12.538 -0.2606  0.7326 -0.1849
  576MPD2    H7 8551   1.015   0.056  12.627  0.9427  0.5970 -0.5923
  577TMC3    C1 8552   1.207   0.174  12.539  0.5597  0.1449  0.3568
  577TMC3    C2 8553   1.278   0.057  12.537 -0.4103  0.4139  0.0615
  577TMC3    C3 8554   1.407   0.062  12.487  0.2780  0.4642  0.3747
  577TMC3    C4 8555   1.275   0.293  12.508  0.4176  0.1369 -0.1071
  577TMC3    C5 8556   1.404   0.291  12.467 -0.5080  0.1799 -0.5553
  577TMC3    C6 8557   1.469   0.176  12.453  0.3924  0.5449 -0.2895
  577TMC3     C 8558   1.085   0.169  12.465  0.6549  0.4870 -1.1820
  577TMC3     O 8559   1.061   0.250  12.374  0.1746 -0.1872 -0.1538
  577TMC3     H 8560   1.240   4.678  12.553 -0.0765  0.4082  0.8262
  577TMC3    H1 8561   1.222   0.387  12.515  0.8670  0.4271 -0.6795
  577TMC3    H2 8562   1.574   0.173  12.424  0.0724  0.5738 -1.4653
  577TMC3    C7 8563   1.424   0.377  12.346  0.8545  0.1488  1.0884
  577TMC3    C8 8564   1.474   4.660  12.456 -0.1027  0.4030  0.6425
  577TMC3    O1 8565   1.539   0.376  12.301  0.1969 -0.1947 -0.2727
  577TMC3    O2 8566   1.459   4.569  12.536 -0.3417  0.1156  0.5002
  578MPD2     C 8567   2.990   0.115   0.410 -0.6281 -0.6827  0.2969
  578MPD2    C1 8568   3.065   4.713   0.404 -0.4692  0.5635 -0.2988
  578MPD2    C2 8569   3.189   4.708   0.472 -0.2391  0.1022  0.3222
  578MPD2    C3 8570   3.231   0.089   0.550  0.1560  0.2654  1.0605
  578MPD2    C4 8571   3.153   0.200   0.562  0.2489 -0.8659 -0.6029
  578MPD2    C5 8572   3.037   0.216   0.488  0.4965  0.1855 -0.4335
  578MPD2     H 8573   3.242   4.613   0.476  1.4125  0.8445 -3.9348
  578MPD2    H1 8574   3.182   0.271   0.639  2.1466 -1.4457 -0.7673
  578MPD2    H2 8575   2.900   0.130   0.351  0.1862  0.9079 -0.5366
  578MPD2    H3 8576   2.986   0.309   0.510  0.5551  0.2235 -0.4569
  578MPD2     N 8577   3.359   0.078   0.610 -0.4095 -0.2709 -0.2703
  578MPD2    H5 8578   3.394   4.703   0.606 -0.5614 -0.3102 -0.6159
  578MPD2    N1 8579   3.018   4.613   0.316  0.6147  0.8588  0.0115
  578MPD2    H7 8580   2.944   4.633   0.249 -0.1326  0.5313  0.7275
  579TMC3    C1 8581   3.569   0.140   0.692  0.0340  0.6196 -1.5773
  579TMC3    C2 8582   3.643   0.226   0.774  0.0666 -0.2995 -0.5478
  579TMC3    C3 8583   3.767   0.195   0.824 -0.1849 -0.5372 -0.2923
  579TMC3    C4 8584   3.610   0.011   0.678  0.2600  0.0676  0.1550
  579TMC3    C5 8585   3.729   4.701   0.736 -0.8548  0.1281  0.0977
  579TMC3    C6 8586   3.805   0.061   0.816  0.4173 -0.7062  0.3511
  579TMC3     C 8587   3.435   0.181   0.649  0.6957  0.2336  0.5663
  579TMC3     O 8588   3.407   0.298   0.644 -0.2316 -0.3787  0.0665
  579TMC3     H 8589   3.600   0.323   0.797  0.3930 -0.7442  1.9492
  579TMC3    H1 8590   3.553   4.667   0.613  0.0353  1.3307 -0.8967
  579TMC3    H2 8591   3.904   0.031   0.849  0.0995 -2.3229 -0.1758
  579TMC3    C7 8592   3.762   4.560   0.746  0.4041 -0.1965  0.1087
  579TMC3    C8 8593   3.823   0.290   0.922 -0.1227 -0.2314 -0.1196
  579TMC3    O1 8594   3.870   4.532   0.794 -0.2432 -0.7110 -0.2943
  579TMC3    O2 8595   3.729   0.356   0.970 -0.2324 -0.1597 -0.3718
  580TMC3    C1 8596   3.216   3.907  12.094  0.2371  0.2370  0.2430
  580TMC3    C2 8597   3.199   4.002  12.199 -0.0714  0.6222 -0.2944
  580TMC3    C3 8598   3.283   4.008  12.301 -0.6797 -0.3318 -0.0957
  580TMC3    C4 8599   3.309   3.803  12.109  0.8036 -0.1219 -0.3096
  580TMC3    C5 8600   3.389   3.813  12.215 -0.6757  0.4893  0.3323
  580TMC3    C6 8601   3.380   3.914  12.306 -0.0087  0.4983  0.2993
  580TMC3     C 8602   3.228   3.979  11.968  0.0403  0.3833 -0.1901
  580TMC3     O 8603   3.208   3.918  11.863  0.4257  0.4088  0.6663
  580TMC3     H 8604   3.121   4.077  12.189 -0.9307 -0.1747  0.4474
  580TMC3    H1 8605   3.331   3.737  12.026 -0.7519  0.8276 -1.4684
  580TMC3    H2 8606   3.447   3.914  12.391  1.0122 -1.8125 -0.5269
  580TMC3    C7 8607   3.462   3.700  12.262 -0.3217 -0.0561  0.5379
  580TMC3    C8 8608   3.328   4.145  12.326  0.3580  0.2980 -0.3164
  580TMC3    O1 8609   3.517   3.708  12.368  0.7977  0.3340  0.1464
  580TMC3    O2 8610   3.246   4.229  12.294 -0.1137  0.2208  0.2252
  581MPD2     C 8611   1.259   3.599  15.319 -0.3002 -0.2964  0.7227
  581MPD2    C1 8612   1.207   3.547  15.202 -0.8208 -0.5203  0.6855
  581MPD2    C2 8613   1.097   3.607  15.136  0.1667 -0.1725  0.0382
  581MPD2    C3 8614   1.066   3.733  15.181 -0.2707 -0.6610 -0.0692
  581MPD2    C4 8615   1.128   3.787  15.290 -0.1897 -0.0603  0.1058
  581MPD2    C5 8616   1.222   3.719  15.362  0.2374  0.2052 -0.0754
  581MPD2     H 8617   1.051   3.557  15.051  0.4829 -1.1046  0.4196
  581MPD2    H1 8618   1.097   3.884  15.329  0.1661 -0.2175  0.7844
  581MPD2    H2 8619   1.331   3.543  15.379  2.0936 -0.0014 -1.8706
  581MPD2    H3 8620   1.270   3.762  15.449  0.1294 -0.4437  0.3069
  581MPD2     N 8621   0.957   3.809  15.137  1.2056  0.3509  0.4625
  581MPD2    H5 8622   0.946   3.901  15.178  0.9368  0.1770  0.7763
  581MPD2    N1 8623   1.267   3.426  15.158  0.1694  0.1539 -0.0425
  581MPD2    H7 8624   1.340   3.391  15.218  1.1287 -0.8339 -1.7917
  582TMC3    C1 8625   1.313   3.236  15.041  0.5367  0.5220 -0.5711
  582TMC3    C2 8626   1.424   3.248  15.118 -0.1446  0.0719 -0.1365
  582TMC3    C3 8627   1.443   3.154  15.206 -0.2376  0.4552  0.4029
  582TMC3    C4 8628   1.237   3.120  15.040  0.2840 -0.5373 -0.0301
  582TMC3    C5 8629   1.267   3.013  15.122  0.9995  0.3842 -0.6577
  582TMC3    C6 8630   1.373   3.033  15.205 -0.2389 -0.5790 -0.1511
  582TMC3     C 8631   1.227   3.356  15.046  0.0526  0.8316  0.0748
  582TMC3     O 8632   1.131   3.366  14.973  0.1636 -0.2519 -0.3893
  582TMC3     H 8633   1.484   3.339  15.114 -1.4397  0.8631 -1.4249
  582TMC3    H1 8634   1.153   3.117  14.973  1.2147  0.4284 -1.2398
  582TMC3    H2 8635   1.390   2.962  15.285  1.8340  0.7518  0.5964
  582TMC3    C7 8636   1.158   2.936  15.189 -0.7492 -0.5174  0.3520
  582TMC3    C8 8637   1.503   3.189  15.337  0.1965  0.2665  0.1229
  582TMC3    O1 8638   1.183   2.852  15.274  0.4685 -0.1811  0.0744
  582TMC3    O2 8639   1.473   3.298  15.382  0.6723  0.2192  0.8930
  583MPD2     C 8640   1.275   0.229  16.849 -0.1214  0.1489  0.2496
  583MPD2    C1 8641   1.292   0.362  16.811 -0.2755  0.1699  0.2616
  583MPD2    C2 8642   1.244   0.460  16.895 -0.2912  0.1204  0.0319
  583MPD2    C3 8643   1.172   0.432  17.011 -0.4678  0.2610 -0.4038
  583MPD2    C4 8644   1.151   0.300  17.044 -0.2352  0.2643  0.3818
  583MPD2    C5 8645   1.212   0.209  16.965  0.2281  0.3620  0.6097
  583MPD2     H 8646   1.254   0.563  16.863 -1.4997  0.6637  1.4091
  583MPD2    H1 8647   1.091   0.271  17.129 -1.0073  2.5406  0.6014
  583MPD2    H2 8648   1.309   0.144  16.791 -2.6453  2.1491 -4.1662
  583MPD2    H3 8649   1.192   0.108  17.000 -1.3296 -0.0583 -1.4763
  583MPD2     N 8650   1.135   0.541  17.095  0.0232  0.1242 -0.3023
  583MPD2    H5 8651   1.150   0.639  17.075 -0.3144  0.3709  0.6387
  583MPD2    N1 8652   1.353   0.397  16.682  0.0008  0.0502  0.1930
  583MPD2    H7 8653   1.340   0.491  16.646  0.1243  0.3115  0.8319
  584TMC3    C1 8654   1.082   0.658  17.289  0.7806  0.3280  0.3513
  584TMC3    C2 8655   1.065   0.774  17.217  0.0115  0.0563  1.0194
  584TMC3    C3 8656   1.023   0.884  17.291 -0.0142  0.4958 -0.6236
  584TMC3    C4 8657   1.040   0.648  17.419  0.0043  0.0875  0.6662
  584TMC3    C5 8658   0.983   0.750  17.481  0.1579  0.3877  0.0524
  584TMC3    C6 8659   0.982   0.867  17.421  0.3013 -0.0706  0.4043
  584TMC3     C 8660   1.080   0.533  17.218  0.4158  0.8576  0.1339
  584TMC3     O 8661   1.027   0.439  17.275 -0.2841 -0.0164 -0.2558
  584TMC3     H 8662   1.073   0.778  17.109 -3.3904 -0.5484  0.7643
  584TMC3    H1 8663   1.044   0.552  17.470 -0.2984 -0.6996 -0.7881
  584TMC3    H2 8664   0.963   0.954  17.483  0.2974 -1.8397  2.8952
  584TMC3    C7 8665   0.936   0.739  17.615  0.0394 -0.3203  0.0168
  584TMC3    C8 8666   1.052   1.017  17.233  0.4476 -0.8404 -0.7048
  584TMC3    O1 8667   0.971   0.639  17.674 -0.1525 -0.0454  0.8027
  584TMC3    O2 8668   1.048   1.028  17.112  0.2733  0.0290 -0.2893
  585MPD2     C 8669   0.718   4.089   0.957  0.9800 -0.5164  0.1219
  585MPD2    C1 8670   0.706   4.225   0.931 -0.2814 -0.7959  0.5642
  585MPD2    C2 8671   0.757   4.272   0.814  0.0891 -0.0260 -0.2498
  585MPD2    C3 8672   0.827   4.197   0.727  0.8674  0.5235 -0.0003
  585MPD2    C4 8673   0.841   4.065   0.758 -0.2259  0.0658  1.0064
  585MPD2    C5 8674   0.776   4.003   0.866  0.0191 -0.2949 -0.2350
  585MPD2     H 8675   0.739   4.378   0.801 -0.2122  0.1462  1.5276
  585MPD2    H1 8676   0.897   4.005   0.688 -2.3612 -0.2569 -0.4437
  585MPD2    H2 8677   0.690   4.052   1.056  2.5403 -0.3541  0.6344
  585MPD2    H3 8678   0.789   3.897   0.880  0.4645 -0.2373 -0.2096
  585MPD2     N 8679   0.888   4.245   0.604  0.1009  0.1729 -0.0920
  585MPD2    H5 8680   0.917   4.181   0.531  0.4305  0.2660 -0.0438
  585MPD2    N1 8681   0.650   4.303   1.031 -0.2425  0.3015  0.2386
  585MPD2    H7 8682   0.586   4.251   1.090  0.9513  0.9347  2.0833
  586TMC3    C1 8683   0.924   4.401   0.423  0.1449  0.3974  0.1118
  586TMC3    C2 8684   1.033   4.332   0.385  0.1865 -0.1117 -0.3751
  586TMC3    C3 8685   1.056   4.322   0.256 -0.4934  0.0633 -0.0400
  586TMC3    C4 8686   0.831   4.435   0.332 -1.1819 -0.5507 -0.4057
  586TMC3    C5 8687   0.842   4.414   0.199  0.5471  0.3166  0.2208
  586TMC3    C6 8688   0.961   4.355   0.167 -0.1524 -0.7178  0.6810
  586TMC3     C 8689   0.887   4.378   0.564  0.6162 -0.0103  0.0770
  586TMC3     O 8690   0.850   4.478   0.625 -0.1073  0.2947  0.3512
  586TMC3     H 8691   1.094   4.285   0.461 -0.5586 -0.5302 -0.0386
  586TMC3    H1 8692   0.742   4.475   0.378  0.1378  0.9088  0.8938
  586TMC3    H2 8693   0.986   4.344   0.062 -1.0884  2.5420  0.1046
  586TMC3    C7 8694   0.715   4.385   0.128 -0.6088 -0.0453 -0.6980
  586TMC3    C8 8695   1.139   4.215   0.210  0.1252  0.2473 -0.0104
  586TMC3    O1 8696   0.606   4.374   0.186  0.4780  0.5919 -0.7387
  586TMC3    O2 8697   1.256   4.209   0.249 -0.0647  0.1467 -0.0886
  587TMC3    C1 8698   2.770   2.783  17.289  0.2102 -0.3382 -0.1824
  587TMC3    C2 8699   2.767   2.860  17.178 -0.8291 -0.5029 -0.5190
  587TMC3    C3 8700   2.872   2.847  17.087  0.5459  0.8359 -0.2905
  587TMC3    C4 8701   2.878   2.704  17.321 -0.5143 -0.3677 -0.0439
  587TMC3    C5 8702   2.975   2.691  17.227  0.5353 -0.3269 -0.5183
  587TMC3    C6 8703   2.974   2.761  17.110  0.4347  0.4467 -0.2485
  587TMC3     C 8704   2.641   2.740  17.342 -0.3992 -0.3807 -0.1545
  587TMC3     O 8705   2.642   2.676  17.446  0.0415 -0.1446  0.4436
  587TMC3     H 8706   2.685   2.925  17.151  0.6582  2.6379  2.6396
  587TMC3    H1 8707   2.892   2.657  17.418 -0.3985  1.9123  1.0472
  587TMC3    H2 8708   3.063   2.770  17.048 -0.0015  2.0491 -0.6537
  587TMC3    C7 8709   3.108   2.661  17.279  0.3311 -0.6137 -0.8062
  587TMC3    C8 8710   2.882   2.917  16.959  0.3422  0.2854 -0.6296
  587TMC3    O1 8711   3.128   2.706  17.393  0.8133  0.3873  0.5627
  587TMC3    O2 8712   2.965   2.879  16.877 -0.1032  0.0695 -0.1372
  588TMC3    C1 8713   0.933   1.012  10.217  0.2380  1.3081  0.9097
  588TMC3    C2 8714   0.954   0.885  10.194  0.3760  0.1753 -0.4038
  588TMC3    C3 8715   0.919   0.844  10.069  0.2873  0.4402 -0.1349
  588TMC3    C4 8716   0.885   1.103  10.134 -0.6975 -0.4587  0.5938
  588TMC3    C5 8717   0.857   1.062  10.001  0.3025  0.1141 -0.1892
  588TMC3    C6 8718   0.870   0.934   9.968  0.0014  0.0553 -0.1412
  588TMC3     C 8719   0.921   1.046  10.354 -0.5076 -0.8036 -0.5942
  588TMC3     O 8720   0.908   0.955  10.440 -0.4474  0.3471  0.2839
  588TMC3     H 8721   0.978   0.809  10.268 -0.9787  0.8834  0.7792
  588TMC3    H1 8722   0.837   1.192  10.175 -2.1168 -0.6873 -0.5808
  588TMC3    H2 8723   0.847   0.902   9.867 -1.7884 -3.4082  1.3886
  588TMC3    C7 8724   0.846   1.161   9.904 -0.0599  0.2777 -0.6826
  588TMC3    C8 8725   0.906   0.703  10.050  0.2401  0.1569 -0.3198
  588TMC3    O1 8726   0.809   1.132   9.789  0.7446 -0.2367  0.3674
  588TMC3    O2 8727   0.835   0.671   9.956 -0.1090 -0.6237 -0.1646
  589TMC3    C1 8728   3.775   3.208   1.521 -0.5035 -0.1986 -0.3535
  589TMC3    C2 8729   3.850   3.203   1.636  0.1556  0.0866  0.3589
  589TMC3    C3 8730   3.974   3.154   1.629 -0.1295  0.2322  0.0179
  589TMC3    C4 8731   3.819   3.144   1.409 -0.3662  0.3327  0.2658
  589TMC3    C5 8732   3.943   3.090   1.410  0.8297 -0.7708  0.1349
  589TMC3    C6 8733   4.025   3.089   1.519 -0.9152 -0.8684 -0.2394
  589TMC3     C 8734   3.649   3.285   1.514  0.0576  0.0372  0.6970
  589TMC3     O 8735   3.572   3.242   1.428 -0.1191  0.3878  0.1983
  589TMC3     H 8736   3.825   3.258   1.726  1.2653  0.8654  0.1947
  589TMC3    H1 8737   3.757   3.145   1.320 -2.0147 -1.5543  1.3925
  589TMC3    H2 8738   4.125   3.047   1.518 -0.2198  0.7537  0.3364
  589TMC3    C7 8739   3.986   3.000   1.297  0.0885 -0.3236 -0.3058
  589TMC3    C8 8740   4.063   3.181   1.742 -0.5974  0.3717 -0.0564
  589TMC3    O1 8741   3.900   2.930   1.239 -0.8531  0.1509  0.8873
  589TMC3    O2 8742   4.027   3.197   1.859 -0.2829 -0.1431  0.2459
  590MPD2     C 8743   3.551   1.269  16.733  0.0805  0.4722  0.4964
  590MPD2    C1 8744   3.502   1.292  16.605  0.8803 -0.1435 -0.0665
  590MPD2    C2 8745   3.596   1.329  16.513  0.3576  0.0763  0.6413
  590MPD2    C3 8746   3.726   1.356  16.548 -1.1632 -0.5297 -0.0400
  590MPD2    C4 8747   3.773   1.347  16.675 -0.0120  0.1341 -0.7511
  590MPD2    C5 8748   3.681   1.296  16.765  0.3876  0.0981  0.4553
  590MPD2     H 8749   3.572   1.339  16.408 -1.1736  0.3060  1.0154
  590MPD2    H1 8750   3.876   1.367  16.704 -0.3051 -0.1280  0.4570
  590MPD2    H2 8751   3.494   1.226  16.815 -0.1724 -1.7603 -0.8580
  590MPD2    H3 8752   3.710   1.286  16.869  1.0411  1.3845  0.4043
  590MPD2     N 8753   3.803   1.404  16.440 -0.2928  0.2834  0.2291
  590MPD2    H5 8754   3.757   1.405  16.350  1.7634 -1.5387 -0.8465
  590MPD2    N1 8755   3.357   1.273  16.576 -0.2875  0.2828 -0.2011
  590MPD2    H7 8756   3.298   1.260  16.658 -0.4666 -0.7549 -0.4901
  591TMC3    C1 8757   3.969   1.508  16.320  0.4763 -0.1510  0.1654
  591TMC3    C2 8758   4.088   1.478  16.263  0.5708 -0.0061 -0.7316
  591TMC3    C3 8759   4.117   1.527  16.135  0.5801 -0.1720 -0.6767
  591TMC3    C4 8760   3.877   1.584  16.246  0.5392  0.5244  0.5098
  591TMC3    C5 8761   3.919   1.644  16.128 -0.0590  0.4540  0.1355
  591TMC3    C6 8762   4.039   1.623  16.078 -0.6854  0.5304  0.0146
  591TMC3     C 8763   3.932   1.439  16.441 -0.2552  0.4495 -0.4854
  591TMC3     O 8764   4.023   1.417  16.518 -0.2934 -0.4810  0.4163
  591TMC3     H 8765   4.157   1.407  16.308 -1.4037 -1.1286  0.5226
  591TMC3    H1 8766   3.779   1.606  16.285 -0.3925 -2.8374  0.0728
  591TMC3    H2 8767   4.063   1.664  15.980  0.3313 -1.7065 -0.6708
  591TMC3    C7 8768   3.835   1.737  16.064 -0.1140 -0.5595  0.4093
  591TMC3    C8 8769   4.234   1.472  16.065  0.2785  0.3771 -0.1159
  591TMC3    O1 8770   3.714   1.715  16.073 -0.0730  0.0375 -0.4119
  591TMC3    O2 8771   4.287   1.373  16.111  0.2164  0.2887  0.2851
  592MPD2     C 8772   0.043   3.767  11.674 -0.1354  0.2198 -0.7684
  592MPD2    C1 8773   4.702   3.796  11.795  0.5745 -0.3402  0.0498
  592MPD2    C2 8774   4.602   3.716  11.847 -0.2645  0.1441  0.1281
  592MPD2    C3 8775   4.560   3.605  11.774  0.8703  0.0156 -0.0251
  592MPD2    C4 8776   4.628   3.577  11.655  0.0785 -0.5507 -0.3641
  592MPD2    C5 8777   0.011   3.654  11.610  0.4262 -0.6033 -0.1133
  592MPD2     H 8778   4.561   3.739  11.944 -1.9196 -2.3993  0.0436
  592MPD2    H1 8779   4.605   3.500  11.582 -2.3809  0.5782 -0.7868
  592MPD2    H2 8780   0.131   3.826  11.650  1.5784 -2.2660 -0.6123
  592MPD2    H3 8781   0.070   3.622  11.525  1.5491 -0.3163  0.5517
  592MPD2     N 8782   4.454   3.529  11.832 -0.1239  0.5639  0.3509
  592MPD2    H5 8783   4.397   3.574  11.902 -3.4983 -2.4507 -0.4655
  592MPD2    N1 8784   0.021   3.914  11.859  0.3066  0.9514  0.2773
  592MPD2    H7 8785   0.094   3.967  11.812  1.0458  0.1024  0.4777
  593TMC3    C1 8786   0.061   4.064  12.034 -0.3308  0.1804  0.7836
  593TMC3    C2 8787   0.046   4.081  12.171 -0.3427 -0.1369 -0.1659
  593TMC3    C3 8788   0.144   4.163  12.228  0.0512  0.4730  0.8192
  593TMC3    C4 8789   0.182   4.099  11.967  0.9390 -0.1550 -0.3970
  593TMC3    C5 8790   0.274   4.173  12.031  0.0697 -0.6001  0.1966
  593TMC3    C6 8791   0.251   4.214  12.158  0.2346 -0.2569  0.1318
  593TMC3     C 8792   4.685   3.975  11.973 -0.2112  0.4203 -0.0213
  593TMC3     O 8793   4.597   3.936  12.049 -0.0866  0.0738 -0.2925
  593TMC3     H 8794   4.683   4.040  12.226  2.2410 -1.8736  2.4922
  593TMC3    H1 8795   0.188   4.098  11.859  0.5731 -0.7278 -0.4103
  593TMC3    H2 8796   0.322   4.279  12.207 -0.7609  1.0667 -0.1753
  593TMC3    C7 8797   0.345   4.269  11.941  0.3130 -0.3565 -0.4582
  593TMC3    C8 8798   0.146   4.164  12.373  0.2059 -0.1823  0.5278
  593TMC3    O1 8799   0.290   4.296  11.835 -0.2487  1.0011 -0.4463
  593TMC3    O2 8800   0.050   4.123  12.436 -0.3286  0.1403 -0.0976
  594MPD2     C 8801   3.431   2.162  14.496  0.2851  0.9667  0.0935
  594MPD2    C1 8802   3.343   2.265  14.512  0.0221 -0.0298  0.3593
  594MPD2    C2 8803   3.348   2.380  14.427 -0.2329  0.0022  0.1830
  594MPD2    C3 8804   3.445   2.383  14.327 -0.8925  0.0763 -0.4209
  594MPD2    C4 8805   3.530   2.278  14.315 -0.1693 -0.1388 -0.1712
  594MPD2    C5 8806   3.530   2.174  14.401  0.4048 -0.4818 -0.4150
  594MPD2     H 8807   3.271   2.456  14.435  0.1238 -0.0275  3.8380
  594MPD2    H1 8808   3.599   2.262  14.233 -0.1902 -0.2374 -0.1700
  594MPD2    H2 8809   3.445   2.087  14.574  2.5270 -1.5575 -2.7387
  594MPD2    H3 8810   3.604   2.095  14.392 -1.2015 -1.8430 -1.6108
  594MPD2     N 8811   3.432   2.479  14.224  0.6623  0.5518 -0.1119
  594MPD2    H5 8812   3.367   2.555  14.240  0.0148 -0.6086  2.8530
  594MPD2    N1 8813   3.246   2.249  14.612 -0.1678 -0.1105 -0.9358
  594MPD2    H7 8814   3.228   2.161  14.658 -0.8616  0.7394  0.4415
  595TMC3    C1 8815   3.679   2.791  14.053  0.7749 -0.4051 -0.2509
  595TMC3    C2 8816   3.626   2.676  14.007  0.3110  0.2641 -0.0481
  595TMC3    C3 8817   3.510   2.629  14.063  0.9589  0.5594 -1.0780
  595TMC3    C4 8818   3.612   2.865  14.139  0.3025  0.5061 -0.5145
  595TMC3    C5 8819   3.481   2.839  14.168  0.0410 -0.7130  0.0068
  595TMC3    C6 8820   3.438   2.717  14.147 -0.4909 -0.1539 -0.2053
  595TMC3     C 8821   3.821   2.784  14.073 -0.8346  0.1101  0.3520
  595TMC3     O 8822   3.852   2.838  14.175 -0.2866 -0.5700 -0.8174
  595TMC3     H 8823   3.674   2.609  13.936 -1.2476 -1.8513  0.9371
  595TMC3    H1 8824   3.660   2.954  14.180  1.1892 -0.9999  1.7684
  595TMC3    H2 8825   3.333   2.700  14.169  0.1013  0.1025  2.8287
  595TMC3    C7 8826   3.437   2.896  14.297  0.2001  0.1796  0.2689
  595TMC3    C8 8827   3.530   2.502  14.129  0.2979 -0.2930 -0.3891
  595TMC3    O1 8828   3.397   3.012  14.301 -0.4119  1.3428 -0.0137
  595TMC3    O2 8829   3.639   2.453  14.117  0.6564 -0.2122 -0.0579
  596MPD2     C 8830   1.996   0.115  16.931  0.2165 -0.2409 -0.5955
  596MPD2    C1 8831   2.061   0.231  16.886 -0.8667  0.3958  0.0699
  596MPD2    C2 8832   2.140   0.235  16.771  0.4386 -1.0386 -0.2188
  596MPD2    C3 8833   2.147   0.119  16.692  0.1545  0.4558  0.6118
  596MPD2    C4 8834   2.091   0.001  16.737  0.2983 -0.0682  0.9019
  596MPD2    C5 8835   2.015   0.005  16.852 -0.9323  0.2302 -0.0652
  596MPD2     H 8836   2.188   0.330  16.751 -0.6960 -0.2308  0.8956
  596MPD2    H1 8837   2.104   4.639  16.668 -0.7663  0.9768 -0.5531
  596MPD2    H2 8838   1.931   0.109  17.017  0.6340  0.5837 -0.2277
  596MPD2    H3 8839   1.969   4.633  16.885  1.0613 -0.6117  0.3219
  596MPD2     N 8840   2.212   0.113  16.571  0.9736  0.2335 -0.2077
  596MPD2    H5 8841   2.198   0.030  16.515 -2.4559  0.3256  0.5271
  596MPD2    N1 8842   2.049   0.352  16.953  1.1799  0.1097  0.5665
  596MPD2    H7 8843   2.101   0.432  16.920  1.1439  0.0201  0.2888
  597TMC3    C1 8844   1.956   0.507  17.111 -0.3585  0.2772 -0.5855
  597TMC3    C2 8845   2.041   0.598  17.051 -0.0043 -0.2154  0.5592
  597TMC3    C3 8846   2.017   0.730  17.066  0.1932 -0.2699 -0.1727
  597TMC3    C4 8847   1.842   0.548  17.178  0.0134 -0.7079 -0.9080
  597TMC3    C5 8848   1.833   0.682  17.197 -0.3451  0.0073  0.3737
  597TMC3    C6 8849   1.913   0.777  17.143 -0.3293 -0.1517 -0.0344
  597TMC3     C 8850   1.966   0.370  17.064  0.0078 -0.1263  0.0087
  597TMC3     O 8851   1.893   0.291  17.126  0.7037 -0.0403 -0.1033
  597TMC3     H 8852   2.125   0.573  16.987 -0.1936  0.6667 -0.0330
  597TMC3    H1 8853   1.769   0.482  17.222 -1.2001 -0.1921 -2.1677
  597TMC3    H2 8854   1.924   0.881  17.172 -1.1506  0.2299 -1.0829
  597TMC3    C7 8855   1.731   0.723  17.289 -0.0279  0.3673 -0.2821
  597TMC3    C8 8856   2.099   0.819  16.988 -0.6736 -0.0359 -1.0555
  597TMC3    O1 8857   1.674   0.644  17.358  0.3386  0.2915 -0.1593
  597TMC3    O2 8858   2.202   0.776  16.938 -0.5477  0.3227  0.3516
  598TMC3    C1 8859   0.580   1.911  15.446  0.2109 -0.2247 -0.0428
  598TMC3    C2 8860   0.562   1.777  15.413 -0.0957  0.1789 -0.7443
  598TMC3    C3 8861   0.627   1.723  15.308 -0.1915  0.3891  0.3601
  598TMC3    C4 8862   0.663   1.989  15.364 -0.1287 -0.2849  0.0178
  598TMC3    C5 8863   0.728   1.926  15.258  0.3130  0.2995  0.3540
  598TMC3    C6 8864   0.718   1.792  15.237  0.8113 -0.5889  0.1867
  598TMC3     C 8865   0.525   1.971  15.575  0.0766  0.3484  0.2078
  598TMC3     O 8866   0.540   2.091  15.587  0.1774  0.3848  0.1708
  598TMC3     H 8867   0.488   1.727  15.473 -0.7250  1.6637 -0.2898
  598TMC3    H1 8868   0.685   2.093  15.384  1.1836 -0.7449  0.9662
  598TMC3    H2 8869   0.772   1.743  15.156 -1.0214 -0.8762 -0.8526
  598TMC3    C7 8870   0.818   2.005  15.172 -1.3237 -0.6985 -0.7328
  598TMC3    C8 8871   0.593   1.590  15.250 -0.3396  0.0160 -0.0640
  598TMC3    O1 8872   0.903   1.941  15.111  0.1348  0.3877  0.3259
  598TMC3    O2 8873   0.657   1.546  15.154  0.0537  0.2759 -0.1061
  599MPD2     C 8874   0.641   4.406  16.239 -0.6047  0.9193 -0.5210
  599MPD2    C1 8875   0.580   4.286  16.239  0.4084  0.0629  0.1483
  599MPD2    C2 8876   0.447   4.273  16.282  1.0985 -1.2509  0.1416
  599MPD2    C3 8877   0.386   4.391  16.335  0.0198 -0.3073 -0.1126
  599MPD2    C4 8878   0.448   4.511  16.329  0.1722  0.3308  0.5842
  599MPD2    C5 8879   0.569   4.518  16.280  0.8380 -0.0724  0.4836
  599MPD2     H 8880   0.404   4.175  16.296  2.9388 -1.6871  2.9143
  599MPD2    H1 8881   0.409   4.603  16.371 -1.6230 -0.1324 -0.0634
  599MPD2    H2 8882   0.738   4.414  16.192  0.8818  0.3452  2.4462
  599MPD2    H3 8883   0.616   4.616  16.275  0.7711 -0.1280 -1.2119
  599MPD2     N 8884   0.261   4.396  16.402 -0.1526  0.6553  0.2025
  599MPD2    H5 8885   0.226   4.486  16.432  0.3600  1.4669 -1.6364
  599MPD2    N1 8886   0.656   4.173  16.193  0.3131 -0.1178  0.2417
  599MPD2    H7 8887   0.754   4.198  16.184  0.2342  0.1344  0.0741
  600TMC3    C1 8888   0.066   4.323  16.518 -0.4145 -0.2028 -0.4575
  600TMC3    C2 8889   0.040   4.232  16.617  0.2083 -0.4976 -0.2688
  600TMC3    C3 8890   4.687   4.264  16.723  0.4471  0.2318 -0.7124
  600TMC3    C4 8891   0.014   4.451  16.522 -0.0414  0.5703 -0.4252
  600TMC3    C5 8892   4.667   4.474  16.636  0.3078 -0.2130  0.1092
  600TMC3    C6 8893   4.635   4.382  16.738 -0.8741  0.1699 -0.0784
  600TMC3     C 8894   0.185   4.288  16.439  0.2306  0.7522 -0.1998
  600TMC3     O 8895   0.210   4.170  16.420 -0.3670 -0.3830 -0.1395
  600TMC3     H 8896   0.087   4.135  16.617  0.2054 -0.4962  0.8758
  600TMC3    H1 8897   0.040   4.527  16.448  1.4241 -1.1300 -1.6453
  600TMC3    H2 8898   4.568   4.405  16.820 -0.7486 -2.1936  0.6883
  600TMC3    C7 8899   4.593   4.602  16.647 -0.8500 -0.2931 -0.6796
  600TMC3    C8 8900   4.671   4.169  16.828 -0.2565 -0.1508 -0.3134
  600TMC3    O1 8901   4.499   4.605  16.728 -0.4962  0.5395  0.4844
  600TMC3    O2 8902   4.679   4.217  16.942  0.4132  0.0142 -0.0985
  601MPD2     C 8903   1.786   2.317   0.877  0.1731 -0.3345 -0.0448
  601MPD2    C1 8904   1.748   2.302   0.744  0.5991 -1.2679 -1.0353
  601MPD2    C2 8905   1.665   2.192   0.712 -0.4458  0.3856 -0.4613
  601MPD2    C3 8906   1.645   2.091   0.808  0.2647  0.0607 -0.2027
  601MPD2    C4 8907   1.683   2.116   0.937 -0.2969  0.0600 -0.4966
  601MPD2    C5 8908   1.748   2.229   0.973 -0.3498 -0.5116  0.5314
  601MPD2     H 8909   1.633   2.183   0.608 -3.7509  1.0808  0.5230
  601MPD2    H1 8910   1.665   2.040   1.012 -1.5861  0.6714 -0.1749
  601MPD2    H2 8911   1.843   2.399   0.919 -0.7368  1.8355 -3.0483
  601MPD2    H3 8912   1.791   2.232   1.073  0.1495  2.0359  0.2476
  601MPD2     N 8913   1.571   1.973   0.777 -0.5631  0.1893  0.1685
  601MPD2    H5 8914   1.562   1.901   0.848  0.5996  0.1992  0.3292
  601MPD2    N1 8915   1.776   2.392   0.647 -0.1935 -0.1897 -0.3086
  601MPD2    H7 8916   1.755   2.364   0.551 -1.9623 -2.4652  0.7441
  602TMC3    C1 8917   1.847   2.587   0.534  0.1983  0.3905 -0.5057
  602TMC3    C2 8918   1.752   2.558   0.435  1.0352 -0.0887 -0.0398
  602TMC3    C3 8919   1.773   2.607   0.311  0.0910 -0.1482 -0.5634
  602TMC3    C4 8920   1.967   2.647   0.503  0.0201 -0.6136 -0.5456
  602TMC3    C5 8921   1.977   2.699   0.381 -0.1228  0.4948  0.3685
  602TMC3    C6 8922   1.889   2.675   0.281  0.4784  1.2238  0.1327
  602TMC3     C 8923   1.842   2.515   0.662 -0.1125 -0.0926  1.0483
  602TMC3     O 8924   1.886   2.561   0.762  0.3539 -0.4945  0.0378
  602TMC3     H 8925   1.663   2.501   0.459  0.2584  0.6824 -1.0370
  602TMC3    H1 8926   2.054   2.650   0.568 -0.5609  1.5590  0.1244
  602TMC3    H2 8927   1.908   2.692   0.176 -2.3935 -0.7214 -0.7358
  602TMC3    C7 8928   2.096   2.763   0.333  0.0741  0.9847  0.1387
  602TMC3    C8 8929   1.676   2.579   0.211 -0.3848  0.5162 -0.6084
  602TMC3    O1 8930   2.200   2.713   0.372 -0.1156  0.8783  0.0966
  602TMC3    O2 8931   1.620   2.473   0.221  0.0848  0.3557  0.0859
  603TMC3    C1 8932   0.541   3.568  11.568  0.1391  0.4810  0.1672
  603TMC3    C2 8933   0.600   3.552  11.692 -0.6942  0.0927 -0.1607
  603TMC3    C3 8934   0.682   3.650  11.743  0.6567  0.3592 -0.8725
  603TMC3    C4 8935   0.577   3.671  11.489 -0.2239  0.1686 -0.3142
  603TMC3    C5 8936   0.668   3.755  11.540  0.0442 -0.4553 -0.0461
  603TMC3    C6 8937   0.715   3.763  11.671  0.2048  0.3976 -1.0714
  603TMC3     C 8938   0.436   3.473  11.528 -0.5417  0.0668  0.3407
  603TMC3     O 8939   0.415   3.377  11.600  0.4359 -0.5784  0.2440
  603TMC3     H 8940   0.581   3.458  11.743 -0.9823 -0.6204 -1.6029
  603TMC3    H1 8941   0.558   3.664  11.382  0.5346 -0.8693 -0.3845
  603TMC3    H2 8942   0.784   3.843  11.698  0.2205 -0.3726  1.1616
  603TMC3    C7 8943   0.730   3.847  11.453 -0.1347 -0.3230  0.0204
  603TMC3    C8 8944   0.781   3.616  11.847  0.6115 -0.4881  1.0769
  603TMC3    O1 8945   0.826   3.907  11.492 -0.0020 -0.0132  0.0864
  603TMC3    O2 8946   0.858   3.707  11.877  0.3374 -0.0190  0.2276
  604MPD2     C 8947   1.244   1.895  16.399 -0.7396  0.0243  0.3800
  604MPD2    C1 8948   1.148   1.803  16.389  0.2848  0.1820  0.8252
  604MPD2    C2 8949   1.168   1.710  16.282 -0.3405 -0.0871 -0.5100
  604MPD2    C3 8950   1.270   1.721  16.192 -0.2734 -1.1457  0.7799
  604MPD2    C4 8951   1.353   1.829  16.200 -0.5269 -0.4210 -0.1716
  604MPD2    C5 8952   1.349   1.912  16.309 -0.5205  0.1126 -0.2270
  604MPD2     H 8953   1.105   1.621  16.274  0.6258 -0.7965 -0.2223
  604MPD2    H1 8954   1.440   1.837  16.135 -1.2039 -0.5812 -1.0854
  604MPD2    H2 8955   1.255   1.963  16.483  0.7378 -0.7441  0.8159
  604MPD2    H3 8956   1.428   1.981  16.339 -2.2402  1.9845 -0.0129
  604MPD2     N 8957   1.285   1.612  16.098 -0.3658 -0.2120  0.0160
  604MPD2    H5 8958   1.241   1.524  16.125 -0.1164 -0.3024  0.1357
  604MPD2    N1 8959   1.038   1.803  16.477  0.6687  0.1255  0.2052
  604MPD2    H7 8960   1.045   1.867  16.556 -3.0281  0.5753  0.1435
  605TMC3    C1 8961   0.847   1.743  16.591 -0.2121  0.3248 -0.2262
  605TMC3    C2 8962   0.909   1.790  16.703 -0.7458  0.3417  0.6467
  605TMC3    C3 8963   0.834   1.864  16.795  0.0272  0.0907  0.0267
  605TMC3    C4 8964   0.716   1.769  16.567  0.4161  0.5413  0.0291
  605TMC3    C5 8965   0.645   1.850  16.656 -0.2225  0.1316 -0.2313
  605TMC3    C6 8966   0.703   1.898  16.776 -0.8058  0.4659 -0.2045
  605TMC3     C 8967   0.933   1.719  16.473 -0.2696 -0.2485 -0.7018
  605TMC3     O 8968   0.885   1.652  16.383  0.0614  0.1492 -0.0357
  605TMC3     H 8969   1.017   1.780  16.710 -0.7605  0.0722  0.4884
  605TMC3    H1 8970   0.686   1.759  16.464 -2.1175 -2.0890  1.0454
  605TMC3    H2 8971   0.654   1.971  16.839 -0.6263  1.4510 -1.2079
  605TMC3    C7 8972   0.503   1.875  16.633  0.0746 -0.9907  0.2077
  605TMC3    C8 8973   0.919   1.929  16.894  0.9127 -0.1197  0.2734
  605TMC3    O1 8974   0.461   1.975  16.700 -0.2492  0.2673 -0.5305
  605TMC3    O2 8975   1.017   1.874  16.937  0.1012 -0.0960  0.5799
  606TMC3    C1 8976   2.476   4.645  16.747 -0.3291  0.5158 -0.3018
  606TMC3    C2 8977   2.454   0.017  16.843  0.2616 -0.0967 -0.1537
  606TMC3    C3 8978   2.394   4.699  16.958 -0.3776 -0.3340 -0.9444
  606TMC3    C4 8979   2.418   4.525  16.756 -0.0963 -0.6708 -0.9919
  606TMC3    C5 8980   2.346   4.492  16.863  0.5291  0.3092 -0.3036
  606TMC3    C6 8981   2.345   4.567  16.978 -0.1552 -0.0165 -0.0374
  606TMC3     C 8982   2.599   4.655  16.672  0.0829  0.3959 -0.2451
  606TMC3     O 8983   2.677   0.026  16.691  0.2469  0.3764  0.3409
  606TMC3     H 8984   2.480   0.120  16.822  1.6741 -0.5106 -0.4346
  606TMC3    H1 8985   2.442   4.450  16.682 -0.1095 -2.4346  0.8061
  606TMC3    H2 8986   2.311   4.526  17.073  0.4184  0.0066  0.1770
  606TMC3    C7 8987   2.310   4.351  16.868  0.0535  0.0460  0.1623
  606TMC3    C8 8988   2.355   0.072  17.056  0.7155 -0.2250  0.6977
  606TMC3    O1 8989   2.390   4.273  16.819  0.1818  0.2112  0.0972
  606TMC3    O2 8990   2.297   0.027  17.153 -0.1566 -0.7351 -0.0178
  607MPD2     C 8991   4.657   3.321  11.989 -0.6655  0.3391 -0.5311
  607MPD2    C1 8992   4.676   3.401  12.098 -0.2932 -0.0211  0.2457
  607MPD2    C2 8993   4.617   3.368  12.218 -0.1723 -0.5046  0.3326
  607MPD2    C3 8994   4.564   3.240  12.230 -0.5194 -0.3301  0.1752
  607MPD2    C4 8995   4.554   3.157  12.124 -0.6287  1.1549  0.1478
  607MPD2    C5 8996   4.593   3.201  11.997  0.2641  0.6536  0.5922
  607MPD2     H 8997   4.636   3.430  12.305  0.7540  2.1270 -1.7259
  607MPD2    H1 8998   4.511   3.058  12.133 -0.7763  1.1556 -0.6361
  607MPD2    H2 8999   4.692   3.345  11.889 -0.4807  1.2766 -0.2361
  607MPD2    H3 9000   4.583   3.131  11.915  0.0788 -1.7564  2.7019
  607MPD2     N 9001   4.549   3.192  12.364 -0.0501  0.1538 -0.1365
  607MPD2    H5 9002   4.568   3.260  12.437  0.9357 -0.6953  0.3985
  607MPD2    N1 9003   0.027   3.522  12.096 -0.0033 -0.1776 -0.4884
  607MPD2    H7 9004   0.012   3.588  12.172 -0.7937 -0.3856 -0.4678
  608TMC3    C1 9005   0.189   3.685  12.051  0.7683  0.4016  0.2812
  608TMC3    C2 9006   0.186   3.721  12.180 -0.1965  0.3138 -0.0980
  608TMC3    C3 9007   0.278   3.815  12.225  0.5831  0.3306  0.5360
  608TMC3    C4 9008   0.289   3.740  11.970  0.1718 -0.9260  0.0622
  608TMC3    C5 9009   0.379   3.825  12.023  0.8633  0.2802 -0.4212
  608TMC3    C6 9010   0.369   3.878  12.149  0.1789 -0.0795  0.2940
  608TMC3     C 9011   0.129   3.556  12.009  0.8452 -0.0930  0.4125
  608TMC3     O 9012   0.176   3.495  11.910 -0.3582  0.0963  0.3543
  608TMC3     H 9013   0.105   3.685  12.242 -1.0673  2.4934  0.0368
  608TMC3    H1 9014   0.300   3.704  11.868 -0.4020 -0.0924 -0.2925
  608TMC3    H2 9015   0.438   3.955  12.181 -2.2098  0.4999  4.0172
  608TMC3    C7 9016   0.468   3.895  11.927 -0.9026 -0.9502 -0.4941
  608TMC3    C8 9017   0.307   3.804  12.367 -0.2836 -0.7178  0.4818
  608TMC3    O1 9018   0.429   3.913  11.816  0.7192  0.8180 -0.0336
  608TMC3    O2 9019   0.379   3.888  12.419 -0.1490  0.8921  0.6430
  609TMC3    C1 9020   3.777   1.051   9.695  0.3526 -0.2305 -0.3786
  609TMC3    C2 9021   3.727   0.965   9.607 -0.7771  0.5647 -0.6158
  609TMC3    C3 9022   3.813   0.917   9.512  0.0284 -0.6348 -0.0800
  609TMC3    C4 9023   3.908   1.086   9.692 -0.1883  0.6884 -0.1134
  609TMC3    C5 9024   3.995   1.026   9.603  0.0471 -0.0207  0.6322
  609TMC3    C6 9025   3.952   0.940   9.504 -0.0376  0.2450 -0.5935
  609TMC3     C 9026   3.692   1.132   9.777 -0.1910  0.2172 -0.4525
  609TMC3     O 9027   3.576   1.156   9.733  0.6821  0.9099 -0.3793
  609TMC3     H 9028   3.621   0.942   9.610 -0.4387 -0.8227  0.5743
  609TMC3    H1 9029   3.945   1.149   9.772  1.0150 -1.3496  0.9207
  609TMC3    H2 9030   4.014   0.904   9.423 -0.1382  0.8887 -0.9569
  609TMC3    C7 9031   4.135   1.028   9.640  0.3400 -0.0058 -0.3101
  609TMC3    C8 9032   3.764   0.826   9.406 -0.2406 -0.3134  0.7698
  609TMC3    O1 9033   4.177   1.124   9.706  0.3779  0.2656  0.0800
  609TMC3    O2 9034   3.842   0.759   9.339  0.3193 -0.0210  0.3091
  610TMC3    C1 9035   0.386   3.158  13.018 -0.6984 -0.4134 -1.2634
  610TMC3    C2 9036   0.382   3.215  12.895 -0.8245 -0.5475 -0.7006
  610TMC3    C3 9037   0.443   3.151  12.789  0.3794  0.3005  0.8741
  610TMC3    C4 9038   0.462   3.053  13.034  0.1628 -0.0215  0.4902
  610TMC3    C5 9039   0.514   2.987  12.932  0.5851  0.0330 -1.2121
  610TMC3    C6 9040   0.512   3.034  12.803  0.7568 -0.2525 -0.1435
  610TMC3     C 9041   0.265   3.146  13.084 -0.5492  0.3187 -0.4287
  610TMC3     O 9042   0.222   3.031  13.106  0.4907 -0.8291 -0.1292
  610TMC3     H 9043   0.347   3.317  12.893 -1.7487 -0.8541 -0.0274
  610TMC3    H1 9044   0.447   3.004  13.130  1.3161 -1.1459  0.0984
  610TMC3    H2 9045   0.548   2.981  12.715 -0.2297  2.1319 -1.9877
  610TMC3    C7 9046   0.570   2.855  12.969 -0.2542 -1.0004  0.5725
  610TMC3    C8 9047   0.433   3.226  12.667 -0.8592 -0.5242 -0.6386
  610TMC3    O1 9048   0.587   2.819  13.084  0.2681 -0.4377 -0.8196
  610TMC3    O2 9049   0.439   3.346  12.673  0.7127 -0.1746  0.1406
  611MPD2     C 9050   0.019   3.904  10.310 -0.2556 -0.7176  0.1339
  611MPD2    C1 9051   0.051   3.794  10.382 -0.4075  0.0438 -0.1097
  611MPD2    C2 9052   0.183   3.765  10.411  0.0045 -0.5675  0.2576
  611MPD2    C3 9053   0.284   3.830  10.349  0.5685 -0.9031  0.4048
  611MPD2    C4 9054   0.255   3.917  10.250  0.0949  0.1548  0.9602
  611MPD2    C5 9055   0.123   3.958  10.239 -1.1493  0.2923  0.4861
  611MPD2     H 9056   0.209   3.691  10.486 -0.1536  0.1161  0.9811
  611MPD2    H1 9057   0.329   3.970  10.190  0.6968 -1.6747  0.0944
  611MPD2    H2 9058   4.638   3.931  10.287  0.2351  1.3237  0.3693
  611MPD2    H3 9059   0.097   4.037  10.170 -0.9360 -0.1058 -0.0428
  611MPD2     N 9060   0.422   3.818  10.377 -0.2379 -0.0820 -0.1895
  611MPD2    H5 9061   0.479   3.863  10.307 -0.9627  0.3903 -0.4719
  611MPD2    N1 9062   4.662   3.717  10.435 -0.3140 -0.3272 -0.2596
  611MPD2    H7 9063   4.572   3.760  10.418  0.2094  0.9499  0.2213
  612TMC3    C1 9064   0.611   3.772  10.505  0.2872 -0.9068  0.2652
  612TMC3    C2 9065   0.659   3.812  10.621  0.0471  0.6288  0.0262
  612TMC3    C3 9066   0.798   3.825  10.619 -0.1764  0.8657 -0.5713
  612TMC3    C4 9067   0.677   3.770  10.381  0.2225 -0.5619 -0.1925
  612TMC3    C5 9068   0.812   3.799  10.383  0.1885  0.4741  0.2539
  612TMC3    C6 9069   0.874   3.818  10.506  0.5899 -0.3425  0.0559
  612TMC3     C 9070   0.468   3.753  10.493 -0.0675 -0.2562  0.5713
  612TMC3     O 9071   0.400   3.732  10.593  0.0700 -0.1816  0.3016
  612TMC3     H 9072   0.599   3.821  10.710 -3.0844 -0.1358 -2.0249
  612TMC3    H1 9073   0.631   3.729  10.292 -0.5781 -0.6697  0.2660
  612TMC3    H2 9074   0.981   3.832  10.508  0.6298 -0.3987 -1.2523
  612TMC3    C7 9075   0.882   3.721  10.286 -0.4791 -0.6819  0.1940
  612TMC3    C8 9076   0.856   3.888  10.738 -0.0512 -0.0263  0.2624
  612TMC3    O1 9077   0.982   3.660  10.328  0.8535  0.3503 -0.0326
  612TMC3    O2 9078   0.968   3.930  10.731 -0.8530  0.2384  0.3891
  613MPD2     C 9079   3.632   4.464  16.816  0.6723  0.1259 -0.0950
  613MPD2    C1 9080   3.549   4.550  16.744 -0.5778 -0.0516 -0.7991
  613MPD2    C2 9081   3.459   4.499  16.658  0.1577  0.5266 -0.5030
  613MPD2    C3 9082   3.458   4.365  16.622  0.0926  0.1182 -0.2480
  613MPD2    C4 9083   3.544   4.288  16.693 -0.1586 -0.2381  0.0185
  613MPD2    C5 9084   3.629   4.332  16.786  0.3744 -0.3748 -0.7700
  613MPD2     H 9085   3.388   4.566  16.611  1.0422 -0.2872 -2.9895
  613MPD2    H1 9086   3.547   4.180  16.677 -1.2007 -0.0282 -1.6426
  613MPD2    H2 9087   3.701   4.506  16.889  0.2919  0.0320  0.3171
  613MPD2    H3 9088   3.688   4.261  16.843 -0.0250 -2.8547 -3.4837
  613MPD2     N 9089   3.367   4.291  16.539 -0.3357 -0.6480 -0.0545
  613MPD2    H5 9090   3.367   4.190  16.553 -1.0910 -0.6040  0.2513
  613MPD2    N1 9091   3.562   4.687  16.771  0.0120 -0.1932  0.2018
  613MPD2    H7 9092   3.564   4.708  16.870 -1.0914 -0.8778  0.3649
  614TMC3    C1 9093   3.583   0.046  16.536 -0.3345 -0.1859 -0.5847
  614TMC3    C2 9094   3.634   4.657  16.480  0.5370  0.0319 -0.2867
  614TMC3    C3 9095   3.616   4.637  16.347  0.0507  0.0853 -0.7095
  614TMC3    C4 9096   3.539   0.149  16.458  0.2274  0.7055 -0.3312
  614TMC3    C5 9097   3.529   0.135  16.323  0.1648  0.8072 -0.7631
  614TMC3    C6 9098   3.561   0.011  16.266  0.1537 -0.1911  0.3693
  614TMC3     C 9099   3.565   0.073  16.679 -0.3843  0.5118  0.8424
  614TMC3     O 9100   3.561   0.190  16.721 -0.1631  0.4312  0.1606
  614TMC3     H 9101   3.692   4.590  16.541 -0.2559 -2.9497 -2.8293
  614TMC3    H1 9102   3.533   0.251  16.495  0.8544  1.0828 -1.2664
  614TMC3    H2 9103   3.558   4.717  16.158 -2.9137  1.1130  0.2594
  614TMC3    C7 9104   3.510   0.257  16.244 -0.3379  0.6031  0.0127
  614TMC3    C8 9105   3.612   4.498  16.304 -0.3925 -0.6396 -0.2925
  614TMC3    O1 9106   3.483   0.354  16.314 -0.0535 -0.4475  0.0991
  614TMC3    O2 9107   3.529   4.468  16.219  0.1054  0.2655 -0.1556
  615MPD2     C 9108   2.602   2.136  16.522  0.7598  0.2344 -0.5267
  615MPD2    C1 9109   2.665   2.219  16.431  0.6124  0.6904 -0.3527
  615MPD2    C2 9110   2.711   2.163  16.311 -0.0621  0.0018  0.0705
  615MPD2    C3 9111   2.701   2.032  16.278  0.3248  0.2923  0.6518
  615MPD2    C4 9112   2.638   1.950  16.369  0.3536  0.0010  0.1416
  615MPD2    C5 9113   2.589   2.001  16.482 -0.0247  0.0060 -0.1170
  615MPD2     H 9114   2.755   2.232  16.240 -1.7866  2.6031  1.5521
  615MPD2    H1 9115   2.610   1.847  16.350 -1.2179  0.4976 -0.2942
  615MPD2    H2 9116   2.536   2.168  16.603  0.3818  0.7902 -1.0553
  615MPD2    H3 9117   2.535   1.931  16.545 -0.6375 -0.1365 -0.7917
  615MPD2     N 9118   2.732   1.992  16.150  0.2931 -0.1693  0.1230
  615MPD2    H5 9119   2.755   2.068  16.087 -1.2737 -0.6107 -0.9882
  615MPD2    N1 9120   2.693   2.358  16.451  0.4297  0.3077  0.1053
  615MPD2    H7 9121   2.741   2.408  16.377 -0.5787 -0.8144 -1.3043
  616TMC3    C1 9122   2.704   2.570  16.532 -0.4834 -0.2349  0.6249
  616TMC3    C2 9123   2.818   2.590  16.449 -0.2050 -0.1976 -0.4838
  616TMC3    C3 9124   2.856   2.722  16.435  0.6556 -0.0607 -0.2972
  616TMC3    C4 9125   2.639   2.675  16.586 -0.4556 -0.0972 -0.2186
  616TMC3    C5 9126   2.688   2.801  16.566 -0.1906  0.1661  0.3602
  616TMC3    C6 9127   2.788   2.831  16.481 -0.1304 -0.5332 -0.3639
  616TMC3     C 9128   2.653   2.437  16.555 -0.5321  0.2125  0.4101
  616TMC3     O 9129   2.605   2.414  16.667  0.3091  0.3536 -0.1357
  616TMC3     H 9130   2.871   2.508  16.402  2.4250  0.7831  0.7785
  616TMC3    H1 9131   2.555   2.653  16.652 -0.7141  1.3651 -0.0674
  616TMC3    H2 9132   2.831   2.930  16.473  0.8821 -1.0035 -0.7098
  616TMC3    C7 9133   2.596   2.900  16.606  0.6733  0.2079 -0.7204
  616TMC3    C8 9134   2.957   2.754  16.341 -0.4291  0.0521  0.2630
  616TMC3    O1 9135   2.521   2.875  16.702 -0.2119 -0.5567  0.2263
  616TMC3    O2 9136   2.969   2.864  16.297  0.5627  0.2738 -0.0582
  617MPD2     C 9137   1.430   0.538  14.254  0.5289 -0.5749 -0.0040
  617MPD2    C1 9138   1.412   0.410  14.305 -0.7021 -0.4813  0.2080
  617MPD2    C2 9139   1.286   0.375  14.358  0.6665  0.0906 -0.4097
  617MPD2    C3 9140   1.172   0.458  14.339  0.5844 -0.0792  0.6130
  617MPD2    C4 9141   1.193   0.583  14.289  0.0926 -0.1004 -0.3730
  617MPD2    C5 9142   1.320   0.621  14.250 -0.3148  0.2113 -0.7370
  617MPD2     H 9143   1.266   0.278  14.402  1.7882 -0.9640 -2.2274
  617MPD2    H1 9144   1.112   0.654  14.272  1.9395  2.0552 -0.1925
  617MPD2    H2 9145   1.521   0.554  14.199 -0.1705  1.9618 -0.4126
  617MPD2    H3 9146   1.328   0.714  14.196 -0.0535  1.5038  1.5253
  617MPD2     N 9147   1.039   0.424  14.386 -0.2324  0.3241  1.1259
  617MPD2    H5 9148   0.966   0.488  14.354  0.3698 -0.3699 -1.6384
  617MPD2    N1 9149   1.524   0.322  14.292 -0.0808  0.4394  0.1935
  617MPD2    H7 9150   1.617   0.361  14.280 -0.1829  1.0832  1.5198
  618TMC3    C1 9151   1.638   0.120  14.313  0.3243 -0.0915  0.1333
  618TMC3    C2 9152   1.646   0.004  14.240 -0.2018  0.3391 -0.3850
  618TMC3    C3 9153   1.768   4.678  14.217  0.5296  0.8955 -0.4992
  618TMC3    C4 9154   1.752   0.183  14.354 -0.0208 -0.3807 -0.1506
  618TMC3    C5 9155   1.874   0.127  14.333  0.3103 -0.1941  0.0715
  618TMC3    C6 9156   1.882   0.006  14.269  0.2241 -0.0138  0.4088
  618TMC3     C 9157   1.513   0.188  14.304  0.2499 -0.0462 -0.2102
  618TMC3     O 9158   1.411   0.120  14.298  0.6683 -0.7238  0.5255
  618TMC3     H 9159   1.556   4.693  14.189  0.8359  1.7505 -3.0908
  618TMC3    H1 9160   1.750   0.275  14.411  0.0048 -0.9049  0.6954
  618TMC3    H2 9161   1.970   4.664  14.271 -2.7500 -4.1720  1.5508
  618TMC3    C7 9162   1.988   0.185  14.407 -0.2515  0.6874 -0.8114
  618TMC3    C8 9163   1.775   4.591  14.103  0.2333  0.3240 -0.1782
  618TMC3    O1 9164   1.953   0.224  14.516 -0.1490  0.3576  0.6502
  618TMC3    O2 9165   1.669   4.561  14.052 -0.0774  0.4267 -0.1610
  619MPD2     C 9166   3.174   1.498  13.953 -0.0133  0.6623  0.8874
  619MPD2    C1 9167   3.128   1.575  13.850 -0.0853 -0.6969  0.4629
  619MPD2    C2 9168   3.030   1.520  13.766 -0.6102  0.2333  0.9538
  619MPD2    C3 9169   2.969   1.396  13.792 -0.8729 -0.0787  0.0492
  619MPD2    C4 9170   3.022   1.319  13.890  0.4465 -0.5088  0.6987
  619MPD2    C5 9171   3.126   1.370  13.966  0.1504 -0.0188  0.8820
  619MPD2     H 9172   2.990   1.582  13.687  1.8157 -0.1312 -0.5419
  619MPD2    H1 9173   2.980   1.225  13.923 -0.0502 -0.8240 -0.8449
  619MPD2    H2 9174   3.264   1.526  14.007  0.4960  0.1522  0.2980
  619MPD2    H3 9175   3.175   1.315  14.045 -0.3141 -1.4022  0.2038
  619MPD2     N 9176   2.846   1.355  13.740 -0.3784  0.2641 -0.4017
  619MPD2    H5 9177   2.812   1.270  13.784 -1.3628  0.6413 -0.4514
  619MPD2    N1 9178   3.157   1.711  13.816  0.1806 -0.4110 -0.4548
  619MPD2    H7 9179   3.120   1.752  13.731 -0.4352 -0.1076 -0.0386
  620TMC3    C1 9180   3.229   1.937  13.850 -0.5614  0.1766 -0.0791
  620TMC3    C2 9181   3.169   1.982  13.735  0.2533  0.2295  0.5039
  620TMC3    C3 9182   3.187   2.109  13.687 -0.6457 -0.8237 -0.3372
  620TMC3    C4 9183   3.296   2.025  13.933 -0.0872 -0.4244  0.1642
  620TMC3    C5 9184   3.287   2.158  13.892  0.4130  0.2669 -0.3866
  620TMC3    C6 9185   3.245   2.198  13.772  0.3756  0.2363  0.1129
  620TMC3     C 9186   3.225   1.799  13.894  0.0452  0.8927 -0.3993
  620TMC3     O 9187   3.281   1.772  14.000  0.3800 -0.9179  0.1328
  620TMC3     H 9188   3.095   1.915  13.693  1.6906 -1.3741  0.5259
  620TMC3    H1 9189   3.362   1.995  14.014  1.0874 -1.2392 -1.0939
  620TMC3    H2 9190   3.215   2.301  13.755  2.0398  0.8213  0.7502
  620TMC3    C7 9191   3.219   2.237  13.991 -0.1469  0.1478 -0.6287
  620TMC3    C8 9192   3.063   2.168  13.634 -0.5759  0.1691 -0.2358
  620TMC3    O1 9193   3.189   2.352  13.970  0.0946 -0.1444 -0.3921
  620TMC3    O2 9194   3.073   2.274  13.574  0.5427 -0.2181 -0.0826
  621MPD2     C 9195   2.878   1.267  10.648  0.3452 -0.5438 -0.6795
  621MPD2    C1 9196   3.011   1.300  10.648 -0.6214  0.1793 -0.4291
  621MPD2    C2 9197   3.056   1.417  10.587  0.0174  0.3736 -0.9303
  621MPD2    C3 9198   2.970   1.512  10.531 -0.2802 -0.1731 -0.5468
  621MPD2    C4 9199   2.833   1.481  10.534 -1.2648 -0.1964  0.1988
  621MPD2    C5 9200   2.792   1.361  10.591 -0.1498 -0.1975  0.0416
  621MPD2     H 9201   3.161   1.442  10.596  0.2600 -0.6126 -1.0078
  621MPD2    H1 9202   2.774   1.540  10.465 -0.7226  1.4076  1.1269
  621MPD2    H2 9203   2.834   1.171  10.672  1.1506 -0.0236  2.7494
  621MPD2    H3 9204   2.689   1.329  10.587  0.0656 -1.0581  1.2228
  621MPD2     N 9205   3.029   1.624  10.470 -0.8541  0.7627  0.2231
  621MPD2    H5 9206   3.130   1.636  10.467 -0.7621  0.2682  1.3603
  621MPD2    N1 9207   3.113   1.200  10.694  0.9154  0.1978  0.5808
  621MPD2    H7 9208   3.207   1.237  10.696  1.0136 -0.1423  2.6312
  622TMC3    C1 9209   3.214   1.001  10.754  0.1557 -0.2273 -0.4387
  622TMC3    C2 9210   3.187   0.865  10.747  0.2391 -0.8525 -0.7461
  622TMC3    C3 9211   3.270   0.784  10.680  0.1884  0.3830  0.0979
  622TMC3    C4 9212   3.326   1.044  10.692 -0.1145  0.0516  0.7872
  622TMC3    C5 9213   3.401   0.960  10.610  0.1046 -0.4696  0.2457
  622TMC3    C6 9214   3.382   0.829  10.618 -0.0509  0.4766  0.5306
  622TMC3     C 9215   3.091   1.067  10.736  0.0251  0.5599 -0.3595
  622TMC3     O 9216   2.991   0.996  10.720  0.1875  0.2087 -0.1335
  622TMC3     H 9217   3.101   0.827  10.802 -0.0811  2.0497  0.7141
  622TMC3    H1 9218   3.370   1.143  10.702  0.1532  0.0121  0.0179
  622TMC3    H2 9219   3.453   0.752  10.589 -1.5367 -0.7852  0.2405
  622TMC3    C7 9220   3.529   1.006  10.580  0.3348 -0.1393 -0.1116
  622TMC3    C8 9221   3.201   0.683  10.613  0.1741 -0.5236  0.5618
  622TMC3    O1 9222   3.595   1.041  10.674 -0.2195  0.6823 -0.3729
  622TMC3    O2 9223   3.272   0.604  10.546 -0.1661 -0.4923 -0.0125
  623MPD2     C 9224   1.318   2.328  16.305  0.0190  0.8881 -0.1161
  623MPD2    C1 9225   1.250   2.265  16.407  0.0379  0.2624 -0.1671
  623MPD2    C2 9226   1.328   2.237  16.518 -0.0028  0.0178 -0.1946
  623MPD2    C3 9227   1.462   2.267  16.526  0.6496  0.6958  0.1263
  623MPD2    C4 9228   1.524   2.323  16.420 -0.3409 -0.2931 -0.4901
  623MPD2    C5 9229   1.450   2.359  16.309  0.5637  0.6130  0.2392
  623MPD2     H 9230   1.282   2.176  16.595 -0.5608 -0.0704 -0.6020
  623MPD2    H1 9231   1.627   2.355  16.421 -0.1680 -0.8632 -0.4454
  623MPD2    H2 9232   1.248   2.375  16.237 -0.7218  1.6780  1.1729
  623MPD2    H3 9233   1.495   2.437  16.249  0.9414  0.5761  0.4760
  623MPD2     N 9234   1.525   2.242  16.657  0.2975  0.1216  0.2198
  623MPD2    H5 9235   1.458   2.207  16.725  2.6035 -1.8084  1.4884
  623MPD2    N1 9236   1.109   2.246  16.405  0.5035 -0.1058  0.2255
  623MPD2    H7 9237   1.055   2.309  16.346 -0.2149 -0.1188  0.8778
  624TMC3    C1 9238   1.766   2.088  16.947  0.0370  0.3504 -0.1170
  624TMC3    C2 9239   1.651   2.093  17.023  0.4770  0.5450 -0.1123
  624TMC3    C3 9240   1.548   2.178  16.998  0.7034  0.4276  0.2289
  624TMC3    C4 9241   1.778   2.172  16.842 -0.0558  0.0926 -0.0654
  624TMC3    C5 9242   1.678   2.268  16.827 -0.4285  0.1524 -0.0354
  624TMC3    C6 9243   1.564   2.278  16.904 -0.4660  0.1032  0.7785
  624TMC3     C 9244   1.873   1.995  16.988  0.2913 -0.9238  0.5263
  624TMC3     O 9245   1.864   1.940  17.098  0.4058  0.3778  0.1900
  624TMC3     H 9246   1.630   2.010  17.090  1.7351 -0.8774 -1.4633
  624TMC3    H1 9247   1.852   2.155  16.765 -0.2409  2.9805 -0.9011
  624TMC3    H2 9248   1.484   2.349  16.886  0.7809  1.1368 -0.6425
  624TMC3    C7 9249   1.652   2.279  16.686  0.0537 -0.3764 -0.5057
  624TMC3    C8 9250   1.414   2.143  17.038  0.3927  0.1555  0.4942
  624TMC3    O1 9251   1.740   2.325  16.614  0.3074 -0.1327 -0.8118
  624TMC3    O2 9252   1.399   2.023  17.055  0.9359  0.6321  0.3340
  625MPD2     C 9253   1.221   2.755   1.069  0.0940  0.1086  0.5938
  625MPD2    C1 9254   1.279   2.880   1.080 -0.0757 -0.4274 -0.5346
  625MPD2    C2 9255   1.353   2.905   1.196  0.9793  0.3345  0.2885
  625MPD2    C3 9256   1.362   2.812   1.301 -0.5345 -0.1870 -0.4211
  625MPD2    C4 9257   1.312   2.685   1.283  0.0258  0.1898 -0.4043
  625MPD2    C5 9258   1.242   2.661   1.170  0.4564 -0.3007 -0.2317
  625MPD2     H 9259   1.401   3.002   1.211 -1.6351  2.1231 -2.9142
  625MPD2    H1 9260   1.318   2.611   1.362  1.8025  1.1955  0.4060
  625MPD2    H2 9261   1.165   2.724   0.981 -0.2565  2.4453  0.0104
  625MPD2    H3 9262   1.198   2.562   1.159  0.7448 -0.5875  1.1192
  625MPD2     N 9263   1.430   2.860   1.416 -0.5360 -0.1460  0.5551
  625MPD2    H5 9264   1.460   2.957   1.417  0.0557 -0.3108 -1.5805
  625MPD2    N1 9265   1.256   2.984   0.987  0.0096  0.1982  0.0523
  625MPD2    H7 9266   1.297   3.076   1.001  0.0442 -0.3339  3.5713
  626TMC3    C1 9267   1.217   3.103   0.792  1.1246  0.1927  0.0712
  626TMC3    C2 9268   1.233   3.097   0.655 -0.0172 -0.0552  0.9540
  626TMC3    C3 9269   1.254   3.214   0.588 -0.5952  0.1258  0.1357
  626TMC3    C4 9270   1.205   3.222   0.852 -0.0882  0.0053  0.2306
  626TMC3    C5 9271   1.225   3.337   0.780  0.1472 -0.3573  0.2831
  626TMC3    C6 9272   1.252   3.333   0.650 -0.1004  0.4745  0.4701
  626TMC3     C 9273   1.207   2.978   0.866 -0.3192 -0.1792  0.7883
  626TMC3     O 9274   1.168   2.877   0.814 -0.2978 -0.4843 -0.1500
  626TMC3     H 9275   1.237   2.998   0.611 -1.6736  0.2091  0.1904
  626TMC3    H1 9276   1.171   3.227   0.954 -2.2889  0.1995 -0.5034
  626TMC3    H2 9277   1.277   3.423   0.595 -0.5812  1.0682  1.2385
  626TMC3    C7 9278   1.249   3.462   0.850  0.0169  0.1694  0.4926
  626TMC3    C8 9279   1.264   3.223   0.441  0.2759 -0.0208 -0.1116
  626TMC3    O1 9280   1.322   3.546   0.797 -0.2070  0.3075 -0.2023
  626TMC3    O2 9281   1.301   3.331   0.395 -0.1216  0.8498  0.6472
  627MPD2     C 9282   0.210   3.836  14.654 -0.1648 -0.5728  0.5369
  627MPD2    C1 9283   0.273   3.764  14.760  0.4702 -0.5772 -0.3051
  627MPD2    C2 9284   0.226   3.637  14.789 -0.2599  0.1496 -0.3576
  627MPD2    C3 9285   0.129   3.577  14.718  0.1509 -0.2745  0.0274
  627MPD2    C4 9286   0.069   3.644  14.612  0.5191  0.0351 -0.6200
  627MPD2    C5 9287   0.102   3.775  14.592  0.0101  0.2731  0.2146
  627MPD2     H 9288   0.263   3.595  14.881 -3.9785  1.6291  1.8185
  627MPD2    H1 9289   4.713   3.598  14.552  0.8431 -1.7504  0.3412
  627MPD2    H2 9290   0.246   3.932  14.621 -1.7850  0.8304  2.8080
  627MPD2    H3 9291   0.057   3.820  14.505  0.9185 -1.5884 -1.2014
  627MPD2     N 9292   0.103   3.442  14.743  0.0387  0.1984  0.4781
  627MPD2    H5 9293   0.136   3.404  14.831  0.2683  0.3158  0.4428
  627MPD2    N1 9294   0.387   3.801  14.840  0.0449 -0.1431  0.2613
  627MPD2    H7 9295   0.415   3.739  14.915  1.3254 -1.1680 -1.0629
  628TMC3    C1 9296   0.557   3.944  14.925 -0.4709  0.4038 -0.2747
  628TMC3    C2 9297   0.647   3.845  14.955 -0.0733 -0.1245  0.2842
  628TMC3    C3 9298   0.760   3.880  15.022 -0.5249  0.2548 -0.4823
  628TMC3    C4 9299   0.588   4.076  14.941 -0.5118  0.4346  0.2078
  628TMC3    C5 9300   0.712   4.104  14.996 -0.1553  0.2900  0.2931
  628TMC3    C6 9301   0.801   4.007  15.025  0.2944  0.2161 -0.3845
  628TMC3     C 9302   0.450   3.925  14.830 -0.1456 -0.1137  0.2703
  628TMC3     O 9303   0.406   4.017  14.756 -0.2850  0.4197 -0.3677
  628TMC3     H 9304   0.600   3.747  14.963 -0.4271  0.1094  1.0242
  628TMC3    H1 9305   0.508   4.147  14.926 -0.3894  0.8373  1.4692
  628TMC3    H2 9306   0.895   4.035  15.071 -0.2835  0.1475  0.8326
  628TMC3    C7 9307   0.747   4.236  15.047  0.8459 -0.2299  0.5242
  628TMC3    C8 9308   0.853   3.772  15.052  0.2440  0.5201  0.2023
  628TMC3    O1 9309   0.835   4.255  15.136  0.1389  0.8385  0.1045
  628TMC3    O2 9310   0.838   3.660  14.996  0.0823 -0.0289  0.0979
  629MPD2     C 9311   3.320   2.616  15.999 -0.5310 -0.5901 -0.4990
  629MPD2    C1 9312   3.307   2.518  16.091  0.4979  0.1656 -0.3548
  629MPD2    C2 9313   3.204   2.526  16.185 -0.3563 -1.0810  0.1622
  629MPD2    C3 9314   3.121   2.643  16.191 -0.2886  0.0174 -0.1566
  629MPD2    C4 9315   3.135   2.736  16.091  0.7029 -0.3649  0.1068
  629MPD2    C5 9316   3.232   2.717  15.994 -0.3749  0.0977  0.1604
  629MPD2     H 9317   3.194   2.459  16.269 -2.3973  1.1456  1.7034
  629MPD2    H1 9318   3.076   2.827  16.091  1.0092 -0.1729 -0.4191
  629MPD2    H2 9319   3.391   2.612  15.918 -0.5974  1.2149 -0.6472
  629MPD2    H3 9320   3.245   2.791  15.915 -3.3057  2.1365  1.5942
  629MPD2     N 9321   3.035   2.649  16.306  0.0587  0.5175 -0.1781
  629MPD2    H5 9322   3.029   2.565  16.363 -4.6623  1.4363  0.6240
  629MPD2    N1 9323   3.407   2.419  16.103 -0.4616 -0.6271  0.5998
  629MPD2    H7 9324   3.483   2.421  16.035  0.1504 -0.5243  1.2897
  630TMC3    C1 9325   3.520   2.214  16.180 -0.1723 -0.0070 -0.6830
  630TMC3    C2 9326   3.640   2.266  16.135  0.3676  0.3062  0.1220
  630TMC3    C3 9327   3.752   2.193  16.158 -0.3258  0.5726  0.0917
  630TMC3    C4 9328   3.514   2.081  16.230 -0.1206 -0.0589 -0.3075
  630TMC3    C5 9329   3.631   2.009  16.248 -0.2233  0.2834  0.0087
  630TMC3    C6 9330   3.752   2.069  16.217  0.3060  0.7290  0.6429
  630TMC3     C 9331   3.404   2.304  16.188 -0.2695  0.5371  0.1028
  630TMC3     O 9332   3.324   2.284  16.277 -0.7190  0.5815 -0.2473
  630TMC3     H 9333   3.646   2.371  16.109 -4.1127  0.2202 -1.0864
  630TMC3    H1 9334   3.425   2.043  16.278  1.9293 -0.4628  3.1906
  630TMC3    H2 9335   3.848   2.023  16.235  0.7860  1.0859 -1.0064
  630TMC3    C7 9336   3.643   1.944  16.374  0.3168 -0.3692  0.5183
  630TMC3    C8 9337   3.885   2.259  16.145 -1.2631 -0.7558 -0.3705
  630TMC3    O1 9338   3.743   1.962  16.439 -0.5004 -0.5202 -0.1194
  630TMC3    O2 9339   3.983   2.205  16.197 -0.2022  0.0661 -0.0718
  631MPD2     C 9340   1.933   1.814  15.855 -0.1613 -0.1627 -0.0658
  631MPD2    C1 9341   1.998   1.922  15.798 -0.1010 -0.5389 -0.1122
  631MPD2    C2 9342   2.139   1.920  15.788 -1.0749  0.3005  0.0570
  631MPD2    C3 9343   2.211   1.819  15.851  0.3508  0.5374 -0.2125
  631MPD2    C4 9344   2.146   1.720  15.923 -0.0456 -0.5572  0.5521
  631MPD2    C5 9345   2.009   1.716  15.912  0.7979 -0.1514 -0.4642
  631MPD2     H 9346   2.187   2.006  15.742 -1.2850 -0.5802 -1.7958
  631MPD2    H1 9347   2.210   1.646  15.969 -2.0786 -0.6272  3.2383
  631MPD2    H2 9348   1.825   1.815  15.850 -0.2224 -0.2342  1.1921
  631MPD2    H3 9349   1.955   1.627  15.944  0.7259  0.7489  1.9550
  631MPD2     N 9350   2.353   1.811  15.846 -0.1633  0.0217  0.1966
  631MPD2    H5 9351   2.391   1.770  15.931 -0.9603 -1.8733 -0.3569
  631MPD2    N1 9352   1.913   2.006  15.728 -0.0018 -0.5219  0.4225
  631MPD2    H7 9353   1.815   1.979  15.734  0.0260 -0.5762  0.6373
  632TMC3    C1 9354   1.847   2.172  15.575 -0.2243 -0.4861  0.0793
  632TMC3    C2 9355   1.711   2.156  15.620 -0.2225  0.0237 -0.1095
  632TMC3    C3 9356   1.612   2.191  15.529  0.1896  0.7100 -0.5693
  632TMC3    C4 9357   1.880   2.238  15.461 -0.5433  0.2087 -0.2732
  632TMC3    C5 9358   1.778   2.283  15.387  0.6284  0.1823 -0.5041
  632TMC3    C6 9359   1.645   2.261  15.417 -0.5340 -0.1814 -0.0423
  632TMC3     C 9360   1.954   2.101  15.635  0.7353 -0.3763  0.5102
  632TMC3     O 9361   2.064   2.154  15.611  0.3642  0.2188  0.4006
  632TMC3     H 9362   1.683   2.100  15.708 -2.9425 -1.6567 -2.0253
  632TMC3    H1 9363   1.981   2.243  15.421 -0.2723 -1.4613  0.1979
  632TMC3    H2 9364   1.568   2.303  15.353  0.3995  1.1675 -0.2850
  632TMC3    C7 9365   1.815   2.367  15.272  0.2959  0.5875  0.0780
  632TMC3    C8 9366   1.483   2.216  15.588  0.3874 -0.3264  0.2910
  632TMC3    O1 9367   1.758   2.344  15.166  0.4453  0.4093 -0.4450
  632TMC3    O2 9368   1.417   2.302  15.533 -0.0146  0.6853 -0.0269
  633MPD2     C 9369   1.478   0.024  17.457 -0.5815 -0.0691  0.2849
  633MPD2    C1 9370   1.453   4.699  17.330  0.7018  0.0322  0.0938
  633MPD2    C2 9371   1.446   4.562  17.301  1.4761 -0.5127  0.0936
  633MPD2    C3 9372   1.448   4.468  17.399  0.6138 -0.2057 -0.3829
  633MPD2    C4 9373   1.475   4.511  17.529  0.0815  0.4969  0.7848
  633MPD2    C5 9374   1.478   4.651  17.559  0.3704  0.3847  0.3502
  633MPD2     H 9375   1.424   4.538  17.198 -3.2262  0.6916  0.7757
  633MPD2    H1 9376   1.480   4.447  17.616 -0.1400  0.2810  0.6376
  633MPD2    H2 9377   1.492   0.128  17.483  0.1959 -0.1147  0.0532
  633MPD2    H3 9378   1.491   4.686  17.661 -0.1749 -0.5316  0.7350
  633MPD2     N 9379   1.444   4.327  17.375 -0.1210 -0.4325 -0.1351
  633MPD2    H5 9380   1.477   4.261  17.444  2.9823  1.8689  0.5684
  633MPD2    N1 9381   1.450   0.060  17.215  0.6210 -0.0424 -0.0547
  633MPD2    H7 9382   1.429   0.013  17.127  1.5899  0.4389 -0.5350
  634TMC3    C1 9383   1.525   0.234  17.082 -0.0517  0.0966  0.0221
  634TMC3    C2 9384   1.589   0.144  16.998 -0.3725 -0.3755 -0.0770
  634TMC3    C3 9385   1.650   0.199  16.887 -0.4924  0.2656 -0.3641
  634TMC3    C4 9386   1.535   0.370  17.069  0.2793  0.0187  0.5859
  634TMC3    C5 9387   1.587   0.419  16.955 -0.2398 -0.4829  0.1708
  634TMC3    C6 9388   1.648   0.335  16.869 -0.7349 -0.0126 -0.6619
  634TMC3     C 9389   1.497   0.190  17.218  0.6110 -0.2949  0.3600
  634TMC3     O 9390   1.517   0.263  17.317 -0.4403 -0.0820 -0.2071
  634TMC3     H 9391   1.598   0.038  17.020  0.6244 -0.3753 -0.4708
  634TMC3    H1 9392   1.485   0.441  17.134 -0.2611  1.2836 -1.1912
  634TMC3    H2 9393   1.681   0.380  16.776 -1.2979  2.2396  0.2379
  634TMC3    C7 9394   1.580   0.561  16.917  0.0055 -0.9538  0.6671
  634TMC3    C8 9395   1.689   0.109  16.777  0.2800  0.7640 -0.8560
  634TMC3    O1 9396   1.625   0.583  16.808  0.1641 -0.5784  0.1512
  634TMC3    O2 9397   1.630   4.721  16.769 -1.2428  0.3060 -0.5702
  635TMC3    C1 9398   1.760   1.217  17.629 -0.0653  0.2867  0.1667
  635TMC3    C2 9399   1.746   1.290  17.512  0.6854  0.1753  0.2637
  635TMC3    C3 9400   1.821   1.251  17.405  0.0469  0.7615  0.5850
  635TMC3    C4 9401   1.837   1.108  17.641  0.2894 -0.4501 -0.2038
  635TMC3    C5 9402   1.905   1.067  17.533 -0.6871 -0.0041  0.0143
  635TMC3    C6 9403   1.898   1.136  17.417 -0.5481 -0.8713 -0.0554
  635TMC3     C 9404   1.677   1.269   0.055 -0.3021  0.5774 -0.6892
  635TMC3     O 9405   1.588   1.351   0.037 -0.5108 -0.0061 -0.3795
  635TMC3     H 9406   1.695   1.384  17.531  2.1112  0.7275  1.3814
  635TMC3    H1 9407   1.823   1.038   0.037 -0.6941  2.3754  2.0492
  635TMC3    H2 9408   1.955   1.098  17.333 -0.3399 -1.3603  0.3065
  635TMC3    C7 9409   1.936   0.925  17.530 -1.0881  0.8725  0.5151
  635TMC3    C8 9410   1.796   1.303  17.269 -0.3701 -0.5870 -0.0187
  635TMC3    O1 9411   1.962   0.879  17.419 -0.2849 -0.2086 -0.0737
  635TMC3    O2 9412   1.845   1.232  17.182  0.6284 -0.0889  0.0110
  636MPD2     C 9413   3.210   0.091  15.769 -0.0195  0.5373  0.4210
  636MPD2    C1 9414   3.203   0.121  15.905 -0.3985  0.5290  0.6230
  636MPD2    C2 9415   3.214   0.006  15.979 -0.1347  0.3575 -1.6585
  636MPD2    C3 9416   3.212   4.595  15.926  0.1149  0.2992  0.2194
  636MPD2    C4 9417   3.193   4.576  15.788 -0.2204  0.6714  0.4291
  636MPD2    C5 9418   3.201   4.686  15.715 -0.2060  0.2409 -0.0263
  636MPD2     H 9419   3.233   0.006  16.086 -3.5652  1.4190 -1.0686
  636MPD2    H1 9420   3.187   4.478  15.742 -1.0021  1.1435 -0.4780
  636MPD2    H2 9421   3.224   0.172  15.698 -1.1953 -3.3169 -4.1766
  636MPD2    H3 9422   3.195   4.686  15.607 -0.1603  0.0071 -0.0291
  636MPD2     N 9423   3.208   4.493  16.020  0.7198  0.8915 -0.3955
  636MPD2    H5 9424   3.214   4.511  16.119  1.1920  1.9954 -0.6282
  636MPD2    N1 9425   3.193   0.253  15.958 -0.0998  0.0644 -0.2743
  636MPD2    H7 9426   3.197   0.262  16.059  0.9542  1.9213 -0.4737
  637TMC3    C1 9427   3.213   4.275  16.103  0.7434 -0.3629 -0.7886
  637TMC3    C2 9428   3.193   4.320  16.232 -0.1525 -0.0233 -0.3702
  637TMC3    C3 9429   3.259   4.257  16.335 -0.3152  0.4010 -0.7232
  637TMC3    C4 9430   3.303   4.173  16.074  0.4087 -0.1539 -1.0978
  637TMC3    C5 9431   3.371   4.118  16.181  0.1222 -0.2168 -0.3019
  637TMC3    C6 9432   3.345   4.150  16.312 -0.2746 -0.1951  0.1506
  637TMC3     C 9433   3.187   4.360  15.989  0.4071  0.3472  0.4483
  637TMC3     O 9434   3.187   4.298  15.885 -0.9166  0.5031  0.2328
  637TMC3     H 9435   3.130   4.406  16.253  0.6560 -0.1405  2.4715
  637TMC3    H1 9436   3.320   4.142  15.972  1.7793 -0.7288 -0.6941
  637TMC3    H2 9437   3.403   4.100  16.389  2.2710  0.0989 -1.5882
  637TMC3    C7 9438   3.463   4.016  16.138  0.3444  0.0698  0.6587
  637TMC3    C8 9439   3.298   4.348  16.438  0.4237  0.1240  0.2983
  637TMC3    O1 9440   3.417   3.930  16.066 -0.6850 -0.4079 -0.4425
  637TMC3    O2 9441   3.289   4.470  16.409  0.0482 -0.0770  0.7351
  638MPD2     C 9442   2.875   4.274  15.096  0.5232  0.0013  0.0492
  638MPD2    C1 9443   2.851   4.187  14.988 -0.2800  0.4960  0.2309
  638MPD2    C2 9444   2.814   4.056  15.008 -0.5803 -0.4093  0.3661
  638MPD2    C3 9445   2.814   4.001  15.135 -0.7796  0.7743 -0.4536
  638MPD2    C4 9446   2.839   4.081  15.242  0.2728  0.5552 -0.2916
  638MPD2    C5 9447   2.857   4.215  15.216 -0.3051  0.3928 -0.3417
  638MPD2     H 9448   2.800   3.985  14.928  2.0585 -2.1120  1.4026
  638MPD2    H1 9449   2.840   4.050  15.346  0.0621  0.9928 -0.1607
  638MPD2    H2 9450   2.914   4.374  15.083  1.3689 -0.5439 -1.6178
  638MPD2    H3 9451   2.887   4.270  15.305 -0.4074 -1.8606  1.0749
  638MPD2     N 9452   2.772   3.865  15.147 -0.4454 -0.5714 -0.6168
  638MPD2    H5 9453   2.760   3.813  15.061 -0.3200 -1.4652 -0.0855
  638MPD2    N1 9454   2.877   4.234  14.854 -0.3534 -0.4586 -1.0239
  638MPD2    H7 9455   2.929   4.321  14.850 -3.4713  1.4266 -0.6077
  639TMC3    C1 9456   2.754   3.658  15.258  0.4731  0.1090 -0.7734
  639TMC3    C2 9457   2.657   3.605  15.179 -0.0542  0.0059  0.5080
  639TMC3    C3 9458   2.613   3.479  15.200  0.0302  0.3039 -0.1923
  639TMC3    C4 9459   2.809   3.586  15.367  0.6122 -0.3425  0.0412
  639TMC3    C5 9460   2.771   3.455  15.375 -0.7267 -0.1969  0.1013
  639TMC3    C6 9461   2.682   3.406  15.285 -0.5615  0.2745  0.6494
  639TMC3     C 9462   2.784   3.796  15.266  0.2910 -0.4375  0.5389
  639TMC3     O 9463   2.816   3.831  15.376 -0.3109 -0.1230  0.2784
  639TMC3     H 9464   2.617   3.655  15.091 -1.6133  0.0735  1.2492
  639TMC3    H1 9465   2.873   3.633  15.441  1.3492  0.5474 -1.1545
  639TMC3    H2 9466   2.682   3.298  15.274 -2.3924  0.2214  1.1815
  639TMC3    C7 9467   2.855   3.367  15.455 -0.4231  0.5445 -0.0766
  639TMC3    C8 9468   2.569   3.412  15.082 -0.6343  0.1192 -0.2102
  639TMC3    O1 9469   2.805   3.261  15.482 -0.3203 -0.0167  0.1655
  639TMC3    O2 9470   2.632   3.415  14.977 -0.0253 -0.4344  0.0886
  640MPD2     C 9471   4.009   2.530   9.863 -0.0682 -0.2049  1.2149
  640MPD2    C1 9472   4.047   2.452   9.973  0.3026 -0.1904 -0.5506
  640MPD2    C2 9473   4.121   2.510  10.075  0.1816 -0.8990 -0.4102
  640MPD2    C3 9474   4.151   2.645  10.062 -0.6388  0.8769 -0.2334
  640MPD2    C4 9475   4.123   2.715   9.946 -0.2543 -0.2073  0.4576
  640MPD2    C5 9476   4.051   2.656   9.850  0.5217  0.6082  0.0313
  640MPD2     H 9477   4.149   2.464  10.168  1.1552 -0.5255 -0.5201
  640MPD2    H1 9478   4.146   2.819   9.925 -3.2779  0.8426  2.3817
  640MPD2    H2 9479   3.941   2.489   9.789  0.2310  1.2521  0.1382
  640MPD2    H3 9480   4.030   2.718   9.764 -1.3625 -0.2645 -0.1456
  640MPD2     N 9481   4.217   2.725  10.160  0.4973  0.0438 -0.5270
  640MPD2    H5 9482   4.200   2.825  10.149  0.9497  0.1492 -0.2506
  640MPD2    N1 9483   4.005   2.316   9.979  0.0637 -0.0959  0.0123
  640MPD2    H7 9484   3.951   2.281   9.901  2.0122 -2.4699 -0.2662
  641TMC3    C1 9485   3.990   2.088  10.030  0.4128  0.2926 -0.9382
  641TMC3    C2 9486   4.062   1.998  10.107 -0.3520 -0.3656  0.2991
  641TMC3    C3 9487   4.115   1.887  10.043  0.0382 -0.1256  0.3944
  641TMC3    C4 9488   3.967   2.073   9.897 -0.0911 -0.4270  0.8308
  641TMC3    C5 9489   4.005   1.953   9.843  0.3837  0.3969  0.2992
  641TMC3    C6 9490   4.083   1.862   9.910  0.5256  0.1075  0.9156
  641TMC3     C 9491   4.022   2.220  10.073 -0.1403  0.1870 -0.3133
  641TMC3     O 9492   4.079   2.232  10.180 -0.4581 -0.4172  0.7191
  641TMC3     H 9493   4.094   2.011  10.209 -1.1162  2.1599  0.2105
  641TMC3    H1 9494   3.910   2.145   9.840 -0.0038 -0.3153  0.8845
  641TMC3    H2 9495   4.112   1.770   9.860 -0.6855 -0.1378  0.6828
  641TMC3    C7 9496   3.983   1.933   9.707  0.1792  0.1316  0.1416
  641TMC3    C8 9497   4.174   1.780  10.119 -0.4197  0.1843  0.3616
  641TMC3    O1 9498   3.893   1.999   9.662  0.6033  0.1895  0.1424
  641TMC3    O2 9499   4.160   1.675  10.055 -0.0153 -0.1047 -0.0019
  642TMC3    C1 9500   4.556   4.068  12.678 -0.4598 -0.2887 -0.2050
  642TMC3    C2 9501   4.617   4.040  12.793  0.0582  0.3839  0.4002
  642TMC3    C3 9502   4.641   3.906  12.826  0.0529  0.8636  0.4530
  642TMC3    C4 9503   4.510   3.971  12.597 -0.4500  0.3302  0.0897
  642TMC3    C5 9504   4.520   3.844  12.634  0.0858 -0.0672  0.6074
  642TMC3    C6 9505   4.599   3.806  12.741 -0.2618 -0.1578 -0.5963
  642TMC3     C 9506   4.497   4.201  12.676  0.0906 -0.6323 -0.3786
  642TMC3     O 9507   4.572   4.293  12.717 -0.2257 -0.3910 -0.1562
  642TMC3     H 9508   4.657   4.118  12.857  0.2907  2.1564 -1.8595
  642TMC3    H1 9509   4.476   4.001  12.498 -3.1910 -0.3182  0.8572
  642TMC3    H2 9510   4.630   3.706  12.769 -0.9626 -0.7247 -1.8315
  642TMC3    C7 9511   4.462   3.738  12.549 -0.0442  0.0161 -0.0281
  642TMC3    C8 9512   4.709   3.854  12.950  0.1632  0.3400  0.4220
  642TMC3    O1 9513   4.424   3.777  12.441 -0.7807  0.2603 -0.4482
  642TMC3    O2 9514   4.690   3.737  12.983  0.3181  0.0989  0.0636
  643TMC3    C1 9515   3.927   3.090   0.887 -0.0689  0.2060 -0.7405
  643TMC3    C2 9516   3.859   3.068   0.769  0.5202 -0.4831  0.7014
  643TMC3    C3 9517   3.923   2.994   0.673 -0.0803  0.1011 -0.2630
  643TMC3    C4 9518   4.060   3.054   0.907  0.2447 -0.1993 -0.0836
  643TMC3    C5 9519   4.123   2.981   0.803  0.9040 -0.0623 -0.7298
  643TMC3    C6 9520   4.053   2.952   0.691  0.9363 -0.4298  0.2207
  643TMC3     C 9521   3.859   3.180   0.987 -0.3300  0.1704 -0.0417
  643TMC3     O 9522   3.740   3.159   0.990 -0.0268  0.1650  0.1340
  643TMC3     H 9523   3.759   3.103   0.747  0.7888  1.4066  2.5475
  643TMC3    H1 9524   4.114   3.094   0.992  0.7490 -1.0829  0.0155
  643TMC3    H2 9525   4.103   2.899   0.611  1.3049  3.0455 -1.8433
  643TMC3    C7 9526   4.261   3.023   0.777 -0.1874  0.4286 -0.1927
  643TMC3    C8 9527   3.882   3.012   0.533 -0.0308  0.4533 -0.4360
  643TMC3    O1 9528   4.348   3.023   0.865  0.0060  0.3754  0.5812
  643TMC3    O2 9529   3.836   2.915   0.473  0.3390 -0.4032 -0.5152
  644MPD2     C 9530   0.002   3.890   9.764 -0.4634  0.2848 -0.5282
  644MPD2    C1 9531   4.608   3.885   9.840 -0.3615 -0.3730 -0.1378
  644MPD2    C2 9532   4.563   4.005   9.902  0.6254 -0.4060  0.2326
  644MPD2    C3 9533   4.630   4.124   9.886  0.1967 -0.6696 -0.0427
  644MPD2    C4 9534   0.024   4.115   9.809 -0.1538  0.1296 -0.0202
  644MPD2    C5 9535   0.075   4.003   9.747 -0.4536 -0.2457 -0.2570
  644MPD2     H 9536   4.479   4.009   9.970 -0.0592  1.2224 -0.7215
  644MPD2    H1 9537   0.086   4.203   9.799 -1.7233  1.3690  1.1686
  644MPD2    H2 9538   0.050   3.799   9.729 -2.5419 -0.8616 -0.3547
  644MPD2    H3 9539   0.171   4.007   9.698 -0.2343 -0.2467  0.1765
  644MPD2     N 9540   4.587   4.240   9.949 -0.0368 -0.1126 -1.0526
  644MPD2    H5 9541   4.499   4.234  10.000 -1.4705  1.6854 -3.3448
  644MPD2    N1 9542   4.536   3.765   9.850 -0.6262 -0.3198  0.9883
  644MPD2    H7 9543   4.578   3.684   9.805 -1.1046  0.4351 -0.8392
  645TMC3    C1 9544   4.614   4.461  10.033 -0.3568  0.1752 -0.1657
  645TMC3    C2 9545   4.478   4.453  10.073 -0.8351  0.5219  0.4201
  645TMC3    C3 9546   4.432   4.563  10.143 -0.2186 -0.0798 -0.5700
  645TMC3    C4 9547   4.696   4.567  10.068  1.0824  0.0985 -0.2854
  645TMC3    C5 9548   4.636   4.667  10.141  0.0837 -0.7842 -0.1872
  645TMC3    C6 9549   4.510   4.671  10.176  0.7348  0.1471  0.4079
  645TMC3     C 9550   4.672   4.353   9.960  0.0995  0.3710 -0.0883
  645TMC3     O 9551   0.071   4.359   9.942 -0.3107  0.1408  0.3826
  645TMC3     H 9552   4.412   4.382  10.024 -0.8447  1.2525 -0.6164
  645TMC3    H1 9553   0.081   4.572  10.044  1.0347 -2.3259 -1.0176
  645TMC3    H2 9554   4.474   0.039  10.226  0.0397  0.5368 -0.7623
  645TMC3    C7 9555   4.707   0.073  10.164  0.8146 -0.0738  0.1877
  645TMC3    C8 9556   4.292   4.579  10.158  0.1220 -0.5530 -0.4947
  645TMC3    O1 9557   4.645   0.171  10.198  0.3109  0.0171 -0.0745
  645TMC3    O2 9558   4.217   4.520  10.080  0.3242  0.1398 -0.1052
  646MPD2     C 9559   3.103   2.760  14.462 -0.3777 -0.2159  0.4732
  646MPD2    C1 9560   3.019   2.783  14.569 -0.0939 -0.0716 -0.6335
  646MPD2    C2 9561   2.913   2.876  14.546  0.6449  0.9374 -0.1801
  646MPD2    C3 9562   2.888   2.927  14.419  0.1946 -0.2362 -0.1057
  646MPD2    C4 9563   2.978   2.900  14.314  1.1899  0.2309 -0.3996
  646MPD2    C5 9564   3.092   2.824  14.339  0.1065  0.3330 -0.2591
  646MPD2     H 9565   2.841   2.896  14.625 -0.6170  0.0635 -1.1059
  646MPD2    H1 9566   2.960   2.933  14.212 -1.3923  0.1766  0.0320
  646MPD2    H2 9567   3.192   2.699  14.475  0.6846  2.1273  4.2684
  646MPD2    H3 9568   3.162   2.806  14.258  1.6269 -0.1976  1.1871
  646MPD2     N 9569   2.768   2.999  14.400 -0.8046  0.1675  0.5477
  646MPD2    H5 9570   2.716   3.012  14.486 -0.7405  1.4183  0.3889
  646MPD2    N1 9571   3.040   2.714  14.694  0.4494  0.1220  1.2820
  646MPD2    H7 9572   3.102   2.636  14.680 -0.2234 -0.0405 -0.8157
  647TMC3    C1 9573   3.000   2.619  14.896 -0.0447  0.3701  0.1186
  647TMC3    C2 9574   2.906   2.560  14.974 -0.2016 -0.1869  0.0949
  647TMC3    C3 9575   2.955   2.471  15.072  0.0684  0.0225 -0.3177
  647TMC3    C4 9576   3.139   2.611  14.908 -0.2646  0.4836 -0.6894
  647TMC3    C5 9577   3.182   2.526  15.009 -0.2730  0.1044 -0.1926
  647TMC3    C6 9578   3.089   2.465  15.091  0.4033 -0.0485  0.0341
  647TMC3     C 9579   2.964   2.721  14.805 -0.7202 -0.2905  0.1276
  647TMC3     O 9580   2.878   2.805  14.835  0.8266 -0.4797 -0.5566
  647TMC3     H 9581   2.801   2.573  14.949  0.1988 -0.1151 -1.5243
  647TMC3    H1 9582   3.209   2.668  14.849  1.8119 -0.4624  0.8807
  647TMC3    H2 9583   3.123   2.397  15.168 -2.5274 -0.9849  0.5007
  647TMC3    C7 9584   3.321   2.488  15.013  0.3720 -1.1268  0.7096
  647TMC3    C8 9585   2.868   2.369  15.126 -0.1601  0.6673 -0.3824
  647TMC3    O1 9586   3.351   2.438  15.121  0.3823  0.0261  0.0251
  647TMC3    O2 9587   2.918   2.309  15.222 -0.2925  0.1686 -0.0321
  648TMC3    C1 9588   2.338   0.198  16.388 -0.1796 -0.0099 -0.0617
  648TMC3    C2 9589   2.359   0.074  16.344 -0.5701 -0.3494 -0.3714
  648TMC3    C3 9590   2.371   0.059  16.205  0.1048 -0.5904 -0.3592
  648TMC3    C4 9591   2.342   0.312  16.309 -0.2916 -0.0225 -0.4337
  648TMC3    C5 9592   2.366   0.295  16.171 -0.2382 -0.0178  0.1335
  648TMC3    C6 9593   2.371   0.165  16.116 -1.4871 -0.0345  0.3097
  648TMC3     C 9594   2.290   0.221  16.526 -0.2412  0.1461  0.2958
  648TMC3     O 9595   2.343   0.314  16.585  0.3938 -0.0499  0.3705
  648TMC3     H 9596   2.368   4.707  16.407  0.4926 -0.5636 -0.8108
  648TMC3    H1 9597   2.326   0.412  16.348 -2.9457 -0.4441 -0.4140
  648TMC3    H2 9598   2.370   0.156  16.008 -0.9287  0.1854  0.2860
  648TMC3    C7 9599   2.338   0.407  16.091 -0.6766 -0.2696  0.0738
  648TMC3    C8 9600   2.363   4.645  16.152 -0.8542  0.0082  0.1948
  648TMC3    O1 9601   2.376   0.404  15.975  0.6199  0.4931  0.0770
  648TMC3    O2 9602   2.300   4.566  16.227 -0.0641 -0.5914  0.5435
  649TMC3    C1 9603   1.755   1.475  13.116 -0.3509 -0.1924  1.0175
  649TMC3    C2 9604   1.875   1.426  13.063  0.4530  0.0010 -0.0926
  649TMC3    C3 9605   1.932   1.323  13.137  0.6012  0.3299 -0.1874
  649TMC3    C4 9606   1.708   1.450  13.241 -1.0550  0.1849  0.6112
  649TMC3    C5 9607   1.787   1.367  13.315  0.1900  0.7406  0.1774
  649TMC3    C6 9608   1.893   1.300  13.265 -0.3734  0.2096  0.3824
  649TMC3     C 9609   1.651   1.514  13.026  0.1292  0.2798  0.6665
  649TMC3     O 9610   1.566   1.584  13.077  0.0577  0.1350 -0.6364
  649TMC3     H 9611   1.903   1.450  12.961  3.1913  0.3484  0.7462
  649TMC3    H1 9612   1.609   1.483  13.270 -0.4724  1.9040  0.6698
  649TMC3    H2 9613   1.931   1.214  13.318 -1.5340  0.9776  2.4333
  649TMC3    C7 9614   1.752   1.349  13.457 -0.3771  0.4139  0.1116
  649TMC3    C8 9615   2.017   1.232  13.061 -1.1261 -0.0375  0.2607
  649TMC3    O1 9616   1.636   1.379  13.497 -0.4437  0.0499 -0.3355
  649TMC3    O2 9617   2.064   1.278  12.956  0.0241  0.1493 -0.1095
  650TMC3    C1 9618   3.828   3.258  12.854 -0.0265 -0.7074 -0.1086
  650TMC3    C2 9619   3.749   3.363  12.892 -0.1458 -0.3538 -0.0880
  650TMC3    C3 9620   3.629   3.380  12.832 -0.4597  0.3293  0.0619
  650TMC3    C4 9621   3.785   3.168  12.760  0.0025 -0.2199 -0.4357
  650TMC3    C5 9622   3.664   3.190  12.706 -0.2001 -0.2284  0.9051
  650TMC3    C6 9623   3.583   3.288  12.742 -0.2875  0.4479  0.1976
  650TMC3     C 9624   3.970   3.261  12.883 -0.6462  0.0975 -0.4169
  650TMC3     O 9625   4.013   3.364  12.925  0.1178  0.3476 -0.6839
  650TMC3     H 9626   3.791   3.442  12.954  0.2480 -1.0495  0.5197
  650TMC3    H1 9627   3.850   3.094  12.715 -0.4876 -0.1396 -1.2726
  650TMC3    H2 9628   3.483   3.287  12.700 -0.5412  0.9131  0.7886
  650TMC3    C7 9629   3.673   3.169  12.566 -1.2418 -0.7180  0.2894
  650TMC3    C8 9630   3.585   3.520  12.803  0.3892  0.4755 -0.5130
  650TMC3    O1 9631   3.744   3.084  12.521 -0.1549 -0.2851 -0.2272
  650TMC3    O2 9632   3.665   3.611  12.821 -0.4238  0.0598  0.4203
  651MPD2     C 9633   2.914   0.103  10.503  0.1614 -0.0368 -0.0832
  651MPD2    C1 9634   2.887   0.183  10.614 -0.1045  0.2305  0.0444
  651MPD2    C2 9635   2.986   0.252  10.680  0.6429 -0.0804  0.3984
  651MPD2    C3 9636   3.119   0.231  10.649 -0.5481 -0.2680 -0.9652
  651MPD2    C4 9637   3.147   0.148  10.543 -0.1644 -0.1048  0.6654
  651MPD2    C5 9638   3.047   0.083  10.472  0.2695 -0.6895  0.3022
  651MPD2     H 9639   2.956   0.311  10.765  0.0970 -0.4465  0.4578
  651MPD2    H1 9640   3.247   0.130  10.504 -1.0777  1.6131 -2.4340
  651MPD2    H2 9641   2.840   0.051  10.443 -0.9811  0.8405  0.5637
  651MPD2    H3 9642   3.081   0.024  10.388  1.5367  2.1246 -1.1416
  651MPD2     N 9643   3.214   0.308  10.721 -0.0744 -0.3523 -0.1740
  651MPD2    H5 9644   3.180   0.371  10.794 -1.5798  0.5190 -1.6222
  651MPD2    N1 9645   2.755   0.224  10.647  0.2785 -0.4015  0.1239
  651MPD2    H7 9646   2.736   0.307  10.701 -1.9664 -0.8199 -0.0183
  652TMC3    C1 9647   3.481   0.276  11.049 -0.4672 -0.1774 -0.0044
  652TMC3    C2 9648   3.477   0.257  10.912 -0.1275 -0.6589 -0.6145
  652TMC3    C3 9649   3.399   0.341  10.840  0.4472  0.8048 -1.5048
  652TMC3    C4 9650   3.407   0.375  11.106 -1.0511  0.1991 -0.3172
  652TMC3    C5 9651   3.349   0.472  11.025  0.3876 -0.0050 -0.4478
  652TMC3    C6 9652   3.343   0.454  10.893 -0.0837 -0.4078 -0.0176
  652TMC3     C 9653   3.620   0.266  11.094 -0.0429  0.6081  0.5121
  652TMC3     O 9654   3.635   0.263  11.213  0.3698 -0.5738  0.6208
  652TMC3     H 9655   3.497   0.155  10.880  0.9533 -1.2876  2.0468
  652TMC3    H1 9656   3.405   0.392  11.213  3.0297  0.9856 -0.3392
  652TMC3    H2 9657   3.286   0.522  10.830  0.1068  0.2445  0.5283
  652TMC3    C7 9658   3.318   0.605  11.083  0.0116 -0.3916  0.7945
  652TMC3    C8 9659   3.348   0.287  10.715  0.2837 -0.3555  0.0385
  652TMC3    O1 9660   3.278   0.594  11.197 -0.1622 -0.9358 -0.2830
  652TMC3    O2 9661   3.404   0.199  10.647 -0.2552 -0.2523 -0.2665
  653MPD2     C 9662   1.411   0.298   0.342  0.2396 -0.4539 -0.2290
  653MPD2    C1 9663   1.341   0.365   0.248  1.0247 -0.4606  0.8097
  653MPD2    C2 9664   1.279   0.302   0.138 -0.1286 -0.7679  0.4194
  653MPD2    C3 9665   1.284   0.166   0.129  0.6174 -0.4281 -0.8989
  653MPD2    C4 9666   1.355   0.095   0.224  0.3939 -0.5526  0.4931
  653MPD2    C5 9667   1.412   0.159   0.328  0.2531 -0.3803 -0.3046
  653MPD2     H 9668   1.212   0.351   0.069 -0.3576  0.2291  1.3583
  653MPD2    H1 9669   1.367   4.708   0.226  0.1135 -0.6383 -2.1143
  653MPD2    H2 9670   1.449   0.340   0.434 -0.2188  3.6440 -1.9317
  653MPD2    H3 9671   1.476   0.102   0.395 -0.8114 -0.2223  0.8420
  653MPD2     N 9672   1.217   0.103   0.020  0.2458 -0.2852  0.1383
  653MPD2    H5 9673   1.166   0.165  17.644 -0.0223 -0.9975 -0.3488
  653MPD2    N1 9674   1.344   0.504   0.246 -0.1112  0.0720  0.3727
  653MPD2    H7 9675   1.303   0.545   0.163  2.4330  1.2296 -0.3114
  654TMC3    C1 9676   1.149   4.642  17.566 -0.3818 -0.6494  1.2117
  654TMC3    C2 9677   1.118   4.717  17.456 -0.3282 -0.1304  0.6883
  654TMC3    C3 9678   1.085   4.655  17.334 -0.1037 -0.2597  0.4905
  654TMC3    C4 9679   1.131   4.503  17.566  0.6262  0.2036  0.0752
  654TMC3    C5 9680   1.096   4.446  17.449  0.7566 -0.2620  0.3845
  654TMC3    C6 9681   1.072   4.519  17.334  0.0554  0.0875 -0.0756
  654TMC3     C 9682   1.205   4.687   0.011 -0.5323  0.6609 -0.2082
  654TMC3     O 9683   1.234   4.596   0.085 -0.2982  0.2093 -0.1654
  654TMC3     H 9684   1.122   0.105  17.459 -1.6530 -0.0264 -1.3085
  654TMC3    H1 9685   1.162   4.440  17.648 -1.1910  0.1639  0.7309
  654TMC3    H2 9686   1.030   4.463  17.252 -1.4776  0.2852  0.5819
  654TMC3    C7 9687   1.105   4.304  17.439 -0.0449 -0.8272 -0.4768
  654TMC3    C8 9688   1.016   0.011  17.241 -0.5415 -0.2729 -0.4772
  654TMC3    O1 9689   1.157   4.247  17.531  0.2286 -0.0505  0.9802
  654TMC3    O2 9690   0.966   0.115  17.290 -0.0313  0.1793 -0.1695
  655MPD2     C 9691   2.764   0.533  16.040 -0.1694  0.7186 -0.2492
  655MPD2    C1 9692   2.692   0.610  15.946 -0.4282 -0.6156 -0.9293
  655MPD2    C2 9693   2.682   0.565  15.816 -0.1619 -0.0870  0.5885
  655MPD2    C3 9694   2.764   0.468  15.772  0.2327 -0.1557 -0.5135
  655MPD2    C4 9695   2.846   0.399  15.861  0.2177 -0.7697  0.1641
  655MPD2    C5 9696   2.840   0.427  15.996 -0.7020  0.4561  0.4792
  655MPD2     H 9697   2.608   0.612  15.752  1.3978  0.8832 -0.4699
  655MPD2    H1 9698   2.919   0.326  15.830 -1.6241 -1.6201 -2.1593
  655MPD2    H2 9699   2.774   0.553  16.146  0.3490 -0.9113  0.0036
  655MPD2    H3 9700   2.898   0.367  16.065  2.0856  1.8097 -0.6983
  655MPD2     N 9701   2.779   0.446  15.639 -0.1238 -0.4200 -0.3540
  655MPD2    H5 9702   2.859   0.390  15.612 -0.6985 -1.3416 -0.1463
  655MPD2    N1 9703   2.606   0.717  15.982 -0.3005  0.4955 -0.5681
  655MPD2    H7 9704   2.552   0.767  15.912 -0.7619 -0.1440 -0.6675
  656TMC3    C1 9705   2.484   0.863  16.120  0.0028  0.3615  0.7811
  656TMC3    C2 9706   2.424   0.866  16.245  0.3826 -0.0648 -0.8609
  656TMC3    C3 9707   2.306   0.937  16.267  0.0622  0.8811 -0.5537
  656TMC3    C4 9708   2.441   0.946  16.023 -0.0964  0.6225 -0.1695
  656TMC3    C5 9709   2.332   1.023  16.048  0.5060  0.3210 -0.5992
  656TMC3    C6 9710   2.258   1.012  16.169 -0.3345  0.5000 -0.7588
  656TMC3     C 9711   2.592   0.775  16.107  0.4999  0.5717 -0.3775
  656TMC3     O 9712   2.642   0.724  16.208  0.9069 -0.2979  0.0334
  656TMC3     H 9713   2.454   0.787  16.312  2.3891 -0.3513 -2.1079
  656TMC3    H1 9714   2.495   0.962  15.930  1.1296 -2.2678  0.0403
  656TMC3    H2 9715   2.161   1.060  16.180 -0.7408 -0.2329 -1.1649
  656TMC3    C7 9716   2.285   1.102  15.932 -0.6206  1.0660  0.0071
  656TMC3    C8 9717   2.217   0.880  16.357 -0.3209  0.2481 -0.2457
  656TMC3    O1 9718   2.369   1.114  15.843  0.3931  0.7902 -0.5684
  656TMC3    O2 9719   2.232   0.760  16.367 -0.2773  0.0297  0.1470
  657TMC3    C1 9720   1.808   4.518  14.923 -0.2094 -0.2558 -0.1062
  657TMC3    C2 9721   1.826   4.488  15.058  0.2423  0.4770  0.6273
  657TMC3    C3 9722   1.792   4.583  15.150  0.7584 -0.4598  0.2551
  657TMC3    C4 9723   1.732   4.628  14.889  1.0484 -0.1436  0.5835
  657TMC3    C5 9724   1.712   0.001  14.986  0.8601 -0.2912 -0.1360
  657TMC3    C6 9725   1.730   4.700  15.119  0.4387 -0.9772 -0.7548
  657TMC3     C 9726   1.836   4.413  14.822  0.3458  0.4718  0.5794
  657TMC3     O 9727   1.756   4.385  14.732  0.1709 -0.1992 -0.4822
  657TMC3     H 9728   1.877   4.396  15.086 -1.8342 -0.6579  0.7390
  657TMC3    H1 9729   1.708   4.656  14.787 -0.6268 -0.3095  0.9415
  657TMC3    H2 9730   1.721   0.059  15.192  1.2044 -1.9337  0.3846
  657TMC3    C7 9731   1.618   0.112  14.956  0.3286  1.1019 -0.3756
  657TMC3    C8 9732   1.840   4.578  15.286 -0.1982 -0.0785  0.0945
  657TMC3    O1 9733   1.532   0.128  15.039 -0.6527 -0.3813  0.2052
  657TMC3    O2 9734   1.843   4.683  15.350  0.1499  0.3675 -0.1739
  658MPD2     C 9735   3.086   0.199  14.863 -0.8717  0.1615 -0.5673
  658MPD2    C1 9736   3.057   0.299  14.955  0.2761 -0.2830 -0.0832
  658MPD2    C2 9737   3.101   0.426  14.927 -0.5060 -0.0331 -0.5679
  658MPD2    C3 9738   3.172   0.457  14.817  0.5367  0.6148 -0.2393
  658MPD2    C4 9739   3.194   0.357  14.721  0.9672 -0.1992  0.5655
  658MPD2    C5 9740   3.149   0.228  14.743 -0.1442 -0.4177 -0.2470
  658MPD2     H 9741   3.084   0.511  14.991  1.6396 -0.0296  0.0115
  658MPD2    H1 9742   3.229   0.378  14.620 -1.9946 -0.1160 -0.4702
  658MPD2    H2 9743   3.066   0.097  14.894  2.0689 -0.5808 -1.1771
  658MPD2    H3 9744   3.163   0.152  14.668  2.3255  0.6092 -0.8181
  658MPD2     N 9745   3.199   0.598  14.803 -0.0581  0.4059 -0.2878
  658MPD2    H5 9746   3.145   0.662  14.860 -3.7872 -0.6013 -2.7078
  658MPD2    N1 9747   2.982   0.273  15.073 -0.2008 -0.2196 -0.0074
  658MPD2    H7 9748   2.968   0.174  15.091 -1.9187  0.1613  0.8416
  659TMC3    C1 9749   2.850   0.309  15.265  0.2084 -0.3827 -0.4628
  659TMC3    C2 9750   2.831   0.380  15.380  0.9584 -0.2015  0.4643
  659TMC3    C3 9751   2.709   0.379  15.433  0.8113  0.3451  0.6077
  659TMC3    C4 9752   2.752   0.228  15.207 -0.4303 -0.2603  0.0985
  659TMC3    C5 9753   2.631   0.222  15.267 -0.7709  0.1994  0.1071
  659TMC3    C6 9754   2.613   0.290  15.386 -0.7063 -0.3862 -0.0295
  659TMC3     C 9755   2.939   0.362  15.168  0.4498 -0.3137  1.0336
  659TMC3     O 9756   2.950   0.484  15.169  0.0781  1.1877 -0.1871
  659TMC3     H 9757   2.907   0.448  15.415  0.0600  1.3138 -0.4897
  659TMC3    H1 9758   2.749   0.181  15.109 -1.8000  0.0935 -0.0388
  659TMC3    H2 9759   2.519   0.289  15.440 -1.0621 -1.7072 -0.6675
  659TMC3    C7 9760   2.513   0.197  15.183  0.7043  0.0573 -0.0239
  659TMC3    C8 9761   2.673   0.455  15.547  0.0607  0.1736 -0.4900
  659TMC3    O1 9762   2.412   0.256  15.229  0.4245  0.2309 -0.0159
  659TMC3    O2 9763   2.554   0.483  15.565 -0.6639  0.2814  0.5642
  660MPD2     C 9764   1.199   3.814  12.817 -0.3736  0.0971 -0.1109
  660MPD2    C1 9765   1.134   3.885  12.925 -0.8029 -0.8638  0.3924
  660MPD2    C2 9766   1.081   3.800  13.023  0.2867 -0.1673  0.1572
  660MPD2    C3 9767   1.083   3.663  13.016  0.1225  0.0030  0.1739
  660MPD2    C4 9768   1.157   3.599  12.921 -0.0384 -0.4512  0.4041
  660MPD2    C5 9769   1.215   3.681  12.826 -0.1317 -0.0813  0.2049
  660MPD2     H 9770   1.023   3.847  13.101 -1.9022 -0.0228 -1.5604
  660MPD2    H1 9771   1.172   3.491  12.921  1.9321 -0.1874  1.6812
  660MPD2    H2 9772   1.239   3.870  12.733 -0.5735  2.1231  1.1280
  660MPD2    H3 9773   1.281   3.631  12.757  0.6011 -1.0226  1.5772
  660MPD2     N 9774   1.037   3.589  13.122 -0.1847 -0.7152 -0.5346
  660MPD2    H5 9775   1.028   3.490  13.104 -4.1437 -0.4692  0.0442
  660MPD2    N1 9776   1.127   4.025  12.916  0.8629  0.0736  0.1319
  660MPD2    H7 9777   1.168   4.072  12.835  1.4288 -1.5687 -0.5352
  661TMC3    C1 9778   1.032   4.229  12.943 -0.0049  0.5152 -0.0742
  661TMC3    C2 9779   1.103   4.265  12.829 -0.2183  0.0932  0.0227
  661TMC3    C3 9780   1.033   4.317  12.725 -0.0735 -0.1193  0.1662
  661TMC3    C4 9781   0.900   4.250  12.954 -0.3295 -0.1782  0.0854
  661TMC3    C5 9782   0.834   4.277  12.841 -0.3777 -0.5426 -0.0033
  661TMC3    C6 9783   0.894   4.315  12.725  0.0468 -0.1765  0.7510
  661TMC3     C 9784   1.068   4.106  13.010  0.6331 -0.2862  0.0410
  661TMC3     O 9785   1.017   4.082  13.118  1.1706  0.2792 -0.1697
  661TMC3     H 9786   1.208   4.247  12.811 -0.5688 -1.2121 -0.6884
  661TMC3    H1 9787   0.848   4.230  13.047  1.3304  0.0769  1.0617
  661TMC3    H2 9788   0.832   4.319  12.636  1.7295  0.3396 -0.4083
  661TMC3    C7 9789   0.697   4.221  12.846  0.3745  0.0308 -0.0642
  661TMC3    C8 9790   1.106   4.329  12.595  0.4271  0.6606  0.3567
  661TMC3    O1 9791   0.671   4.150  12.941 -0.0514 -0.9274 -0.1830
  661TMC3    O2 9792   1.217   4.277  12.579  0.0177 -0.6538 -0.6744
  662MPD2     C 9793   1.229   3.736   0.056 -0.0793  0.2578  0.2911
  662MPD2    C1 9794   1.093   3.751   0.058 -0.0437  0.2833 -0.2296
  662MPD2    C2 9795   1.041   3.876   0.091 -0.1294 -0.6321 -0.3234
  662MPD2    C3 9796   1.126   3.981   0.124  0.1744 -0.0717  0.3771
  662MPD2    C4 9797   1.263   3.963   0.107  0.0078  0.2581  0.1222
  662MPD2    C5 9798   1.310   3.846   0.068  0.5886  0.0933  0.6858
  662MPD2     H 9799   0.934   3.889   0.094  0.1474  1.1568  1.1575
  662MPD2    H1 9800   1.340   4.039   0.118 -0.2785  0.7436 -1.1815
  662MPD2    H2 9801   1.280   3.644   0.032 -2.9824 -1.3024  0.1486
  662MPD2    H3 9802   1.415   3.819   0.064  0.8282  1.6388 -2.7301
  662MPD2     N 9803   1.069   4.103   0.172 -0.4927  0.8154 -0.1619
  662MPD2    H5 9804   0.968   4.102   0.183 -0.3895 -2.8806  0.4727
  662MPD2    N1 9805   1.005   3.646   0.033  0.6350  0.4326  0.0931
  662MPD2    H7 9806   0.906   3.666   0.030  0.5698 -0.3020 -2.6443
  663TMC3    C1 9807   0.925   3.431  17.667 -0.6770 -0.5461  0.0941
  663TMC3    C2 9808   0.793   3.487  17.681 -0.1089  0.5379  0.2633
  663TMC3    C3 9809   0.683   3.417  17.626 -0.1983  0.7052 -0.7190
  663TMC3    C4 9810   0.943   3.342  17.569  0.1037 -0.0387  0.2721
  663TMC3    C5 9811   0.841   3.286  17.508 -0.3356 -0.3368  0.7079
  663TMC3    C6 9812   0.710   3.305  17.546  0.3420 -1.1069 -0.5076
  663TMC3     C 9813   1.037   3.513   0.015  0.9969 -0.2846  0.2857
  663TMC3     O 9814   1.145   3.450   0.020  0.8777 -0.4831  0.4517
  663TMC3     H 9815   0.776   3.564   0.069 -0.6606  1.0511 -0.4003
  663TMC3    H1 9816   1.043   3.330  17.530  0.5261  0.3244  1.2295
  663TMC3    H2 9817   0.632   3.271  17.478  0.3734  0.0620 -1.1179
  663TMC3    C7 9818   0.885   3.175  17.430  0.3314  0.0562  0.0523
  663TMC3    C8 9819   0.576   3.376   0.026 -0.8546  1.0150  0.3709
  663TMC3    O1 9820   0.994   3.190  17.375  0.5463 -0.1472 -0.3819
  663TMC3    O2 9821   0.531   3.265   0.014 -0.6106  0.2062  0.5678
  664MPD2     C 9822   3.127   2.330  17.334 -0.2658 -0.6189  0.3376
  664MPD2    C1 9823   3.247   2.297  17.404  0.0895  0.6107 -1.0541
  664MPD2    C2 9824   3.252   2.305  17.541  0.0705  0.2287  0.3147
  664MPD2    C3 9825   3.144   2.350  17.618  0.0907  0.6800  0.2318
  664MPD2    C4 9826   3.032   2.383  17.544 -0.5510 -0.2197  0.7086
  664MPD2    C5 9827   3.019   2.364  17.407  0.0799  0.8499  0.0999
  664MPD2     H 9828   3.342   2.273  17.592  0.3161  0.1794 -0.1500
  664MPD2    H1 9829   2.946   2.425  17.596  0.0612  0.8202  0.8614
  664MPD2    H2 9830   3.114   2.312  17.228 -1.5758  0.0665  0.3711
  664MPD2    H3 9831   2.928   2.392  17.354  0.5283 -2.2679 -2.3113
  664MPD2     N 9832   3.165   2.375   0.074 -0.3208  0.0522 -0.4029
  664MPD2    H5 9833   3.257   2.350   0.110 -0.5176  1.0134  0.7567
  664MPD2    N1 9834   3.356   2.230  17.347  0.4059  0.2417  0.1409
  664MPD2    H7 9835   3.436   2.217  17.407  1.7734 -1.0237 -1.9456
  665TMC3    C1 9836   3.106   2.426   0.293  0.0721 -0.5791  0.3333
  665TMC3    C2 9837   3.000   2.402   0.384  0.2086  0.2764  0.0745
  665TMC3    C3 9838   3.028   2.430   0.518 -0.1359  0.1286  1.3051
  665TMC3    C4 9839   3.229   2.469   0.332 -0.4991 -0.5393  0.2788
  665TMC3    C5 9840   3.243   2.496   0.467 -0.2793  0.1962  0.7354
  665TMC3    C6 9841   3.147   2.471   0.564  0.4327 -0.1912 -0.0755
  665TMC3     C 9842   3.064   2.409   0.155 -0.2124  0.0576  0.1025
  665TMC3     O 9843   2.941   2.420   0.130 -0.1286 -0.1307  0.6159
  665TMC3     H 9844   2.899   2.366   0.366  0.0597 -0.0096  1.4979
  665TMC3    H1 9845   3.299   2.491   0.251 -2.4511 -0.4264 -1.3672
  665TMC3    H2 9846   3.158   2.509   0.665 -0.3760 -1.2256  0.4006
  665TMC3    C7 9847   3.381   2.539   0.501  0.1393  0.1751 -0.2611
  665TMC3    C8 9848   2.931   2.399   0.624  0.2069  0.3351 -0.1305
  665TMC3    O1 9849   3.444   2.585   0.406 -0.4618 -0.2804 -0.1519
  665TMC3    O2 9850   2.978   2.366   0.734 -0.0605  0.0653  0.2598
  666TMC3    C1 9851   3.052   1.823  10.340  0.6046  0.3144 -0.1129
  666TMC3    C2 9852   3.187   1.800  10.318  0.6108  0.2458 -0.1969
  666TMC3    C3 9853   3.257   1.878  10.228 -0.5402  0.2219 -0.1432
  666TMC3    C4 9854   2.984   1.923  10.267  0.2149 -0.4531 -0.2158
  666TMC3    C5 9855   3.062   2.009  10.187  1.1882 -0.1808 -0.1918
  666TMC3    C6 9856   3.200   1.988  10.173  0.0536  0.7277  0.1469
  666TMC3     C 9857   2.966   1.717  10.390 -0.2070  0.2115 -0.2903
  666TMC3     O 9858   2.842   1.728  10.373 -0.6970  0.2139 -0.2284
  666TMC3     H 9859   3.235   1.710  10.354 -1.5348 -1.2891 -1.1605
  666TMC3    H1 9860   2.880   1.946  10.286  0.4272  1.1013 -0.9458
  666TMC3    H2 9861   3.259   2.051  10.108 -0.0817  1.6268  0.8919
  666TMC3    C7 9862   2.991   2.115  10.128  0.8892 -0.5610 -0.0347
  666TMC3    C8 9863   3.392   1.850  10.182 -0.2426  0.4300 -0.0092
  666TMC3    O1 9864   2.877   2.131  10.170 -0.3590  0.4816 -0.0692
  666TMC3    O2 9865   3.433   1.911  10.083 -0.8308 -0.0211 -0.3297
  667MPD2     C 9866   0.418   1.926  15.086 -0.3095  0.5289 -0.2541
  667MPD2    C1 9867   0.332   1.943  15.192  0.0644  0.1972 -0.5203
  667MPD2    C2 9868   0.244   1.840  15.225 -0.0526 -0.0612 -0.1085
  667MPD2    C3 9869   0.248   1.716  15.161  0.8872  0.0539 -0.3573
  667MPD2    C4 9870   0.335   1.701  15.054  0.7238 -0.1041  0.1192
  667MPD2    C5 9871   0.419   1.802  15.021 -0.4088 -0.1195  0.4243
  667MPD2     H 9872   0.173   1.875  15.300  1.9194 -0.2230  1.8379
  667MPD2    H1 9873   0.337   1.613  14.991  1.1543 -0.9938  1.3916
  667MPD2    H2 9874   0.481   2.001  15.038  0.3582 -1.1659 -2.0188
  667MPD2    H3 9875   0.493   1.788  14.943 -0.4331  1.2235  0.1625
  667MPD2     N 9876   0.160   1.606  15.187 -0.7612  0.3668  0.5481
  667MPD2    H5 9877   0.179   1.521  15.135 -0.5599  1.7728 -1.6394
  667MPD2    N1 9878   0.328   2.062  15.266 -0.4119 -0.1826 -0.2757
  667MPD2    H7 9879   0.243   2.076  15.320 -0.9861 -0.8384 -1.0211
  668TMC3    C1 9880   0.357   2.290  15.312  0.4238 -0.4409  0.3406
  668TMC3    C2 9881   0.373   2.402  15.240 -0.1037  1.0130 -0.3397
  668TMC3    C3 9882   0.290   2.512  15.268 -0.0257 -0.4440  0.0501
  668TMC3    C4 9883   0.270   2.282  15.419  0.2505 -0.0104  0.2477
  668TMC3    C5 9884   0.194   2.395  15.444  1.1312  0.1000  0.5545
  668TMC3    C6 9885   0.201   2.511  15.375  0.5198 -0.1166  0.9075
  668TMC3     C 9886   0.412   2.170  15.248  0.0836  0.3084  0.1460
  668TMC3     O 9887   0.510   2.183  15.178 -0.3478  0.7132 -0.0399
  668TMC3     H 9888   0.441   2.408  15.156  0.4310 -1.3457 -0.0957
  668TMC3    H1 9889   0.254   2.192  15.476 -0.4647  0.3605  0.6454
  668TMC3    H2 9890   0.146   2.603  15.394 -1.0074 -0.8675  0.0965
  668TMC3    C7 9891   0.122   2.406  15.571  0.5219  0.0084  0.2705
  668TMC3    C8 9892   0.272   2.628  15.179 -0.2173 -0.1767 -0.0956
  668TMC3    O1 9893   0.138   2.511  15.628 -0.1713  0.4177  0.0897
  668TMC3    O2 9894   0.175   2.701  15.198 -0.6156 -0.7639  0.1798
  669TMC3    C1 9895   3.035   2.130  14.913 -0.2759 -0.4843 -0.1360
  669TMC3    C2 9896   2.905   2.115  14.877 -0.1572  0.1171  0.0689
  669TMC3    C3 9897   2.853   2.190  14.773  0.2650 -0.5680 -0.5822
  669TMC3    C4 9898   3.115   2.223  14.849  0.0456  0.4584 -0.4633
  669TMC3    C5 9899   3.058   2.300  14.749  0.5077 -0.3359 -0.3564
  669TMC3    C6 9900   2.931   2.278  14.705 -0.2106 -0.0342  0.7207
  669TMC3     C 9901   3.101   2.048  15.014  0.0455  0.2942 -0.2467
  669TMC3     O 9902   3.196   2.095  15.069  0.9799 -0.1691 -0.4918
  669TMC3     H 9903   2.842   2.049  14.936  0.1969  0.1757  0.5120
  669TMC3    H1 9904   3.220   2.232  14.873  0.3423 -0.5632 -1.4166
  669TMC3    H2 9905   2.883   2.339  14.630  0.5934 -0.8525 -0.4531
  669TMC3    C7 9906   3.154   2.349  14.653 -0.2218  0.5519 -0.1668
  669TMC3    C8 9907   2.735   2.142  14.707  0.4442 -0.5164  0.3523
  669TMC3    O1 9908   3.156   2.469  14.636 -0.1787  0.1802  0.6913
  669TMC3    O2 9909   2.691   2.211  14.617  0.1045  0.2519 -0.4024
  670MPD2     C 9910   1.252   4.582  13.820  1.0110  1.1190 -0.3109
  670MPD2    C1 9911   1.359   4.590  13.902  0.2128 -0.1674 -0.9656
  670MPD2    C2 9912   1.344   4.559  14.031 -0.3782  0.4204 -0.1801
  670MPD2    C3 9913   1.231   4.500  14.086 -0.3414  0.8736 -0.4973
  670MPD2    C4 9914   1.121   4.491  14.003 -0.3497 -0.3767 -1.2974
  670MPD2    C5 9915   1.136   4.529  13.867  0.1085  0.2281 -0.6325
  670MPD2     H 9916   1.417   4.589  14.105  0.2100  1.3230 -1.1073
  670MPD2    H1 9917   1.024   4.452  14.029 -1.0138  1.5603 -0.8822
  670MPD2    H2 9918   1.252   4.605  13.714 -0.4484 -0.3457 -0.6319
  670MPD2    H3 9919   1.048   4.524  13.805  2.4015 -0.2964 -3.8179
  670MPD2     N 9920   1.224   4.447  14.220 -0.4172 -0.7535  0.3392
  670MPD2    H5 9921   1.310   4.443  14.275 -0.5694  0.9453  0.7092
  670MPD2    N1 9922   1.486   4.637  13.858  0.2291 -0.4035  0.0478
  670MPD2    H7 9923   1.564   4.638  13.922  0.3903 -3.0621 -0.1291
  671TMC3    C1 9924   1.125   4.369  14.432  0.3106 -0.1606  0.0054
  671TMC3    C2 9925   1.242   4.299  14.461 -0.3075  0.2889  0.0201
  671TMC3    C3 9926   1.235   4.235  14.585 -0.5758  0.3077  0.3191
  671TMC3    C4 9927   1.028   4.397  14.524  1.0751  0.1467 -0.3998
  671TMC3    C5 9928   1.037   4.355  14.655 -0.7248  0.3036  0.1419
  671TMC3    C6 9929   1.144   4.271  14.683 -0.1654  0.5000 -0.3287
  671TMC3     C 9930   1.108   4.426  14.299  0.1407  0.1269 -0.3625
  671TMC3     O 9931   0.995   4.438  14.257  0.1535  0.0533 -0.5151
  671TMC3     H 9932   1.298   4.251  14.381 -0.1708  1.8208 -0.8044
  671TMC3    H1 9933   0.936   4.449  14.499  0.6741 -0.0349  0.7088
  671TMC3    H2 9934   1.167   4.242  14.785  1.5204  0.4941 -0.7130
  671TMC3    C7 9935   0.917   4.283  14.678 -0.6377  0.2610  0.6977
  671TMC3    C8 9936   1.289   4.104  14.594 -0.0786 -0.1061 -0.2865
  671TMC3    O1 9937   0.812   4.339  14.650 -0.3747 -0.0356 -0.4180
  671TMC3    O2 9938   1.391   4.092  14.529  0.3886  0.8535 -0.2816
  672MPD2     C 9939   1.767   0.619   0.426 -0.2794  0.1284  0.7674
  672MPD2    C1 9940   1.864   0.546   0.492  0.2717  0.1207 -0.0102
  672MPD2    C2 9941   1.939   0.603   0.595  0.2099 -0.1395 -0.1333
  672MPD2    C3 9942   1.915   0.734   0.634 -0.5575  0.5414  0.5572
  672MPD2    C4 9943   1.819   0.812   0.569 -0.6605  0.1544 -0.2693
  672MPD2    C5 9944   1.744   0.747   0.468  0.0325  0.1557  0.4196
  672MPD2     H 9945   2.012   0.542   0.646  0.9012 -0.0887 -1.0740
  672MPD2    H1 9946   1.800   0.916   0.592  0.7348  0.2441  0.4278
  672MPD2    H2 9947   1.703   0.569   0.354  1.6567  1.0924 -1.6391
  672MPD2    H3 9948   1.665   0.800   0.417  1.2428  0.9996 -0.5963
  672MPD2     N 9949   1.988   0.798   0.737  0.0989 -0.7130  0.5408
  672MPD2    H5 9950   1.953   0.890   0.764 -0.3114 -0.3765 -1.1196
  672MPD2    N1 9951   1.875   0.404   0.455 -0.0256  0.0049  0.3592
  672MPD2    H7 9952   1.805   0.374   0.388  0.1206 -0.4346  0.4024
  673TMC3    C1 9953   1.924   0.170   0.491  0.3688 -0.1372 -0.1702
  673TMC3    C2 9954   2.031   0.095   0.524 -0.4021  0.3090  0.0058
  673TMC3    C3 9955   2.007   4.691   0.584  0.3425  0.5896  0.7774
  673TMC3    C4 9956   1.795   0.123   0.508  0.3299  0.2937  1.1598
  673TMC3    C5 9957   1.780   0.003   0.574  0.7611 -0.3140 -0.2747
  673TMC3    C6 9958   1.887   4.640   0.603  0.7536  0.4149  0.4171
  673TMC3     C 9959   1.949   0.311   0.524 -0.5605 -0.4432 -0.0964
  673TMC3     O 9960   2.052   0.322   0.589  0.1497  0.0614  0.0878
  673TMC3     H 9961   2.130   0.137   0.510 -0.0728  0.2154  2.0162
  673TMC3    H1 9962   1.707   0.181   0.481 -0.2284 -0.5082  1.2646
  673TMC3    H2 9963   1.874   4.538   0.638 -0.0671  0.4070  0.0915
  673TMC3    C7 9964   1.651   4.685   0.618  0.6822 -0.1442  0.1473
  673TMC3    C8 9965   2.112   4.661   0.678 -0.5293 -0.1929 -0.3228
  673TMC3    O1 9966   1.627   4.566   0.624  0.0795  0.4347  0.1956
  673TMC3    O2 9967   2.197   0.029   0.682  0.2354  0.3932 -0.1087
  674MPD2     C 9968   1.442   4.150   0.782 -0.1416 -0.3445 -0.5046
  674MPD2    C1 9969   1.322   4.133   0.708  0.4329  0.0409  0.5123
  674MPD2    C2 9970   1.215   4.212   0.749  0.8130 -0.3411  0.1297
  674MPD2    C3 9971   1.236   4.302   0.854  0.7087 -0.5451  0.9831
  674MPD2    C4 9972   1.353   4.314   0.919 -0.4083  0.2211 -0.0093
  674MPD2    C5 9973   1.459   4.235   0.886  0.4426  0.1586 -0.0989
  674MPD2     H 9974   1.119   4.202   0.700 -0.1342  1.1365  1.6808
  674MPD2    H1 9975   1.355   4.374   1.009 -0.7133 -0.0754  0.1923
  674MPD2    H2 9976   1.529   4.088   0.761 -0.4704 -0.5670 -1.2040
  674MPD2    H3 9977   1.560   4.245   0.925 -0.0038 -0.6151  1.2531
  674MPD2     N 9978   1.123   4.377   0.891 -0.3534 -0.6782 -0.5534
  674MPD2    H5 9979   1.038   4.342   0.849 -0.4431 -1.1135 -0.0187
  674MPD2    N1 9980   1.304   4.022   0.618  0.3662  0.1802  0.3293
  674MPD2    H7 9981   1.378   3.954   0.607 -1.2801 -1.4344 -0.7688
  675TMC3    C1 9982   1.205   3.875   0.474 -0.6742  0.0241 -0.0048
  675TMC3    C2 9983   1.088   3.810   0.457  0.6306 -0.6865  0.1933
  675TMC3    C3 9984   1.107   3.680   0.414 -0.3551 -0.6936  0.2058
  675TMC3    C4 9985   1.332   3.827   0.446  0.0862 -0.0735 -0.6855
  675TMC3    C5 9986   1.337   3.705   0.393 -0.1596  0.0445  0.3885
  675TMC3    C6 9987   1.224   3.628   0.371  0.1906  0.1315 -0.1944
  675TMC3     C 9988   1.187   3.998   0.549  0.0003 -0.0620 -0.5371
  675TMC3     O 9989   1.077   4.048   0.545 -0.0955 -0.4309 -0.1270
  675TMC3     H 9990   0.988   3.847   0.476  0.7211 -1.3557  1.9519
  675TMC3    H1 9991   1.421   3.887   0.436 -0.6091  0.8837 -1.1173
  675TMC3    H2 9992   1.220   3.537   0.312  0.2395  1.2237 -1.8664
  675TMC3    C7 9993   1.454   3.681   0.306 -0.1535  0.2079  0.0580
  675TMC3    C8 9994   0.993   3.586   0.447  0.4810 -0.1554  0.3574
  675TMC3    O1 9995   1.543   3.768   0.298 -0.1616 -0.6945  0.6075
  675TMC3    O2 9996   0.954   3.511   0.362  0.1297  0.2754 -0.0160
  676MPD2     C 9997   4.332   3.346  11.372  0.3011 -0.7515 -0.0184
  676MPD2    C1 9998   4.209   3.293  11.335 -0.0368 -0.1521 -0.4712
  676MPD2    C2 9999   4.198   3.166  11.283 -0.2607  1.1204  0.4339
  676MPD2    C310000   4.314   3.104  11.258 -0.5402  0.3466 -0.3404
  676MPD2    C410001   4.438   3.163  11.270 -0.0908  0.2551  0.0138
  676MPD2    C510002   4.448   3.280  11.333 -0.0767  0.7139  0.3059
  676MPD2     H10003   4.096   3.130  11.273  0.3242 -0.8158  1.3608
  676MPD2    H110004   4.526   3.104  11.247 -0.2871 -0.0825  0.1268
  676MPD2    H210005   4.343   3.440  11.424 -0.0539 -1.5849  1.5701
  676MPD2    H310006   4.549   3.313  11.351 -1.3494  3.5125  2.1452
  676MPD2     N10007   4.310   2.976  11.197 -0.3070  0.2718  0.4040
  676MPD2    H510008   4.388   2.951  11.136 -1.0806  0.0612 -0.4991
  676MPD2    N110009   4.084   3.351  11.362  0.0797 -0.1227 -0.4139
  676MPD2    H710010   4.004   3.290  11.351  0.4876 -0.8114  0.4864
  677TMC3    C110011   3.925   3.498  11.448 -0.2018  0.3851 -0.0568
  677TMC3    C210012   3.811   3.436  11.398 -0.1436 -0.3573  0.5273
  677TMC3    C310013   3.699   3.435  11.473  0.7228  0.1731 -0.8168
  677TMC3    C410014   3.921   3.560  11.571 -0.4007  0.0907  0.3359
  677TMC3    C510015   3.805   3.563  11.637  0.3316  0.6528  0.3855
  677TMC3    C610016   3.695   3.495  11.596 -0.0021  0.7339 -0.1632
  677TMC3     C10017   4.063   3.476  11.406  0.7334  0.0943  0.3773
  677TMC3     O10018   4.141   3.569  11.425 -0.1267 -0.8205  0.3037
  677TMC3     H10019   3.821   3.371  11.312  1.7203 -0.0953  0.5402
  677TMC3    H110020   4.013   3.596  11.615  0.4851 -1.1413 -0.5234
  677TMC3    H210021   3.604   3.493  11.654  0.8630  0.4527  1.2031
  677TMC3    C710022   3.809   3.611  11.776 -0.1059 -0.8329 -0.4107
  677TMC3    C810023   3.603   3.337  11.424 -0.0413 -0.5558 -1.0385
  677TMC3    O110024   3.696   3.619  11.828 -0.0956  0.2714  0.4037
  677TMC3    O210025   3.579   3.343  11.306  0.5328 -0.4263  0.0617
  678MPD2     C10026   4.544   3.265   1.911 -0.0969  0.2734  0.3195
  678MPD2    C110027   4.545   3.263   1.772  0.4562  0.6479  0.5457
  678MPD2    C210028   4.425   3.248   1.701  0.0801 -0.0290  0.7172
  678MPD2    C310029   4.307   3.226   1.768 -0.1123  1.0427  0.1433
  678MPD2    C410030   4.310   3.240   1.902  0.7749  0.6861  0.3883
  678MPD2    C510031   4.423   3.266   1.975 -0.6770 -0.3841  0.8271
  678MPD2     H10032   4.429   3.239   1.593  1.9366 -1.3126  0.8980
  678MPD2    H110033   4.234   3.197   1.966  0.9662  0.3505  0.3887
  678MPD2    H210034   4.634   3.288   1.967  2.2147 -2.7591 -2.0569
  678MPD2    H310035   4.425   3.268   2.084 -0.8573 -0.6829  0.8355
  678MPD2     N10036   4.192   3.201   1.697  0.7138 -0.3159 -0.5372
  678MPD2    H510037   4.206   3.208   1.596  0.1456  0.5894 -0.5613
  678MPD2    N110038   4.667   3.271   1.699 -0.0392 -0.4217 -0.1940
  678MPD2    H710039   4.666   3.272   1.597 -0.3615  0.2249 -0.1838
  679TMC3    C110040   0.374   3.177   1.561  0.1023 -0.6639  0.2142
  679TMC3    C210041   0.277   3.176   1.662  0.3855  0.1213  0.1088
  679TMC3    C310042   0.169   3.257   1.649  0.3086 -0.0920 -0.0247
  679TMC3    C410043   0.376   3.270   1.463  0.0972  0.5693  0.5279
  679TMC3    C510044   0.279   3.366   1.474 -0.0452  0.1380  0.0730
  679TMC3    C610045   0.169   3.360   1.560  0.2270  0.1826 -0.6827
  679TMC3     C10046   0.486   3.089   1.585 -0.5611  0.1935  0.1097
  679TMC3     O10047   0.487   3.026   1.693  0.2106 -0.2966  0.0699
  679TMC3     H10048   0.265   3.113   1.749  0.4025 -0.6309 -0.4343
  679TMC3    H110049   0.445   3.273   1.380  1.4800  0.3284  1.6734
  679TMC3    H210050   0.087   3.431   1.559  0.9929  1.0777 -0.1401
  679TMC3    C710051   0.282   3.477   1.382  0.0265  0.3558 -0.8265
  679TMC3    C810052   0.069   3.248   1.749 -1.1524 -0.7093  0.4347
  679TMC3    O110053   0.342   3.466   1.277 -0.4452 -0.3050 -1.1074
  679TMC3    O210054   0.099   3.216   1.861 -0.7424  0.4353  0.5596
  680MPD2     C10055   0.998   1.546  13.884  0.6273 -0.0959  0.2730
  680MPD2    C110056   1.095   1.551  13.982 -0.0505 -0.0054  0.3320
  680MPD2    C210057   1.116   1.664  14.052 -0.1236 -0.4834 -0.6609
  680MPD2    C310058   1.043   1.780  14.023 -0.0248 -0.2237 -0.4453
  680MPD2    C410059   0.962   1.772  13.912 -0.6782 -0.0025  0.4274
  680MPD2    C510060   0.934   1.661  13.844 -0.0416 -0.3623 -0.9577
  680MPD2     H10061   1.198   1.673  14.121 -3.3443  0.4723  3.0446
  680MPD2    H110062   0.905   1.858  13.878 -0.5566  0.4016  1.2488
  680MPD2    H210063   0.987   1.467  13.812 -2.0870  0.3629  0.1763
  680MPD2    H310064   0.872   1.658  13.755  0.1229  1.0053 -1.1257
  680MPD2     N10065   1.067   1.906  14.087  0.1604  0.3440  0.3513
  680MPD2    H510066   1.028   1.986  14.038  2.0347 -0.5955 -2.6987
  680MPD2    N110067   1.173   1.439  14.012 -0.8567  0.2814 -0.5530
  680MPD2    H710068   1.265   1.455  14.052 -0.8816 -2.7229  0.7299
  681TMC3    C110069   1.243   1.220  14.008 -0.4105 -0.0856 -0.7677
  681TMC3    C210070   1.200   1.124  14.096 -0.0324 -0.2357  0.1320
  681TMC3    C310071   1.283   1.069  14.188 -0.4919  0.1380  0.2818
  681TMC3    C410072   1.372   1.272  14.020 -0.3261  0.2908  0.2062
  681TMC3    C510073   1.459   1.208  14.098 -0.0488 -0.3903  0.0758
  681TMC3    C610074   1.414   1.111  14.189 -0.4607 -0.5760 -0.1730
  681TMC3     C10075   1.140   1.308  13.985  0.7937  0.2174  0.5069
  681TMC3     O10076   1.040   1.257  13.941 -0.1725  0.4642 -0.0623
  681TMC3     H10077   1.096   1.095  14.090 -0.2725  1.0303 -1.6510
  681TMC3    H110078   1.406   1.344  13.947  3.3344 -1.8425 -0.1889
  681TMC3    H210079   1.484   1.062  14.256 -1.3405 -1.3129  0.1984
  681TMC3    C710080   1.598   1.206  14.077  0.3520 -0.2816  0.3031
  681TMC3    C810081   1.234   0.964  14.272  0.0936 -1.1278 -0.0910
  681TMC3    O110082   1.674   1.146  14.153 -0.6541 -0.0467  0.1989
  681TMC3    O210083   1.135   0.901  14.232 -0.1958  0.2629 -0.3580
  682MPD2     C10084   2.904   2.760  10.678 -0.0200 -0.9811  0.3100
  682MPD2    C110085   2.771   2.779  10.689 -0.4006 -0.9491  0.1634
  682MPD2    C210086   2.710   2.771  10.812 -0.2259  0.1338 -0.0972
  682MPD2    C310087   2.785   2.732  10.928 -1.0184  0.3511 -0.0591
  682MPD2    C410088   2.920   2.710  10.907  0.0730 -0.9379 -0.2584
  682MPD2    C510089   2.975   2.734  10.790 -0.1039 -0.7452  0.2257
  682MPD2     H10090   2.605   2.795  10.806 -0.4440 -0.5102  1.0707
  682MPD2    H110091   2.993   2.677  10.980  0.3014  1.1201  0.4515
  682MPD2    H210092   2.961   2.779  10.588  1.4687 -0.1738  1.4270
  682MPD2    H310093   3.082   2.727  10.778 -0.1601 -1.1606 -0.0248
  682MPD2     N10094   2.734   2.712  11.052 -0.6687  0.0008  1.0795
  682MPD2    H510095   2.793   2.685  11.129  2.1041 -0.5424 -1.2614
  682MPD2    N110096   2.683   2.818  10.577  0.5565 -0.8043  0.4885
  682MPD2    H710097   2.589   2.843  10.608  0.5924 -0.8195  0.6079
  683TMC3    C110098   2.653   2.597  11.429  0.6338 -0.2736  0.7569
  683TMC3    C210099   2.531   2.545  11.457 -0.0847 -0.4331 -0.3480
  683TMC3    C310100   2.431   2.555  11.367  0.0720 -0.2233 -0.5120
  683TMC3    C410101   2.674   2.671  11.317 -0.6696 -0.2153 -0.1067
  683TMC3    C510102   2.570   2.686  11.228  0.0466 -0.3049 -0.0684
  683TMC3    C610103   2.451   2.621  11.245 -0.2660 -0.2563 -0.4881
  683TMC3     C10104   2.729   2.627  11.545  0.6541  0.2770  0.1139
  683TMC3     O10105   2.732   2.746  11.556 -0.4895  0.3588  0.6980
  683TMC3     H10106   2.523   2.493  11.552  2.8749 -1.3707 -0.6087
  683TMC3    H110107   2.767   2.725  11.307 -0.4757 -0.8091 -1.4906
  683TMC3    H210108   2.376   2.620  11.167  0.5689  0.8579 -1.3064
  683TMC3    C710109   2.599   2.719  11.086  0.2019 -0.8711  0.4051
  683TMC3    C810110   2.307   2.487  11.389 -0.7073 -0.2643 -0.2321
  683TMC3    O110111   2.502   2.748  11.013  0.4657  0.1733 -0.1527
  683TMC3    O210112   2.235   2.469  11.291 -0.1378  0.2930 -0.4943
  684MPD2     C10113   0.668   2.506  16.883 -0.1846  0.1974  0.2766
  684MPD2    C110114   0.712   2.494  16.753  0.9441  0.4802 -0.2083
  684MPD2    C210115   0.768   2.602  16.691 -0.0552  0.5353  0.4871
  684MPD2    C310116   0.789   2.722  16.759  0.5738  0.6784  0.1367
  684MPD2    C410117   0.778   2.718  16.895  0.1071  0.6068  0.0314
  684MPD2    C510118   0.711   2.616  16.950  0.0746  0.1218 -0.1940
  684MPD2     H10119   0.781   2.600  16.584  0.6713 -3.5103  0.6549
  684MPD2    H110120   0.803   2.802  16.960 -1.4902  0.8410  0.3474
  684MPD2    H210121   0.607   2.435  16.937 -0.3720  0.6041  0.5957
  684MPD2    H310122   0.700   2.618  17.058 -1.0754  2.1621 -0.3447
  684MPD2     N10123   0.840   2.834  16.701 -0.7199 -0.4310  0.0511
  684MPD2    H510124   0.866   2.911  16.763  3.8654 -0.9648 -1.1725
  684MPD2    N110125   0.682   2.391  16.666  0.3629  0.5106 -0.4926
  684MPD2    H710126   0.709   2.403  16.569 -2.5583  1.9987 -1.1311
  685TMC3    C110127   0.686   2.175  16.604  0.2228  0.4370  0.4424
  685TMC3    C210128   0.621   2.194  16.487  0.4004 -0.1930 -0.0058
  685TMC3    C310129   0.695   2.218  16.372  1.1107 -0.1025  0.0592
  685TMC3    C410130   0.823   2.167  16.608  0.3317  0.1039  0.4830
  685TMC3    C510131   0.892   2.189  16.493  0.2864 -0.1823 -0.0798
  685TMC3    C610132   0.830   2.226  16.377  0.4899 -0.0583 -0.7622
  685TMC3     C10133   0.651   2.268  16.710 -0.6546  0.2862 -0.0867
  685TMC3     O10134   0.651   2.224  16.824 -0.6569  0.2483 -0.9312
  685TMC3     H10135   0.516   2.218  16.494  0.6451  0.6996  0.6262
  685TMC3    H110136   0.876   2.173  16.703  0.7058  0.1785  0.2676
  685TMC3    H210137   0.888   2.246  16.287 -0.5942 -1.6829 -1.8271
  685TMC3    C710138   1.035   2.175  16.503 -0.3659  0.1097 -0.6168
  685TMC3    C810139   0.629   2.276  16.260  0.2055 -0.7747  0.1129
  685TMC3    O110140   1.073   2.086  16.577  0.0177  0.2966 -0.6704
  685TMC3    O210141   0.686   2.367  16.198 -0.4157  0.2014 -0.6915
  686MPD2     C10142   2.436   2.464  15.735  0.6406  0.4961 -0.4534
  686MPD2    C110143   2.478   2.376  15.832  0.0536 -0.6404 -0.6911
  686MPD2    C210144   2.594   2.304  15.814 -0.0952  0.3095  0.0799
  686MPD2    C310145   2.667   2.312  15.698 -0.0273  0.3349 -0.0007
  686MPD2    C410146   2.627   2.414  15.607 -0.2163 -0.1851 -0.3938
  686MPD2    C510147   2.514   2.488  15.634  0.5985  0.3707  0.1609
  686MPD2     H10148   2.625   2.223  15.880  0.9467  1.0348  0.4800
  686MPD2    H110149   2.679   2.431  15.513  2.5056 -1.9213  0.7761
  686MPD2    H210150   2.345   2.521  15.751  0.3552 -0.4639  1.3693
  686MPD2    H310151   2.483   2.566  15.565 -1.4123  0.3938  1.0877
  686MPD2     N10152   2.778   2.235  15.657 -0.2314 -0.2821  0.4375
  686MPD2    H510153   2.827   2.268  15.574 -1.5728  0.1162 -0.2039
  686MPD2    N110154   2.391   2.357  15.940 -0.0459 -0.0610 -0.2060
  686MPD2    H710155   2.303   2.408  15.938 -0.4106 -0.6645  0.1748
  687TMC3    C110156   2.755   2.033  15.792 -0.1505 -0.3351 -0.1333
  687TMC3    C210157   2.635   1.994  15.730  0.3543  0.1815 -0.8989
  687TMC3    C310158   2.564   1.892  15.789 -0.6671  0.2653 -0.0397
  687TMC3    C410159   2.805   1.968  15.898  0.7410  0.0588 -0.4057
  687TMC3    C510160   2.735   1.861  15.954  0.2151  0.9827 -0.3270
  687TMC3    C610161   2.615   1.819  15.891 -0.2409  0.5458 -0.2386
  687TMC3     C10162   2.841   2.135  15.734  0.4578 -0.3745  0.4973
  687TMC3     O10163   2.954   2.098  15.718 -0.0925  0.1327 -0.4830
  687TMC3     H10164   2.587   2.060  15.659 -0.3323 -0.2654 -0.8484
  687TMC3    H110165   2.887   2.011  15.954 -0.6566  1.3808  0.6314
  687TMC3    H210166   2.569   1.730  15.931 -0.4726  0.4391 -0.7398
  687TMC3    C710167   2.726   1.863  16.099 -0.8296 -0.2596 -0.2571
  687TMC3    C810168   2.423   1.870  15.746 -0.1187  0.3094 -0.2626
  687TMC3    O110169   2.706   1.756  16.147 -0.1461  0.5249  0.1910
  687TMC3    O210170   2.389   1.927  15.642  0.2552  0.2806  0.2296
  688MPD2     C10171   1.441   1.093  17.503  0.5628  0.1916  0.1168
  688MPD2    C110172   1.503   0.984  17.563 -0.1350  0.7956  0.0592
  688MPD2    C210173   1.590   0.904  17.493  0.3084 -0.9571 -0.2995
  688MPD2    C310174   1.601   0.928  17.354  0.4651 -0.0508  0.3146
  688MPD2    C410175   1.552   1.045  17.298  0.1935 -0.1139 -0.4443
  688MPD2    C510176   1.471   1.119  17.371 -0.1015  0.2606  0.2264
  688MPD2     H10177   1.634   0.818  17.541  3.3626  0.5438 -0.4397
  688MPD2    H110178   1.573   1.060  17.193 -0.5555  1.0622 -0.4204
  688MPD2    H210179   1.357   1.153  17.537 -0.5770 -0.6194 -1.2631
  688MPD2    H310180   1.430   1.209  17.328 -1.2752 -1.6742 -2.6529
  688MPD2     N10181   1.684   0.850  17.269  0.1018 -0.5045  0.6220
  688MPD2    H510182   1.718   0.894  17.183 -0.2410 -2.1280 -0.3554
  688MPD2    N110183   1.471   0.946   0.008  0.6796  0.2365 -0.0157
  688MPD2    H710184   1.519   0.863   0.041 -0.4524 -1.0385 -1.5877
  689TMC3    C110185   1.359   0.938   0.216  0.8293  0.3093  0.0966
  689TMC3    C210186   1.322   1.005   0.322 -1.3701 -0.2170  0.3463
  689TMC3    C310187   1.306   0.936   0.439 -0.0964 -0.1231 -0.3622
  689TMC3    C410188   1.380   0.802   0.221 -0.5693 -0.1062 -0.5590
  689TMC3    C510189   1.351   0.737   0.335  0.2955  0.5249 -0.0735
  689TMC3    C610190   1.333   0.804   0.451 -0.6846  0.8066 -0.1862
  689TMC3     C10191   1.385   1.010   0.094  0.1516 -0.5053  0.2952
  689TMC3     O10192   1.336   1.124   0.085  0.0319  0.1280  0.0954
  689TMC3     H10193   1.304   1.112   0.320 -1.5765 -0.2982 -2.1340
  689TMC3    H110194   1.380   0.759   0.121 -0.5539  1.7203 -1.3459
  689TMC3    H210195   1.343   0.754   0.547  2.3898  3.1395  0.6776
  689TMC3    C710196   1.378   0.591   0.350  0.4052 -0.4555  0.4922
  689TMC3    C810197   1.273   1.001   0.564  0.0100 -0.3519 -0.6340
  689TMC3    O110198   1.427   0.560   0.456  0.2633  0.3229  0.3185
  689TMC3    O210199   1.332   0.958   0.665 -0.2864  0.7045 -0.2176
  690MPD2     C10200   3.152   2.639  15.362 -0.1195 -1.0122 -0.5983
  690MPD2    C110201   3.242   2.604  15.454  0.2339 -0.9483 -0.1082
  690MPD2    C210202   3.371   2.642  15.448  0.0615  0.4168  0.2869
  690MPD2    C310203   3.408   2.721  15.344 -0.0118  0.1906  0.2996
  690MPD2    C410204   3.317   2.758  15.243 -0.1940  0.4090 -0.5651
  690MPD2    C510205   3.184   2.721  15.254  0.0954 -0.0418  0.3551
  690MPD2     H10206   3.443   2.615  15.525  0.0911  0.3824  0.2469
  690MPD2    H110207   3.340   2.812  15.152  0.3719  1.9444  0.4920
  690MPD2    H210208   3.048   2.614  15.379 -0.4613  1.5272  0.9367
  690MPD2    H310209   3.110   2.756  15.183 -0.1765 -1.4922 -0.0916
  690MPD2     N10210   3.535   2.789  15.336  0.4066  0.1520  0.4113
  690MPD2    H510211   3.544   2.857  15.262 -1.2726 -1.7899 -1.5742
  690MPD2    N110212   3.192   2.514  15.557 -0.1258 -0.0034 -0.0985
  690MPD2    H710213   3.097   2.477  15.555 -0.0851 -0.1295  0.3525
  691TMC3    C110214   3.209   2.371  15.739  0.4734 -0.4403  0.0801
  691TMC3    C210215   3.089   2.404  15.793  0.2206 -0.0135 -0.2524
  691TMC3    C310216   3.057   2.341  15.911 -0.0079 -0.7121  0.1085
  691TMC3    C410217   3.287   2.275  15.782  0.1289 -0.1508  0.2677
  691TMC3    C510218   3.251   2.212  15.897 -0.3841 -0.9909 -0.8378
  691TMC3    C610219   3.139   2.245  15.958  0.3035 -0.1637 -0.1323
  691TMC3     C10220   3.270   2.473  15.658 -0.8191  0.6277 -0.7587
  691TMC3     O10221   3.388   2.493  15.692 -0.1651  0.0009 -0.1956
  691TMC3     H10222   3.031   2.484  15.750  0.3611 -0.1939 -0.7898
  691TMC3    H110223   3.379   2.249  15.732  0.2853  1.4362 -0.2505
  691TMC3    H210224   3.111   2.187  16.045  0.4915 -0.5670 -0.3376
  691TMC3    C710225   3.281   2.072  15.899  0.0691 -0.3524 -0.4431
  691TMC3    C810226   2.934   2.368  15.978  0.1267 -0.6384  0.6664
  691TMC3    O110227   3.313   2.021  16.004 -0.0849  0.6169  0.0441
  691TMC3    O210228   2.893   2.276  16.046 -0.0795 -0.0066 -0.2113
  692TMC3    C110229   0.718   3.970  16.111 -0.1089  0.3827  0.3169
  692TMC3    C210230   0.841   3.999  16.156  0.2510  0.5000  0.7761
  692TMC3    C310231   0.949   3.927  16.110  0.0790  0.3928 -0.2306
  692TMC3    C410232   0.692   3.889  16.006  0.4005 -0.1364  0.0177
  692TMC3    C510233   0.800   3.826  15.956  0.3761 -0.3201 -0.4628
  692TMC3    C610234   0.925   3.847  16.003  0.1480 -0.7058 -0.0661
  692TMC3     C10235   0.610   4.046  16.169  0.5716  0.1640  0.1840
  692TMC3     O10236   0.500   3.995  16.144  0.3223 -0.1723 -0.6581
  692TMC3     H10237   0.847   4.029  16.260  0.1482  0.9332  0.6537
  692TMC3    H110238   0.591   3.867  15.974  0.0319 -1.6066  2.1478
  692TMC3    H210239   1.004   3.789  15.955  0.7876 -1.3177  1.7144
  692TMC3    C710240   0.778   3.688  15.922 -0.3008  0.6120 -0.1723
  692TMC3    C810241   1.008   3.857  16.216  0.2772  0.5745 -0.5050
  692TMC3    O110242   0.680   3.662  15.854  0.9973 -0.4403 -0.0187
  692TMC3    O210243   1.025   3.739  16.197  0.6610  0.2800  0.2454
  693MPD2     C10244   0.152   2.021  10.979 -0.6934  0.1073  0.2875
  693MPD2    C110245   0.134   1.883  10.974  0.5600  0.4388  0.3485
  693MPD2    C210246   0.240   1.802  10.948  0.3041  0.4622 -0.2706
  693MPD2    C310247   0.362   1.865  10.918  0.1136  0.5122  0.4172
  693MPD2    C410248   0.371   1.997  10.923  1.0979  0.0098  0.1788
  693MPD2    C510249   0.274   2.078  10.959  0.1131 -0.4155 -0.7869
  693MPD2     H10250   0.227   1.695  10.957 -0.8324  0.5908 -0.3574
  693MPD2    H110251   0.463   2.046  10.891 -0.3388  1.8690 -1.1289
  693MPD2    H210252   0.060   2.078  10.989  0.3355  1.6981  0.6150
  693MPD2    H310253   0.286   2.185  10.955  0.5173 -0.3527  1.7367
  693MPD2     N10254   0.479   1.786  10.909 -0.3335  0.9846 -0.6674
  693MPD2    H510255   0.566   1.825  10.943 -1.2681  1.5849  1.0044
  693MPD2    N110256   0.012   1.829  11.005  0.1932 -0.3898 -0.4293
  693MPD2    H710257   4.661   1.896  11.030 -1.7484 -1.6063 -2.7733
  694TMC3    C110258   4.566   1.661  11.042 -0.2193  0.2205 -0.5527
  694TMC3    C210259   4.501   1.550  10.997  0.7131 -0.5432  0.7611
  694TMC3    C310260   4.415   1.492  11.087  0.2804 -0.3478  0.5369
  694TMC3    C410261   4.554   1.712  11.164 -0.5673 -0.9819  0.4287
  694TMC3    C510262   4.465   1.654  11.249 -0.2897  0.0572  0.4355
  694TMC3    C610263   4.389   1.544  11.211 -0.2504  0.0063  0.0088
  694TMC3     C10264   4.683   1.705  10.973  0.1411  0.1344 -0.3502
  694TMC3     O10265   0.007   1.615  10.901  0.3554 -0.0774  0.1169
  694TMC3     H10266   4.515   1.513  10.896  0.1450  0.9933  0.1159
  694TMC3    H110267   4.607   1.800  11.200 -0.1433 -1.5120  1.1299
  694TMC3    H210268   4.316   1.496  11.276 -0.7426  0.3851 -0.2642
  694TMC3    C710269   4.428   1.722  11.364  0.0751  0.2449 -0.4630
  694TMC3    C810270   4.346   1.364  11.056 -0.3102 -0.1330 -0.0619
  694TMC3    O110271   4.456   1.842  11.362  0.1589  1.0201 -0.3985
  694TMC3    O210272   4.284   1.299  11.144 -0.8162 -0.0384 -0.9749
  695MPD2     C10273   1.134   3.724  13.811 -0.0621 -0.2580  0.1347
  695MPD2    C110274   1.117   3.708  13.950 -0.5179 -0.3213  0.1026
  695MPD2    C210275   0.995   3.739  13.997  0.4249 -0.4503 -0.0966
  695MPD2    C310276   0.887   3.787  13.920  0.0101  0.0572 -0.3390
  695MPD2    C410277   0.909   3.803  13.787 -0.1681  0.0216 -0.5459
  695MPD2    C510278   1.040   3.776  13.734  0.4337  0.4296 -0.8827
  695MPD2     H10279   0.968   3.727  14.101  1.7311  0.1779  0.3134
  695MPD2    H110280   0.840   3.856  13.721 -0.7737 -1.9136 -1.4722
  695MPD2    H210281   1.232   3.714  13.765  0.3389  0.4435  0.8285
  695MPD2    H310282   1.073   3.805  13.635  0.0792  1.5587 -0.6726
  695MPD2     N10283   0.773   3.823  13.998 -0.5068  0.3529 -0.7012
  695MPD2    H510284   0.769   3.797  14.096 -0.8529 -1.7625 -1.2778
  695MPD2    N110285   1.210   3.651  14.039  0.5175 -0.1103 -0.0833
  695MPD2    H710286   1.173   3.643  14.133 -0.3604 -0.3692 -0.4477
  696TMC3    C110287   0.578   3.952  14.030  0.6766 -0.1346 -0.1598
  696TMC3    C210288   0.603   3.954  14.158  0.1039 -0.3446 -0.4728
  696TMC3    C310289   0.544   4.037  14.243  0.0822 -0.4765  1.1967
  696TMC3    C410290   0.498   4.047  13.975  0.1215  0.7120 -0.3698
  696TMC3    C510291   0.440   4.139  14.057  0.5951  0.8675  0.4735
  696TMC3    C610292   0.464   4.141  14.191 -0.4795 -0.4550  0.1286
  696TMC3     C10293   0.666   3.882  13.939  1.0454 -0.6044  0.1066
  696TMC3     O10294   0.632   3.902  13.824  0.2455 -0.2259  0.7400
  696TMC3     H10295   0.686   3.894  14.196 -0.1761 -0.1060  0.5207
  696TMC3    H110296   0.496   4.059  13.867 -1.7783  1.7492 -0.2238
  696TMC3    H210297   0.410   4.202  14.262  0.6754  0.4345  0.2317
  696TMC3    C710298   0.414   4.267  14.004 -0.1969 -0.1025  0.2421
  696TMC3    C810299   0.586   4.042  14.380 -0.6668  0.1049  0.1546
  696TMC3    O110300   0.376   4.269  13.886  0.1596  0.3310  0.6516
  696TMC3    O210301   0.565   4.149  14.429  0.1110  0.1073 -0.7491
  697MPD2     C10302   0.320   0.816  16.163 -0.6823 -0.4425  0.0651
  697MPD2    C110303   0.362   0.767  16.041 -0.3349 -0.1897  0.2172
  697MPD2    C210304   0.392   0.844  15.932  0.3299  0.7581 -0.2111
  697MPD2    C310305   0.383   0.983  15.941  0.5297  0.4464  0.4959
  697MPD2    C410306   0.332   1.032  16.063  0.0646 -0.6660  0.3099
  697MPD2    C510307   0.295   0.950  16.164 -0.1721 -0.0264  0.3806
  697MPD2     H10308   0.413   0.793  15.839  0.6463 -0.2244  0.3925
  697MPD2    H110309   0.327   1.138  16.084  1.7526 -0.6330  0.4898
  697MPD2    H210310   0.308   0.764  16.258 -0.6080  0.7893  0.7531
  697MPD2    H310311   0.277   0.993  16.261  2.5649  0.9126  0.4501
  697MPD2     N10312   0.414   1.068  15.833 -0.4483 -0.0747  0.2403
  697MPD2    H510313   0.465   1.027  15.755  0.4874  1.2409  0.1469
  697MPD2    N110314   0.366   0.631  16.020 -0.4525  0.0936  0.8209
  697MPD2    H710315   0.398   0.598  15.930 -1.5673 -0.1268  0.4988
  698TMC3    C110316   0.470   1.259  15.711  0.2112  0.2639 -0.6379
  698TMC3    C210317   0.513   1.387  15.726 -0.2011  0.3641  0.0336
  698TMC3    C310318   0.614   1.431  15.640 -0.4643  0.1128  0.5785
  698TMC3    C410319   0.510   1.181  15.606  0.0286  0.0844  0.7344
  698TMC3    C510320   0.607   1.229  15.522 -0.2171 -0.0221  0.2118
  698TMC3    C610321   0.658   1.354  15.539 -0.7326  0.3438  0.3156
  698TMC3     C10322   0.403   1.208  15.831 -0.2046  0.2171 -0.0869
  698TMC3     O10323   0.372   1.289  15.919  0.3516  0.4640 -0.5016
  698TMC3     H10324   0.462   1.449  15.799 -1.3121  1.3858 -1.6180
  698TMC3    H110325   0.453   1.092  15.583 -3.5940  2.7331 -0.4784
  698TMC3    H210326   0.734   1.391  15.471 -1.8580 -0.0104 -1.1445
  698TMC3    C710327   0.630   1.154  15.403  0.2711 -0.3425  0.5958
  698TMC3    C810328   0.661   1.569  15.665  0.4240 -0.1300  0.3107
  698TMC3    O110329   0.537   1.074  15.370  0.1475  0.5489 -0.2428
  698TMC3    O210330   0.588   1.630  15.745  0.2574 -0.0823  0.4112
  699TMC3    C110331   0.920   3.521  13.316 -0.5062  0.0532 -0.1001
  699TMC3    C210332   0.939   3.513  13.452  0.3438  0.0457 -0.7763
  699TMC3    C310333   0.886   3.402  13.517 -0.1381 -0.0373  0.5405
  699TMC3    C410334   0.846   3.428  13.249  0.1351  0.6274 -0.5948
  699TMC3    C510335   0.786   3.322  13.320  0.1638 -0.7488  0.2987
  699TMC3    C610336   0.814   3.305  13.456 -0.1265  0.7260 -0.2843
  699TMC3     C10337   0.991   3.628  13.245 -0.8975  0.0220 -0.0248
  699TMC3     O10338   1.002   3.734  13.303 -0.2641  0.0351 -0.3898
  699TMC3     H10339   0.986   3.588  13.514  0.1933  0.3044 -0.9763
  699TMC3    H110340   0.810   3.444  13.148 -1.4274 -2.0198 -0.4453
  699TMC3    H210341   0.764   3.231  13.518  2.6520 -1.2381 -0.3543
  699TMC3    C710342   0.651   3.285  13.281  0.6627  0.4221 -0.4891
  699TMC3    C810343   0.833   3.429  13.644  0.1683  0.0007  0.2368
  699TMC3    O110344   0.577   3.386  13.267  0.2665 -0.1125 -0.0923
  699TMC3    O210345   0.712   3.443  13.658 -0.2105 -0.5278 -0.3135
  700TMC3    C110346   4.255   0.890  17.512 -0.2863 -0.2210 -0.2246
  700TMC3    C210347   4.260   0.757  17.484 -0.7452 -0.2202 -0.4049
  700TMC3    C310348   4.355   0.689  17.556 -0.1189  0.0394 -0.1011
  700TMC3    C410349   4.348   0.960  17.594  0.8972 -0.2712 -0.4172
  700TMC3    C510350   4.433   0.882  17.665 -0.7864 -0.6385 -0.1894
  700TMC3    C610351   4.431   0.744  17.654  0.2074  0.4783  0.5849
  700TMC3     C10352   4.153   0.966  17.444  0.4329  0.2545  0.0123
  700TMC3     O10353   4.049   0.909  17.413 -0.1586  0.4507  0.0919
  700TMC3     H10354   4.184   0.707  17.425 -1.6575  1.8467 -0.9920
  700TMC3    H110355   4.329   1.066  17.612  4.1595  0.2337  0.0966
  700TMC3    H210356   4.494   0.680   0.029  2.1145 -0.5867 -2.4968
  700TMC3    C710357   4.537   0.945   0.062  0.7669 -0.8594  0.5317
  700TMC3    C810358   4.431   0.580  17.492  0.1858 -0.4068  0.0551
  700TMC3    O110359   4.560   0.888   0.165 -0.8672 -0.2699 -0.5810
  700TMC3    O210360   4.540   0.556  17.545  0.0630 -0.0945 -0.0224
  701TMC3    C110361   4.488   4.576  15.839  0.1098  0.5587 -0.1151
  701TMC3    C210362   4.536   4.560  15.714  0.9122  0.6507  0.2119
  701TMC3    C310363   4.636   4.637  15.672  0.2676 -0.2273 -0.1304
  701TMC3    C410364   4.548   4.659  15.930 -0.1383  0.3517  0.3420
  701TMC3    C510365   4.653   0.016  15.887 -0.2049  0.8935  0.6764
  701TMC3    C610366   4.693   0.009  15.756  0.2423  0.2317 -0.2133
  701TMC3     C10367   4.411   4.474  15.910 -0.0702  0.1363 -1.0644
  701TMC3     O10368   4.440   4.357  15.891  0.4650 -0.1829  0.2112
  701TMC3     H10369   4.523   4.461  15.672  1.5760  0.4401  0.4963
  701TMC3    H110370   4.497   4.657  16.025  0.2616  1.3678  0.5759
  701TMC3    H210371   0.032   0.085  15.708  0.8156 -1.0577 -1.5179
  701TMC3    C710372   4.684   0.148  15.951 -0.0694  0.3656  0.4675
  701TMC3    C810373   4.629   4.676  15.534  0.0723  0.2500  0.1623
  701TMC3    O110374   0.060   0.213  15.900 -0.3665 -0.1044  0.3978
  701TMC3    O210375   4.719   0.031  15.492  0.5527 -0.7216  0.0516
  702MPD2     C10376   4.551   2.717  10.617 -0.5842 -0.0599  0.0771
  702MPD2    C110377   4.495   2.799  10.716 -0.3012  0.0858 -0.4645
  702MPD2    C210378   4.510   2.937  10.711  0.3562  0.4879 -0.4136
  702MPD2    C310379   4.537   3.002  10.596 -0.2672 -0.2308  0.7688
  702MPD2    C410380   4.608   2.930  10.505  0.3229  0.3616  0.0580
  702MPD2    C510381   4.615   2.792  10.512  0.1492 -0.9846  0.8613
  702MPD2     H10382   4.478   2.986  10.802  3.7617  1.2028  0.3890
  702MPD2    H110383   4.655   2.980  10.422 -1.9571 -1.1696 -2.1411
  702MPD2    H210384   4.541   2.610  10.604 -2.0170 -0.0476  1.1603
  702MPD2    H310385   4.666   2.724  10.444 -1.5503 -1.5748  0.1791
  702MPD2     N10386   4.535   3.143  10.592 -0.6680  0.1531 -0.0093
  702MPD2    H510387   4.593   3.188  10.521 -0.7304 -1.3062 -0.9884
  702MPD2    N110388   4.440   2.752  10.830  1.0291  0.0823  0.2317
  702MPD2    H710389   4.416   2.808  10.911 -1.4330 -2.3024  1.1530
  703TMC3    C110390   4.460   3.359  10.658  0.0498 -0.0622 -0.4486
  703TMC3    C210391   4.358   3.433  10.707 -0.6851  0.2521  0.9382
  703TMC3    C310392   4.358   3.571  10.684 -0.3765  0.5491  1.1077
  703TMC3    C410393   4.554   3.412  10.578  0.6701 -0.1215  0.8387
  703TMC3    C510394   4.554   3.542  10.555 -0.5212 -0.1632 -0.3997
  703TMC3    C610395   4.451   3.624  10.602  0.2357  0.3460  0.2009
  703TMC3     C10396   4.451   3.217  10.667  0.1868  0.1114 -0.2685
  703TMC3     O10397   4.345   3.179  10.715  0.3037 -0.3070 -0.9483
  703TMC3     H10398   4.285   3.387  10.773  0.2610 -0.0654  1.7640
  703TMC3    H110399   4.643   3.360  10.544  0.7217  0.2802  0.3571
  703TMC3    H210400   4.457   3.731  10.590 -0.7480  0.2226 -1.3978
  703TMC3    C710401   4.679   3.592  10.495  0.4578  0.6555 -0.2199
  703TMC3    C810402   4.239   3.650  10.723 -0.2709 -0.1193  0.6824
  703TMC3    O110403   0.063   3.529  10.498  0.1633 -0.3151 -0.4158
  703TMC3    O210404   4.254   3.771  10.723  0.0355 -0.1663 -0.4136
  704TMC3    C110405   1.742   0.652  12.282 -0.1601 -0.2146 -0.4230
  704TMC3    C210406   1.829   0.636  12.183  0.0636  0.6424  0.9520
  704TMC3    C310407   1.934   0.547  12.208 -0.4145 -0.0311  0.1416
  704TMC3    C410408   1.750   0.585  12.402  0.1311  0.2468  0.0422
  704TMC3    C510409   1.854   0.502  12.423  0.0307 -0.0508 -0.9907
  704TMC3    C610410   1.949   0.475  12.327  0.1625 -0.0178  0.5306
  704TMC3     C10411   1.634   0.752  12.268  0.3223 -0.0734  0.7861
  704TMC3     O10412   1.561   0.765  12.366 -0.0774  0.4975 -0.3416
  704TMC3     H10413   1.812   0.659  12.078  0.5457 -1.6268  0.3844
  704TMC3    H110414   1.670   0.581  12.475 -0.3262 -0.5098 -0.5011
  704TMC3    H210415   2.026   0.399  12.336  1.1812  0.8318 -1.1548
  704TMC3    C710416   1.862   0.423  12.538 -0.1593  0.1381 -0.2667
  704TMC3    C810417   2.033   0.526  12.109 -0.0751  0.0170  0.1485
  704TMC3    O110418   1.966   0.363  12.557  0.0930  0.6466  0.7894
  704TMC3    O210419   2.102   0.422  12.112 -0.4564  0.3038  0.4323
  705MPD2     C10420   1.381   3.373  16.710 -0.3762 -0.1424 -0.6230
  705MPD2    C110421   1.282   3.381  16.610 -0.0432  0.2861  0.5757
  705MPD2    C210422   1.151   3.392  16.649  0.3064 -0.5438  0.3631
  705MPD2    C310423   1.116   3.398  16.778 -0.2724 -0.2443  0.6136
  705MPD2    C410424   1.217   3.375  16.872 -0.5085  0.6441 -0.3912
  705MPD2    C510425   1.345   3.381  16.837  0.0012  0.1134  0.2783
  705MPD2     H10426   1.086   3.395  16.562 -1.2798 -1.4100  1.5224
  705MPD2    H110427   1.183   3.368  16.975  0.3365  0.7569 -0.1078
  705MPD2    H210428   1.480   3.336  16.688 -0.3909 -0.2421 -0.5163
  705MPD2    H310429   1.420   3.354  16.910  0.3500 -0.0824 -0.1587
  705MPD2     N10430   0.986   3.417  16.820  0.0697  0.4231  0.0572
  705MPD2    H510431   0.977   3.448  16.916 -2.1141 -0.3664  0.0953
  705MPD2    N110432   1.306   3.371  16.471 -1.1980  0.3845  0.2924
  705MPD2    H710433   1.224   3.371  16.410 -0.9461  0.8716 -0.0480
  706TMC3    C110434   1.514   3.319  16.059 -0.9286 -0.5159  0.1421
  706TMC3    C210435   1.452   3.427  15.999  0.1846 -0.1900 -0.1649
  706TMC3    C310436   1.375   3.507  16.079 -0.5786  0.2530 -0.3460
  706TMC3    C410437   1.515   3.295  16.194  0.8248 -0.1892 -0.3400
  706TMC3    C510438   1.427   3.373  16.265 -0.1588  0.1223  0.2557
  706TMC3    C610439   1.349   3.474  16.214  0.3992 -0.6759 -0.3010
  706TMC3     C10440   1.580   3.214  15.978  0.1318  0.3721 -0.0657
  706TMC3     O10441   1.627   3.122  16.041 -0.3953  0.5862  0.2438
  706TMC3     H10442   1.465   3.452  15.894 -0.1157  0.1502 -0.1227
  706TMC3    H110443   1.575   3.220  16.243 -0.7276  0.4291  2.5076
  706TMC3    H210444   1.283   3.534  16.276  0.3876  0.9285 -1.8766
  706TMC3    C710445   1.428   3.363  16.409  0.0188 -0.0616 -0.1250
  706TMC3    C810446   1.378   3.650  16.057 -0.6019  0.9512 -0.4792
  706TMC3    O110447   1.533   3.332  16.461  0.6858  0.1426 -0.3077
  706TMC3    O210448   1.373   3.699  15.947  0.1487  0.3771 -0.9200
  707TMC3    C110449   2.144   1.589   1.855 -0.7260 -0.3259 -0.1898
  707TMC3    C210450   2.101   1.636   1.733  0.0334 -0.1905  0.2165
  707TMC3    C310451   1.970   1.650   1.712  0.3407 -0.4098 -0.3820
  707TMC3    C410452   2.062   1.551   1.957 -0.3975 -0.1909 -0.4053
  707TMC3    C510453   1.928   1.552   1.925  0.4457 -0.1858  0.1120
  707TMC3    C610454   1.883   1.598   1.805 -0.8262 -0.1478  0.3122
  707TMC3     C10455   2.267   1.645   1.892 -0.0821 -0.9598  0.2095
  707TMC3     O10456   2.310   1.741   1.827 -0.3351 -0.4529  0.0657
  707TMC3     H10457   2.180   1.645   1.659 -0.4186 -1.2917 -0.3856
  707TMC3    H110458   2.098   1.538   2.058 -0.8892 -0.2998 -0.2446
  707TMC3    H210459   1.778   1.619   1.787 -0.1376  1.9192 -1.3427
  707TMC3    C710460   1.831   1.495   2.016 -0.2963 -0.1250 -0.2198
  707TMC3    C810461   1.919   1.737   1.601  0.3111  0.0713 -0.8197
  707TMC3    O110462   1.727   1.458   1.968  0.0156 -0.0128 -0.1050
  707TMC3    O210463   1.807   1.726   1.560 -0.6300 -0.0779  0.2870
  708MPD2     C10464   4.652   1.785  14.106 -0.2267 -0.4256 -0.9498
  708MPD2    C110465   4.540   1.832  14.176  0.6839 -0.4911  0.5220
  708MPD2    C210466   4.497   1.773  14.296 -0.8313  0.1374  0.2503
  708MPD2    C310467   4.567   1.671  14.352  0.1035  0.9061 -0.2053
  708MPD2    C410468   4.683   1.626  14.286  0.2270  0.0151 -0.2519
  708MPD2    C510469   0.006   1.698  14.172  0.6723 -0.6162 -0.0398
  708MPD2     H10470   4.412   1.810  14.352  0.8409  1.8165  1.6796
  708MPD2    H110471   0.026   1.547  14.323 -0.5856  0.3386  1.8221
  708MPD2    H210472   4.695   1.843  14.025 -0.7188 -0.3736 -1.1764
  708MPD2    H310473   0.093   1.660  14.120  0.2091  0.1602 -1.3948
  708MPD2     N10474   4.526   1.632  14.480  0.3899 -0.5345  0.3637
  708MPD2    H510475   4.441   1.667  14.522 -0.2696 -1.2484 -0.3737
  708MPD2    N110476   4.469   1.943  14.136  0.0948 -0.4457 -0.1190
  708MPD2    H710477   4.409   1.988  14.204 -0.4684 -1.1776 -0.1328
  709TMC3    C110478   4.382   2.124  14.011 -0.3226  0.3663  0.4839
  709TMC3    C210479   4.281   2.097  13.920 -0.5137 -0.1665  0.0937
  709TMC3    C310480   4.155   2.130  13.958 -1.3248  0.4315 -0.1799
  709TMC3    C410481   4.349   2.170  14.137  0.1516 -0.4804 -0.8443
  709TMC3    C510482   4.220   2.178  14.183 -0.3761  0.2796  0.1072
  709TMC3    C610483   4.122   2.161  14.086 -0.5548 -0.0817 -0.8566
  709TMC3     C10484   4.484   2.013  14.013 -1.0307 -0.2636  0.2467
  709TMC3     O10485   4.547   1.992  13.908  0.4303  0.1086  0.3543
  709TMC3     H10486   4.296   2.058  13.820 -0.7476  1.0098 -0.3946
  709TMC3    H110487   4.425   2.210  14.203 -0.0033 -0.9712 -0.3680
  709TMC3    H210488   4.020   2.168  14.122 -0.1536  1.7163 -0.0659
  709TMC3    C710489   4.202   2.109  14.308  0.5277  0.3950 -0.3017
  709TMC3    C810490   4.068   2.194  13.859  0.0800  0.5222  0.2822
  709TMC3    O110491   4.300   2.045  14.343 -0.7144  0.1317 -0.1005
  709TMC3    O210492   3.947   2.200  13.883 -0.6240 -0.6628 -0.1504
  710TMC3    C110493   0.392   4.085   0.731  0.3835  0.0521  0.0611
  710TMC3    C210494   0.415   4.016   0.615 -0.2382  0.3324 -0.0254
  710TMC3    C310495   0.416   3.882   0.624 -0.3953 -0.1648  0.4431
  710TMC3    C410496   0.383   4.025   0.853 -0.2191 -0.1227  0.5751
  710TMC3    C510497   0.381   3.891   0.853  0.2334  0.4311  0.2093
  710TMC3    C610498   0.382   3.813   0.739  0.2730  0.6771 -0.1087
  710TMC3     C10499   0.420   4.230   0.721  0.5886  0.0827  0.0406
  710TMC3     O10500   0.469   4.267   0.612 -0.1200  0.5159 -0.0678
  710TMC3     H10501   0.434   4.061   0.518  0.8176  0.3891  0.2122
  710TMC3    H110502   0.397   4.077   0.947 -1.1048  0.4100  0.4126
  710TMC3    H210503   0.368   3.706   0.747 -0.2856  0.8168  0.8243
  710TMC3    C710504   0.356   3.828   0.981  0.4137 -0.1251  0.5899
  710TMC3    C810505   0.444   3.799   0.509 -0.0909  0.2995  0.5241
  710TMC3    O110506   0.374   3.708   0.989 -0.0007  0.2148 -0.2846
  710TMC3    O210507   0.524   3.847   0.430 -0.2452  0.2616 -0.5666
  711TMC3    C110508   0.085   4.449  15.160  0.5536 -0.5099  0.3456
  711TMC3    C210509   0.132   4.521  15.266  0.0009 -1.1314  0.2986
  711TMC3    C310510   0.267   4.518  15.298 -0.5072 -0.5479 -0.1561
  711TMC3    C410511   0.167   4.355  15.097 -0.8804  0.1234 -0.0825
  711TMC3    C510512   0.298   4.352  15.132  0.6673 -0.5016 -0.4521
  711TMC3    C610513   0.348   4.441  15.220  0.2491 -0.3895 -0.0570
  711TMC3     C10514   4.674   4.392  15.185  0.6204  0.1949 -0.0782
  711TMC3     O10515   4.588   4.404  15.104 -0.4465 -0.1895  0.3443
  711TMC3     H10516   0.067   4.584  15.326  0.4848  0.5715 -0.9730
  711TMC3    H110517   0.118   4.303  15.015 -0.6546  1.6756 -1.1991
  711TMC3    H210518   0.455   4.442  15.235  0.2926  0.4180 -0.4130
  711TMC3    C710519   0.347   4.220  15.147 -0.6267 -0.9163 -0.3548
  711TMC3    C810520   0.281   4.452  15.425 -0.3995  0.7813 -0.7141
  711TMC3    O110521   0.448   4.212  15.215  1.0234 -0.0586  0.1790
  711TMC3    O210522   0.178   4.397  15.471  0.2231  0.1048  0.6929
  712MPD2     C10523   2.519   0.764  14.113 -0.3168 -0.0308 -0.0958
  712MPD2    C110524   2.409   0.787  14.032  0.1026  0.4837 -0.9033
  712MPD2    C210525   2.390   0.916  13.976  0.3611  0.5661 -0.2330
  712MPD2    C310526   2.484   1.015  13.990  0.1710  0.2031 -0.0565
  712MPD2    C410527   2.595   0.988  14.072 -0.4123  0.4324 -0.0856
  712MPD2    C510528   2.608   0.867  14.132 -0.4072 -0.0815  0.2482
  712MPD2     H10529   2.304   0.939  13.914  1.1146  1.1215 -1.0802
  712MPD2    H110530   2.678   1.056  14.087 -0.5531  0.8258 -1.0722
  712MPD2    H210531   2.535   0.668  14.161 -0.4330  0.4820  0.9659
  712MPD2    H310532   2.701   0.849  14.186  0.4769  2.2842 -0.5288
  712MPD2     N10533   2.482   1.148  13.934 -0.3724 -0.4629  0.3215
  712MPD2    H510534   2.547   1.223  13.957  1.7199 -3.0891  3.0056
  712MPD2    N110535   2.314   0.685  14.001  0.3497  0.7474  0.4490
  712MPD2    H710536   2.230   0.714  13.951  0.8341  2.2258  0.5076
  713TMC3    C110537   2.450   1.292  13.753  0.2922 -0.2342  0.0166
  713TMC3    C210538   2.586   1.299  13.739  0.5669  0.2551  0.2488
  713TMC3    C310539   2.632   1.389  13.653  0.2670 -0.0621  0.8365
  713TMC3    C410540   2.365   1.368  13.683 -0.0397  0.2801 -0.0460
  713TMC3    C510541   2.417   1.457  13.598  0.1114  0.6181 -0.6150
  713TMC3    C610542   2.550   1.461  13.574 -0.0713  0.0816  0.0653
  713TMC3     C10543   2.400   1.184  13.828  0.2161  0.0822  0.6373
  713TMC3     O10544   2.306   1.126  13.778  0.3946  0.5624 -0.6754
  713TMC3     H10545   2.656   1.223  13.773 -0.9862 -0.2866  2.2582
  713TMC3    H110546   2.258   1.356  13.695 -0.3997  0.8092 -2.8179
  713TMC3    H210547   2.585   1.537  13.505 -0.4518 -0.1067 -0.3315
  713TMC3    C710548   2.328   1.517  13.498  0.2893 -0.2896 -0.0793
  713TMC3    C810549   2.769   1.433  13.658 -0.6740  0.0697  0.0752
  713TMC3    O110550   2.387   1.537  13.390  0.4819  0.1766  0.0786
  713TMC3    O210551   2.805   1.524  13.586 -0.3992 -0.0456  0.1578
  714MPD2     C10552   3.241   0.223   0.968 -0.4047  0.5590  0.1782
  714MPD2    C110553   3.279   0.095   0.964 -0.1641 -0.4659 -0.2019
  714MPD2    C210554   3.183   4.719   0.931 -0.2016  0.1640  0.0390
  714MPD2    C310555   3.052   0.022   0.908  0.9617  0.1047  0.4536
  714MPD2    C410556   3.011   0.154   0.924  0.4366 -0.7207 -0.8737
  714MPD2    C510557   3.107   0.251   0.952 -0.3371  0.0375 -0.3111
  714MPD2     H10558   3.218   4.618   0.911  1.1891  1.2110 -2.7754
  714MPD2    H110559   2.908   0.187   0.919  0.7978  0.6273  0.5471
  714MPD2    H210560   3.307   0.306   0.993  0.2654  0.2743 -0.6389
  714MPD2    H310561   3.072   0.353   0.967  0.1049  0.1774 -0.2341
  714MPD2     N10562   2.958   4.642   0.873  0.9783 -0.2524  0.6116
  714MPD2    H510563   2.997   4.555   0.838  1.3354 -0.8816  2.5817
  714MPD2    N110564   3.411   0.070   0.996 -0.8730  0.5464  0.4078
  714MPD2    H710565   3.466   0.153   1.019  0.0376 -0.0473  0.3952
  715TMC3    C110566   3.604   4.678   1.090  0.2036  0.1137 -0.3123
  715TMC3    C210567   3.700   4.572   1.083 -0.3042  0.0232 -0.3821
  715TMC3    C310568   3.819   4.600   1.138 -0.5040  0.2061  0.6251
  715TMC3    C410569   3.618   0.061   1.176  0.7168  0.5155  0.2112
  715TMC3    C510570   3.736   0.073   1.245 -0.4238  0.3643 -0.1839
  715TMC3    C610571   3.843   4.706   1.221  0.3038  0.4635  0.5870
  715TMC3     C10572   3.475   4.668   1.015  0.0456  0.0454  0.0484
  715TMC3     O10573   3.445   4.557   0.972  0.2470  0.1045 -0.0869
  715TMC3     H10574   3.674   4.473   1.047 -0.4015  0.3720 -1.2753
  715TMC3    H110575   3.531   0.121   1.201  0.1209  0.1683 -1.0386
  715TMC3    H210576   3.941   0.002   1.265  1.9119 -0.7686 -2.5365
  715TMC3    C710577   3.764   0.188   1.329  0.3875  0.2341 -0.8442
  715TMC3    C810578   3.911   4.495   1.161  0.5115 -0.3610 -0.3564
  715TMC3    O110579   3.873   0.185   1.387  0.1625 -0.0491  0.3411
  715TMC3    O210580   3.962   4.476   1.270 -0.2605  0.0836 -0.1507
  716MPD2     C10581   4.321   1.770  10.460  0.5338  0.4008  0.4597
  716MPD2    C110582   4.284   1.716  10.338  0.4817 -0.3021 -0.1998
  716MPD2    C210583   4.330   1.591  10.297 -0.1354 -0.1349  0.0146
  716MPD2    C310584   4.413   1.523  10.391  0.0098 -0.0686 -0.2751
  716MPD2    C410585   4.436   1.570  10.520 -0.8733  0.3495 -0.2750
  716MPD2    C510586   4.392   1.692  10.554  0.7431 -0.4117  0.4293
  716MPD2     H10587   4.306   1.552  10.199 -0.6127 -0.1327  0.1279
  716MPD2    H110588   4.493   1.522  10.598  0.5524  1.5054 -0.5872
  716MPD2    H210589   4.287   1.869  10.487  0.0425  0.6936 -1.2041
  716MPD2    H310590   4.410   1.727  10.655  1.1738  0.4928  0.0345
  716MPD2     N10591   4.453   1.396  10.345  0.5718 -0.8035 -0.5325
  716MPD2    H510592   4.412   1.362  10.259 -1.3942  0.5855 -0.1384
  716MPD2    N110593   4.218   1.806  10.246 -0.4916 -0.7547  0.0034
  716MPD2    H710594   4.198   1.897  10.286  0.9577  1.6352 -4.6269
  717TMC3    C110595   4.542   1.178  10.353  0.1292  0.0523 -0.6163
  717TMC3    C210596   4.498   1.165  10.222  0.3655  0.8239  1.1621
  717TMC3    C310597   4.507   1.043  10.169 -0.1868  0.3721 -0.5937
  717TMC3    C410598   4.570   1.071  10.431  0.6168  0.1816  0.6228
  717TMC3    C510599   4.567   0.943  10.378 -0.2198 -0.2402  0.1020
  717TMC3    C610600   4.537   0.930  10.241  0.3088  0.6999 -0.2145
  717TMC3     C10601   4.540   1.314  10.408 -0.6589  0.1057  0.1831
  717TMC3     O10602   4.593   1.328  10.519  0.2287 -1.1229 -0.2795
  717TMC3     H10603   4.484   1.242  10.148  0.0466 -1.0222 -0.7140
  717TMC3    H110604   4.613   1.088  10.529 -0.5331 -0.0330  1.1659
  717TMC3    H210605   4.524   0.829  10.204 -2.2515  0.4215  1.4019
  717TMC3    C710606   4.523   0.830  10.461 -0.2132 -0.3423  0.0568
  717TMC3    C810607   4.459   1.028  10.034 -0.0808  0.5076  0.2833
  717TMC3    O110608   4.505   0.720  10.411  0.0386  0.5254 -0.8237
  717TMC3    O210609   4.379   1.113   9.985 -0.6077  0.0779  0.2399
  718MPD2     C10610   3.126   1.553  13.315  0.1785 -0.8044 -0.0111
  718MPD2    C110611   3.172   1.472  13.213  0.8107 -0.6900  0.7112
  718MPD2    C210612   3.233   1.354  13.240  0.1411  0.1596  0.1548
  718MPD2    C310613   3.252   1.308  13.361  0.1393 -0.5968  0.3264
  718MPD2    C410614   3.199   1.374  13.469  0.0257 -0.4775  0.7486
  718MPD2    C510615   3.136   1.490  13.439  0.5233 -0.1720  0.4669
  718MPD2     H10616   3.290   1.303  13.164 -0.2095 -0.4896  0.3252
  718MPD2    H110617   3.206   1.339  13.571 -1.8537  0.6053  1.2352
  718MPD2    H210618   3.075   1.648  13.303  0.3947 -0.7749 -0.7037
  718MPD2    H310619   3.100   1.558  13.515 -3.2168 -0.9065 -0.6490
  718MPD2     N10620   3.322   1.186  13.367  0.3775  0.0261  0.2759
  718MPD2    H510621   3.344   1.144  13.277  1.9581 -1.0640  1.1696
  718MPD2    N110622   3.180   1.510  13.080  0.9480  0.6396 -0.1349
  718MPD2    H710623   3.222   1.440  13.021  0.4123  0.9825 -0.9144
  719TMC3    C110624   3.148   1.612  12.880  0.5360 -0.3802  0.3527
  719TMC3    C210625   3.153   1.478  12.846 -0.0772  0.4217  0.9322
  719TMC3    C310626   3.258   1.440  12.774  0.6884 -0.0388 -1.0935
  719TMC3    C410627   3.235   1.703  12.825  0.4825 -0.5701 -0.0768
  719TMC3    C510628   3.325   1.661  12.740 -0.9479 -0.4919  0.4104
  719TMC3    C610629   3.351   1.528  12.721 -0.5567  0.3290 -0.2373
  719TMC3     C10630   3.139   1.627  13.022  0.4653  1.4531 -0.2554
  719TMC3     O10631   3.136   1.740  13.072 -0.0525 -0.0845  0.6460
  719TMC3     H10632   3.077   1.409  12.881 -0.6002  1.2704  1.4712
  719TMC3    H110633   3.225   1.811  12.826 -0.6905 -0.6615 -1.7039
  719TMC3    H210634   3.427   1.500  12.649  0.9122  0.0603  1.4185
  719TMC3    C710635   3.423   1.755  12.706 -0.2717 -0.3897 -0.3092
  719TMC3    C810636   3.302   1.311  12.824  0.0531 -0.4367  0.2060
  719TMC3    O110637   3.391   1.859  12.650 -0.3046 -0.0556  0.2852
  719TMC3    O210638   3.252   1.277  12.927 -0.5826  0.2450 -0.2164
  720MPD2     C10639   1.419   2.831  14.043 -0.3012 -0.0917  0.3302
  720MPD2    C110640   1.539   2.828  13.984 -0.0390  1.1009  0.0718
  720MPD2    C210641   1.648   2.785  14.059  0.2253  0.9341  0.8873
  720MPD2    C310642   1.640   2.745  14.194  0.2215  0.0107 -0.0665
  720MPD2    C410643   1.518   2.751  14.258  0.0605  0.0544  0.2530
  720MPD2    C510644   1.413   2.802  14.181  0.8042 -0.7485 -0.0794
  720MPD2     H10645   1.743   2.777  14.006 -0.8780 -2.0570 -0.6197
  720MPD2    H110646   1.508   2.739  14.365 -0.6384  1.7360  0.3807
  720MPD2    H210647   1.331   2.874  13.997 -1.6591 -1.0070  2.0538
  720MPD2    H310648   1.321   2.810  14.237  1.4485  1.1360  0.6749
  720MPD2     N10649   1.753   2.711  14.262  0.0749  0.4224 -0.0307
  720MPD2    H510650   1.835   2.748  14.215 -0.7995  0.4963 -1.4846
  720MPD2    N110651   1.558   2.874  13.851 -0.1022  0.0426  0.0474
  720MPD2    H710652   1.643   2.851  13.800 -0.7846  0.4770 -1.2943
  721TMC3    C110653   1.883   2.662  14.450  0.2695 -0.2346 -0.1206
  721TMC3    C210654   1.875   2.688  14.586 -0.6440  1.1669 -0.0606
  721TMC3    C310655   1.977   2.745  14.647 -0.3475  0.3868  0.3528
  721TMC3    C410656   1.993   2.696  14.383  0.1081 -0.4886 -0.0511
  721TMC3    C510657   2.099   2.756  14.452  0.1254  0.6419 -1.3973
  721TMC3    C610658   2.097   2.776  14.588  0.3469  0.2943 -0.3367
  721TMC3     C10659   1.752   2.653  14.386  0.0704  0.4441  0.2973
  721TMC3     O10660   1.664   2.595  14.449  0.5458  0.0583  0.1050
  721TMC3     H10661   1.782   2.678  14.641 -0.6979 -1.3388 -0.5730
  721TMC3    H110662   2.008   2.669  14.279  1.3167 -2.8865  0.7525
  721TMC3    H210663   2.169   2.836  14.642  1.1341 -1.1880  0.2557
  721TMC3    C710664   2.226   2.754  14.377 -0.1496  0.8761  0.4982
  721TMC3    C810665   1.953   2.796  14.779 -0.0103 -0.4449 -0.1144
  721TMC3    O110666   2.223   2.764  14.254 -0.2591 -0.2756 -0.0463
  721TMC3    O210667   1.981   2.913  14.793 -0.5637  0.9899  0.1496
  722MPD2     C10668   1.180   1.364  13.510 -0.4524 -0.0035 -0.0587
  722MPD2    C110669   1.144   1.492  13.553 -0.0481 -0.8108  0.2839
  722MPD2    C210670   1.042   1.548  13.483 -0.3232 -0.1113 -0.4354
  722MPD2    C310671   0.963   1.481  13.392  0.1483 -0.4010  0.2894
  722MPD2    C410672   1.001   1.352  13.356  0.0150 -0.6076  0.4065
  722MPD2    C510673   1.108   1.295  13.416  0.6538  0.8364  0.0402
  722MPD2     H10674   1.018   1.654  13.493 -0.9269 -0.3230  0.3864
  722MPD2    H110675   0.944   1.292  13.287  0.6319 -0.5098 -0.1858
  722MPD2    H210676   1.271   1.316  13.547  0.0074  0.2789 -0.8187
  722MPD2    H310677   1.131   1.195  13.380  0.7420  1.6245 -2.0917
  722MPD2     N10678   0.856   1.547  13.327 -0.0032  0.3725 -0.3042
  722MPD2    H510679   0.827   1.632  13.373  0.6505  0.6940 -0.4886
  722MPD2    N110680   1.231   1.567  13.635  0.1974  0.6610 -0.4740
  722MPD2    H710681   1.218   1.667  13.642 -1.2098  0.3295  1.7131
  723TMC3    C110682   0.665   1.586  13.180 -0.2019 -0.5975 -0.2111
  723TMC3    C210683   0.548   1.526  13.145 -0.3396  0.1850  0.2036
  723TMC3    C310684   0.432   1.597  13.140 -0.3227 -0.1511 -0.1908
  723TMC3    C410685   0.667   1.720  13.204 -0.1810 -0.1347  0.5008
  723TMC3    C510686   0.550   1.792  13.192  0.1573 -0.0346  0.1716
  723TMC3    C610687   0.431   1.727  13.178 -0.3846 -0.1080  0.7794
  723TMC3     C10688   0.790   1.510  13.209  0.1630  0.0366 -0.2573
  723TMC3     O10689   0.793   1.402  13.152 -0.4363  0.4657 -0.2359
  723TMC3     H10690   0.547   1.432  13.090 -1.1047 -1.3856  2.9253
  723TMC3    H110691   0.764   1.764  13.223  0.6967 -1.3426 -1.1797
  723TMC3    H210692   0.341   1.782  13.151 -0.3764 -0.4722 -0.0053
  723TMC3    C710693   0.564   1.932  13.170  0.0460 -0.4878  0.4108
  723TMC3    C810694   0.301   1.531  13.112 -0.0376  0.1675  0.1889
  723TMC3    O110695   0.609   1.971  13.063  0.1126 -0.0717 -0.5624
  723TMC3    O210696   0.206   1.598  13.076 -0.5256  0.2753  0.0096
  724TMC3    C110697   1.156   3.968  10.185  0.0959  0.0399 -0.0429
  724TMC3    C210698   1.247   4.010  10.279 -0.8750 -0.2328 -0.1381
  724TMC3    C310699   1.382   4.005  10.242 -1.3758  0.5699  0.0579
  724TMC3    C410700   1.192   3.893  10.073 -0.8053  0.4993 -0.4137
  724TMC3    C510701   1.331   3.876  10.055 -0.3786  0.0401  0.3062
  724TMC3    C610702   1.430   3.933  10.133  0.3764 -0.5249 -0.6206
  724TMC3     C10703   1.021   4.020  10.213  0.4806 -0.2518  0.4797
  724TMC3     O10704   1.000   4.064  10.327  0.1715 -0.1472  0.4973
  724TMC3     H10705   1.214   4.077  10.357  1.3833 -0.6506  1.1699
  724TMC3    H110706   1.122   3.862   9.997 -2.9071  1.4985  1.1374
  724TMC3    H210707   1.536   3.910  10.130  0.2481 -0.4602 -5.0029
  724TMC3    C710708   1.388   3.807   9.938  0.2257  0.1407  0.4289
  724TMC3    C810709   1.472   4.060  10.336  0.9399 -0.9860  0.3779
  724TMC3    O110710   1.504   3.770   9.954 -0.7029  0.2182 -0.5576
  724TMC3    O210711   1.429   4.089  10.443  0.1143 -0.5332  0.3090
  725TMC3    C110712   2.400   2.838  12.826 -0.3940  0.0315  0.6974
  725TMC3    C210713   2.463   2.826  12.709  0.1265 -0.1961  0.1535
  725TMC3    C310714   2.508   2.705  12.679  0.5223  0.2310 -0.4221
  725TMC3    C410715   2.377   2.732  12.912 -0.5329  0.3243  1.1459
  725TMC3    C510716   2.421   2.613  12.869  0.2646  0.2035  0.2376
  725TMC3    C610717   2.490   2.590  12.758  0.0918 -0.0424 -0.5348
  725TMC3     C10718   2.378   2.977  12.866 -0.7622  0.3276  0.9747
  725TMC3     O10719   2.438   3.068  12.807 -0.4988  0.2779 -0.2780
  725TMC3     H10720   2.480   2.916  12.652 -2.0252  0.1184 -0.0145
  725TMC3    H110721   2.323   2.736  13.006 -1.7576 -0.0704  0.4565
  725TMC3    H210722   2.520   2.496  12.712  2.5007  0.6262 -0.3046
  725TMC3    C710723   2.402   2.494  12.956 -0.5735  0.7328  0.1240
  725TMC3    C810724   2.560   2.680  12.543 -0.2233  0.3734  0.4242
  725TMC3    O110725   2.333   2.501  13.053  0.4314  0.0957  0.5681
  725TMC3    O210726   2.579   2.562  12.511  0.2209 -0.6186  0.1103
  726MPD2     C10727   0.809   4.642  11.387  0.5861 -0.5784 -0.0666
  726MPD2    C110728   0.738   4.660  11.269  0.0946 -0.5433 -0.2383
  726MPD2    C210729   0.601   4.626  11.263 -0.0353 -0.7449 -0.1960
  726MPD2    C310730   0.535   4.571  11.379  0.3238 -0.4126 -0.6348
  726MPD2    C410731   0.612   4.545  11.490 -0.1449  0.4152  0.2104
  726MPD2    C510732   0.743   4.574  11.490 -0.3898  0.0307  0.8080
  726MPD2     H10733   0.548   4.649  11.172  0.9004 -0.1420 -0.5804
  726MPD2    H110734   0.586   4.496  11.583  1.9896 -1.2662 -0.0862
  726MPD2    H210735   0.916   4.656  11.398  0.2734  1.0107  1.0193
  726MPD2    H310736   0.795   4.554  11.583  0.5247 -1.1949  0.0363
  726MPD2     N10737   0.398   4.539  11.383 -0.4483 -0.8779 -0.2004
  726MPD2    H510738   0.361   4.493  11.466 -1.1314  0.2509  0.1203
  726MPD2    N110739   0.796   0.001  11.159  0.2475  0.0874 -0.4305
  726MPD2    H710740   0.746   4.710  11.071 -2.1033  1.4081  0.7315
  727TMC3    C110741   0.974   0.105  11.041 -0.2003  0.1591 -0.3334
  727TMC3    C210742   1.044   0.220  11.048  0.2472 -0.0368  0.2103
  727TMC3    C310743   1.062   0.291  10.934 -0.3459 -0.3751  0.2145
  727TMC3    C410744   0.918   0.068  10.923  0.4143  0.5833  0.0272
  727TMC3    C510745   0.941   0.134  10.811  0.1735  0.4216 -0.0484
  727TMC3    C610746   1.019   0.245  10.810 -0.3126  0.5945 -0.3629
  727TMC3     C10747   0.926   0.050  11.164 -0.1293 -0.6336 -0.4486
  727TMC3     O10748   1.003   0.079  11.259 -0.0096  0.3733 -0.8735
  727TMC3     H10749   1.086   0.257  11.141 -0.0161  0.4933  0.1210
  727TMC3    H110750   0.867   4.693  10.924  0.6527  0.4641  2.5344
  727TMC3    H210751   1.050   0.304  10.725 -0.7057 -0.9911 -1.6121
  727TMC3    C710752   0.906   0.079  10.678 -0.1582  0.4375 -0.2781
  727TMC3    C810753   1.124   0.425  10.940  0.1835  0.0232 -1.1336
  727TMC3    O110754   0.962   0.138  10.584  0.2734 -0.2453 -0.2971
  727TMC3    O210755   1.161   0.476  10.836 -0.5148 -0.4776  0.3050
  728TMC3    C110756   3.745   2.875  15.432 -0.0247 -0.3595  0.2273
  728TMC3    C210757   3.863   2.850  15.500  0.1071 -0.5809 -0.1813
  728TMC3    C310758   3.949   2.957  15.503 -0.2896  1.0683 -0.8089
  728TMC3    C410759   3.722   2.993  15.364  0.8882 -0.3892 -0.4967
  728TMC3    C510760   3.802   3.099  15.397  0.1370  0.2008  0.1317
  728TMC3    C610761   3.922   3.086  15.463  0.0851 -0.2498  0.7135
  728TMC3     C10762   3.642   2.772  15.421 -0.1083  0.8093 -0.4480
  728TMC3     O10763   3.667   2.692  15.507  0.0217 -0.7169  0.1934
  728TMC3     H10764   3.880   2.749  15.536  2.5753  0.1752  0.8078
  728TMC3    H110765   3.638   3.005  15.296 -0.2269 -0.8466  0.8009
  728TMC3    H210766   3.995   3.164  15.480  0.8506 -0.4681 -1.5333
  728TMC3    C710767   3.784   3.236  15.338 -0.1809  0.6081  0.4559
  728TMC3    C810768   4.080   2.931  15.563  0.3285  0.9075 -0.1529
  728TMC3    O110769   3.888   3.296  15.329  0.0632 -0.0691  0.3649
  728TMC3    O210770   4.084   2.841  15.642 -0.8719 -0.0546  0.2084
  729MPD2     C10771   1.695   3.709  16.574  0.2371  0.3979  0.3681
  729MPD2    C110772   1.683   3.841  16.601  0.1514 -0.3707  0.3841
  729MPD2    C210773   1.612   3.870  16.710 -1.4999  0.0607 -1.2667
  729MPD2    C310774   1.565   3.774  16.800 -0.9356  0.7233 -0.1532
  729MPD2    C410775   1.594   3.644  16.773  0.4617  0.9400  0.0152
  729MPD2    C510776   1.653   3.610  16.654  0.5274 -0.5039 -0.1301
  729MPD2     H10777   1.602   3.976  16.731 -0.6945 -0.4124  1.5068
  729MPD2    H110778   1.574   3.569  16.848  1.5635  0.0217 -0.6005
  729MPD2    H210779   1.752   3.677  16.487  0.9533  1.6917  0.3643
  729MPD2    H310780   1.658   3.505  16.627  1.0908 -1.1117  2.2657
  729MPD2     N10781   1.518   3.809  16.928  0.3139  0.0454  0.4488
  729MPD2    H510782   1.522   3.739  17.001 -0.0560  1.2657  1.6367
  729MPD2    N110783   1.750   3.932  16.516  0.6530 -0.6533  0.1689
  729MPD2    H710784   1.800   3.883  16.443 -0.1346  1.0832 -1.5538
  730TMC3    C110785   1.480   3.956  17.096  1.0161  0.1209 -0.1681
  730TMC3    C210786   1.615   3.929  17.134  0.7307  0.1158 -0.1307
  730TMC3    C310787   1.662   4.029  17.227  0.4115  0.1092  0.2138
  730TMC3    C410788   1.402   4.065  17.147 -0.3025 -0.0328  0.5525
  730TMC3    C510789   1.460   4.145  17.244  0.1053 -0.0438  0.7184
  730TMC3    C610790   1.588   4.123  17.290 -0.2303  0.0618 -0.4990
  730TMC3     C10791   1.460   3.929  16.964 -0.0507  0.6842 -0.1340
  730TMC3     O10792   1.406   4.013  16.888 -0.4559 -0.4026 -0.5741
  730TMC3     H10793   1.681   3.853  17.096 -1.3164 -1.4355 -0.5769
  730TMC3    H110794   1.306   4.094  17.105  0.0039  2.3915  1.5108
  730TMC3    H210795   1.639   4.185  17.362 -0.3341 -0.6229  0.1585
  730TMC3    C710796   1.417   4.278  17.253  0.1457  0.1536  0.0894
  730TMC3    C810797   1.785   4.084  17.176  0.4126 -0.2708  0.1445
  730TMC3    O110798   1.361   4.334  17.160  0.2080  0.1364 -0.6299
  730TMC3    O210799   1.849   4.166  17.240 -0.2130 -0.2564 -0.1254
  731MPD2     C10800   2.118   2.834  12.639  0.4495 -0.0647  0.4271
  731MPD2    C110801   2.142   2.698  12.652 -0.1561  0.5220 -0.0902
  731MPD2    C210802   2.109   2.637  12.770 -0.7553 -0.0021 -0.2887
  731MPD2    C310803   2.060   2.704  12.879  1.0160 -0.0093 -0.7226
  731MPD2    C410804   2.028   2.840  12.855 -0.8185 -0.0611  0.1120
  731MPD2    C510805   2.055   2.902  12.733 -0.3859  0.8601 -0.0028
  731MPD2     H10806   2.122   2.529  12.773  1.3781  0.2384 -0.7667
  731MPD2    H110807   1.991   2.905  12.934 -1.9947 -1.6922  0.8981
  731MPD2    H210808   2.145   2.890  12.550  1.2556  1.3165  1.5287
  731MPD2    H310809   2.031   3.007  12.722 -0.7716  0.7541 -0.1965
  731MPD2     N10810   2.047   2.641  13.002  0.1418 -0.0915  0.3117
  731MPD2    H510811   2.081   2.546  13.010 -0.2259 -0.1809  0.7919
  731MPD2    N110812   2.183   2.633  12.530 -0.3920 -0.2277 -0.3450
  731MPD2    H710813   2.177   2.694  12.449 -1.4726 -0.9028 -0.7767
  732TMC3    C110814   2.240   2.470  12.369  0.5392  0.0058 -0.0076
  732TMC3    C210815   2.150   2.517  12.272  0.1122  0.0736  0.7889
  732TMC3    C310816   2.198   2.528  12.145  0.4905  0.0013  0.7851
  732TMC3    C410817   2.363   2.423  12.327  0.5832 -0.1016 -0.0533
  732TMC3    C510818   2.402   2.434  12.195  0.3313  0.1428  1.0199
  732TMC3    C610819   2.322   2.491  12.101  0.2435  0.2400  0.1698
  732TMC3     C10820   2.216   2.501  12.508 -0.6189  0.2009  0.2756
  732TMC3     O10821   2.245   2.421  12.598  0.2777  0.0567  0.2409
  732TMC3     H10822   2.048   2.548  12.295 -0.8979 -2.3072 -0.5333
  732TMC3    H110823   2.424   2.386  12.409  2.7423 -2.2410 -2.6507
  732TMC3    H210824   2.356   2.495  11.998 -0.5801 -0.6967 -0.1418
  732TMC3    C710825   2.526   2.384  12.147  0.4503  0.9073  0.4060
  732TMC3    C810826   2.111   2.550  12.029 -0.6897 -0.4675  0.8548
  732TMC3    O110827   2.562   2.405  12.034 -0.2269  0.5444  0.3369
  732TMC3    O210828   2.166   2.594  11.925  0.2928 -0.2795  0.3355
  733TMC3    C110829   3.390   0.757  13.457  0.3824  0.1771  0.1012
  733TMC3    C210830   3.373   0.884  13.517  0.3846 -0.0019 -0.0812
  733TMC3    C310831   3.418   0.989  13.446  0.0736 -0.0456  0.1465
  733TMC3    C410832   3.481   0.745  13.353 -0.1963  0.5534 -0.5886
  733TMC3    C510833   3.539   0.854  13.299 -0.1340 -0.6050  0.4153
  733TMC3    C610834   3.499   0.982  13.332  0.7319 -0.0998 -0.1413
  733TMC3     C10835   3.277   0.676  13.453 -0.2217  0.1691  0.6311
  733TMC3     O10836   3.234   0.640  13.343 -0.0926  0.5029  0.0679
  733TMC3     H10837   3.298   0.902  13.593 -1.9280 -2.3932 -1.8156
  733TMC3    H110838   3.487   0.653  13.296  0.2833  0.7851 -0.9104
  733TMC3    H210839   3.533   1.067  13.275 -2.4934  1.2130 -0.0955
  733TMC3    C710840   3.575   0.836  13.160  0.1556  0.2497  0.1141
  733TMC3    C810841   3.364   1.119  13.478 -0.1466 -0.8172  0.7804
  733TMC3    O110842   3.612   0.728  13.121  0.0339 -0.7718  0.2149
  733TMC3    O210843   3.338   1.153  13.595 -0.4691 -0.5559 -0.2917
  734MPD2     C10844   0.183   3.593  12.815 -0.1211 -0.3080 -0.1189
  734MPD2    C110845   0.155   3.498  12.714 -0.3840  1.1454  0.1132
  734MPD2    C210846   0.182   3.531  12.579 -0.7585 -0.3059  0.4141
  734MPD2    C310847   0.241   3.654  12.549  0.2911  0.0438  0.2760
  734MPD2    C410848   0.270   3.746  12.650  0.1981  0.4327 -0.0325
  734MPD2    C510849   0.232   3.717  12.779  0.4780  0.8953 -0.4905
  734MPD2     H10850   0.158   3.460  12.501 -3.1517 -0.9072  1.7019
  734MPD2    H110851   0.323   3.838  12.630  0.7349  0.1385  0.0346
  734MPD2    H210852   0.168   3.579  12.921 -0.8863 -0.6187 -0.2644
  734MPD2    H310853   0.262   3.780  12.862  0.5104  0.2193  0.0098
  734MPD2     N10854   0.271   3.683  12.417 -0.0772 -0.5806  0.2954
  734MPD2    H510855   0.218   3.620  12.358 -0.8171  1.1590 -0.8765
  734MPD2    N110856   0.082   3.380  12.753  0.2048 -0.7839 -0.1027
  734MPD2    H710857   0.078   3.365  12.853 -0.2176 -2.2210 -0.3277
  735TMC3    C110858   4.665   3.189  12.697 -0.3427  0.5579  0.1204
  735TMC3    C210859   4.558   3.165  12.611 -0.5974  0.5063  0.3299
  735TMC3    C310860   4.560   3.050  12.541 -0.8166 -0.2040  0.6313
  735TMC3    C410861   0.038   3.095  12.726 -0.3072  0.7031  0.5012
  735TMC3    C510862   0.022   2.970  12.668 -0.4369 -0.0546 -0.5022
  735TMC3    C610863   4.649   2.952  12.568  0.2007  0.0171  0.0977
  735TMC3     C10864   4.717   3.320  12.663 -0.1822  0.0067 -0.4581
  735TMC3     O10865   4.678   3.354  12.553  0.1881  0.3168 -0.1834
  735TMC3     H10866   4.476   3.232  12.590  1.0530  2.1691 -0.8530
  735TMC3    H110867   0.111   3.119  12.802  0.3715  1.0793 -0.2757
  735TMC3    H210868   4.652   2.859  12.512  0.6486  0.6285 -0.8914
  735TMC3    C710869   0.145   2.889  12.656 -0.4799 -0.0911 -0.1571
  735TMC3    C810870   4.531   3.067  12.402  0.5286  0.7148 -0.3863
  735TMC3    O110871   0.252   2.944  12.679 -0.3228 -0.4468  0.3870
  735TMC3    O210872   4.511   2.961  12.347 -0.3782  0.0728 -0.6486
  736MPD2     C10873   0.159   2.542  12.546 -0.2895 -0.5133  0.4803
  736MPD2    C110874   0.212   2.666  12.558 -0.4185  0.0755  0.0607
  736MPD2    C210875   0.333   2.705  12.500  0.6988  0.4604 -0.1951
  736MPD2    C310876   0.413   2.608  12.435 -0.4631 -0.2619 -0.5862
  736MPD2    C410877   0.363   2.481  12.428 -0.1310 -0.0931  0.2249
  736MPD2    C510878   0.238   2.447  12.479  1.0031  0.4785 -0.3467
  736MPD2     H10879   0.360   2.810  12.502 -1.4378  1.0414 -1.6030
  736MPD2    H110880   0.421   2.404  12.379  0.7804 -0.3513  1.6815
  736MPD2    H210881   0.062   2.523  12.591  0.3991  0.2700  2.2606
  736MPD2    H310882   0.200   2.346  12.466 -0.0886  0.9200 -0.6148
  736MPD2     N10883   0.547   2.625  12.392 -0.9208  0.0654  0.2578
  736MPD2    H510884   0.587   2.537  12.363  0.4259 -0.0880  2.5506
  736MPD2    N110885   0.117   2.761  12.610 -0.1739  0.1093  0.3056
  736MPD2    H710886   0.022   2.728  12.625  0.1574  0.1361  2.3571
  737TMC3    C110887   0.738   2.749  12.316 -0.7430  0.1854 -0.8595
  737TMC3    C210888   0.813   2.857  12.345  0.0946  0.6184 -0.2569
  737TMC3    C310889   0.894   2.911  12.252  0.3162 -0.0160 -0.4164
  737TMC3    C410890   0.742   2.684  12.204 -0.0401  0.4546  0.2574
  737TMC3    C510891   0.810   2.744  12.107 -0.0532  0.3925 -0.0621
  737TMC3    C610892   0.890   2.860  12.125  0.7037  0.2636  1.0402
  737TMC3     C10893   0.617   2.746  12.396  0.2642  0.0869 -0.4702
  737TMC3     O10894   0.588   2.847  12.461  0.0012 -0.0508  0.0655
  737TMC3     H10895   0.813   2.902  12.443 -1.9239 -0.7634  0.3859
  737TMC3    H110896   0.664   2.611  12.185 -0.0411 -0.0710  2.3228
  737TMC3    H210897   0.936   2.911  12.041 -1.0648  1.1324  0.6124
  737TMC3    C710898   0.774   2.705  11.968  0.1412 -0.1458 -0.5131
  737TMC3    C810899   0.938   3.043  12.275  0.6561  0.7073  1.0032
  737TMC3    O110900   0.704   2.603  11.968  0.3388 -0.2065  0.2794
  737TMC3    O210901   0.993   3.074  12.384  0.0994  0.2182  0.1523
  738MPD2     C10902   0.802   1.834  15.692 -0.0767 -0.4928 -0.3230
  738MPD2    C110903   0.833   1.730  15.602  0.6535  0.6328 -0.2693
  738MPD2    C210904   0.937   1.752  15.512  0.6523  0.1880  0.2402
  738MPD2    C310905   1.008   1.871  15.518 -0.3652  0.3411  0.4759
  738MPD2    C410906   0.977   1.977  15.602 -0.2919 -0.2591 -0.0385
  738MPD2    C510907   0.868   1.962  15.683 -0.5086 -0.8607 -0.2519
  738MPD2     H10908   0.951   1.679  15.433 -1.8385 -0.3208  0.2852
  738MPD2    H110909   1.040   2.065  15.600  0.5044 -0.8292  0.1757
  738MPD2    H210910   0.721   1.827  15.764  0.0412  3.8705  0.2660
  738MPD2    H310911   0.841   2.038  15.755 -1.8698 -2.4854  0.9714
  738MPD2     N10912   1.113   1.897  15.434 -0.1365  0.3003  0.1683
  738MPD2    H510913   1.138   1.996  15.435  1.9984 -0.2525  0.3113
  738MPD2    N110914   0.768   1.607  15.596 -0.0659 -0.1490  0.2639
  738MPD2    H710915   0.807   1.545  15.526 -1.5832  0.1363 -0.8254
  739TMC3    C110916   1.311   1.881  15.320  0.2753 -0.0084 -0.2175
  739TMC3    C210917   1.277   1.993  15.244 -0.0805  0.4396  0.0547
  739TMC3    C310918   1.383   2.059  15.183 -0.5797  0.3475 -0.3042
  739TMC3    C410919   1.435   1.848  15.359 -0.4045  0.0494 -0.3080
  739TMC3    C510920   1.535   1.928  15.305  0.1602 -0.3977 -0.1664
  739TMC3    C610921   1.516   2.028  15.216  0.0754 -0.0006 -0.5346
  739TMC3     C10922   1.199   1.810  15.375  0.9472 -0.0329  0.8122
  739TMC3     O10923   1.217   1.692  15.383  0.0411  0.0146  0.4191
  739TMC3     H10924   1.175   2.017  15.219  0.1511  2.4731  1.0422
  739TMC3    H110925   1.459   1.751  15.400 -0.4601  0.2434  0.1794
  739TMC3    H210926   1.597   2.081  15.168 -1.2669  2.8950  0.4087
  739TMC3    C710927   1.667   1.899  15.350 -0.0402  0.3811 -0.2337
  739TMC3    C810928   1.354   2.126  15.056  0.1647 -0.6200 -0.0517
  739TMC3    O110929   1.684   1.840  15.459  0.5286  0.0431  0.4041
  739TMC3    O210930   1.265   2.077  14.989  0.3547  0.3672  0.0056
  740TMC3    C110931   1.393   3.100  14.371 -0.1268 -0.1167 -0.7508
  740TMC3    C210932   1.410   3.075  14.507  0.1354 -0.7402  0.0566
  740TMC3    C310933   1.540   3.054  14.555 -0.3973  0.5558  0.6467
  740TMC3    C410934   1.499   3.096  14.281  0.1604 -0.4545  0.1301
  740TMC3    C510935   1.618   3.069  14.339 -0.8035 -0.1019 -0.6429
  740TMC3    C610936   1.646   3.065  14.471  0.2983  0.7451 -0.5074
  740TMC3     C10937   1.263   3.125  14.319  0.7857 -0.5412 -0.0351
  740TMC3     O10938   1.248   3.147  14.199  0.6016  0.2869 -0.6330
  740TMC3     H10939   1.329   3.059  14.577  0.1099 -0.2948  0.1294
  740TMC3    H110940   1.493   3.115  14.175  1.1863 -3.9220 -0.5433
  740TMC3    H210941   1.744   3.029  14.502 -0.0703  0.2054  0.0205
  740TMC3    C710942   1.734   3.039  14.252  0.0112  0.5863 -0.2159
  740TMC3    C810943   1.564   3.006  14.687 -0.2127 -0.1833 -0.5339
  740TMC3    O110944   1.837   2.995  14.306 -0.2106  0.1923 -0.8130
  740TMC3    O210945   1.667   3.039  14.743  0.0471  0.7377 -0.0165
  741TMC3    C110946   1.033   2.767  13.673  0.9428  0.4841  1.0737
  741TMC3    C210947   0.971   2.655  13.623 -0.0974  0.3975 -0.3703
  741TMC3    C310948   0.919   2.563  13.710  0.2590 -0.1075  0.3118
  741TMC3    C410949   1.040   2.783  13.813  0.4072  0.0324  1.2258
  741TMC3    C510950   0.992   2.686  13.895  0.4663  0.8066  0.1788
  741TMC3    C610951   0.926   2.576  13.847 -0.0956 -0.3988  0.0513
  741TMC3     C10952   1.065   2.873  13.582  0.1281  0.2221 -0.0530
  741TMC3     O10953   1.072   2.838  13.464  0.0935  0.1274 -0.1017
  741TMC3     H10954   0.956   2.636  13.517 -1.5761 -1.9624  0.2685
  741TMC3    H110955   1.075   2.877  13.854 -0.0844 -0.4917  2.8163
  741TMC3    H210956   0.880   2.509  13.919 -0.8426 -2.1148 -2.0171
  741TMC3    C710957   0.978   2.715  14.038 -0.2895  0.0080  0.2473
  741TMC3    C810958   0.842   2.454  13.657 -0.2701  0.3170 -0.6669
  741TMC3    O110959   0.983   2.830  14.078 -0.2613  0.1413 -0.2004
  741TMC3    O210960   0.872   2.407  13.549  0.1184  0.0968  0.5535
  742TMC3    C110961   1.213   0.512  16.018  0.3534  0.3155 -0.6062
  742TMC3    C210962   1.127   0.609  15.980  0.1008  0.0325 -0.3781
  742TMC3    C310963   1.170   0.684  15.870 -0.6559 -0.0640  0.3495
  742TMC3    C410964   1.337   0.487  15.951  0.3154  0.4954 -0.0293
  742TMC3    C510965   1.372   0.567  15.849  0.0937 -0.1323 -0.5467
  742TMC3    C610966   1.294   0.675  15.808 -0.1017  0.0696 -0.0555
  742TMC3     C10967   1.181   0.445  16.138  0.4177  0.0520 -1.1805
  742TMC3     O10968   1.116   0.514  16.216 -0.1954  0.0973 -0.2051
  742TMC3     H10969   1.023   0.604  16.011  0.3137  0.2284  0.3577
  742TMC3    H110970   1.404   0.410  15.990 -1.8385 -1.8147 -0.8848
  742TMC3    H210971   1.338   0.738  15.733 -1.6314  0.9336 -0.2360
  742TMC3    C710972   1.495   0.537  15.778 -0.9341 -0.1465  0.0891
  742TMC3    C810973   1.072   0.737  15.767  0.0183  0.3687 -0.0534
  742TMC3    O110974   1.503   0.419  15.742  0.4878  0.0896  0.0410
  742TMC3    O210975   1.126   0.776  15.662  0.1432  0.0234  0.0805
  743MPD2     C10976   2.855   2.040   1.794  0.1765  0.4917  0.5077
  743MPD2    C110977   2.891   2.141   1.699 -0.0633  0.4694 -0.3828
  743MPD2    C210978   3.024   2.185   1.696 -0.1195 -0.1857  0.1348
  743MPD2    C310979   3.115   2.123   1.782 -0.1244 -0.1342 -0.4238
  743MPD2    C410980   3.085   2.025   1.873 -0.4986 -0.9607  0.7155
  743MPD2    C510981   2.956   1.986   1.874 -1.3854  0.6830  0.1196
  743MPD2     H10982   3.054   2.259   1.623  0.8742 -0.9090 -0.1942
  743MPD2    H110983   3.162   1.968   1.923 -1.2089 -1.8960  0.7498
  743MPD2    H210984   2.756   1.996   1.798  0.8084 -1.0757 -0.7846
  743MPD2    H310985   2.940   1.892   1.925 -0.0691 -0.0481 -0.8138
  743MPD2     N10986   3.247   2.164   1.766 -0.1433 -0.9463  0.1831
  743MPD2    H510987   3.261   2.225   1.685 -0.6790 -0.1896  0.6526
  743MPD2    N110988   2.791   2.185   1.607  0.2661 -0.0013  0.2993
  743MPD2    H710989   2.702   2.135   1.605  0.7469 -0.7740 -1.6756
  744TMC3    C110990   2.682   2.324   1.438  0.3419  0.3179 -0.3648
  744TMC3    C210991   2.569   2.257   1.454  0.4719  0.0966  0.4188
  744TMC3    C310992   2.486   2.222   1.356  0.2067 -0.2397 -0.1686
  744TMC3    C410993   2.707   2.363   1.311  0.3528  0.5389 -0.2846
  744TMC3    C510994   2.617   2.335   1.208  0.2887 -0.8010 -0.8460
  744TMC3    C610995   2.505   2.262   1.225 -0.3044  0.1804 -0.3670
  744TMC3     C10996   2.801   2.284   1.511 -0.6376 -0.2201  0.5405
  744TMC3     O10997   2.905   2.342   1.474 -0.2900  0.0579 -0.4445
  744TMC3     H10998   2.543   2.224   1.554 -0.0057 -2.2268 -0.4658
  744TMC3    H110999   2.800   2.417   1.299  0.1179  1.0415  0.1694
  744TMC3    H211000   2.439   2.226   1.147 -1.8940  0.2636  0.9281
  744TMC3    C711001   2.652   2.380   1.073 -0.0883 -0.5644  0.1371
  744TMC3    C811002   2.382   2.125   1.396 -0.6170  1.1321 -0.0876
  744TMC3    O111003   2.761   2.422   1.043 -0.0469  0.4639  0.0478
  744TMC3    O211004   2.413   2.066   1.499 -0.1855 -0.0641 -0.1135
  745TMC3    C111005   2.189   0.493  14.015 -0.5440  0.3896  0.0540
  745TMC3    C211006   2.108   0.454  14.120 -0.3416  0.5515  0.2362
  745TMC3    C311007   1.977   0.441  14.114  0.4894 -0.4605 -0.0386
  745TMC3    C411008   2.133   0.530  13.894  0.1985 -0.4770  0.0288
  745TMC3    C511009   1.996   0.519  13.887 -0.3323 -0.2002 -0.2221
  745TMC3    C611010   1.918   0.475  13.993 -0.0536 -0.4475 -0.3809
  745TMC3     C11011   2.310   0.566  14.059  0.1426 -0.0351  0.3530
  745TMC3     O11012   2.361   0.524  14.161  0.0193  0.2437  0.8864
  745TMC3     H11013   2.163   0.424  14.209  0.4902 -2.8814 -1.4345
  745TMC3    H111014   2.195   0.561  13.811 -0.5542 -0.2898 -0.4643
  745TMC3    H211015   1.811   0.467  13.979 -0.1916  0.8275 -0.0168
  745TMC3    C711016   1.946   0.479  13.756 -0.2824 -0.4340  0.3039
  745TMC3    C811017   1.909   0.490  14.230  0.4818  0.7968 -0.5747
  745TMC3    O111018   1.827   0.490  13.729 -0.2891  0.2874  0.1674
  745TMC3    O211019   1.792   0.460  14.236  0.2271 -0.2503  0.2140
  746TMC3    C111020   4.222   2.758  11.140 -0.5069 -0.2322  0.3424
  746TMC3    C211021   4.324   2.719  11.061  1.0392 -0.4529 -0.2738
  746TMC3    C311022   4.302   2.628  10.962 -0.1879 -0.5256  1.1579
  746TMC3    C411023   4.102   2.699  11.131  0.3506  0.7373 -0.2877
  746TMC3    C511024   4.081   2.606  11.031  0.3946 -0.2318  0.7535
  746TMC3    C611025   4.183   2.570  10.945  0.4931  0.6909  0.4200
  746TMC3     C11026   4.221   2.877  11.223 -0.1498  0.5649  0.1269
  746TMC3     O11027   4.141   2.878  11.315  0.5891  0.0960  0.4230
  746TMC3     H11028   4.423   2.758  11.082  0.9596 -1.0014  1.1239
  746TMC3    H111029   4.022   2.756  11.177  2.3432  1.5529  2.0785
  746TMC3    H211030   4.162   2.505  10.861 -2.9910  0.9933  1.0351
  746TMC3    C711031   3.961   2.543  11.015  0.6938 -0.8246 -0.2883
  746TMC3    C811032   4.379   2.628  10.838  0.2571  0.3585  0.0210
  746TMC3    O111033   3.927   2.509  10.899 -0.1087  0.3581  0.1039
  746TMC3    O211034   4.374   2.534  10.759 -0.9259 -0.5526  0.5378
  747TMC3    C111035   1.302   2.930  11.055  0.4496  0.5716  0.8532
  747TMC3    C211036   1.194   2.860  11.105 -0.3970  0.0697 -0.7710
  747TMC3    C311037   1.193   2.827  11.237  0.7204 -0.3126 -0.2314
  747TMC3    C411038   1.410   2.959  11.128  0.1500 -0.2277  0.1159
  747TMC3    C511039   1.395   2.940  11.262  0.4624 -0.9316  0.4271
  747TMC3    C611040   1.292   2.876  11.317 -0.3392  0.2431 -0.1067
  747TMC3     C11041   1.321   2.941  10.915  0.3804 -0.3219  0.5184
  747TMC3     O11042   1.397   3.032  10.880 -0.4526  1.1050  0.4799
  747TMC3     H11043   1.106   2.845  11.043 -1.5884  0.4138  0.8614
  747TMC3    H111044   1.490   3.016  11.081  0.2735  0.1763  0.8214
  747TMC3    H211045   1.303   2.842  11.419  1.5046 -1.7503 -0.9844
  747TMC3    C711046   1.479   3.008  11.357  0.1965  0.1846 -0.0477
  747TMC3    C811047   1.060   2.798  11.295 -0.7684  0.3203  0.0459
  747TMC3    O111048   1.433   3.028  11.469 -0.3875  0.3908  0.3363
  747TMC3    O211049   0.969   2.763  11.219 -0.6447  0.2538  0.1314
  748MPD2     C11050   2.188   3.227   1.704 -0.1542  0.2832 -0.6284
  748MPD2    C111051   2.294   3.178   1.777  0.0969  0.1781 -0.0705
  748MPD2    C211052   2.424   3.187   1.733 -1.0102 -0.5109 -0.6724
  748MPD2    C311053   2.450   3.265   1.625 -0.6041 -0.3759  0.3007
  748MPD2    C411054   2.344   3.321   1.555 -0.7226  0.3082 -0.7043
  748MPD2    C511055   2.212   3.303   1.590 -0.0573 -0.5734 -0.8974
  748MPD2     H11056   2.499   3.125   1.782 -0.3702  2.3343  1.9263
  748MPD2    H111057   2.362   3.369   1.460 -0.0033  0.4752 -0.4793
  748MPD2    H211058   2.086   3.213   1.737  0.1999  1.8377  1.1660
  748MPD2    H311059   2.129   3.336   1.530 -1.4073  0.3853  1.4873
  748MPD2     N11060   2.584   3.266   1.570 -0.4329  0.2079 -0.6631
  748MPD2    H511061   2.654   3.203   1.608 -0.2013  1.0630  0.3298
  748MPD2    N111062   2.249   3.113   1.891 -0.3977 -0.7647  0.2392
  748MPD2    H711063   2.148   3.103   1.898 -0.3925  0.5521  2.0154
  749TMC3    C111064   2.780   3.331   1.469  0.5453 -0.4813  0.0440
  749TMC3    C211065   2.853   3.297   1.579  0.1510  0.3218 -0.6935
  749TMC3    C311066   2.987   3.305   1.556  0.4949  0.9934  0.4028
  749TMC3    C411067   2.830   3.352   1.346  0.2452  0.3926  0.1774
  749TMC3    C511068   2.964   3.345   1.328 -0.1259 -0.0003  0.4740
  749TMC3    C611069   3.044   3.323   1.433  0.6604 -0.7080  0.3032
  749TMC3     C11070   2.639   3.346   1.481 -0.3555 -0.2969 -0.0682
  749TMC3     O11071   2.594   3.432   1.406 -0.5106 -0.5962 -0.1145
  749TMC3     H11072   2.808   3.294   1.677  2.3313  0.8037  0.3183
  749TMC3    H111073   2.760   3.369   1.265  1.3105 -1.5078 -1.1388
  749TMC3    H211074   3.151   3.335   1.430  0.6668 -0.3792  1.9758
  749TMC3    C711075   3.025   3.399   1.201 -0.8627 -0.9805  0.0208
  749TMC3    C811076   3.065   3.255   1.667 -0.4136 -0.3888  0.2592
  749TMC3    O111077   2.939   3.442   1.125  0.2517  0.4274 -0.4283
  749TMC3    O211078   3.023   3.273   1.778  0.0725  0.1296 -0.2611
  750MPD2     C11079   4.245   4.518  11.961 -0.1460 -0.2707  0.6025
  750MPD2    C111080   4.119   4.469  11.974 -0.6461  0.1085 -0.2579
  750MPD2    C211081   4.097   4.356  11.894  0.9212  0.5942  0.3744
  750MPD2    C311082   4.193   4.292  11.819 -0.1968 -0.0911 -0.2260
  750MPD2    C411083   4.320   4.346  11.815 -0.0661  0.1524  0.4625
  750MPD2    C511084   4.339   4.465  11.874  0.2375  0.3747  0.6467
  750MPD2     H11085   3.992   4.331  11.880  1.1544  0.4609 -1.1288
  750MPD2    H111086   4.401   4.306  11.755 -0.1332  2.3472 -1.1156
  750MPD2    H211087   4.262   4.614  12.009 -1.7212  0.3256 -0.0071
  750MPD2    H311088   4.429   4.521  11.851  0.3001 -0.2353 -0.5493
  750MPD2     N11089   4.170   4.183  11.739  0.2873 -0.3769 -0.7692
  750MPD2    H511090   4.239   4.168  11.666  0.3417  1.9277 -1.1687
  750MPD2    N111091   4.022   4.548  12.039  0.0362  1.3738  0.1107
  750MPD2    H711092   4.055   4.632  12.086 -1.1267  0.9653  1.6493
  751TMC3    C111093   4.050   4.014  11.627 -0.1580 -0.1220  0.2384
  751TMC3    C211094   3.923   3.967  11.609  0.4260  0.2479  0.1690
  751TMC3    C311095   3.895   3.900  11.492  0.8543 -0.0240 -0.3702
  751TMC3    C411096   4.148   4.001  11.536  0.1522  0.0418  0.0575
  751TMC3    C511097   4.126   3.918  11.427 -0.7665  0.0673 -0.6126
  751TMC3    C611098   3.999   3.870  11.405 -0.0585 -0.4849 -0.7576
  751TMC3     C11099   4.063   4.097  11.746  0.8621 -0.3516  0.3408
  751TMC3     O11100   3.973   4.099  11.830 -0.4693  0.6473 -0.5684
  751TMC3     H11101   3.846   4.006  11.675  0.8944  1.5119 -0.0330
  751TMC3    H111102   4.244   4.048  11.552  0.8857 -2.1334  2.1175
  751TMC3    H211103   3.984   3.803  11.321  1.9331 -0.4249 -1.1498
  751TMC3    C711104   4.234   3.898  11.338 -0.0065  0.5175 -0.3021
  751TMC3    C811105   3.759   3.874  11.440 -0.0975 -0.6113 -0.3329
  751TMC3    O111106   4.322   3.982  11.332 -0.0992 -0.5210  0.1710
  751TMC3    O211107   3.754   3.824  11.325  0.0044  0.5738 -0.8925
  752TMC3    C111108   2.787   4.191  16.810  0.6320  0.2346  0.7068
  752TMC3    C211109   2.747   4.310  16.862  0.2066 -0.8388  0.4764
  752TMC3    C311110   2.803   4.352  16.983  0.1815 -0.2659 -0.0654
  752TMC3    C411111   2.849   4.098  16.888 -0.8758 -0.9895  0.3328
  752TMC3    C511112   2.898   4.135  17.016  0.1311 -0.2636 -0.3668
  752TMC3    C611113   2.886   4.264  17.059  0.3746 -0.3928  0.7876
  752TMC3     C11114   2.736   4.150  16.681 -0.1672  0.2097  0.0229
  752TMC3     O11115   2.799   4.050  16.635  0.5867  0.3218 -0.7247
  752TMC3     H11116   2.709   4.385  16.793  2.2072 -1.5252 -1.3513
  752TMC3    H111117   2.873   3.999  16.852 -0.0886 -0.1696 -1.3528
  752TMC3    H211118   2.890   4.293  17.164 -0.2921  3.3882 -0.2203
  752TMC3    C711119   3.004   4.048  17.059 -0.2221 -0.3307  0.3575
  752TMC3    C811120   2.748   4.480  17.041 -0.4379 -0.1763  0.1326
  752TMC3    O111121   3.037   3.952  16.992 -0.1724 -0.7836 -0.6417
  752TMC3    O211122   2.652   4.521  16.981 -0.0465 -0.1375 -0.2386
  753TMC3    C111123   0.084   0.865  13.683 -0.6322  0.8537  0.3759
  753TMC3    C211124   0.214   0.874  13.719 -0.5105 -0.1089  0.2824
  753TMC3    C311125   0.286   0.763  13.727  0.5909  0.0417  0.3429
  753TMC3    C411126   0.025   0.738  13.661 -0.4371 -0.2253  0.0749
  753TMC3    C511127   0.107   0.630  13.652 -0.3371 -0.1261  0.3156
  753TMC3    C611128   0.240   0.635  13.688 -0.0752  0.1037 -0.0322
  753TMC3     C11129   0.027   0.970  13.604 -1.3202  0.0007  0.1781
  753TMC3     O11130   4.650   0.929  13.543  0.7054  0.0223 -0.4282
  753TMC3     H11131   0.263   0.970  13.734  0.9166 -1.2146  2.7767
  753TMC3    H111132   4.642   0.724  13.633  0.1082  0.8534 -2.5067
  753TMC3    H211133   0.306   0.550  13.701  1.2528  1.3321  1.1966
  753TMC3    C711134   0.033   0.503  13.638  0.4218  0.3020  0.0679
  753TMC3    C811135   0.416   0.772  13.783 -0.4721 -0.3710 -0.9905
  753TMC3    O111136   4.638   0.499  13.608  0.2253 -0.2869  0.1957
  753TMC3    O211137   0.504   0.712  13.722  0.0431 -0.4369 -0.1521
  754MPD2     C11138   2.962   4.021  12.728 -0.0654 -0.0140  0.1498
  754MPD2    C111139   2.894   3.912  12.781 -0.0333 -0.3633  0.0177
  754MPD2    C211140   2.767   3.883  12.731 -0.3313  0.9631 -0.5114
  754MPD2    C311141   2.700   3.969  12.642 -0.5777 -0.1641  0.2713
  754MPD2    C411142   2.770   4.076  12.586 -0.4509  0.7975  0.4088
  754MPD2    C511143   2.898   4.097  12.631 -0.3269 -0.4115 -0.2419
  754MPD2     H11144   2.713   3.789  12.744  0.8671  0.7993  3.1757
  754MPD2    H111145   2.738   4.142  12.506 -1.0418 -0.6858 -0.5828
  754MPD2    H211146   3.058   4.052  12.768 -0.6106  0.4984  1.0490
  754MPD2    H311147   2.953   4.182  12.593  0.8709 -1.0419  0.0587
  754MPD2     N11148   2.566   3.959  12.599  0.2146 -0.0928 -0.1232
  754MPD2    H511149   2.539   4.028  12.529 -1.2725 -1.6111 -1.0598
  754MPD2    N111150   2.956   3.839  12.887  0.0700 -0.2476 -0.8793
  754MPD2    H711151   3.039   3.877  12.931 -0.4990  0.5163 -0.4578
  755MPD2     C11152   2.914   4.214  13.306 -0.2227 -0.6363 -1.0209
  755MPD2    C111153   2.788   4.175  13.353  0.1763 -0.5204  0.0668
  755MPD2    C211154   2.702   4.102  13.271 -1.2416  0.3814  0.4092
  755MPD2    C311155   2.752   4.043  13.157 -0.0262  0.6224  0.2668
  755MPD2    C411156   2.879   4.080  13.113 -0.7719 -0.0054  0.3637
  755MPD2    C511157   2.960   4.166  13.187 -1.1962 -0.0190 -0.0725
  755MPD2     H11158   2.600   4.084  13.304 -1.2157  0.8821  0.7613
  755MPD2    H111159   2.913   4.041  13.018  1.1695  0.3980  0.8947
  755MPD2    H211160   2.981   4.276  13.364 -0.9175 -0.9418  0.1137
  755MPD2    H311161   3.064   4.185  13.160 -1.2881 -2.1434 -1.9809
  755MPD2     N11162   2.676   3.953  13.070 -0.6656  0.5376 -0.2098
  755MPD2    H511163   2.722   3.913  12.988 -1.7288 -0.3971 -0.3603
  755MPD2    N111164   2.747   4.228  13.477 -0.2205  0.1467  0.2758
  755MPD2    H711165   2.824   4.266  13.532 -2.0705  0.1583  2.8408
  756MPD2     C11166   3.735   4.269  10.035 -0.0481  0.5869 -0.1623
  756MPD2    C111167   3.861   4.314  10.062 -0.1077 -0.0766  0.3968
  756MPD2    C211168   3.959   4.305   9.964 -0.2576  0.0890  0.4443
  756MPD2    C311169   3.924   4.251   9.841 -0.3304 -0.0731 -0.0672
  756MPD2    C411170   3.798   4.213   9.814  0.5542  0.4238 -0.1852
  756MPD2    C511171   3.706   4.242   9.904 -0.3135  0.2771  0.1330
  756MPD2     H11172   4.063   4.324   9.991  0.1269  1.9198 -2.3661
  756MPD2    H111173   3.765   4.169   9.720 -0.1723 -2.8409  1.6017
  756MPD2    H211174   3.657   4.268  10.110 -0.3694 -3.2720 -0.5379
  756MPD2    H311175   3.606   4.208   9.882 -0.4850  1.0596 -0.2989
  756MPD2     N11176   4.025   4.221   9.748 -0.2084  0.2416  0.4732
  756MPD2    H511177   4.115   4.256   9.778  0.5536  0.3088 -1.9604
  756MPD2    N111178   3.897   4.354  10.191  0.1832  0.2408 -0.4780
  756MPD2    H711179   3.996   4.373  10.198  0.3590 -0.2482 -1.6413
  757MPD2     C11180   4.153   3.355   9.601 -0.1909  0.1346 -0.7393
  757MPD2    C111181   4.069   3.447   9.654  0.5043 -0.6992  0.0439
  757MPD2    C211182   4.098   3.580   9.642  0.3761 -0.1073 -0.3568
  757MPD2    C311183   4.212   3.617   9.576 -0.2784 -0.0283  0.3907
  757MPD2    C411184   4.300   3.521   9.532 -0.3940 -0.2617  0.0194
  757MPD2    C511185   4.270   3.394   9.540 -0.1280 -0.1873  0.2872
  757MPD2     H11186   4.043   3.667   9.675 -2.8444 -1.0723 -3.2270
  757MPD2    H111187   4.386   3.546   9.471 -1.2638  1.7195 -0.3879
  757MPD2    H211188   4.123   3.250   9.602  0.7357 -0.1368 -1.8353
  757MPD2    H311189   4.336   3.323   9.492 -0.6634  0.3304 -1.2253
  757MPD2     N11190   4.231   3.755   9.575  0.5722  0.3192  0.1922
  757MPD2    H511191   4.160   3.816   9.617  0.4962 -1.2318  2.3115
  757MPD2    N111192   3.949   3.402   9.714  0.2180  0.5622  0.0283
  757MPD2    H711193   3.947   3.302   9.735  2.0353  0.6139  0.4271
  758MPD2     C11194   3.455   2.853  16.245 -0.9665  0.0539  0.6374
  758MPD2    C111195   3.572   2.878  16.327 -0.1262 -0.0414  0.1734
  758MPD2    C211196   3.568   2.945  16.450  1.1776 -1.0402  0.1019
  758MPD2    C311197   3.448   2.996  16.498 -0.0278 -0.2428 -1.0853
  758MPD2    C411198   3.338   2.974  16.420  0.6794  1.1740  0.5800
  758MPD2    C511199   3.340   2.897  16.302  0.2184 -0.6391  0.3076
  758MPD2     H11200   3.659   2.961  16.507  0.7610  1.8207 -0.0522
  758MPD2    H111201   3.239   3.009  16.446 -0.3506  0.4678 -2.4194
  758MPD2    H211202   3.446   2.808  16.146 -0.6889  0.8950  0.2305
  758MPD2    H311203   3.243   2.893  16.254  1.7936  1.2320 -3.0248
  758MPD2     N11204   3.433   3.083  16.608 -0.2075 -0.4029  0.2127
  758MPD2    H511205   3.349   3.138  16.626 -0.2229  0.1595 -1.5671
  758MPD2    N111206   3.698   2.858  16.276  0.6316  0.0413  0.2258
  758MPD2    H711207   3.769   2.888  16.342  0.4581  0.7361  0.1033
  759MPD2     C11208   2.387   1.473  10.221  0.9900  0.1167 -0.5962
  759MPD2    C111209   2.473   1.366  10.239 -0.1325 -0.3498  0.1492
  759MPD2    C211210   2.607   1.391  10.193  0.0208  0.4372 -0.2725
  759MPD2    C311211   2.655   1.516  10.160 -0.1151 -0.4928 -0.3744
  759MPD2    C411212   2.568   1.619  10.152  0.4474  0.3492  0.1627
  759MPD2    C511213   2.436   1.597  10.185 -0.7833 -0.6044 -0.5278
  759MPD2     H11214   2.681   1.313  10.178 -1.4631 -0.8945 -0.6426
  759MPD2    H111215   2.585   1.720  10.115 -0.4805  0.1659 -0.7703
  759MPD2    H211216   2.280   1.469  10.237  1.3726 -2.0605  1.4200
  759MPD2    H311217   2.360   1.674  10.179 -0.9716 -0.8357 -1.0962
  759MPD2     N11218   2.794   1.531  10.128  0.3930  0.5862 -0.5539
  759MPD2    H511219   2.842   1.442  10.135  1.3900  1.2334  0.6818
  759MPD2    N111220   2.437   1.233  10.265  0.5716  0.0434 -0.1273
  759MPD2    H711221   2.510   1.162  10.259 -0.9977 -1.5370 -0.4044
  760MPD2     C11222   2.530   4.013  12.042 -0.2703 -0.5438 -0.1435
  760MPD2    C111223   2.644   3.993  11.957 -0.2739  0.2027 -0.5205
  760MPD2    C211224   2.685   3.862  11.925  0.3882 -0.3561  0.5714
  760MPD2    C311225   2.620   3.756  11.975  1.1302 -0.8181  0.1851
  760MPD2    C411226   2.504   3.780  12.049  0.1388 -0.9513  1.0742
  760MPD2    C511227   2.464   3.907  12.086  0.2523  0.2587  0.3128
  760MPD2     H11228   2.786   3.847  11.888  0.7945  2.0518  0.6608
  760MPD2    H111229   2.455   3.693  12.091  0.5338 -2.0201 -0.7087
  760MPD2    H211230   2.504   4.114  12.072  1.5359 -0.4544  1.1185
  760MPD2    H311231   2.378   3.914  12.152  0.6694 -0.0575  0.8923
  760MPD2     N11232   2.669   3.628  11.938  0.2075 -0.6077 -0.1119
  760MPD2    H511233   2.756   3.629  11.885 -1.1002 -0.3462 -2.2466
  760MPD2    N111234   2.718   4.110  11.908 -0.8142  0.3303 -0.9679
  760MPD2    H711235   2.695   4.203  11.939 -2.8478  0.0510 -1.6584
  761MPD2     C11236   3.283   3.697  11.503 -0.7998 -0.2779 -0.5720
  761MPD2    C111237   3.363   3.703  11.396 -0.2502 -0.2102 -0.8930
  761MPD2    C211238   3.492   3.755  11.417  0.9537  0.7549 -0.2472
  761MPD2    C311239   3.537   3.821  11.527  0.9240 -0.5851 -0.1740
  761MPD2    C411240   3.452   3.808  11.638 -0.0652 -0.9544 -0.9289
  761MPD2    C511241   3.328   3.742  11.623 -0.1849  0.5292  0.2305
  761MPD2     H11242   3.561   3.732  11.337  1.4550 -0.6811  0.5954
  761MPD2    H111243   3.459   3.864  11.730  3.3011  2.2395 -3.1611
  761MPD2    H211244   3.184   3.652  11.500 -0.6230 -0.7009 -0.0782
  761MPD2    H311245   3.268   3.747  11.713 -1.4059 -3.3231 -0.3289
  761MPD2     N11246   3.667   3.881  11.535  0.2536  0.2235  0.7154
  761MPD2    H511247   3.694   3.919  11.625  2.3609  2.7093 -0.9678
  761MPD2    N111248   3.312   3.635  11.277  0.1114  0.6679  0.4147
  761MPD2    H711249   3.223   3.587  11.289 -0.8155  2.1870 -0.4035
  762MPD2     C11250   3.837   3.706  11.025 -0.0503 -0.0421  0.6432
  762MPD2    C111251   3.818   3.590  10.956  0.2562 -0.1369  0.2532
  762MPD2    C211252   3.922   3.541  10.884  0.5833 -0.3538  1.0317
  762MPD2    C311253   4.033   3.625  10.854  0.0415 -0.4051  0.5836
  762MPD2    C411254   4.047   3.742  10.929 -0.5467 -0.1566 -0.4600
  762MPD2    C511255   3.949   3.785  11.017 -0.0621 -1.1417  0.0145
  762MPD2     H11256   3.917   3.446  10.832  0.8545  0.5463 -0.6471
  762MPD2    H111257   4.134   3.806  10.924 -1.3946  0.8859 -1.6952
  762MPD2    H211258   3.752   3.735  11.087 -0.2826  2.3797 -0.7837
  762MPD2    H311259   3.951   3.886  11.056 -1.9365 -0.8859 -0.5713
  762MPD2     N11260   4.134   3.582  10.770 -0.0789  0.2443  0.4721
  762MPD2    H511261   4.147   3.485  10.741 -1.6880  0.5218 -1.2052
  762MPD2    N111262   3.695   3.523  10.973  0.3078 -0.1578 -0.1934
  762MPD2    H711263   3.621   3.576  11.016  1.2160  1.2222 -0.3082
  763MPD2     C11264   0.748   3.487  16.335  0.2397  0.3731 -0.5046
  763MPD2    C111265   0.645   3.577  16.321 -0.7152  0.2681  0.4122
  763MPD2    C211266   0.647   3.697  16.400  0.4873  0.4115  0.1306
  763MPD2    C311267   0.753   3.725  16.481 -0.0345 -0.1078 -0.5130
  763MPD2    C411268   0.855   3.631  16.489  0.4197  0.1791 -0.7194
  763MPD2    C511269   0.853   3.511  16.415 -0.0486  0.1967 -0.1865
  763MPD2     H11270   0.568   3.771  16.387 -0.7229 -1.0336 -0.6921
  763MPD2    H111271   0.953   3.641  16.536  0.9569 -0.6542 -1.6476
  763MPD2    H211272   0.748   3.394  16.278  2.7246  0.7290 -1.0636
  763MPD2    H311273   0.941   3.449  16.417 -0.3979 -0.2977  0.0464
  763MPD2     N11274   0.767   3.840  16.561 -0.0319 -0.3067  0.5546
  763MPD2    H511275   0.859   3.855  16.601  0.7003  0.9401 -1.6218
  763MPD2    N111276   0.538   3.553  16.233  0.0562 -0.3936  0.6590
  763MPD2    H711277   0.472   3.630  16.223  0.8469  0.1597 -0.2956
  764MPD2     C11278   3.028   0.508  17.502  0.5407 -0.1981  0.7076
  764MPD2    C111279   2.923   0.493  17.415  0.1500  0.8584 -0.5871
  764MPD2    C211280   2.796   0.506  17.465  0.0116 -0.0296 -0.1697
  764MPD2    C311281   2.779   0.542  17.603 -0.1785 -0.0335  0.9642
  764MPD2    C411282   2.884   0.565  17.683  0.1989  0.2079  0.4384
  764MPD2    C511283   3.010   0.544  17.633  0.4535 -0.9833 -0.5621
  764MPD2     H11284   2.712   0.498  17.397  2.9688  0.0686 -3.8353
  764MPD2    H111285   2.876   0.599   0.100 -0.7728  1.0361  0.0854
  764MPD2    H211286   3.130   0.483  17.477  0.7450  1.8236 -0.4543
  764MPD2    H311287   3.099   0.551   0.009 -0.5761  0.7569  0.7348
  764MPD2     N11288   2.647   0.536  17.647 -1.0035  0.2129  0.4693
  764MPD2    H511289   2.579   0.509  17.577 -0.2019 -1.2540  0.2517
  764MPD2    N111290   2.945   0.439  17.281  0.1221  0.6036 -0.5302
  764MPD2    H711291   2.853   0.431  17.240  0.3908  0.6395 -1.1307
  765MPD2     C11292   2.586   2.691  16.162 -0.2797 -0.2063 -0.2017
  765MPD2    C111293   2.672   2.765  16.086 -0.1134  0.7525  0.1973
  765MPD2    C211294   2.776   2.699  16.021 -0.0951 -0.1805 -0.3930
  765MPD2    C311295   2.793   2.562  16.033  0.6555  0.3003 -0.0227
  765MPD2    C411296   2.698   2.494  16.105  0.4422  0.1304  0.2530
  765MPD2    C511297   2.597   2.554  16.176 -0.1839  0.2170 -0.0608
  765MPD2     H11298   2.843   2.753  15.955  0.3240  0.6886  0.7340
  765MPD2    H111299   2.706   2.386  16.105  0.9619  0.1577 -1.9452
  765MPD2    H211300   2.520   2.743  16.231 -1.5273 -1.3024 -0.5509
  765MPD2    H311301   2.526   2.498  16.237  0.0085 -1.9597 -1.8066
  765MPD2     N11302   2.897   2.504  15.965 -0.0552 -0.5580 -0.3426
  765MPD2    H511303   2.956   2.563  15.906 -1.0062  1.7276  0.9950
  765MPD2    N111304   2.641   2.904  16.071  0.2931  0.4043  0.6880
  765MPD2    H711305   2.558   2.943  16.114 -0.0601 -0.9975  1.2676
  766MPD2     C11306   2.338   3.011  15.389  0.5137 -0.5166  0.0667
  766MPD2    C111307   2.462   3.074  15.422 -0.0270  0.7283  0.1257
  766MPD2    C211308   2.570   3.074  15.330 -0.1323  0.4053 -0.3219
  766MPD2    C311309   2.545   3.029  15.200  0.3612 -0.1176 -0.7375
  766MPD2    C411310   2.421   2.982  15.166  0.7114 -0.1468  0.7176
  766MPD2    C511311   2.324   2.974  15.263 -0.1625  0.0207  0.1845
  766MPD2     H11312   2.661   3.129  15.353 -0.7056  1.6562 -1.0340
  766MPD2    H111313   2.408   2.957  15.062  1.7836 -0.4931  0.6703
  766MPD2    H211314   2.258   3.009  15.463 -0.5268 -1.2658 -1.0703
  766MPD2    H311315   2.231   2.926  15.235  0.7039 -1.0696 -0.8538
  766MPD2     N11316   2.640   3.028  15.092 -0.3688 -0.0977 -0.1092
  766MPD2    H511317   2.608   3.002  14.999  2.8909 -1.4685 -0.8312
  766MPD2    N111318   2.497   3.136  15.549  0.4041 -0.6684 -0.1030
  766MPD2    H711319   2.588   3.180  15.551 -0.1149  0.3453  1.0546
  767MPD2     C11320   2.249   3.228  15.041 -0.3456  0.0894 -0.1828
  767MPD2    C111321   2.374   3.274  15.001 -0.2226  0.4375 -0.9578
  767MPD2    C211322   2.418   3.247  14.871  0.0821 -0.4562 -0.3586
  767MPD2    C311323   2.343   3.174  14.783  0.1534 -0.7525  1.6237
  767MPD2    C411324   2.227   3.116  14.828  0.3873 -0.1701 -0.5269
  767MPD2    C511325   2.176   3.146  14.955 -0.1694  0.3362 -0.2671
  767MPD2     H11326   2.505   3.298  14.830  0.4590  0.2192  1.3099
  767MPD2    H111327   2.168   3.050  14.765 -1.0927 -0.5849  1.2954
  767MPD2    H211328   2.219   3.237  15.145  0.2668 -0.1070  0.0099
  767MPD2    H311329   2.082   3.099  14.982 -0.2217 -0.5100 -1.9901
  767MPD2     N11330   2.393   3.148  14.656  0.0682  0.2122 -0.3196
  767MPD2    H511331   2.488   3.174  14.631  0.9301 -2.3407  0.3036
  767MPD2    N111332   2.451   3.346  15.102 -0.5033  0.8715  0.2473
  767MPD2    H711333   2.407   3.359  15.193 -1.1668  1.5693 -0.1714
  768MPD2     C11334   3.641   1.882  10.602  0.2932  0.1662  0.4244
  768MPD2    C111335   3.597   1.919  10.725 -0.2418 -0.2736  0.3855
  768MPD2    C211336   3.675   1.894  10.839  0.3857 -0.6121  0.9256
  768MPD2    C311337   3.800   1.827  10.831  0.6187  0.1891 -0.0553
  768MPD2    C411338   3.843   1.795  10.704  0.3893  0.2101 -0.3141
  768MPD2    C511339   3.770   1.833  10.593  0.0766  0.0996  0.2555
  768MPD2     H11340   3.641   1.938  10.932  0.5352  1.9306 -0.1981
  768MPD2    H111341   3.948   1.771  10.690 -0.3061 -2.2846 -1.1751
  768MPD2    H211342   3.591   1.913  10.511  1.5405  0.9047 -0.0126
  768MPD2    H311343   3.800   1.805  10.493 -3.0738  1.6285 -1.1004
  768MPD2     N11344   3.878   1.803  10.942 -0.0972 -0.7499  0.1314
  768MPD2    H511345   3.969   1.766  10.919  0.9468  0.6193  2.0670
  768MPD2    N111346   3.470   1.989  10.749  0.0798  0.1193  0.0008
  768MPD2    H711347   3.447   1.999  10.848 -0.6778 -0.4508 -0.1174
  769MPD2     C11348   4.377   0.100  15.115 -0.1706  0.6988 -0.0056
  769MPD2    C111349   4.291   0.032  15.199  0.1208 -0.1936  0.4137
  769MPD2    C211350   4.348   4.679  15.306 -0.6033  0.7355  0.6194
  769MPD2    C311351   4.475   4.686  15.341  0.6440 -0.5222  0.6297
  769MPD2    C411352   4.563   0.023  15.251 -0.8266  0.8095  0.1919
  769MPD2    C511353   4.513   0.093  15.141  0.4565  0.0828 -0.1013
  769MPD2     H11354   4.276   4.626  15.368 -1.2793  1.6696  0.6221
  769MPD2    H111355   4.670   0.030  15.261 -0.5293 -1.9764 -1.1461
  769MPD2    H211356   4.353   0.168  15.033  2.2262  0.9438 -0.4973
  769MPD2    H311357   4.584   0.142  15.075 -0.6844  0.7107 -0.8660
  769MPD2     N11358   4.516   4.632  15.471 -0.0951 -0.5746 -0.4216
  769MPD2    H511359   4.447   4.582  15.527 -1.1167  1.7088  0.3586
  769MPD2    N111360   4.152   0.039  15.175 -0.2074 -0.0183  0.2830
  769MPD2    H711361   4.124   0.077  15.085  2.8282  2.4176  0.3720
  770MPD2     C11362   3.495   4.202  15.655  0.0103 -0.1705 -0.6500
  770MPD2    C111363   3.565   4.146  15.548 -0.5483  0.3502  0.3121
  770MPD2    C211364   3.602   4.234  15.437 -0.0153 -0.3432  0.6582
  770MPD2    C311365   3.570   4.368  15.448  0.2519  0.0218 -0.3587
  770MPD2    C411366   3.497   4.417  15.559 -0.4147  0.2516 -0.3469
  770MPD2    C511367   3.469   4.333  15.666 -0.1781  0.3225 -0.3036
  770MPD2     H11368   3.668   4.204  15.356 -0.8612 -3.7216  1.1996
  770MPD2    H111369   3.465   4.520  15.554  0.4346  0.6321  1.9286
  770MPD2    H211370   3.456   4.141  15.735  0.2630 -1.3543 -1.4371
  770MPD2    H311371   3.408   4.363  15.750  0.1305  1.2024 -0.3929
  770MPD2     N11372   3.622   4.448  15.350  0.6451 -0.0606 -0.0414
  770MPD2    H511373   3.676   4.400  15.279 -0.1452 -1.0792  0.0383
  770MPD2    N111374   3.600   4.008  15.548 -0.1572  0.9694 -0.5211
  770MPD2    H711375   3.576   3.965  15.637  0.8497  1.7516  0.1377
  771MPD2     C11376   0.279   2.823  14.394  0.2556 -0.1270  0.3519
  771MPD2    C111377   0.249   2.916  14.299 -0.1998 -0.4731  0.3441
  771MPD2    C211378   0.227   2.863  14.174 -0.0997  1.1769 -0.3959
  771MPD2    C311379   0.241   2.732  14.141  0.0063  0.4401 -0.6643
  771MPD2    C411380   0.266   2.644  14.242  0.3322 -0.0497  0.1413
  771MPD2    C511381   0.272   2.689  14.369 -0.3489  0.0364  0.2479
  771MPD2     H11382   0.193   2.930  14.095  0.6061  0.9029 -0.9344
  771MPD2    H111383   0.274   2.537  14.227 -1.4944 -0.5407  2.7627
  771MPD2    H211384   0.279   2.852  14.498  1.5673  0.1066  0.2859
  771MPD2    H311385   0.278   2.628  14.459 -1.1866  1.7416  1.4601
  771MPD2     N11386   0.211   2.702  14.007  0.1231 -0.0639 -0.7031
  771MPD2    H511387   0.186   2.784  13.953 -0.5208  1.2313  1.5454
  771MPD2    N111388   0.217   3.050  14.318  0.4625  0.0454  0.1358
  771MPD2    H711389   0.200   3.098  14.230 -1.4846 -0.9937 -0.0594
  772MPD2     C11390   4.684   3.104  13.894 -0.4401  0.3233 -0.1428
  772MPD2    C111391   4.644   3.200  13.985 -0.0816  0.0401 -0.2284
  772MPD2    C211392   4.508   3.220  14.013 -0.2332 -0.4653 -0.0153
  772MPD2    C311393   4.407   3.148  13.947  0.0126  0.0474  0.3949
  772MPD2    C411394   4.458   3.050  13.848  0.5141  0.3781 -0.6433
  772MPD2    C511395   4.594   3.022  13.841 -0.5231  0.0962  0.3013
  772MPD2     H11396   4.480   3.295  14.086  2.2021  0.7576 -0.3295
  772MPD2    H111397   4.389   2.985  13.794  0.8613  0.6581 -1.4266
  772MPD2    H211398   0.068   3.076  13.887  0.0690  2.0549  0.6469
  772MPD2    H311399   4.631   2.944  13.775 -0.9249  1.1949 -1.2218
  772MPD2     N11400   4.274   3.166  13.971  0.0001 -0.2678  0.3161
  772MPD2    H511401   4.205   3.145  13.900 -1.7809 -0.2566  2.0314
  772MPD2    N111402   0.017   3.272  14.066  0.2543 -0.6570  0.1416
  772MPD2    H711403   4.701   3.340  14.132 -0.1705 -0.5435 -0.2132
  773MPD2     C11404   3.913   3.732   0.778  0.8698 -0.0238 -0.1409
  773MPD2    C111405   4.020   3.766   0.696 -0.3656  0.0425 -0.4511
  773MPD2    C211406   4.149   3.763   0.748 -0.1706  0.3260  0.5916
  773MPD2    C311407   4.176   3.739   0.879  0.0838 -0.3583 -0.0609
  773MPD2    C411408   4.068   3.717   0.960 -0.5646 -0.2466 -0.2723
  773MPD2    C511409   3.939   3.714   0.914  0.1841 -0.0323  0.2395
  773MPD2     H11410   4.235   3.788   0.686 -0.6511 -0.3009 -0.3270
  773MPD2    H111411   4.075   3.704   1.067 -2.0059 -0.5135 -0.2086
  773MPD2    H211412   3.811   3.735   0.741 -0.3461  0.7506  3.2949
  773MPD2    H311413   3.846   3.699   0.968  1.1834 -2.2384  1.3695
  773MPD2     N11414   4.307   3.735   0.920  0.1576  0.0669 -0.3362
  773MPD2    H511415   4.374   3.761   0.848 -1.3164  0.0518 -1.7176
  773MPD2    N111416   3.992   3.792   0.558  0.0510 -0.1847 -0.3574
  773MPD2    H711417   3.901   3.765   0.521 -0.2132  0.5485 -0.2554
  774MPD2     C11418   2.593   3.021  13.400  0.0768 -0.0474 -0.5160
  774MPD2    C111419   2.712   3.065  13.460  1.0183  0.1425 -0.0172
  774MPD2    C211420   2.782   3.166  13.395 -0.5008  0.0456  0.5721
  774MPD2    C311421   2.735   3.237  13.285 -0.5825  0.2079  0.0670
  774MPD2    C411422   2.608   3.189  13.235 -0.0025 -0.0273  0.0122
  774MPD2    C511423   2.538   3.088  13.295 -0.5679 -0.0060  0.3809
  774MPD2     H11424   2.864   3.205  13.454  1.2140 -1.9153 -0.5173
  774MPD2    H111425   2.554   3.236  13.153 -0.9882  0.8655  1.1921
  774MPD2    H211426   2.529   2.946  13.445  0.5951  0.0745  0.4103
  774MPD2    H311427   2.442   3.061  13.252 -0.8560  0.6435  0.6077
  774MPD2     N11428   2.808   3.336  13.216 -0.1022 -0.3025  0.0865
  774MPD2    H511429   2.763   3.386  13.140  0.1840 -2.7257 -1.6451
  774MPD2    N111430   2.777   3.007  13.574 -0.1710  0.0581 -0.5583
  774MPD2    H711431   2.864   3.050  13.604  1.0041 -2.2762 -0.6028
  775MPD2     C11432   0.031   4.308  16.086 -0.1614  0.7212  0.0655
  775MPD2    C111433   4.700   4.412  16.160 -0.0611 -0.4464  0.2935
  775MPD2    C211434   0.041   4.537  16.162  0.1937  0.3413 -0.4065
  775MPD2    C311435   0.154   4.560  16.078 -0.2766  0.2487  0.1391
  775MPD2    C411436   0.208   4.451  16.008 -0.0045  0.2379  0.1697
  775MPD2    C511437   0.156   4.324  16.024  0.4402 -0.0559 -0.5278
  775MPD2     H11438   0.009   4.617  16.228  1.6570 -0.4419  1.2558
  775MPD2    H111439   0.306   4.464  15.962  0.0664 -0.6942  0.0597
  775MPD2    H211440   4.704   4.211  16.082  0.1623  0.5859 -0.4585
  775MPD2    H311441   0.214   4.243  15.983 -2.7257 -1.7801 -1.5935
  775MPD2     N11442   0.237   4.680  16.068 -0.1773 -0.3292  0.0609
  775MPD2    H511443   0.307   4.687  15.994  1.0063 -4.4351  0.7486
  775MPD2    N111444   4.572   4.393  16.223 -0.0107 -0.4560 -0.5296
  775MPD2    H711445   4.537   4.298  16.218  0.9825 -0.8654  0.4099
  776MPD2     C11446   4.061   0.427  12.214  0.1245 -1.0158  0.0416
  776MPD2    C111447   3.969   0.418  12.115 -0.1320  0.0467  0.2215
  776MPD2    C211448   3.972   0.527  12.028  0.0848 -0.0837 -0.5633
  776MPD2    C311449   4.055   0.641  12.049 -0.1989  0.4080  0.5487
  776MPD2    C411450   4.134   0.642  12.158 -0.2715 -0.1641 -0.0242
  776MPD2    C511451   4.142   0.536  12.237 -0.6633  0.6777 -0.2155
  776MPD2     H11452   3.909   0.529  11.940  1.9809  0.4137 -1.9059
  776MPD2    H111453   4.191   0.725  12.196 -2.6670  1.7901 -0.6639
  776MPD2    H211454   4.069   0.345  12.285  1.1759  0.7734  1.9961
  776MPD2    H311455   4.212   0.540  12.319 -1.4008  0.8773  0.4040
  776MPD2     N11456   4.054   0.759  11.979  0.0823 -0.2430 -0.2563
  776MPD2    H511457   4.122   0.830  12.004  0.1590  0.3557 -2.1525
  776MPD2    N111458   3.900   0.297  12.089  0.1391 -0.2380 -0.5663
  776MPD2    H711459   3.932   0.219  12.146  1.9857  0.1612 -1.0471
  777MPD2     C11460   3.774   2.656   0.821  0.0544 -0.5851  0.2403
  777MPD2    C111461   3.677   2.593   0.897  0.2718 -0.2551  1.0927
  777MPD2    C211462   3.560   2.554   0.829  0.3065  0.5305  0.8916
  777MPD2    C311463   3.540   2.572   0.692  0.4259  0.0056 -0.2144
  777MPD2    C411464   3.637   2.631   0.628 -0.0340  0.6717  0.1173
  777MPD2    C511465   3.751   2.678   0.689 -0.4825  0.1105 -0.3302
  777MPD2     H11466   3.481   2.500   0.881  0.0120  1.1364  1.0715
  777MPD2    H111467   3.630   2.658   0.523  2.1000  0.1428 -0.1536
  777MPD2    H211468   3.870   2.696   0.851 -0.3958 -0.3242  1.3267
  777MPD2    H311469   3.826   2.737   0.638  0.3001  0.6700  1.4562
  777MPD2     N11470   3.419   2.526   0.634 -0.0716  0.2511 -0.2288
  777MPD2    H511471   3.359   2.479   0.701 -1.6641  3.0796  0.3392
  777MPD2    N111472   3.689   2.580   1.038  0.3069 -0.7626  0.6598
  777MPD2    H711473   3.784   2.589   1.074  0.2084  0.5614  0.5852
  778MPD2     C11474   0.346   2.828  14.966 -0.2262 -0.5177  0.1046
  778MPD2    C111475   0.393   2.705  14.963  0.4153  0.2725  0.1224
  778MPD2    C211476   0.462   2.652  14.862  0.0990  0.7523  0.0406
  778MPD2    C311477   0.478   2.718  14.748  0.0652 -0.4891  0.2654
  778MPD2    C411478   0.420   2.843  14.742 -0.0533  0.9546  0.4819
  778MPD2    C511479   0.360   2.902  14.851  0.0664 -0.4215  0.1788
  778MPD2     H11480   0.498   2.550  14.872 -0.5973  0.6495  1.4536
  778MPD2    H111481   0.427   2.896  14.648  0.0959 -0.6330 -0.3902
  778MPD2    H211482   0.278   2.872  15.038  2.9513  2.4855  1.2560
  778MPD2    H311483   0.318   3.000  14.831  0.9788  0.1565  1.0618
  778MPD2     N11484   0.559   2.668  14.642 -0.7055  0.5590 -0.0198
  778MPD2    H511485   0.585   2.570  14.655 -1.6226  0.1816 -0.9897
  778MPD2    N111486   0.366   2.618  15.073  0.1568 -0.4221 -0.3791
  778MPD2    H711487   0.421   2.533  15.068 -0.5446 -0.9185  0.3717
  779MPD2     C11488   0.226   1.676  14.710  0.3715  0.1998  0.8860
  779MPD2    C111489   0.263   1.639  14.583 -0.5414 -0.0356 -0.1154
  779MPD2    C211490   0.225   1.721  14.479  0.7890  0.5320 -0.2985
  779MPD2    C311491   0.169   1.845  14.500  0.5819 -1.1315  0.7233
  779MPD2    C411492   0.129   1.881  14.622 -0.2083  1.1836 -0.5275
  779MPD2    C511493   0.156   1.789  14.726 -0.5170 -0.6273  0.6063
  779MPD2     H11494   0.249   1.695  14.376  1.2072  0.3125 -0.1460
  779MPD2    H111495   0.076   1.972  14.647 -1.3623  1.2084 -3.0692
  779MPD2    H211496   0.241   1.619  14.802 -0.6355  0.9545  1.5170
  779MPD2    H311497   0.122   1.819  14.824 -0.6856  3.5434 -0.7092
  779MPD2     N11498   0.158   1.927  14.385 -0.9396 -0.1129 -0.1189
  779MPD2    H511499   0.182   1.893  14.293  1.5248 -0.8824  0.8084
  779MPD2    N111500   0.347   1.522  14.558 -0.5930 -0.0602 -0.7180
  779MPD2    H711501   0.345   1.490  14.461 -2.4196 -4.1667  0.6351
  780MPD2     C11502   3.403   1.176  17.478 -1.2126  0.8768 -0.2044
  780MPD2    C111503   3.468   1.113  17.580 -0.0636  0.0395  1.2374
  780MPD2    C211504   3.590   1.165  17.623 -0.0337 -0.1590  0.0544
  780MPD2    C311505   3.641   1.286  17.578 -0.2953 -0.8257  0.6374
  780MPD2    C411506   3.572   1.351  17.480 -0.2319 -0.8106  0.1080
  780MPD2    C511507   3.457   1.294  17.434  0.1764  0.7150  0.4686
  780MPD2     H11508   3.650   1.110   0.009  0.1036  0.9398  0.7868
  780MPD2    H111509   3.611   1.430  17.416  0.8993 -1.8697 -0.5204
  780MPD2    H211510   3.308   1.137  17.444 -0.1181  0.2719 -2.6340
  780MPD2    H311511   3.411   1.343  17.349  0.1225 -0.9435 -0.4726
  780MPD2     N11512   3.769   1.331  17.630  0.0216  0.1501  0.0240
  780MPD2    H511513   3.813   1.271   0.013 -0.5496 -0.3273 -0.0282
  780MPD2    N111514   3.414   0.990  17.638  0.5158 -0.2107  0.5407
  780MPD2    H711515   3.349   0.934  17.583  0.2252  0.5526  0.1050
  781MPD2     C11516   1.203   3.131  11.999 -0.5070 -0.4444 -0.0457
  781MPD2    C111517   1.305   3.179  12.079 -0.2505  0.4278 -0.4791
  781MPD2    C211518   1.350   3.304  12.051 -0.5854 -0.1991  0.7212
  781MPD2    C311519   1.303   3.371  11.938  0.3978 -0.2494  0.1266
  781MPD2    C411520   1.208   3.325  11.860  0.4914 -0.6766  0.4791
  781MPD2    C511521   1.162   3.203  11.894 -0.5937 -1.3629 -0.3724
  781MPD2     H11522   1.425   3.346  12.118 -0.1497  1.1980 -0.6628
  781MPD2    H111523   1.175   3.385  11.776  1.1448  0.0655  0.7515
  781MPD2    H211524   1.163   3.030  12.006 -0.5760 -0.4802 -0.8988
  781MPD2    H311525   1.088   3.165  11.824 -0.4459 -0.7329 -0.8850
  781MPD2     N11526   1.376   3.484  11.906 -0.0528  0.8350  0.3552
  781MPD2    H511527   1.431   3.528  11.979  0.0506 -1.3286  1.5669
  781MPD2    N111528   1.348   3.108  12.195  0.1726 -0.1262 -0.3670
  781MPD2    H711529   1.293   3.027  12.222 -2.5818  0.6991 -3.4445
  782MPD2     C11530   4.311   4.319  10.857  0.5364  0.2989  0.1835
  782MPD2    C111531   4.446   4.299  10.852 -0.1984  0.3333 -0.7258
  782MPD2    C211532   4.519   4.370  10.939  0.3679  0.8087  0.4078
  782MPD2    C311533   4.477   4.445  11.034  0.0328 -0.8195  0.4923
  782MPD2    C411534   4.342   4.459  11.047  0.4489  0.0816  0.7801
  782MPD2    C511535   4.261   4.399  10.959  0.2039 -0.1839 -0.3186
  782MPD2     H11536   4.626   4.348  10.935  0.8639  3.0464  1.3346
  782MPD2    H111537   4.294   4.526  11.118 -1.0133 -0.2384  0.0815
  782MPD2    H211538   4.248   4.276  10.779  0.1155  1.3034 -0.0344
  782MPD2    H311539   4.156   4.418  10.976  0.6806 -0.6651  3.1960
  782MPD2     N11540   4.572   4.476  11.135  0.5012 -0.0325 -0.1396
  782MPD2    H511541   4.672   4.459  11.128  0.9923  2.8853 -0.2519
  782MPD2    N111542   4.500   4.206  10.762 -0.5290  0.1935 -0.4526
  782MPD2    H711543   4.436   4.144  10.713  1.1933 -2.4452  0.6069
  783MPD2     C11544   4.289   3.607  11.145  0.0333  0.1114  0.0886
  783MPD2    C111545   4.305   3.737  11.172  0.7456 -0.5865  0.6393
  783MPD2    C211546   4.404   3.811  11.110 -0.3130 -0.2020  0.4211
  783MPD2    C311547   4.490   3.746  11.020  0.0578 -0.4520 -0.5397
  783MPD2    C411548   4.475   3.613  11.000 -0.3016 -0.2143  0.0729
  783MPD2    C511549   4.380   3.542  11.065  0.4247 -0.0910 -0.0564
  783MPD2     H11550   4.425   3.913  11.139 -0.6280 -0.6959  2.3420
  783MPD2    H111551   4.541   3.552  10.939  1.0352  0.1763  1.1626
  783MPD2    H211552   4.213   3.545  11.192 -0.4354  0.4441 -0.2377
  783MPD2    H311553   4.362   3.442  11.025 -0.3131 -0.7552  1.9311
  783MPD2     N11554   4.586   3.821  10.942 -0.2254  0.1639  0.4224
  783MPD2    H511555   4.578   3.921  10.961  2.1453  0.3491  0.4272
  783MPD2    N111556   4.224   3.783  11.270  0.3242 -0.2935  0.8029
  783MPD2    H711557   4.150   3.718  11.296  2.7245 -3.5806 -0.6906
  784MPD2     C11558   2.349   4.357   1.024 -0.0833 -0.0747  0.0845
  784MPD2    C111559   2.372   4.487   0.989 -0.2282  0.2376 -0.2198
  784MPD2    C211560   2.303   4.546   0.886 -0.2577 -0.4436 -0.2935
  784MPD2    C311561   2.218   4.473   0.807 -0.3352  0.6275 -0.1141
  784MPD2    C411562   2.193   4.343   0.839 -0.4938  0.5481  0.7866
  784MPD2    C511563   2.266   4.289   0.941 -0.0406 -0.0622 -0.7045
  784MPD2     H11564   2.316   4.651   0.863 -0.9233 -0.2108  0.3930
  784MPD2    H111565   2.124   4.276   0.788 -1.4998 -0.2909  3.2868
  784MPD2    H211566   2.395   4.298   1.102 -0.6575 -0.0651  0.4282
  784MPD2    H311567   2.226   4.191   0.964 -1.1070  0.3797 -0.6803
  784MPD2     N11568   2.125   4.529   0.711  0.6038 -0.1887 -0.5130
  784MPD2    H511569   2.051   4.468   0.677  1.0552 -0.1868 -1.4831
  784MPD2    N111570   2.476   4.566   1.060  0.1467  0.1385  0.2581
  784MPD2    H711571   2.477   4.663   1.031 -0.7224  0.5347  1.5308
  785MPD2     C11572   2.209   2.643  10.916 -0.7226 -0.9450 -0.2191
  785MPD2    C111573   2.161   2.770  10.938 -0.5729 -0.1755 -0.0447
  785MPD2    C211574   2.038   2.807  10.894 -0.0676 -0.1264 -0.6640
  785MPD2    C311575   1.960   2.722  10.822  0.0665 -0.0261 -0.2531
  785MPD2    C411576   2.000   2.592  10.809  0.5655  0.2391 -0.1432
  785MPD2    C511577   2.125   2.553  10.856 -0.2447 -0.0652 -0.0443
  785MPD2     H11578   2.010   2.911  10.903 -2.6539 -0.8257 -0.7968
  785MPD2    H111579   1.939   2.527  10.748  0.6748  0.9175 -0.9722
  785MPD2    H211580   2.308   2.608  10.943 -0.6133 -0.2997  0.2169
  785MPD2    H311581   2.159   2.450  10.852  1.2218  0.4120  0.1976
  785MPD2     N11582   1.827   2.763  10.791 -0.6110 -0.5934  0.0798
  785MPD2    H511583   1.809   2.859  10.817  1.7479 -0.2980  0.6186
  785MPD2    N111584   2.251   2.860  11.002 -0.4209 -0.0779  0.1263
  785MPD2    H711585   2.349   2.833  11.005  0.0006  1.5599  0.9620
  786MPD2     C11586   0.616   0.755  15.529  1.1344  0.0551  0.2129
  786MPD2    C111587   0.745   0.773  15.484  0.4151 -0.5857  0.1882
  786MPD2    C211588   0.849   0.765  15.572  0.0299 -0.0219  0.0881
  786MPD2    C311589   0.837   0.740  15.706 -0.8656 -0.4692  0.0382
  786MPD2    C411590   0.703   0.722  15.750  0.1682 -0.3087 -0.0722
  786MPD2    C511591   0.599   0.727  15.662  0.5736  0.3892  0.5288
  786MPD2     H11592   0.943   0.795  15.526  0.5995  0.2047  1.3957
  786MPD2    H111593   0.674   0.689  15.849 -0.2675 -0.1730 -0.1548
  786MPD2    H211594   0.526   0.761  15.470 -0.1518  0.4835  2.2363
  786MPD2    H311595   0.502   0.697  15.701  1.1386 -1.1861  0.7490
  786MPD2     N11596   0.941   0.738  15.798 -0.1228  0.2500  0.1739
  786MPD2    H511597   0.917   0.706  15.891  2.0441  0.0483  0.6804
  786MPD2    N111598   0.784   0.779  15.344 -0.0107 -0.1166  0.4018
  786MPD2    H711599   0.882   0.773  15.319 -0.2611 -1.9590 -0.1182
  787MPD2     C11600   1.286   0.558  15.291 -0.1653  0.0875  0.6787
  787MPD2    C111601   1.188   0.479  15.240 -1.2489  0.9761  0.4876
  787MPD2    C211602   1.212   0.343  15.246  0.2385 -0.0061 -0.4871
  787MPD2    C311603   1.316   0.289  15.311 -0.6970 -0.1062  0.0492
  787MPD2    C411604   1.409   0.370  15.377 -0.8381  0.5806  0.0059
  787MPD2    C511605   1.388   0.505  15.365  0.0168 -0.3161 -0.0232
  787MPD2     H11606   1.140   0.273  15.206 -0.8884  0.9456 -0.1396
  787MPD2    H111607   1.501   0.340  15.426  0.5616 -0.4400 -3.2244
  787MPD2    H211608   1.293   0.665  15.274  0.6151 -0.1911 -0.7686
  787MPD2    H311609   1.464   0.575  15.399 -0.9354  0.2671  0.8844
  787MPD2     N11610   1.314   0.150  15.317 -0.3437  0.4023  0.6427
  787MPD2    H511611   1.239   0.101  15.270  1.5477  0.3466 -2.2822
  787MPD2    N111612   1.073   0.532  15.165  0.1189 -0.5638 -0.0654
  787MPD2    H711613   1.056   0.632  15.156  0.6492 -0.2324  2.6895
  788MPD2     C11614   1.550   3.515   1.621  0.2702 -0.1043 -0.7116
  788MPD2    C111615   1.582   3.406   1.540  0.0327 -0.3757 -0.2852
  788MPD2    C211616   1.617   3.435   1.408 -0.4804  1.5360  0.2701
  788MPD2    C311617   1.638   3.566   1.369  0.0421 -0.1592  0.8617
  788MPD2    C411618   1.625   3.672   1.454  0.9762 -0.2940 -0.2189
  788MPD2    C511619   1.574   3.643   1.579  0.5564  0.2828 -0.0936
  788MPD2     H11620   1.633   3.354   1.337 -0.4768 -1.5620  3.7927
  788MPD2    H111621   1.631   3.774   1.419 -0.2276 -0.9414 -2.3186
  788MPD2    H211622   1.527   3.503   1.726  1.7871  3.3485  0.0505
  788MPD2    H311623   1.542   3.727   1.640 -1.9810  0.7352 -2.0742
  788MPD2     N11624   1.676   3.596   1.236 -0.2026  0.5011  0.1837
  788MPD2    H511625   1.704   3.692   1.221 -0.8712  0.9611  1.8352
  788MPD2    N111626   1.580   3.276   1.581  0.5021  0.7399  0.1384
  788MPD2    H711627   1.590   3.200   1.514 -2.7177 -0.1021  0.6215
  789MPD2     C11628   2.882   3.113  16.732 -0.1180  1.2271  0.1545
  789MPD2    C111629   2.795   3.118  16.847  0.5678  0.0520  0.5186
  789MPD2    C211630   2.708   3.226  16.857 -0.2063 -0.2865 -0.1835
  789MPD2    C311631   2.689   3.313  16.752 -0.0302 -0.4467 -0.3691
  789MPD2    C411632   2.758   3.301  16.638 -0.0677 -0.5321 -0.8550
  789MPD2    C511633   2.864   3.209  16.629 -0.1783 -0.2509  0.7744
  789MPD2     H11634   2.643   3.238  16.942 -0.0770  1.1964 -0.2989
  789MPD2    H111635   2.745   3.375  16.559  0.5033 -0.8297 -1.2279
  789MPD2    H211636   2.960   3.038  16.724 -0.4220  0.7010  2.0497
  789MPD2    H311637   2.930   3.205  16.543 -0.2660 -1.0086  0.7432
  789MPD2     N11638   2.599   3.416  16.764  0.0350  0.2847  0.1863
  789MPD2    H511639   2.581   3.470  16.680  0.8548  0.3144  0.0354
  789MPD2    N111640   2.795   3.026  16.951  0.1841  0.0496 -0.5783
  789MPD2    H711641   2.749   3.058  17.035  1.4874 -2.2460  1.0135
  790MPD2     C11642   4.026   0.867  13.889 -0.6715 -1.0324 -0.1044
  790MPD2    C111643   4.092   0.751  13.867 -0.1522 -0.1340 -0.6420
  790MPD2    C211644   4.102   0.688  13.746  0.4077  0.0416  0.2858
  790MPD2    C311645   4.018   0.737  13.645 -0.1842 -0.1097 -0.2272
  790MPD2    C411646   3.952   0.859  13.663 -0.4253  0.2360  0.2976
  790MPD2    C511647   3.949   0.919  13.788  0.4924 -0.3144 -0.2936
  790MPD2     H11648   4.166   0.601  13.741  0.4981 -0.0306  2.6070
  790MPD2    H111649   3.891   0.900  13.583 -0.4397  1.2241  0.8271
  790MPD2    H211650   4.031   0.927  13.980 -0.2037  0.0515 -0.8478
  790MPD2    H311651   3.890   1.007  13.809  2.7535  1.2790 -0.6852
  790MPD2     N11652   4.004   0.665  13.518 -0.1605 -0.1045  0.8965
  790MPD2    H511653   4.074   0.592  13.508 -1.0853 -0.8818  0.0415
  790MPD2    N111654   4.160   0.701  13.980 -0.3311 -0.2551  0.4529
  790MPD2    H711655   4.117   0.730  14.067  0.7009  0.4194  0.7415
  791MPD2     C11656   3.386   0.519  13.007  0.1902 -0.5498  0.4371
  791MPD2    C111657   3.464   0.409  13.044 -0.2949 -0.6219 -0.3778
  791MPD2    C211658   3.419   0.280  13.031 -0.1037  0.0225 -0.2075
  791MPD2    C311659   3.306   0.257  12.959 -0.4684  0.2015  0.2790
  791MPD2    C411660   3.228   0.369  12.917  0.0907 -0.0881 -0.7047
  791MPD2    C511661   3.272   0.501  12.934 -0.3937 -0.1264  1.1445
  791MPD2     H11662   3.483   0.199  13.065 -1.1219 -0.6734  0.0412
  791MPD2    H111663   3.130   0.366  12.870 -0.2772 -0.0652  0.0549
  791MPD2    H211664   3.421   0.620  13.024  2.3724 -1.8015  3.3833
  791MPD2    H311665   3.209   0.574  12.885  3.6903  1.4266 -1.8378
  791MPD2     N11666   3.273   0.120  12.927  0.5192  0.0962  0.1081
  791MPD2    H511667   3.322   0.049  12.980  0.0304 -0.6217 -0.4097
  791MPD2    N111668   3.586   0.432  13.106 -0.1201  0.2298  0.6611
  791MPD2    H711669   3.611   0.530  13.103  1.2076 -0.1403 -0.4290
  792MPD2     C11670   4.293   0.116  11.691  0.1645  0.1469 -0.3401
  792MPD2    C111671   4.173   0.182  11.690 -1.1651  0.8213  0.4974
  792MPD2    C211672   4.055   0.114  11.679 -1.1524  0.7154 -0.1228
  792MPD2    C311673   4.047   4.698  11.682  0.0367  0.2093  0.2496
  792MPD2    C411674   4.166   4.629  11.674  0.1076 -0.3542 -0.9973
  792MPD2    C511675   4.286   4.696  11.679  0.0096 -1.1619 -0.6301
  792MPD2     H11676   3.961   0.164  11.660  0.1368  2.7136 -1.1879
  792MPD2    H111677   4.167   4.520  11.681  2.1711 -0.1349  2.1072
  792MPD2    H211678   4.396   0.152  11.692 -0.2875  1.4849 -1.4048
  792MPD2    H311679   4.381   4.645  11.686  0.2936  0.0300  4.5472
  792MPD2     N11680   3.927   4.628  11.668 -0.1096 -0.1084  0.0047
  792MPD2    H511681   3.934   4.527  11.666 -0.0897 -0.1274  0.7684
  792MPD2    N111682   4.181   0.318  11.687  0.7238  0.2983  0.6221
  792MPD2    H711683   4.275   0.356  11.676  0.5582  0.1155 -1.4435
  793MPD2     C11684   3.481   4.597  10.819 -0.2973 -0.5682 -0.1812
  793MPD2    C111685   3.600   4.548  10.858 -0.0218  0.6599  0.0455
  793MPD2    C211686   3.637   4.548  10.994 -0.6566 -0.0457  0.6131
  793MPD2    C311687   3.549   4.588  11.092  0.3095  0.5543  0.1386
  793MPD2    C411688   3.418   4.621  11.053 -0.1178 -0.5005  0.5011
  793MPD2    C511689   3.387   4.630  10.919  0.4415 -0.0218  0.2895
  793MPD2     H11690   3.740   4.525  11.016 -1.2549 -2.3142  1.0470
  793MPD2    H111691   3.339   4.621  11.127  0.7927 -0.5682  1.4709
  793MPD2    H211692   3.456   4.609  10.714 -0.6319  1.4225  0.1197
  793MPD2    H311693   3.287   4.667  10.896  0.3552  0.1692  0.9671
  793MPD2     N11694   3.585   4.572  11.230  0.5827  0.0554 -0.0255
  793MPD2    H511695   3.679   4.536  11.247  0.5919  0.7845  1.4944
  793MPD2    N111696   3.689   4.505  10.758  0.0032 -0.3176 -0.0927
  793MPD2    H711697   3.654   4.504  10.663 -1.3739  1.6384  0.3804
  794MPD2     C11698   3.843   4.268  17.643 -0.2043  0.1792  0.0235
  794MPD2    C111699   3.886   4.164  17.569  0.4512  0.1318  0.6574
  794MPD2    C211700   3.837   4.143  17.440 -0.8274 -0.6171 -1.0427
  794MPD2    C311701   3.755   4.232  17.384 -0.0712 -0.2212 -0.4298
  794MPD2    C411702   3.726   4.348  17.454 -0.2248  0.1203 -0.1509
  794MPD2    C511703   3.778   4.369  17.581  0.0652 -0.4915 -0.0392
  794MPD2     H11704   3.867   4.046  17.403  1.3427 -0.1770 -0.4301
  794MPD2    H111705   3.673   4.432  17.412 -5.8668 -3.5996 -0.5093
  794MPD2    H211706   3.873   4.279   0.060  0.7293 -0.9035 -0.1316
  794MPD2    H311707   3.760   4.465  17.628  2.1149  0.5506 -1.3702
  794MPD2     N11708   3.673   4.199  17.270 -0.0571 -0.0745 -0.9054
  794MPD2    H511709   3.617   4.274  17.231  0.5594  0.5446 -0.5911
  794MPD2    N111710   3.952   4.055  17.625 -0.2653 -0.1013  0.3333
  794MPD2    H711711   3.958   3.973  17.566  1.5768  0.4715 -0.2684
  795MPD2     C11712   1.908   1.749  13.337 -0.2956  0.4232  0.3555
  795MPD2    C111713   1.885   1.716  13.467  0.6934  0.4497  0.2472
  795MPD2    C211714   1.986   1.650  13.534  0.0029  0.4052 -0.3271
  795MPD2    C311715   2.108   1.624  13.470  0.3857 -0.2819  0.1126
  795MPD2    C411716   2.133   1.671  13.344 -0.4884 -0.3914  0.4941
  795MPD2    C511717   2.029   1.731  13.278  0.1532  0.2218  0.7313
  795MPD2     H11718   1.973   1.624  13.639 -0.8795  1.0549 -0.2818
  795MPD2    H111719   2.224   1.650  13.290  1.3500  0.9364  3.0626
  795MPD2    H211720   1.844   1.808  13.271 -0.9580  0.6742  1.2132
  795MPD2    H311721   2.046   1.776  13.181  0.6291  2.6877  1.9612
  795MPD2     N11722   2.205   1.553  13.543 -0.0069 -0.1196 -0.1907
  795MPD2    H511723   2.198   1.546  13.644  1.7676 -0.1567 -0.0787
  795MPD2    N111724   1.765   1.740  13.526 -0.2033 -0.8074  0.0996
  795MPD2    H711725   1.758   1.722  13.626  0.8145  0.1164  0.3439
  796MPD2     C11726   0.847   3.182  15.965 -0.3937  0.1986 -0.2701
  796MPD2    C111727   0.916   3.243  16.070 -0.2647  0.2999  0.2296
  796MPD2    C211728   0.927   3.383  16.072  0.5712 -0.1897  0.2570
  796MPD2    C311729   0.865   3.463  15.979  0.3651 -0.2431 -0.2742
  796MPD2    C411730   0.793   3.397  15.883 -0.1919  0.0561  0.0746
  796MPD2    C511731   0.786   3.261  15.876 -0.0688  0.8096 -0.2778
  796MPD2     H11732   0.984   3.430  16.152 -0.6343  2.4864 -0.4568
  796MPD2    H111733   0.737   3.450  15.807 -3.4514  1.1556  3.2397
  796MPD2    H211734   0.824   3.077  15.978 -2.0135  0.7850  1.6065
  796MPD2    H311735   0.711   3.222  15.807 -1.6381  0.5497  1.5630
  796MPD2     N11736   0.861   3.602  15.994  0.8032 -0.2612  0.1971
  796MPD2    H511737   0.904   3.643  16.076 -1.5093 -0.1755  1.3765
  796MPD2    N111738   0.958   3.153  16.168  0.9138 -0.4530 -0.5370
  796MPD2    H711739   0.936   3.055  16.153 -0.6962 -0.2480  0.4287
  797MPD2     C11740   2.294   2.854   0.119  0.7229  0.5958 -0.1760
  797MPD2    C111741   2.161   2.888   0.131  0.1712 -0.0611 -0.2337
  797MPD2    C211742   2.101   2.963   0.036 -0.1254 -0.2554 -0.0026
  797MPD2    C311743   2.166   2.982  17.601  0.3948  0.4417  0.7600
  797MPD2    C411744   2.301   2.951  17.589 -0.2876  0.1234 -0.2076
  797MPD2    C511745   2.366   2.889   0.008 -0.4700  0.0087 -0.8141
  797MPD2     H11746   1.995   2.984   0.047  0.3236  0.3502  3.0405
  797MPD2    H111747   2.358   2.990  17.505  0.8484  1.0369  0.9759
  797MPD2    H211748   2.339   2.783   0.188 -2.1909 -1.1877 -0.1154
  797MPD2    H311749   2.464   2.842   0.003  0.0364  1.0506 -0.6424
  797MPD2     N11750   2.094   3.035  17.491  0.2319 -0.5915 -0.1387
  797MPD2    H511751   2.004   3.072  17.520 -0.3063 -1.4955 -0.6623
  797MPD2    N111752   2.068   2.852   0.232 -0.3180 -0.5038  0.3907
  797MPD2    H711753   1.971   2.878   0.221 -0.6150 -0.2074  3.6765
  798MPD2     C11754   1.545   2.731  17.423 -0.2055 -0.2334 -0.3978
  798MPD2    C111755   1.619   2.832  17.485  0.3043 -0.7030 -0.2518
  798MPD2    C211756   1.642   2.819  17.625 -0.3481  0.2161  0.6467
  798MPD2    C311757   1.603   2.705   0.008  0.1424  0.4309 -0.4127
  798MPD2    C411758   1.545   2.598  17.627 -0.1588  0.0052 -0.4767
  798MPD2    C511759   1.515   2.620  17.493 -0.1730 -0.1470 -0.2180
  798MPD2     H11760   1.696   2.895  17.680 -0.3205  0.6794 -0.0112
  798MPD2    H111761   1.522   2.507  17.681  0.3310  1.3247  1.9615
  798MPD2    H211762   1.534   2.732  17.315  2.1401  0.5483 -0.6491
  798MPD2    H311763   1.472   2.535  17.440 -1.6023 -0.9910  2.2678
  798MPD2     N11764   1.659   2.692   0.135 -0.2199 -0.4859  0.7282
  798MPD2    H511765   1.715   2.773   0.160 -1.5012  1.0301 -1.2891
  798MPD2    N111766   1.656   2.940  17.396 -0.6291 -0.3290 -0.0086
  798MPD2    H711767   1.631   2.928  17.299 -0.4300 -1.2676  0.0554
  799MPD2     C11768   0.749   4.524  15.114  0.0789 -0.3755  0.2959
  799MPD2    C111769   0.702   4.471  14.997  0.5615 -0.4718 -0.9936
  799MPD2    C211770   0.686   4.552  14.888  0.8042 -0.7805 -0.7861
  799MPD2    C311771   0.727   4.687  14.895  0.1553  0.5264 -0.4026
  799MPD2    C411772   0.771   0.019  15.017  0.4206  0.5880  0.0271
  799MPD2    C511773   0.787   4.655  15.124 -0.1181  0.1572  0.5075
  799MPD2     H11774   0.638   4.506  14.802  0.0203 -1.3789 -0.0255
  799MPD2    H111775   0.792   0.124  15.031  1.1905  0.4422 -0.0225
  799MPD2    H211776   0.766   4.457  15.198 -1.0067 -1.2709 -0.1890
  799MPD2    H311777   0.840   4.701  15.207  2.0343 -0.2558 -0.6121
  799MPD2     N11778   0.737   0.054  14.784 -0.5938  0.5252 -0.4338
  799MPD2    H511779   0.786   0.143  14.795 -1.2957  1.0459 -1.5264
  799MPD2    N111780   0.676   4.330  14.979 -0.0185  0.5027  1.1865
  799MPD2    H711781   0.628   4.294  14.897 -0.2792  0.1496  1.4929
  800MPD2     C11782   1.923   0.807  14.632 -0.3403 -0.4789 -0.4118
  800MPD2    C111783   2.028   0.837  14.553 -0.5128 -0.4953 -0.4484
  800MPD2    C211784   2.050   0.769  14.433  0.6292 -0.1580 -0.0875
  800MPD2    C311785   1.958   0.662  14.402 -0.1467 -0.2095 -0.2093
  800MPD2    C411786   1.846   0.645  14.481  0.2945 -0.3713  0.0921
  800MPD2    C511787   1.828   0.726  14.591 -0.1127 -0.1447  0.1849
  800MPD2     H11788   2.133   0.785  14.364  0.9521  1.5459  0.6862
  800MPD2    H111789   1.784   0.561  14.450 -0.5574  0.3647 -0.1919
  800MPD2    H211790   1.910   0.860  14.725  0.0937  1.1038 -1.2591
  800MPD2    H311791   1.747   0.706  14.661 -0.2202  0.7418  0.3223
  800MPD2     N11792   1.989   0.577  14.296  0.4617  0.6716  0.9370
  800MPD2    H511793   2.076   0.591  14.246  1.6082 -1.4716  2.2901
  800MPD2    N111794   2.113   0.940  14.595 -0.4166  0.3982  0.0352
  800MPD2    H711795   2.071   1.008  14.658 -1.5436 -1.3572  1.1536
  801MPD2     C11796   1.840   1.511  14.692 -0.3838 -0.4455  0.1998
  801MPD2    C111797   1.905   1.420  14.771 -0.2600 -0.3658 -0.1998
  801MPD2    C211798   1.840   1.354  14.873 -0.9824 -0.0910 -0.2578
  801MPD2    C311799   1.708   1.383  14.892 -0.4899  0.1497 -0.3368
  801MPD2    C411800   1.647   1.486  14.829 -0.1905 -0.5238 -0.0024
  801MPD2    C511801   1.712   1.548  14.723  0.2888 -0.2088  0.1956
  801MPD2     H11802   1.902   1.286  14.930 -0.9589  0.1534  0.0069
  801MPD2    H111803   1.541   1.503  14.844 -0.6199 -1.0943 -2.4053
  801MPD2    H211804   1.877   1.544  14.596  0.0369  1.1700  0.9094
  801MPD2    H311805   1.654   1.617  14.663  0.5077 -1.2281 -1.1899
  801MPD2     N11806   1.637   1.310  14.989  0.3313 -0.6559 -0.5293
  801MPD2    H511807   1.539   1.334  15.005  0.0787 -3.0820  1.6872
  801MPD2    N111808   2.030   1.370  14.740  0.1192 -0.3357 -0.0439
  801MPD2    H711809   2.041   1.276  14.779 -0.0764 -0.6268 -0.6862
  802MPD2     C11810   0.745   1.568   0.478 -0.1294 -0.5102  0.3925
  802MPD2    C111811   0.640   1.591   0.389 -0.8206  0.9817 -0.0055
  802MPD2    C211812   0.663   1.554   0.260 -1.0418 -0.4158  0.2741
  802MPD2    C311813   0.778   1.490   0.211 -0.4048  0.1060  0.4095
  802MPD2    C411814   0.880   1.489   0.296  0.6654 -0.0542  0.5627
  802MPD2    C511815   0.862   1.531   0.426  0.5397 -0.2651 -0.2656
  802MPD2     H11816   0.575   1.569   0.198 -1.3025 -0.8980  0.5311
  802MPD2    H111817   0.977   1.455   0.261  0.9672  1.4212 -0.0494
  802MPD2    H211818   0.736   1.582   0.585  0.4651  2.0625  0.0924
  802MPD2    H311819   0.949   1.514   0.489 -0.1269 -0.5206  0.5856
  802MPD2     N11820   0.792   1.458   0.074  0.0740  0.3443  0.1151
  802MPD2    H511821   0.710   1.484   0.020  0.9147  1.1139 -0.7744
  802MPD2    N111822   0.511   1.625   0.440  0.0548  0.0040  0.2141
  802MPD2    H711823   0.452   1.657   0.364 -1.0784 -1.3387  0.5427
  803MPD2     C11824   2.286   4.384  11.731 -0.3918 -0.1299  0.1755
  803MPD2    C111825   2.294   4.511  11.790 -0.0421  0.2371  0.1615
  803MPD2    C211826   2.268   4.516  11.929  1.2329 -0.1302  0.3105
  803MPD2    C311827   2.241   4.399  12.002 -0.4252  0.2771  0.5141
  803MPD2    C411828   2.238   4.280  11.942 -0.8008  0.5014  1.0833
  803MPD2    C511829   2.265   4.273  11.808  0.9439 -0.0292  1.1565
  803MPD2     H11830   2.275   4.610  11.982  1.7576 -0.5128  0.9194
  803MPD2    H111831   2.220   4.185  11.990 -0.6582  0.3004  0.7412
  803MPD2    H211832   2.306   4.360  11.627  0.5624 -1.6117  0.6966
  803MPD2    H311833   2.251   4.176  11.762  2.5905  0.7950 -1.0812
  803MPD2     N11834   2.225   4.392  12.141 -0.2317  0.2858  0.3209
  803MPD2    H511835   2.227   4.298  12.182 -0.4096  0.5356  0.9088
  803MPD2    N111836   2.333   4.630  11.717 -0.6622  0.2829 -0.4710
  803MPD2    H711837   2.327   4.715  11.774  0.5069  0.8208 -1.1586
  804MPD2     C11838   1.076   1.298  17.182  0.1692  0.6656 -0.4775
  804MPD2    C111839   1.112   1.237  17.304  0.7166  0.6760 -0.1958
  804MPD2    C211840   1.163   1.313  17.406  0.3375 -0.5658 -0.2807
  804MPD2    C311841   1.186   1.450  17.392  0.1184  0.4910 -0.3823
  804MPD2    C411842   1.133   1.512  17.274  0.7046  0.0827 -0.6749
  804MPD2    C511843   1.097   1.431  17.168  0.1226  0.1761  0.5190
  804MPD2     H11844   1.174   1.277  17.508  0.5621  1.9997  0.5999
  804MPD2    H111845   1.162   1.613  17.248 -2.0098  0.9525 -0.3096
  804MPD2    H211846   1.027   1.243  17.101  2.3744 -1.7223 -0.1714
  804MPD2    H311847   1.071   1.483  17.076  2.1751 -0.5162 -0.4494
  804MPD2     N11848   1.240   1.522  17.502  0.4504 -0.2925  0.6299
  804MPD2    H511849   1.289   1.471  17.575 -0.0665 -1.3627  0.2308
  804MPD2    N111850   1.075   1.109  17.332  0.4990  0.0076  0.1318
  804MPD2    H711851   1.096   1.074  17.425  0.5149  1.6844  0.7499
  805MPD2     C11852   0.383   4.287  15.655  0.4937  0.1915  0.6403
  805MPD2    C111853   0.447   4.397  15.604 -0.1025 -0.1892 -0.6815
  805MPD2    C211854   0.562   4.444  15.663 -0.1242 -0.3443  0.1458
  805MPD2    C311855   0.607   4.378  15.775 -0.6137 -0.2127 -0.3396
  805MPD2    C411856   0.535   4.279  15.841  0.1038  0.6813 -0.8428
  805MPD2    C511857   0.420   4.234  15.776 -0.3108 -0.7775  0.3412
  805MPD2     H11858   0.619   4.534  15.642 -0.5797 -0.6143 -2.1970
  805MPD2    H111859   0.563   4.230  15.934 -1.7858  0.5654 -0.3337
  805MPD2    H211860   0.293   4.237  15.618  2.0578  0.2985 -3.3479
  805MPD2    H311861   0.359   4.162  15.828 -0.3362 -1.1023 -0.1391
  805MPD2     N11862   0.733   4.418  15.817 -0.6280 -0.2430  0.3292
  805MPD2    H511863   0.776   4.496  15.768 -0.0714  0.1958  1.5304
  805MPD2    N111864   0.401   4.461  15.483 -0.0624  0.0309  0.0944
  805MPD2    H711865   0.458   4.534  15.442 -2.0548  0.0837 -2.6070
  806MPD2     C11866   0.571   3.515   0.734 -0.3858 -0.5483  0.2112
  806MPD2    C111867   0.663   3.587   0.809 -0.1112 -0.4295  0.3089
  806MPD2    C211868   0.782   3.628   0.747 -0.2428 -0.5317  0.4285
  806MPD2    C311869   0.808   3.585   0.621 -0.1103 -0.1253  0.2871
  806MPD2    C411870   0.715   3.521   0.542  0.4178  0.4878  0.6653
  806MPD2    C511871   0.604   3.476   0.608 -0.5321 -0.2591  0.2048
  806MPD2     H11872   0.857   3.684   0.800 -0.3399  0.9007 -0.9376
  806MPD2    H111873   0.728   3.482   0.442 -0.4700  0.4810  0.5533
  806MPD2    H211874   0.476   3.483   0.776  0.0413 -0.1543  1.4822
  806MPD2    H311875   0.533   3.417   0.552 -0.3580 -0.2672 -0.0066
  806MPD2     N11876   0.937   3.625   0.570  0.0553 -0.3137 -0.2760
  806MPD2    H511877   0.992   3.687   0.628 -0.1626 -0.8429  0.4941
  806MPD2    N111878   0.623   3.625   0.945  0.8453  0.5594 -0.2452
  806MPD2    H711879   0.527   3.612   0.976  1.7737 -0.5838  2.0892
  807MPD2     C11880   0.712   3.320   1.681  0.3884  0.2429 -0.4381
  807MPD2    C111881   0.646   3.442   1.701 -0.0531  0.2922 -0.5591
  807MPD2    C211882   0.615   3.475   1.831 -0.1041  0.2707  0.5705
  807MPD2    C311883   0.655   3.397   1.938  0.1322  0.3110  0.0070
  807MPD2    C411884   0.735   3.291   1.914 -0.2186 -0.3646 -0.4210
  807MPD2    C511885   0.764   3.255   1.786  0.4321  0.1216 -0.0017
  807MPD2     H11886   0.560   3.566   1.851 -0.2496 -0.0278  1.5150
  807MPD2    H111887   0.777   3.226   1.991 -0.3540  0.5491  0.4344
  807MPD2    H211888   0.737   3.280   1.583  0.5963  1.9774 -1.0861
  807MPD2    H311889   0.827   3.169   1.768  2.2661  1.6049 -0.7537
  807MPD2     N11890   0.623   3.443   2.066 -0.3191  0.0296 -0.4408
  807MPD2    H511891   0.552   3.514   2.080  1.5369  1.6359  0.9323
  807MPD2    N111892   0.609   3.536   1.602  0.0734 -0.4027 -0.0778
  807MPD2    H711893   0.564   3.622   1.632  0.2740 -0.3828  0.1630
  808MPD2     C11894   2.437   4.399   9.524 -0.0577 -0.2583 -0.5673
  808MPD2    C111895   2.503   4.415   9.641 -0.2192 -0.2485 -0.0279
  808MPD2    C211896   2.603   4.510   9.655  0.4423 -0.2732 -0.5985
  808MPD2    C311897   2.631   4.600   9.556  0.6243 -0.1068 -0.3788
  808MPD2    C411898   2.558   4.592   9.437  0.6960  0.3469  0.1439
  808MPD2    C511899   2.468   4.485   9.418 -0.0159  0.4181 -0.8222
  808MPD2     H11900   2.666   4.516   9.743  1.3365  1.2900 -1.3526
  808MPD2    H111901   2.579   4.662   9.357  0.1585 -0.6229 -0.8579
  808MPD2    H211902   2.356   4.329   9.508 -1.2630  1.1460 -0.5669
  808MPD2    H311903   2.417   4.470   9.324  0.7795  0.1623 -1.2111
  808MPD2     N11904   2.717   4.713   9.570 -0.2575 -0.4569 -0.1368
  808MPD2    H511905   2.709   0.061   9.496 -1.7047 -1.1254 -0.5995
  808MPD2    N111906   2.468   4.345   9.756 -0.2396  0.2219  0.2547
  808MPD2    H711907   2.518   4.377   9.839  1.1319 -0.1902 -0.4062
  809MPD2     C11908   3.673   0.135   9.647  0.2306 -0.3468  0.7982
  809MPD2    C111909   3.623   0.200   9.757 -0.2301  0.1537  0.0800
  809MPD2    C211910   3.485   0.205   9.780 -0.5048 -0.2212 -0.0290
  809MPD2    C311911   3.398   0.142   9.696 -0.1605  0.0184  0.0795
  809MPD2    C411912   3.451   0.067   9.583  0.2162  0.9021 -0.1303
  809MPD2    C511913   3.582   0.071   9.557  0.5525 -0.1859 -0.0176
  809MPD2     H11914   3.455   0.245   9.876 -3.0428 -0.8435 -0.5655
  809MPD2    H111915   3.393   0.015   9.508  0.9300 -1.7571  1.1416
  809MPD2    H211916   3.777   0.135   9.620 -0.0384  0.8915 -0.2130
  809MPD2    H311917   3.629   0.019   9.475  1.2285  1.0266 -0.3975
  809MPD2     N11918   3.259   0.162   9.702 -0.1524 -0.4217  0.6084
  809MPD2    H511919   3.201   0.128   9.626  0.0832 -2.8584  1.5340
  809MPD2    N111920   3.704   0.274   9.847  0.2547  0.1033 -0.3369
  809MPD2    H711921   3.659   0.333   9.916  2.0798  0.0000  0.9199
  810MPD2     C11922   1.817   0.535  10.384  0.3674 -0.0539  0.2027
  810MPD2    C111923   1.741   0.519  10.501  0.2500 -0.0871 -0.6547
  810MPD2    C211924   1.714   0.627  10.578  0.2769  0.4194 -0.5690
  810MPD2    C311925   1.777   0.748  10.552 -0.7486  0.2243  0.9997
  810MPD2    C411926   1.854   0.771  10.443 -1.1552 -0.0138 -0.3144
  810MPD2    C511927   1.877   0.662  10.361 -0.5506  0.2357 -0.4103
  810MPD2     H11928   1.639   0.619  10.656  0.4392  1.1491 -0.3371
  810MPD2    H111929   1.892   0.868  10.415  0.1795 -0.6725 -0.7940
  810MPD2    H211930   1.837   0.458  10.311  0.0165 -0.2638  0.3299
  810MPD2    H311931   1.943   0.675  10.276 -0.9881 -1.0204 -0.9360
  810MPD2     N11932   1.770   0.866  10.633 -0.1224  0.3187  0.1845
  810MPD2    H511933   1.800   0.952  10.589 -0.6087  0.0496 -0.6723
  810MPD2    N111934   1.691   0.390  10.529 -0.1794 -0.3308  0.7304
  810MPD2    H711935   1.697   0.327  10.450 -0.5618  0.3209  0.1799
  811MPD2     C11936   0.964   0.213  10.188 -0.0672  0.0881 -0.6676
  811MPD2    C111937   1.065   0.295  10.248 -0.0562  1.0114 -0.1040
  811MPD2    C211938   1.088   0.430  10.204 -0.6973 -0.2609 -0.0695
  811MPD2    C311939   0.992   0.491  10.126  0.7841 -0.3476 -0.1063
  811MPD2    C411940   0.885   0.413  10.073  0.0513 -0.1716 -0.6669
  811MPD2    C511941   0.884   0.271  10.097 -0.2392 -0.5787  0.1009
  811MPD2     H11942   1.174   0.485  10.241 -0.4607 -0.6146 -0.0965
  811MPD2    H111943   0.806   0.458  10.014 -0.2053  1.1715  0.6989
  811MPD2    H211944   0.955   0.108  10.212 -0.1408 -0.2282 -2.1187
  811MPD2    H311945   0.805   0.218  10.045 -0.1460 -0.2588 -0.3709
  811MPD2     N11946   0.994   0.636  10.126  0.4810 -0.3646  0.8179
  811MPD2    H511947   1.060   0.677  10.191  0.9340 -1.6812  1.2052
  811MPD2    N111948   1.159   0.220  10.324  0.0750  0.4719  0.4079
  811MPD2    H711949   1.151   0.119  10.329 -1.8455  0.5105 -2.0785
  812MPD2     C11950   0.347   0.988  12.886 -0.4006 -0.0527  0.6542
  812MPD2    C111951   0.237   0.909  12.858  0.1698 -0.3844 -0.5556
  812MPD2    C211952   0.234   0.777  12.895 -0.4462 -0.6546  1.0785
  812MPD2    C311953   0.350   0.713  12.925  0.1264  0.0570  0.2405
  812MPD2    C411954   0.465   0.788  12.946  0.2672  0.2627  0.3699
  812MPD2    C511955   0.454   0.926  12.947  0.1260 -0.4486 -1.0715
  812MPD2     H11956   0.145   0.715  12.896 -0.4575 -0.6674  0.1060
  812MPD2    H111957   0.560   0.736  12.959  0.9465  1.5567  0.5396
  812MPD2    H211958   0.344   1.097  12.884 -0.8836 -0.0596  0.9409
  812MPD2    H311959   0.539   0.988  12.974 -1.1391  2.1962 -3.1286
  812MPD2     N11960   0.346   0.570  12.957  0.2729 -0.4654  0.1565
  812MPD2    H511961   0.268   0.518  12.919 -0.6636 -0.3292  1.8872
  812MPD2    N111962   0.117   0.975  12.813 -0.6646 -0.4836 -1.0295
  812MPD2    H711963   0.128   1.070  12.780  1.1056 -0.5565 -0.6186
  813MPD2     C11964   4.526   2.001  13.286 -0.0877  0.3871 -0.1288
  813MPD2    C111965   4.442   2.097  13.238 -0.6121  0.1270  0.5570
  813MPD2    C211966   4.322   2.107  13.295 -0.5639 -0.7629  1.2250
  813MPD2    C311967   4.278   2.021  13.391 -0.1468  0.2623  0.0913
  813MPD2    C411968   4.362   1.927  13.442  0.6812 -0.3562 -0.0379
  813MPD2    C511969   4.487   1.924  13.389  0.0073  0.1224 -0.4236
  813MPD2     H11970   4.248   2.175  13.253  0.9915 -0.8491 -1.6105
  813MPD2    H111971   4.344   1.862  13.527 -1.6273  0.2259 -0.0824
  813MPD2    H211972   4.625   1.992  13.243  0.7310 -0.0225  1.8821
  813MPD2    H311973   4.560   1.855  13.429 -1.2099 -0.5941  0.5369
  813MPD2     N11974   4.148   2.040  13.437  0.5164  0.0976 -0.5139
  813MPD2    H511975   4.087   2.102  13.385  0.6812  0.9809  0.3535
  813MPD2    N111976   4.496   2.184  13.144  0.1385  0.3166 -0.1851
  813MPD2    H711977   4.596   2.194  13.133  0.7704 -2.1221  3.5256
  814MPD2     C11978   4.225   3.281  12.461  0.4229  0.0244  0.1434
  814MPD2    C111979   4.271   3.386  12.378  0.3434 -0.1633  0.2157
  814MPD2    C211980   4.338   3.496  12.431 -0.1492 -0.7425  0.5434
  814MPD2    C311981   4.361   3.509  12.563  0.4981  0.2486  0.2763
  814MPD2    C411982   4.306   3.412  12.646 -0.3553 -0.7679 -0.4335
  814MPD2    C511983   4.233   3.304  12.595 -0.9974  0.2167  0.0125
  814MPD2     H11984   4.392   3.559  12.362 -1.3645 -1.6120 -1.1971
  814MPD2    H111985   4.310   3.424  12.754  0.5765 -2.1059 -0.3165
  814MPD2    H211986   4.180   3.188  12.430 -1.4055  0.3719  1.7195
  814MPD2    H311987   4.196   3.233  12.669 -3.0753  0.5565 -0.7098
  814MPD2     N11988   4.439   3.620  12.618 -0.0884  0.0003 -0.1626
  814MPD2    H511989   4.459   3.612  12.717  0.4953  2.1818 -0.1134
  814MPD2    N111990   4.246   3.380  12.240 -0.2671 -0.7649  0.4411
  814MPD2    H711991   4.293   3.452  12.186  1.0378 -1.1066  1.1224
  815MPD2     C11992   4.601   2.213  11.961 -0.6818  0.3155 -0.8866
  815MPD2    C111993   4.547   2.093  11.995  0.0988 -0.0944  0.1642
  815MPD2    C211994   4.413   2.084  12.032 -0.9179 -0.2809  0.2109
  815MPD2    C311995   4.335   2.199  12.025  0.6443  0.5024  0.2934
  815MPD2    C411996   4.388   2.315  11.971 -0.1014  0.7363 -0.1254
  815MPD2    C511997   4.527   2.320  11.938 -0.1830 -0.2400 -0.3878
  815MPD2     H11998   4.366   1.990  12.060 -1.0320 -0.1670  0.4023
  815MPD2    H111999   4.336   2.408  11.954 -0.8060 -0.0516 -2.3588
  815MPD2    H212000   4.709   2.212  11.951 -0.6330  0.5434 -0.3885
  815MPD2    H312001   4.567   2.410  11.894 -0.9498 -0.5013 -1.6240
  815MPD2     N12002   4.207   2.182  12.064 -0.1109 -0.4880 -0.0873
  815MPD2    H512003   4.191   2.091  12.105 -0.4564 -0.6187 -0.4997
  815MPD2    N112004   4.632   1.980  11.983 -0.0547  0.8269  0.1500
  815MPD2    H712005   4.717   1.996  11.930  0.1629 -0.6369  0.0534
  816MPD2     C12006   4.419   0.416  17.170 -0.5694  0.3591  0.5606
  816MPD2    C112007   4.474   0.497  17.276 -0.3123 -0.1364  0.4521
  816MPD2    C212008   4.612   0.512  17.274  0.1796  0.4890  0.2826
  816MPD2    C312009   4.696   0.444  17.184  0.8983  0.1287  0.0747
  816MPD2    C412010   4.628   0.361  17.081  0.1564 -0.8109 -0.5583
  816MPD2    C512011   4.492   0.348  17.076  0.3627 -0.7242  0.8831
  816MPD2     H12012   4.669   0.575  17.342  0.3493  0.0939  0.5009
  816MPD2    H112013   4.691   0.300  17.017  0.7472  0.1435 -0.8959
  816MPD2    H212014   4.314   0.394  17.187 -0.6736 -0.1213 -0.7500
  816MPD2    H312015   4.443   0.285  17.003  0.9188  1.1667 -1.1338
  816MPD2     N12016   0.114   0.474  17.178 -0.0547 -0.4447  0.0193
  816MPD2    H512017   0.140   0.540  17.251  2.7673 -2.6020  0.9429
  816MPD2    N112018   4.390   0.548  17.368 -0.0174 -0.0875  0.1920
  816MPD2    H712019   4.293   0.568  17.343  1.1142  2.3255 -2.2219
  817MPD2     C12020   4.679   2.837  10.128 -0.2173  0.5767  0.5556
  817MPD2    C112021   4.568   2.802  10.053 -0.3026  0.0433 -0.2078
  817MPD2    C212022   4.509   2.904   9.976  0.4618 -0.1773  0.1423
  817MPD2    C312023   4.568   3.027   9.966 -0.1309 -0.7614  0.1190
  817MPD2    C412024   4.687   3.049  10.031  0.5268 -0.1577  0.6150
  817MPD2    C512025   0.023   2.957  10.112  0.2680 -0.5645  0.2864
  817MPD2     H12026   4.412   2.885   9.932  0.8284 -0.1950 -0.6749
  817MPD2    H112027   0.009   3.149  10.035 -1.2608  0.6024  1.0120
  817MPD2    H212028   0.002   2.771  10.202 -1.5855 -0.4968  0.4112
  817MPD2    H312029   0.108   2.988  10.172  0.0514  0.1926  0.1985
  817MPD2     N12030   4.492   3.139   9.913  0.2431 -0.3676 -0.0777
  817MPD2    H512031   4.396   3.125   9.885  1.0116 -0.5718 -2.6315
  817MPD2    N112032   4.516   2.665  10.055 -0.0958  0.3413 -0.4542
  817MPD2    H712033   4.438   2.653   9.991 -0.0273 -1.0083 -0.2912
  818MPD2     C12034   2.978   2.601   9.963  0.5937  0.2212 -0.1154
  818MPD2    C112035   2.895   2.531  10.043 -0.2715 -0.4782 -0.5007
  818MPD2    C212036   2.928   2.404  10.076  0.5312  0.4886  0.5522
  818MPD2    C312037   3.035   2.342  10.021 -0.0804  0.0428  0.1683
  818MPD2    C412038   3.128   2.420   9.950  0.0217 -0.3575 -0.2692
  818MPD2    C512039   3.094   2.549   9.916 -0.0291 -0.0240  0.1516
  818MPD2     H12040   2.865   2.342  10.137 -2.1013  0.8417 -1.8034
  818MPD2    H112041   3.226   2.385   9.919 -0.8581 -1.1946 -2.0461
  818MPD2    H212042   2.967   2.708   9.957 -1.1691  0.1466  1.7124
  818MPD2    H312043   3.164   2.619   9.873  0.8211 -1.5094 -0.8896
  818MPD2     N12044   3.070   2.199  10.050 -0.5099 -0.3304 -0.3924
  818MPD2    H512045   3.164   2.177  10.020  0.3732  3.1317 -0.1085
  818MPD2    N112046   2.785   2.592  10.095  0.3403  0.1578  0.2389
  818MPD2    H712047   2.743   2.532  10.165  0.3431 -0.0984  0.0199
  819MPD2     C12048   1.096   4.097  15.664  0.1084  0.2159  0.1393
  819MPD2    C112049   1.096   3.957  15.676  1.3523 -0.0428 -0.5121
  819MPD2    C212050   1.221   3.901  15.713  0.3922 -0.3902  0.0862
  819MPD2    C312051   1.325   3.987  15.750  0.2367  0.2578  0.2881
  819MPD2    C412052   1.320   4.124  15.738  0.3580  0.8394 -0.0826
  819MPD2    C512053   1.203   4.180  15.691  0.4632 -0.0324  0.2570
  819MPD2     H12054   1.233   3.794  15.727  0.9477 -0.3988 -0.4484
  819MPD2    H112055   1.401   4.189  15.770  0.4174  0.6046  0.2433
  819MPD2    H212056   1.008   4.144  15.620  1.0384  0.3957 -1.5194
  819MPD2    H312057   1.187   4.286  15.679 -2.2118 -0.3190  1.4041
  819MPD2     N12058   1.435   3.929  15.829  0.5094  0.2209  0.1381
  819MPD2    H512059   1.425   3.830  15.851  1.1059  0.0694 -0.2764
  819MPD2    N112060   0.980   3.885  15.648  0.0504  0.7308  0.1176
  819MPD2    H712061   0.894   3.936  15.630 -0.0959  0.1630 -0.7955
  820MPD2     C12062   0.158   3.905  15.109  0.2831 -0.1686 -0.3565
  820MPD2    C112063   0.262   3.989  15.147  0.5686  0.0514 -0.3766
  820MPD2    C212064   0.355   3.937  15.231  0.1966  0.4708 -0.4999
  820MPD2    C312065   0.347   3.814  15.275 -0.7050  0.0528  0.8541
  820MPD2    C412066   0.241   3.734  15.239  0.5758 -0.1328  0.0382
  820MPD2    C512067   0.152   3.782  15.148  0.8912 -0.1036  0.2864
  820MPD2     H12068   0.437   4.000  15.264  0.2597 -0.2602  0.7734
  820MPD2    H112069   0.234   3.636  15.285  1.8754  0.3239  1.1899
  820MPD2    H212070   0.083   3.932  15.035  0.0232 -2.1835 -0.8304
  820MPD2    H312071   0.062   3.727  15.121  0.1197 -0.0500  2.7449
  820MPD2     N12072   0.449   3.745  15.352 -0.4343  0.2289  0.3516
  820MPD2    H512073   0.438   3.644  15.357  0.5508  0.0894 -0.2198
  820MPD2    N112074   0.252   4.125  15.111  0.0952 -0.6896  0.2634
  820MPD2    H712075   0.188   4.148  15.036  1.5157 -0.8719 -1.0092
  821MPD2     C12076   1.913   0.435  13.460 -0.5929  0.1903 -1.0157
  821MPD2    C112077   2.032   0.415  13.532  0.6226  0.3596 -0.2355
  821MPD2    C212078   2.149   0.374  13.468  0.2763  0.6166  0.5418
  821MPD2    C312079   2.150   0.358  13.331  0.4901  0.2531  0.3119
  821MPD2    C412080   2.039   0.397  13.257 -0.7558 -0.1166 -0.2820
  821MPD2    C512081   1.917   0.426  13.321  0.0914  0.3894 -0.3757
  821MPD2     H12082   2.238   0.353  13.525  1.6273 -1.5195 -2.3157
  821MPD2    H112083   2.045   0.394  13.149  0.4015 -0.9020 -0.2008
  821MPD2    H212084   1.818   0.455  13.509 -0.1231 -0.8455  0.2860
  821MPD2    H312085   1.829   0.453  13.264 -0.4057 -1.6054 -0.5310
  821MPD2     N12086   2.270   0.336  13.263  0.2657 -0.7332 -0.1559
  821MPD2    H512087   2.278   0.361  13.165 -0.0484 -1.7845 -0.4522
  821MPD2    N112088   2.046   0.440  13.671  0.5717 -0.6615 -0.3762
  821MPD2    H712089   2.137   0.430  13.714 -0.5417 -0.8368  1.9322
  822MPD2     C12090   2.195   0.643  15.942  0.3161 -0.1536  0.3301
  822MPD2    C112091   2.163   0.587  16.065  0.0909  0.4483 -0.0777
  822MPD2    C212092   2.064   0.652  16.142  0.3377 -0.0877  0.2385
  822MPD2    C312093   1.996   0.762  16.090  0.1764 -0.9216 -0.2157
  822MPD2    C412094   2.020   0.803  15.958  0.2645 -0.6578  0.8097
  822MPD2    C512095   2.121   0.743  15.886 -0.2108 -0.0441  0.0648
  822MPD2     H12096   2.041   0.627  16.245 -1.2611  2.0430  0.4153
  822MPD2    H112097   1.962   0.881  15.910  2.8925  2.1184  2.1373
  822MPD2    H212098   2.275   0.598  15.884  1.8906  1.3332  1.3608
  822MPD2    H312099   2.136   0.777  15.784  1.8819  0.4995  0.5524
  822MPD2     N12100   1.902   0.826  16.180  0.9534 -0.4770 -0.0727
  822MPD2    H512101   1.860   0.771  16.254  0.8366 -1.0221 -0.5489
  822MPD2    N112102   2.234   0.482  16.135 -0.2238 -0.7246 -0.4356
  822MPD2    H712103   2.208   0.464  16.232 -0.1158  1.3196 -0.0153
  823MPD2     C12104   1.409   1.041  16.860 -0.1608  0.1334  0.2790
  823MPD2    C112105   1.458   0.954  16.767  0.3170  0.2915  0.8638
  823MPD2    C212106   1.491   0.827  16.805  0.8560  0.2515  0.3887
  823MPD2    C312107   1.460   0.777  16.931 -0.2357 -0.5179  0.1923
  823MPD2    C412108   1.397   0.866  17.018  0.5706  0.5401 -0.4920
  823MPD2    C512109   1.377   0.999  16.983  0.2460  0.0050  0.6424
  823MPD2     H12110   1.537   0.765  16.729 -1.6295 -2.1123  0.7812
  823MPD2    H112111   1.360   0.841  17.117 -2.6766 -0.4916 -1.9464
  823MPD2    H212112   1.386   1.142  16.827 -0.9066  0.2706  1.2350
  823MPD2    H312113   1.328   1.062  17.055  0.9272 -1.7376  2.6587
  823MPD2     N12114   1.501   0.653  16.986  0.1176  0.6782  0.0992
  823MPD2    H512115   1.476   0.634  17.083  1.8272  1.9675  0.8065
  823MPD2    N112116   1.503   1.007  16.648  0.2486  0.4962 -0.4347
  823MPD2    H712117   1.497   1.108  16.635 -0.6563  0.3324 -1.2464
  824MPD2     C12118   2.366   4.389  16.011  0.0844  0.1364  0.1757
  824MPD2    C112119   2.453   4.494  15.985  1.0410  0.4497 -0.2138
  824MPD2    C212120   2.571   4.474  15.917  0.8896  0.0879  0.3334
  824MPD2    C312121   2.607   4.342  15.880  0.6698 -0.9032  0.3747
  824MPD2    C412122   2.524   4.243  15.905 -0.3911  0.4995 -0.8149
  824MPD2    C512123   2.403   4.263  15.973  0.1077  0.4003 -0.4700
  824MPD2     H12124   2.625   4.564  15.892 -0.0434  0.7137  0.5542
  824MPD2    H112125   2.544   4.143  15.869 -0.6819  0.0517  0.2607
  824MPD2    H212126   2.277   4.390  16.074  0.0165  3.0484  0.0218
  824MPD2    H312127   2.335   4.181  15.992 -0.8800  1.2323 -0.4494
  824MPD2     N12128   2.742   4.326  15.830 -0.1048 -0.1292 -1.1572
  824MPD2    H512129   2.794   4.409  15.804  0.5387  0.1420  0.9838
  824MPD2    N112130   2.440   4.625  16.037  0.0985  0.2691 -0.0450
  824MPD2    H712131   2.510   4.697  16.021 -0.6155  0.8192 -0.6634
  825MPD2     C12132   3.292   4.391  15.161  0.2130  0.4749  0.0115
  825MPD2    C112133   3.234   4.445  15.272 -0.1281 -0.3279 -0.0606
  825MPD2    C212134   3.238   4.583  15.289 -0.0007  0.5480  0.3444
  825MPD2    C312135   3.307   4.658  15.199  0.2919 -0.1131  0.2676
  825MPD2    C412136   3.354   4.611  15.079 -0.1896  0.2102  0.2651
  825MPD2    C512137   3.334   4.478  15.064 -0.0046 -0.4596 -0.0795
  825MPD2     H12138   3.201   4.630  15.378 -1.3495 -2.1757  1.2300
  825MPD2    H112139   3.383   4.668  14.992  0.4728 -0.2680  0.1705
  825MPD2    H212140   3.291   4.284  15.146  0.2495  0.1589  2.1767
  825MPD2    H312141   3.352   4.427  14.970 -1.0989 -2.8266  0.9968
  825MPD2     N12142   3.315   0.081  15.209 -0.3348  0.2198  0.7253
  825MPD2    H512143   3.374   0.125  15.138 -0.8128  1.3266  1.0155
  825MPD2    N112144   3.174   4.358  15.367  0.0498  1.0422 -0.8041
  825MPD2    H712145   3.164   4.258  15.348 -2.1231  1.3061 -1.1377
  826MPD2     C12146   3.688   4.631  14.056 -0.8243  0.2218 -0.1047
  826MPD2    C112147   3.591   4.565  13.993  0.1933  0.5416  0.7027
  826MPD2    C212148   3.455   4.592  14.026  0.0089 -0.1629  0.0477
  826MPD2    C312149   3.427   4.675  14.133  0.6391 -0.0676 -0.0410
  826MPD2    C412150   3.533   0.018  14.197  0.6043  0.3289 -0.2662
  826MPD2    C512151   3.663   0.004  14.148  0.5385  0.6894  0.5463
  826MPD2     H12152   3.380   4.542  13.965  0.3526  1.7224 -1.9209
  826MPD2    H112153   3.522   0.079  14.286 -2.2643 -0.9388  0.2354
  826MPD2    H212154   3.788   4.605  14.023 -1.1246 -1.2315  0.1560
  826MPD2    H312155   3.745   0.058  14.194  2.6024 -1.4034 -0.7243
  826MPD2     N12156   3.300   4.698  14.182 -0.0257 -0.0634  0.1248
  826MPD2    H512157   3.291   0.041  14.261  2.1154  0.8269 -0.3493
  826MPD2    N112158   3.635   4.480  13.884 -0.0480  0.1606 -0.2871
  826MPD2    H712159   3.735   4.466  13.867 -0.3498 -1.2922 -0.8652
  827MPD2     C12160   3.819   0.486  10.490 -0.3794  0.2673 -0.0624
  827MPD2    C112161   3.715   0.535  10.571  0.3736 -0.4551 -1.2597
  827MPD2    C212162   3.592   0.499  10.527  0.6680  0.0580 -0.4253
  827MPD2    C312163   3.568   0.407  10.427 -0.3786 -0.5835 -0.4379
  827MPD2    C412164   3.675   0.350  10.356 -0.0744  0.0609  0.1384
  827MPD2    C512165   3.804   0.392  10.384  0.0820 -0.7568  0.2617
  827MPD2     H12166   3.506   0.545  10.573  0.8471 -0.5725  0.5251
  827MPD2    H112167   3.669   0.272  10.280  1.2829  0.8252 -0.7474
  827MPD2    H212168   3.921   0.519  10.503 -1.2040  3.4379 -1.7700
  827MPD2    H312169   3.878   0.351  10.317 -1.3474 -1.2392 -1.0196
  827MPD2     N12170   3.431   0.392  10.400 -0.7603  0.3199 -0.6518
  827MPD2    H512171   3.372   0.460  10.448 -1.1981 -1.0286  0.7228
  827MPD2    N112172   3.747   0.618  10.682  0.2191  0.0675 -0.4110
  827MPD2    H712173   3.846   0.636  10.689  0.3563 -0.0154 -2.1819
  828MPD2     C12174   2.223   0.701  12.380  0.0375  0.3303 -0.3427
  828MPD2    C112175   2.178   0.824  12.346 -0.5274 -0.5120 -0.2258
  828MPD2    C212176   2.242   0.901  12.254  0.0839  0.0279  0.1366
  828MPD2    C312177   2.362   0.856  12.193  0.3728 -0.0615 -0.2219
  828MPD2    C412178   2.399   0.726  12.218  0.7894  0.5215  0.3646
  828MPD2    C512179   2.343   0.657  12.318 -0.4533 -0.0910  0.6179
  828MPD2     H12180   2.191   0.992  12.227  1.8670  1.0543  0.2246
  828MPD2    H112181   2.488   0.689  12.168  0.5876  0.7547 -0.1642
  828MPD2    H212182   2.185   0.633  12.456  1.9131  0.7187  0.9411
  828MPD2    H312183   2.374   0.555  12.341 -0.2109 -0.4309 -1.1987
  828MPD2     N12184   2.426   0.924  12.083  0.1534  0.5024  0.6002
  828MPD2    H512185   2.508   0.887  12.035 -1.9426 -0.7641 -2.0305
  828MPD2    N112186   2.069   0.882  12.415 -0.3268  0.0919  0.3480
  828MPD2    H712187   2.039   0.975  12.386 -0.9052 -0.0831  0.3977
  829MPD2     C12188   1.541   1.421  11.995 -0.6468  0.1396 -0.6894
  829MPD2    C112189   1.459   1.380  12.095 -0.0925 -0.6118 -0.0038
  829MPD2    C212190   1.514   1.306  12.198 -0.5920  0.2646  0.0072
  829MPD2    C312191   1.646   1.268  12.210 -0.4391 -0.4565  1.2242
  829MPD2    C412192   1.719   1.299  12.099  0.5344  0.0805 -0.6422
  829MPD2    C512193   1.668   1.373  11.995 -0.8332  0.0732 -0.1238
  829MPD2     H12194   1.446   1.269  12.274 -1.2243 -0.7185 -1.0341
  829MPD2    H112195   1.826   1.283  12.096  0.4767 -0.4629  0.1244
  829MPD2    H212196   1.502   1.457  11.901 -1.3033 -2.9627 -1.5886
  829MPD2    H312197   1.726   1.385  11.904 -1.8215  1.6354 -0.5378
  829MPD2     N12198   1.704   1.191  12.314 -0.0030 -0.0742  0.6458
  829MPD2    H512199   1.803   1.172  12.305  0.3394  2.0882 -0.1405
  829MPD2    N112200   1.316   1.403  12.095 -0.0699 -0.3681  0.1409
  829MPD2    H712201   1.280   1.462  12.021  2.1793  0.0002 -0.6571
  830MPD2     C12202   2.133   3.479  15.771  0.0263  0.5898 -0.7152
  830MPD2    C112203   2.062   3.567  15.698  0.0513 -0.3001  0.1398
  830MPD2    C212204   2.123   3.645  15.601  0.2298  0.2427  0.2127
  830MPD2    C312205   2.257   3.633  15.581  0.0850 -0.1793  0.3875
  830MPD2    C412206   2.326   3.547  15.660 -0.4455  0.1302 -0.2616
  830MPD2    C512207   2.268   3.476  15.759  0.6043  0.1220  0.1595
  830MPD2     H12208   2.067   3.718  15.543  0.2329  0.4660  0.4923
  830MPD2    H112209   2.433   3.541  15.644 -0.4875  0.1807 -0.5580
  830MPD2    H212210   2.092   3.428  15.858 -0.9543  2.7627  0.1090
  830MPD2    H312211   2.326   3.416  15.829 -0.7464 -1.2618  0.1034
  830MPD2     N12212   2.327   3.700  15.475  0.5935 -0.2831  0.1330
  830MPD2    H512213   2.429   3.694  15.475  0.6549  0.7967  1.4165
  830MPD2    N112214   1.927   3.573  15.739  0.1081  0.2756  0.1064
  830MPD2    H712215   1.895   3.508  15.810 -0.1300 -0.0574 -0.3040
  831MPD2     C12216   1.984   1.010  16.597  0.0378  0.0766  0.3892
  831MPD2    C112217   2.030   0.920  16.501 -0.3488  0.0075 -0.5972
  831MPD2    C212218   1.965   0.796  16.488 -0.1221 -1.0491  0.3505
  831MPD2    C312219   1.858   0.766  16.569  0.0932  0.6737 -0.7045
  831MPD2    C412220   1.822   0.850  16.673 -0.1595 -0.1085  0.1947
  831MPD2    C512221   1.885   0.970  16.685 -0.1973  0.3414  0.0327
  831MPD2     H12222   2.011   0.729  16.417  0.8580 -1.5297  1.4386
  831MPD2    H112223   1.741   0.830  16.742 -0.1362  0.5988  0.4232
  831MPD2    H212224   2.041   1.099  16.621 -0.0867  0.3348 -0.2556
  831MPD2    H312225   1.870   1.022  16.779 -1.2338 -0.3020  0.2243
  831MPD2     N12226   1.769   0.661  16.537  0.4019  0.6130 -0.7577
  831MPD2    H512227   1.685   0.657  16.595  0.8882  0.5149 -0.0651
  831MPD2    N112228   2.139   0.967  16.425  0.2219 -0.7117  0.0147
  831MPD2    H712229   2.171   1.063  16.429 -0.5015 -0.5150  1.1374
  832MPD2     C12230   0.408   1.799  17.449 -0.4023 -0.6395 -0.1694
  832MPD2    C112231   0.352   1.925  17.422 -0.5321 -0.0163  0.3602
  832MPD2    C212232   0.223   1.932  17.380  0.8705 -0.5890  0.4974
  832MPD2    C312233   0.154   1.813  17.346  0.3659 -0.9699  0.1911
  832MPD2    C412234   0.212   1.693  17.372  0.4860  0.2094  0.4357
  832MPD2    C512235   0.337   1.687  17.422 -0.2722  0.6366 -0.1090
  832MPD2     H12236   0.193   2.026  17.336  1.0013 -1.6577 -1.8772
  832MPD2    H112237   0.154   1.602  17.361 -0.5375  0.8381  0.5982
  832MPD2    H212238   0.505   1.797  17.498 -0.3220 -0.8770 -0.3380
  832MPD2    H312239   0.375   1.588  17.445 -0.9468  0.4529  0.1844
  832MPD2     N12240   0.029   1.811  17.283  0.2655  0.1487  0.1338
  832MPD2    H512241   4.715   1.718  17.261 -0.5905  0.3765  0.5352
  832MPD2    N112242   0.433   2.034  17.444 -0.2218  0.0095  0.4396
  832MPD2    H712243   0.524   2.026  17.488 -0.7589  1.4598  1.7889
  833MPD2     C12244   2.798   3.031  12.657 -0.6059  0.3416  0.6503
  833MPD2    C112245   2.843   3.144  12.590  0.7928  0.8656 -0.3729
  833MPD2    C212246   2.956   3.126  12.511  0.5608  0.0408  0.3037
  833MPD2    C312247   3.018   3.006  12.487  0.6396  0.2975 -0.3269
  833MPD2    C412248   2.967   2.897  12.555  0.2943 -0.3625 -0.3639
  833MPD2    C512249   2.856   2.908  12.636  0.1153 -0.8093 -0.1803
  833MPD2     H12250   3.006   3.207  12.458  1.8899 -1.3416 -0.5183
  833MPD2    H112251   3.009   2.800  12.531  1.7519  0.5453 -1.4114
  833MPD2    H212252   2.718   3.043  12.730 -0.6992  0.0020  0.5992
  833MPD2    H312253   2.808   2.826  12.688  2.4443 -1.7976  0.4224
  833MPD2     N12254   3.128   2.983  12.408  0.4268  0.3578 -0.3939
  833MPD2    H512255   3.177   2.894  12.408 -0.4890 -0.1415  0.8687
  833MPD2    N112256   2.779   3.267  12.612 -0.3841  0.4185  0.2400
  833MPD2    H712257   2.708   3.268  12.684 -0.4931  2.6449  0.0918
  834MPD2     C12258   2.914   2.392  11.765 -1.0109 -0.0880  0.0686
  834MPD2    C112259   2.875   2.510  11.713 -0.3309 -0.7011 -0.5004
  834MPD2    C212260   2.933   2.632  11.762  0.2305  0.6591  0.5395
  834MPD2    C312261   3.030   2.624  11.855 -0.6265  0.6506  0.0837
  834MPD2    C412262   3.073   2.497  11.912  0.2415  0.5608  0.0498
  834MPD2    C512263   3.019   2.383  11.850 -0.1453 -0.2468 -0.4843
  834MPD2     H12264   2.889   2.724  11.727  2.5583  1.5368 -0.0379
  834MPD2    H112265   3.141   2.484  11.995  1.1468  1.7555 -0.4960
  834MPD2    H212266   2.856   2.304  11.740  0.2642 -1.2264  1.1324
  834MPD2    H312267   3.036   2.286  11.895  1.1913  0.9701  1.6587
  834MPD2     N12268   3.083   2.751  11.903  0.1203 -0.1971  1.2749
  834MPD2    H512269   3.046   2.838  11.866 -2.5501 -1.4129  1.0622
  834MPD2    N112270   2.781   2.516  11.607  0.5983 -0.0016  0.5514
  834MPD2    H712271   2.744   2.426  11.577  2.1455 -0.3452 -0.3287
  835MPD2     C12272   3.051   0.967  11.325 -0.3765  0.6083 -0.6036
  835MPD2    C112273   3.028   1.103  11.319 -0.5991 -0.4311 -0.3514
  835MPD2    C212274   3.085   1.182  11.411  0.1617 -0.2362 -0.6675
  835MPD2    C312275   3.165   1.136  11.515 -0.4073 -1.0106 -0.1735
  835MPD2    C412276   3.188   0.999  11.514  0.2142 -0.4006 -0.6816
  835MPD2    C512277   3.138   0.918  11.417 -0.2907 -0.3992 -0.4520
  835MPD2     H12278   3.051   1.285  11.412  2.1445  0.4201 -0.8694
  835MPD2    H112279   3.234   0.953  11.601  0.1068 -0.1810 -0.5092
  835MPD2    H212280   3.013   0.897  11.251  0.4333  0.0710 -0.5146
  835MPD2    H312281   3.147   0.810  11.424  1.0623 -0.0576  3.1977
  835MPD2     N12282   3.208   1.210  11.630 -0.2973  0.0538  0.1648
  835MPD2    H512283   3.266   1.163  11.698 -0.5215  0.7744  0.8609
  835MPD2    N112284   2.969   1.163  11.204 -0.4430 -0.3143  0.2024
  835MPD2    H712285   2.954   1.264  11.198  1.8478  0.0336  0.2735
  836MPD2     C12286   2.669   1.588  11.972 -0.2766  0.3838  0.3480
  836MPD2    C112287   2.772   1.515  12.034  0.7343 -0.1716 -0.1096
  836MPD2    C212288   2.733   1.421  12.122  0.3764  0.2358 -0.6658
  836MPD2    C312289   2.597   1.401  12.143 -0.8162 -0.3126 -0.0149
  836MPD2    C412290   2.502   1.480  12.088  0.5853 -0.0656  0.3464
  836MPD2    C512291   2.538   1.581  12.004  0.0108  0.3119  0.0468
  836MPD2     H12292   2.802   1.364  12.183  0.8665  2.0822  0.4744
  836MPD2    H112293   2.395   1.469  12.103  0.4517 -1.3808 -1.6197
  836MPD2    H212294   2.694   1.668  11.904 -1.5514 -0.0555 -0.6586
  836MPD2    H312295   2.464   1.650  11.965  0.5775  0.9117  0.0475
  836MPD2     N12296   2.541   1.306  12.231  0.4039  0.5186 -0.3905
  836MPD2    H512297   2.440   1.307  12.235  0.4706  0.7968  1.1749
  836MPD2    N112298   2.903   1.540  11.995  0.0842 -0.3906  0.2356
  836MPD2    H712299   2.908   1.603  11.916  0.6833 -0.8475 -0.0860
  837MPD2     C12300   0.745   1.418   9.802  0.3790  0.3887  0.4822
  837MPD2    C112301   0.814   1.403   9.916 -0.4807  0.6572  0.1627
  837MPD2    C212302   0.803   1.495  10.017 -0.0195 -0.7747 -0.1859
  837MPD2    C312303   0.752   1.615   9.992  0.1152 -0.7079 -0.4212
  837MPD2    C412304   0.690   1.632   9.868  0.2641  0.2039 -0.0253
  837MPD2    C512305   0.679   1.533   9.778 -0.0308 -0.3306  1.0077
  837MPD2     H12306   0.856   1.495  10.111 -0.9422 -1.9112  0.3389
  837MPD2    H112307   0.641   1.726   9.846  0.9097  0.3997 -0.6088
  837MPD2    H212308   0.752   1.344   9.723  0.3452  1.5217 -0.5603
  837MPD2    H312309   0.627   1.554   9.685 -0.9735 -2.3624  1.0952
  837MPD2     N12310   0.763   1.710  10.087 -0.3564 -0.2429 -0.7722
  837MPD2    H512311   0.812   1.684  10.171 -0.4684 -0.1679 -0.6833
  837MPD2    N112312   0.872   1.279   9.958  0.2016 -0.6065 -0.6930
  837MPD2    H712313   0.925   1.281  10.045  0.6481  2.9278 -1.0415
  838MPD2     C12314   3.722   4.485  12.341  0.3495  0.1401 -0.0888
  838MPD2    C112315   3.768   4.353  12.338 -0.3393  0.8477  0.0073
  838MPD2    C212316   3.674   4.245  12.333  0.6049  0.1773  0.0897
  838MPD2    C312317   3.539   4.271  12.330  0.0036  0.0042 -0.0657
  838MPD2    C412318   3.488   4.401  12.333 -0.7585 -0.2728  0.2081
  838MPD2    C512319   3.584   4.511  12.333 -0.5660  0.5545  0.1648
  838MPD2     H12320   3.711   4.144  12.325 -2.0736 -0.7136 -0.8136
  838MPD2    H112321   3.381   4.418  12.338 -1.1610 -2.3549 -1.4274
  838MPD2    H212322   3.790   4.570  12.349 -1.5849  1.6383  0.3251
  838MPD2    H312323   3.560   4.616  12.345 -1.0471  0.3008  1.4177
  838MPD2     N12324   3.462   4.156  12.331 -0.6165  0.8068  0.5502
  838MPD2    H512325   3.511   4.067  12.326  0.9532  1.7114 -0.0742
  838MPD2    N112326   3.900   4.317  12.323  0.4178 -0.1745 -0.2509
  838MPD2    H712327   3.926   4.219  12.322  2.6726  0.4474 -1.1875
  839MPD2     C12328   3.865   3.625  12.063  0.0437 -0.1581  0.6245
  839MPD2    C112329   3.947   3.681  11.967 -0.2312 -0.1787 -0.2682
  839MPD2    C212330   4.031   3.783  12.006  0.5108 -0.0375  0.5713
  839MPD2    C312331   4.044   3.825  12.140 -0.1842 -0.1306  0.4587
  839MPD2    C412332   3.970   3.756  12.234  0.3247  0.6831 -0.4144
  839MPD2    C512333   3.888   3.656  12.192  0.0817 -0.3220  0.3970
  839MPD2     H12334   4.079   3.841  11.927  0.9000 -1.6339 -0.3654
  839MPD2    H112335   3.974   3.774  12.341 -1.4571  0.0170 -0.2350
  839MPD2    H212336   3.789   3.552  12.040 -0.1184  0.3767 -0.5532
  839MPD2    H312337   3.831   3.608  12.271 -0.9268  0.5548  0.1951
  839MPD2     N12338   4.116   3.938  12.183  0.6625  0.7356 -0.0670
  839MPD2    H512339   4.109   3.966  12.280  0.2244 -0.3933  0.2230
  839MPD2    N112340   3.925   3.651  11.827  0.0157 -0.2028 -0.6181
  839MPD2    H712341   3.998   3.677  11.762  1.9769 -1.3021  1.1530
  840MPD2     C12342   4.166   1.050  10.686  0.1890 -0.0114  0.9746
  840MPD2    C112343   4.149   1.052  10.819 -0.2365  0.5716 -0.3758
  840MPD2    C212344   4.213   1.141  10.903 -0.9105 -0.2790  0.5954
  840MPD2    C312345   4.297   1.234  10.853  0.2389  0.0872  0.0529
  840MPD2    C412346   4.319   1.228  10.722 -0.6923  0.5344 -0.6403
  840MPD2    C512347   4.254   1.138  10.638 -0.1301  0.3118  0.3119
  840MPD2     H12348   4.189   1.130  11.008 -2.1924 -1.0059  0.2265
  840MPD2    H112349   4.391   1.297  10.681 -0.8279  0.5308 -0.8810
  840MPD2    H212350   4.109   0.980  10.627  1.9102  1.3943 -2.3531
  840MPD2    H312351   4.275   1.148  10.532  1.1968 -0.3969  0.5037
  840MPD2     N12352   4.372   1.324  10.927  0.6464  0.1463 -0.4461
  840MPD2    H512353   4.447   1.371  10.877  1.6930  0.5847  1.5377
  840MPD2    N112354   4.066   0.955  10.865 -0.3476 -0.4508 -0.0591
  840MPD2    H712355   4.050   0.881  10.797 -1.2068 -2.4476  2.3391
  841MPD2     C12356   3.996   1.183  14.917 -0.6258 -0.1729 -0.2149
  841MPD2    C112357   4.090   1.089  14.897 -0.1078 -0.0810  0.0985
  841MPD2    C212358   4.222   1.114  14.922 -0.4175  0.0588  0.0940
  841MPD2    C312359   4.261   1.236  14.974 -0.4472 -0.7400  0.2369
  841MPD2    C412360   4.167   1.335  14.989 -0.8101  0.0930  0.3779
  841MPD2    C512361   4.034   1.300  14.972 -0.9592  0.2171 -0.2947
  841MPD2     H12362   4.302   1.041  14.917 -1.0261 -0.6201  0.4645
  841MPD2    H112363   4.187   1.438  15.015 -1.3420  0.7748 -1.9253
  841MPD2    H212364   3.891   1.174  14.895 -0.8968  0.5923  0.7662
  841MPD2    H312365   3.961   1.379  14.988 -0.2114  0.0777  3.6809
  841MPD2     N12366   4.396   1.255  15.006  0.0537 -0.0250  0.0440
  841MPD2    H512367   4.451   1.170  15.014 -1.8555 -1.0559  2.2310
  841MPD2    N112368   4.054   0.966  14.835 -0.0814 -0.0039  0.4990
  841MPD2    H712369   4.128   0.905  14.803  0.7234  0.5662  1.2549
  842MPD2     C12370   3.412   1.712  16.531 -0.0113 -0.2379  0.1251
  842MPD2    C112371   3.509   1.806  16.524 -1.7794  0.0442 -0.5764
  842MPD2    C212372   3.569   1.847  16.640  0.3443 -0.4835 -0.4988
  842MPD2    C312373   3.519   1.810  16.761 -0.8166 -0.0973  0.3072
  842MPD2    C412374   3.425   1.708  16.770  0.1676  0.0047  0.4861
  842MPD2    C512375   3.379   1.655  16.648  0.2339 -0.0584  0.3379
  842MPD2     H12376   3.615   1.944  16.628  0.7123 -0.9278 -2.7876
  842MPD2    H112377   3.410   1.658  16.865  1.0575  0.3926  0.8325
  842MPD2    H212378   3.367   1.676  16.439  0.0915  0.2025 -0.0990
  842MPD2    H312379   3.320   1.564  16.651 -0.2409  0.2600  0.6210
  842MPD2     N12380   3.545   1.888  16.879 -0.1874 -0.1833 -0.1254
  842MPD2    H512381   3.491   1.870  16.964  0.3309 -2.0261 -0.1854
  842MPD2    N112382   3.541   1.861  16.397  0.4223  0.6343  0.2666
  842MPD2    H712383   3.484   1.841  16.316  0.4793  0.7894  0.1884
  843MPD2     C12384   1.094   2.005   0.688 -0.3711 -0.8217 -0.5728
  843MPD2    C112385   1.088   2.055   0.824  0.3427  0.2736  0.0328
  843MPD2    C212386   1.169   2.165   0.851 -0.7950 -0.7343 -0.0801
  843MPD2    C312387   1.261   2.216   0.759 -0.3967  0.2243 -0.3052
  843MPD2    C412388   1.251   2.164   0.630 -0.2811  0.4610  0.1301
  843MPD2    C512389   1.168   2.061   0.592  0.1089 -0.4278  0.5587
  843MPD2     H12390   1.156   2.215   0.947 -0.2550 -1.1422  0.2059
  843MPD2    H112391   1.316   2.197   0.550 -2.6650  3.6999 -0.4740
  843MPD2    H212392   1.025   1.928   0.657 -1.3873 -0.1376 -0.0329
  843MPD2    H312393   1.155   2.034   0.488  0.7972 -0.9138  0.5969
  843MPD2     N12394   1.354   2.316   0.790  0.3327 -0.3909 -0.7487
  843MPD2    H512395   1.377   2.364   0.704 -0.5916  3.3261  1.1140
  843MPD2    N112396   0.997   1.999   0.916 -0.2374 -1.0689 -0.5828
  843MPD2    H712397   0.932   1.945   0.861 -1.1674  1.0982 -1.5811
  844MPD2     C12398   4.402   1.581  16.709 -0.0392 -0.6747  0.2318
  844MPD2    C112399   4.533   1.546  16.713  0.2202 -0.6235  0.7177
  844MPD2    C212400   4.626   1.631  16.769  0.0598 -0.6622 -0.4410
  844MPD2    C312401   4.582   1.745  16.830 -0.0870 -0.0953 -0.8384
  844MPD2    C412402   4.444   1.783  16.828 -0.3581  0.4052 -0.4352
  844MPD2    C512403   4.360   1.694  16.770 -0.0803 -0.3194 -0.2212
  844MPD2     H12404   0.010   1.606  16.775 -0.0634 -1.2655 -0.9135
  844MPD2    H112405   4.392   1.866  16.874  1.4089 -0.8193  3.7821
  844MPD2    H212406   4.333   1.506  16.671  0.6526  0.0591 -2.4342
  844MPD2    H312407   4.256   1.723  16.776  0.2891  0.2625  3.2502
  844MPD2     N12408   4.679   1.825  16.894 -0.3549 -0.1416 -0.2973
  844MPD2    H512409   0.052   1.789  16.885 -0.1768 -0.0179  0.9932
  844MPD2    N112410   4.583   1.444  16.622 -0.4088  0.8312 -0.4609
  844MPD2    H712411   4.678   1.411  16.640 -1.9908 -4.1214 -1.0870
  845MPD2     C12412   0.373   2.808  17.026  0.3106  0.3705 -0.1856
  845MPD2    C112413   0.301   2.740  17.125 -0.4942  0.3063 -0.6093
  845MPD2    C212414   0.275   2.607  17.105  0.5332  0.5676  0.0143
  845MPD2    C312415   0.308   2.545  16.985  0.0026  0.1317 -0.5753
  845MPD2    C412416   0.392   2.603  16.899 -0.4819  0.6171  0.3277
  845MPD2    C512417   0.419   2.739  16.912  0.1512 -0.6242 -0.0861
  845MPD2     H12418   0.216   2.549  17.175  0.0185  1.0539 -0.0110
  845MPD2    H112419   0.428   2.551  16.811 -1.6687 -0.0973  0.2700
  845MPD2    H212420   0.402   2.911  17.047  0.9281 -0.6330  3.7495
  845MPD2    H312421   0.486   2.783  16.839  0.0074  0.5110  0.4708
  845MPD2     N12422   0.283   2.409  16.966  0.0469  0.3322 -0.5937
  845MPD2    H512423   0.347   2.366  16.900  0.8622  0.2057  0.2856
  845MPD2    N112424   0.256   2.820  17.235  0.5547 -0.7424  0.6261
  845MPD2    H712425   0.265   2.921  17.225 -2.3529 -0.7703 -2.0950
  846MPD2     C12426   1.958   3.107  13.804  0.1618  0.4476  1.0188
  846MPD2    C112427   1.851   3.187  13.800  0.1231 -0.3631  0.0427
  846MPD2    C212428   1.769   3.188  13.913  0.1615  0.0499 -0.3397
  846MPD2    C312429   1.805   3.104  14.020 -0.2567 -0.2306 -0.8473
  846MPD2    C412430   1.904   3.007  14.011  0.2696 -0.4289  0.3092
  846MPD2    C512431   1.981   3.009  13.896 -0.8100 -0.1312 -0.1838
  846MPD2     H12432   1.677   3.245  13.902 -0.8473 -1.4991  0.0446
  846MPD2    H112433   1.927   2.939  14.092  0.1168  0.9758  1.5402
  846MPD2    H212434   2.035   3.108  13.728  1.5783  2.0528  2.4682
  846MPD2    H312435   2.059   2.935  13.888  0.1284  0.7942  0.3523
  846MPD2     N12436   1.720   3.104  14.131 -0.8197  0.0416  0.0997
  846MPD2    H512437   1.630   3.149  14.112 -0.4173  0.4064 -0.9527
  846MPD2    N112438   1.818   3.277  13.693 -0.3151  0.2742  0.8763
  846MPD2    H712439   1.745   3.346  13.710 -1.6075 -0.6650 -0.9527
  847MPD2     C12440   1.917   3.812  14.353 -0.0403  0.3960  0.3347
  847MPD2    C112441   2.011   3.906  14.331  0.8997  0.2541 -0.3571
  847MPD2    C212442   2.142   3.882  14.356 -0.3701  0.0868 -0.5542
  847MPD2    C312443   2.188   3.755  14.387 -0.7243 -0.4659  0.8547
  847MPD2    C412444   2.087   3.661  14.418  0.1399 -0.0778  0.5031
  847MPD2    C512445   1.959   3.691  14.402  0.0195  0.5142 -0.3828
  847MPD2     H12446   2.213   3.961  14.335 -0.4999 -0.0491 -1.4952
  847MPD2    H112447   2.111   3.558  14.441  1.1632 -0.1174 -0.7300
  847MPD2    H212448   1.810   3.822  14.339 -0.0404 -1.4450 -0.9682
  847MPD2    H312449   1.888   3.609  14.409 -0.5665  1.0999  0.5317
  847MPD2     N12450   2.326   3.738  14.406 -0.0058  0.4185  0.4792
  847MPD2    H512451   2.382   3.820  14.382  2.1064 -1.0342  0.4745
  847MPD2    N112452   1.971   4.037  14.300  0.0531  0.3246  0.0772
  847MPD2    H712453   2.048   4.102  14.285  0.6980 -0.4136  0.1366
  848MPD2     C12454   4.099   2.244  16.959 -0.1498 -0.6066 -0.5545
  848MPD2    C112455   4.233   2.219  16.953 -0.2913  0.3924  0.6830
  848MPD2    C212456   4.314   2.304  16.876  0.1607  0.1767  0.0258
  848MPD2    C312457   4.257   2.400  16.799 -0.0430 -0.2306 -0.1739
  848MPD2    C412458   4.121   2.419  16.808 -0.9075  0.2736  0.2337
  848MPD2    C512459   4.038   2.347  16.890  0.3083 -0.5442  0.2131
  848MPD2     H12460   4.421   2.288  16.868  0.6581  1.4837  3.6843
  848MPD2    H112461   4.072   2.492  16.745 -1.4940 -3.1811 -3.2906
  848MPD2    H212462   4.033   2.179  17.016 -1.9311 -0.1520 -2.0902
  848MPD2    H312463   3.931   2.363  16.883  0.3960 -0.1049 -0.1279
  848MPD2     N12464   4.320   2.481  16.701  0.5186 -0.0097 -0.3278
  848MPD2    H512465   4.260   2.550  16.658  2.5952  1.4094 -0.9080
  848MPD2    N112466   4.290   2.116  17.031  0.1269 -0.2694  0.3849
  848MPD2    H712467   4.392   2.119  17.031  0.0171  3.4723 -1.0307
  849MPD2     C12468   3.925   2.124  14.559 -0.0341 -0.0305  0.3180
  849MPD2    C112469   4.040   2.079  14.491  0.3253  0.0979  0.4384
  849MPD2    C212470   4.112   1.969  14.543  0.2414 -0.4427 -0.0432
  849MPD2    C312471   4.072   1.909  14.663 -0.8006 -0.0989 -0.9338
  849MPD2    C412472   3.965   1.955  14.721 -0.4527 -0.5985  0.2987
  849MPD2    C512473   3.886   2.060  14.671  0.0175  0.6229  0.1106
  849MPD2     H12474   4.192   1.918  14.492 -1.1854  0.3675 -3.0765
  849MPD2    H112475   3.939   1.913  14.818  0.8645 -2.0173  0.0398
  849MPD2    H212476   3.873   2.212  14.523 -1.1433 -0.2231  1.4756
  849MPD2    H312477   3.817   2.108  14.739  1.6523 -0.1945  2.3327
  849MPD2     N12478   4.154   1.814  14.731 -0.3895 -0.2970  0.2029
  849MPD2    H512479   4.145   1.781  14.826  0.7627 -1.3711 -0.0559
  849MPD2    N112480   4.082   2.140  14.369 -0.5837 -0.2136 -0.8190
  849MPD2    H712481   4.019   2.209  14.329 -0.2700  1.1761  1.0799
  850MPD2     C12482   2.249   0.065  14.768  0.2983  0.0457  0.1563
  850MPD2    C112483   2.219   0.150  14.872  0.5535  0.1055 -0.0456
  850MPD2    C212484   2.314   0.178  14.967  0.2213  0.3376  0.3784
  850MPD2    C312485   2.442   0.123  14.959 -0.0297 -0.2637 -0.0370
  850MPD2    C412486   2.474   0.052  14.842  0.5665  0.0673  0.5834
  850MPD2    C512487   2.377   0.021  14.752  0.1888  0.8604 -0.1205
  850MPD2     H12488   2.265   0.240  15.041 -0.0483  0.7876 -0.1722
  850MPD2    H112489   2.576   0.017  14.829  0.9273  0.5630  2.0460
  850MPD2    H212490   2.168   0.032  14.704 -0.5300  0.3490  1.0562
  850MPD2    H312491   2.406   4.674  14.672 -0.4204 -0.2271  0.5860
  850MPD2     N12492   2.532   0.137  15.059  0.1216  0.0777  0.9114
  850MPD2    H512493   2.626   0.116  15.027 -0.3768 -1.2713  0.3201
  850MPD2    N112494   2.081   0.194  14.879 -0.0935  0.6076 -0.6011
  850MPD2    H712495   2.029   0.179  14.793 -0.3614  1.0319 -0.5155
  851MPD2     C12496   2.535   4.647  15.500  0.1474 -0.7112  0.1057
  851MPD2    C112497   2.435   4.610  15.408  0.0930 -0.5067  0.3411
  851MPD2    C212498   2.426   4.475  15.377 -0.3904 -0.1709 -0.7581
  851MPD2    C312499   2.502   4.384  15.437 -0.2197  0.0511 -0.5441
  851MPD2    C412500   2.587   4.422  15.537 -0.2517  0.3280  0.2878
  851MPD2    C512501   2.595   4.552  15.582 -0.7719  0.0191 -0.3372
  851MPD2     H12502   2.363   4.438  15.297  0.8099 -1.0755 -1.2863
  851MPD2    H112503   2.644   4.348  15.592  0.4933  1.0541  0.4981
  851MPD2    H212504   2.544   0.031  15.525 -0.5929 -0.5695 -0.2137
  851MPD2    H312505   2.646   4.583  15.672 -0.4890 -1.0236 -0.1354
  851MPD2     N12506   2.499   4.252  15.378 -0.5970 -0.6051  0.0704
  851MPD2    H512507   2.441   4.227  15.298 -1.0129 -0.8916  0.4624
  851MPD2    N112508   2.345   4.707  15.377  1.0310  0.2035 -0.0681
  851MPD2    H712509   2.359   0.079  15.414  0.1770  0.3438 -0.1077
  852MPD2     C12510   1.764   2.902  10.042 -0.2752 -0.7311 -0.3560
  852MPD2    C112511   1.831   2.956  10.153 -0.4110 -0.3680  0.6767
  852MPD2    C212512   1.952   3.016  10.136  0.5629 -1.1595  0.1755
  852MPD2    C312513   2.012   3.022  10.011 -0.5832 -0.2108  0.7287
  852MPD2    C412514   1.941   2.980   9.898  0.6801 -0.0791 -0.1236
  852MPD2    C512515   1.828   2.913   9.919 -0.4169 -0.3956  0.1385
  852MPD2     H12516   2.005   3.050  10.224  0.2140  0.3862 -0.2173
  852MPD2    H112517   1.979   2.989   9.797  1.0869 -1.4801 -0.0933
  852MPD2    H212518   1.668   2.853  10.053 -0.8647  0.3450 -0.7887
  852MPD2    H312519   1.781   2.866   9.832 -0.9527 -2.1365  1.3594
  852MPD2     N12520   2.148   3.064  10.010  0.3939 -0.0081 -0.5207
  852MPD2    H512521   2.193   3.087  10.098  0.8088 -3.6598  0.1899
  852MPD2    N112522   1.793   2.946  10.289 -0.2338  0.2746  0.3301
  852MPD2    H712523   1.852   2.992  10.358  1.0891  0.9244 -1.2366
  853MPD2     C12524   3.991   2.531  12.413 -0.2163  0.6159 -0.3437
  853MPD2    C112525   3.879   2.593  12.372  0.2117 -0.1329  0.1976
  853MPD2    C212526   3.868   2.624  12.235 -0.8794  0.4537 -0.4942
  853MPD2    C312527   3.973   2.600  12.150  0.2142  0.4330  0.4827
  853MPD2    C412528   4.097   2.553  12.198  0.5828 -0.0821  0.2707
  853MPD2    C512529   4.097   2.523  12.331 -0.0583 -0.6026  0.0939
  853MPD2     H12530   3.779   2.677  12.204 -1.4557  0.4159  1.1107
  853MPD2    H112531   4.181   2.537  12.132 -0.0923 -0.9804 -0.3871
  853MPD2    H212532   4.018   2.517  12.517  0.9306  0.2811 -0.6898
  853MPD2    H312533   4.196   2.506  12.370 -0.1509 -1.2606  0.0429
  853MPD2     N12534   3.967   2.612  12.009 -0.2160 -0.0968  0.3655
  853MPD2    H512535   4.046   2.575  11.957 -1.9635  0.3937 -2.6526
  853MPD2    N112536   3.795   2.629  12.482 -0.5610  0.0295 -0.1602
  853MPD2    H712537   3.826   2.588  12.570 -2.1484  3.1282  1.8240
  854MPD2     C12538   0.567   2.569  12.734 -0.2487 -0.2167  0.2461
  854MPD2    C112539   0.605   2.640  12.850  0.5744 -0.2915 -0.2801
  854MPD2    C212540   0.700   2.585  12.938  0.3183 -0.6896  0.6728
  854MPD2    C312541   0.748   2.457  12.915 -0.0212  0.4671 -0.4172
  854MPD2    C412542   0.691   2.380  12.818 -0.1969 -0.4456 -0.1672
  854MPD2    C512543   0.606   2.439  12.725 -0.1449  0.1085  0.0973
  854MPD2     H12544   0.724   2.627  13.035  1.9641 -1.0426  0.4213
  854MPD2    H112545   0.725   2.279  12.796 -0.2792 -0.1231 -1.7974
  854MPD2    H212546   0.509   2.617  12.656 -2.5427 -0.1652  1.9752
  854MPD2    H312547   0.573   2.372  12.647 -1.9584  1.0375  0.0585
  854MPD2     N12548   0.848   2.392  12.987 -0.1025  0.2095 -0.6186
  854MPD2    H512549   0.873   2.302  12.947  0.6270  0.4913 -0.7957
  854MPD2    N112550   0.564   2.775  12.855 -0.2390 -0.9343  0.1534
  854MPD2    H712551   0.519   2.817  12.775  2.2081 -0.5035 -0.9894
  855MPD2     C12552   1.315   2.546  13.870 -0.8788  0.5792  0.3363
  855MPD2    C112553   1.283   2.408  13.849  0.5157 -0.5146 -0.4501
  855MPD2    C212554   1.255   2.364  13.723  0.3024 -0.3501  0.2536
  855MPD2    C312555   1.258   2.452  13.615  0.2817 -0.2738 -0.2774
  855MPD2    C412556   1.297   2.582  13.634 -0.0052  0.4079 -0.2614
  855MPD2    C512557   1.312   2.627  13.763 -0.0891  0.6491  0.3258
  855MPD2     H12558   1.221   2.264  13.698 -3.8980  0.8426  1.1558
  855MPD2    H112559   1.308   2.655  13.554 -1.9922  0.7557 -0.2291
  855MPD2    H212560   1.320   2.597  13.966 -0.2416 -3.9158  2.6895
  855MPD2    H312561   1.353   2.727  13.771 -0.6013  0.7901  1.0913
  855MPD2     N12562   1.232   2.419  13.478  0.2297  0.0964  0.1252
  855MPD2    H512563   1.219   2.497  13.414 -0.3383 -1.0597 -1.1628
  855MPD2    N112564   1.246   2.319  13.960 -0.3629 -0.2459  0.3687
  855MPD2    H712565   1.198   2.232  13.939 -1.6293  1.1408 -2.3763
  856MPD2     C12566   2.864   3.804  13.461 -0.9960 -0.1214  0.0006
  856MPD2    C112567   2.926   3.806  13.583  0.6202  0.8970 -0.3912
  856MPD2    C212568   2.864   3.848  13.695 -0.1292  0.8618  0.0068
  856MPD2    C312569   2.726   3.893  13.685  0.1177  0.5936  0.1443
  856MPD2    C412570   2.667   3.874  13.565  0.3640 -0.5051 -0.0116
  856MPD2    C512571   2.734   3.837  13.454  0.1353 -0.1272  0.5091
  856MPD2     H12572   2.920   3.839  13.788  3.0470  0.5068 -1.9574
  856MPD2    H112573   2.561   3.898  13.562  0.4916  0.2388  1.4452
  856MPD2    H212574   2.914   3.772  13.371  2.0351  1.2524  1.1979
  856MPD2    H312575   2.687   3.807  13.361  0.1868 -0.3668  0.5613
  856MPD2     N12576   2.642   3.929  13.797 -0.0724 -0.7524 -0.0977
  856MPD2    H512577   2.545   3.947  13.776  0.1499  2.2682  1.5389
  856MPD2    N112578   3.062   3.765  13.592 -0.0280 -0.1111  0.3492
  856MPD2    H712579   3.118   3.783  13.674  0.7072 -0.0141 -0.1750
  857MPD2     C12580   0.047   1.082  13.138  0.0697 -0.3760  0.2656
  857MPD2    C112581   0.170   1.066  13.191  0.8989  0.4156 -0.5657
  857MPD2    C212582   0.260   1.175  13.181  0.3632  0.2879  0.1710
  857MPD2    C312583   0.221   1.296  13.142  0.0546 -0.0019  0.1620
  857MPD2    C412584   0.091   1.306  13.091 -0.1455  0.3769  0.7299
  857MPD2    C512585   0.005   1.199  13.085 -0.8259 -0.3092  0.5928
  857MPD2     H12586   0.364   1.169  13.211  0.1173  4.6205  1.8688
  857MPD2    H112587   0.067   1.406  13.056 -1.3828 -0.2590 -0.2625
  857MPD2    H212588   4.694   1.002  13.145  1.2456 -1.4627  0.1776
  857MPD2    H312589   4.623   1.216  13.055 -2.0011  0.3513  5.0607
  857MPD2     N12590   0.315   1.400  13.146 -0.3676 -0.2017 -0.0999
  857MPD2    H512591   0.406   1.376  13.184 -1.2696 -2.3202  0.7284
  857MPD2    N112592   0.198   0.938  13.248 -0.0145 -0.1055  0.6514
  857MPD2    H712593   0.133   0.865  13.218  0.3657  0.2277 -0.9273
  858MPD2     C12594   0.341   4.515  16.793  0.6205 -0.0510  0.4693
  858MPD2    C112595   0.472   4.489  16.832 -0.0486  0.6551  0.4396
  858MPD2    C212596   0.512   4.541  16.954  0.1387 -0.7601  0.4043
  858MPD2    C312597   0.422   4.608  17.035 -0.1834  1.2398  0.4917
  858MPD2    C412598   0.298   4.645  16.984  0.2590 -1.0144 -0.0407
  858MPD2    C512599   0.255   4.589  16.864 -0.2984 -0.1387 -0.2619
  858MPD2     H12600   0.613   4.528  16.989  0.6364  0.0641 -0.7059
  858MPD2    H112601   0.224   4.698  17.042 -0.5151 -1.7828 -0.3307
  858MPD2    H212602   0.311   4.482  16.694  1.8052  0.2653  0.0014
  858MPD2    H312603   0.155   4.610  16.829 -1.0860 -1.0032  1.4546
  858MPD2     N12604   0.457   4.659  17.158  0.9090  0.2436 -0.5479
  858MPD2    H512605   0.394   4.721  17.208  3.0539  1.5018  0.6550
  858MPD2    N112606   0.548   4.408  16.749 -0.4617  0.3698  0.2547
  858MPD2    H712607   0.502   4.366  16.669  2.4456  0.5904 -1.5163
  859MPD2     C12608   3.607   1.828  15.528  0.1760 -0.5532  0.4800
  859MPD2    C112609   3.744   1.836  15.547  0.4832  0.7097  0.5191
  859MPD2    C212610   3.800   1.736  15.634  0.1667 -0.0319 -0.5888
  859MPD2    C312611   3.716   1.638  15.698  0.4003 -0.0670  0.0751
  859MPD2    C412612   3.579   1.646  15.682  0.5057 -0.3055 -0.0725
  859MPD2    C512613   3.524   1.734  15.592  0.0459  0.6969 -0.6129
  859MPD2     H12614   3.907   1.729  15.651  0.0612 -0.0098  0.1033
  859MPD2    H112615   3.509   1.586  15.739  1.4725  0.6220  2.0899
  859MPD2    H212616   3.561   1.889  15.451 -0.6078 -0.8645  0.7002
  859MPD2    H312617   3.421   1.719  15.562  0.0454  0.1385 -0.3341
  859MPD2     N12618   3.760   1.526  15.773 -0.4514  0.2075  0.0250
  859MPD2    H512619   3.697   1.454  15.806 -0.2916  0.1437  0.1916
  859MPD2    N112620   3.826   1.935  15.499 -0.0505 -0.3717 -0.2297
  859MPD2    H712621   3.924   1.916  15.519 -0.0997 -1.7895 -1.3123
  860MPD2     C12622   1.873   2.572  11.840 -0.4549  0.0918 -0.3116
  860MPD2    C112623   1.873   2.512  11.964 -0.4796 -0.0775 -0.6057
  860MPD2    C212624   1.751   2.452  11.994 -0.5448 -0.5320  0.0715
  860MPD2    C312625   1.647   2.443  11.907  0.7234 -0.6566  0.0329
  860MPD2    C412626   1.658   2.504  11.785  0.2604 -0.4368 -0.4377
  860MPD2    C512627   1.764   2.574  11.756 -0.0643 -0.2958 -0.4047
  860MPD2     H12628   1.738   2.406  12.091 -2.3238 -1.3716 -0.5608
  860MPD2    H112629   1.583   2.496  11.708  1.6253 -0.3940 -1.7804
  860MPD2    H212630   1.967   2.617  11.811  0.2020 -1.0078  0.0953
  860MPD2    H312631   1.780   2.619  11.659  1.3287  0.4230  0.1476
  860MPD2     N12632   1.529   2.360  11.937  0.5193 -0.1909 -0.1966
  860MPD2    H512633   1.531   2.314  12.027  1.3307  1.0872  0.4470
  860MPD2    N112634   1.981   2.502  12.050 -0.0424  0.3350 -0.5640
  860MPD2    H712635   1.963   2.460  12.140  0.9505  0.0230 -0.5089
  861MPD2     C12636   0.678   0.813  11.366 -0.1660 -0.3323  0.1073
  861MPD2    C112637   0.569   0.798  11.446 -0.0305  0.4716  0.3056
  861MPD2    C212638   0.440   0.784  11.384 -0.2980 -0.1915 -0.8003
  861MPD2    C312639   0.434   0.793  11.243 -0.2426 -0.1873  0.2962
  861MPD2    C412640   0.550   0.798  11.168 -0.2981  0.2098  0.4961
  861MPD2    C512641   0.675   0.819  11.233 -0.2119  0.4215  0.6471
  861MPD2     H12642   0.360   0.767  11.454 -1.3352  0.7438 -1.7637
  861MPD2    H112643   0.536   0.792  11.061  0.0529 -2.7578  0.6112
  861MPD2    H212644   0.773   0.842  11.410 -0.4532 -0.8075  1.0478
  861MPD2    H312645   0.762   0.826  11.168  0.1961 -1.7856  0.9446
  861MPD2     N12646   0.312   0.783  11.171 -0.4593 -0.6830 -0.9612
  861MPD2    H512647   0.322   0.783  11.070 -0.8529 -0.4123 -0.9974
  861MPD2    N112648   0.581   0.785  11.584 -0.2668 -0.4368 -0.4185
  861MPD2    H712649   0.500   0.787  11.645 -1.2030  0.6238 -1.6920
  862MPD2     C12650   0.186   0.878  10.508  0.1878  0.4199 -0.6726
  862MPD2    C112651   0.135   0.787  10.598  0.1498  0.7436 -0.4595
  862MPD2    C212652   0.141   0.658  10.572  0.2921  0.1472 -0.3402
  862MPD2    C312653   0.189   0.616  10.457  0.8041 -0.4658  0.1250
  862MPD2    C412654   0.240   0.701  10.367 -0.5452  0.2272  0.4813
  862MPD2    C512655   0.236   0.837  10.390 -0.7208  0.9058 -0.0656
  862MPD2     H12656   0.105   0.585  10.645 -1.8314 -1.2466 -2.7906
  862MPD2    H112657   0.296   0.656  10.285 -1.1001 -1.7557  1.1801
  862MPD2    H212658   0.184   0.983  10.533  1.1911  0.8418 -2.3519
  862MPD2    H312659   0.286   0.906  10.322  0.9182 -0.5706 -0.3777
  862MPD2     N12660   0.210   0.479  10.433  0.2979 -0.0014 -0.4814
  862MPD2    H512661   0.274   0.449  10.360  0.9728 -0.6399  0.3780
  862MPD2    N112662   0.106   0.822  10.727  0.1059 -0.3606  0.2738
  862MPD2    H712663   0.087   0.743  10.787  2.8098  1.1483  3.1196
  863MPD2     C12664   3.677   3.018  17.304  0.2394  0.4728  0.4692
  863MPD2    C112665   3.718   3.142  17.258  0.1290 -0.1485  0.1558
  863MPD2    C212666   3.824   3.203  17.324 -0.1397  0.1066 -0.0811
  863MPD2    C312667   3.883   3.148  17.435  0.6131  0.5541  0.1952
  863MPD2    C412668   3.838   3.022  17.484  0.1578  0.4760  0.4556
  863MPD2    C512669   3.737   2.961  17.415  0.1417  0.5635 -0.7845
  863MPD2     H12670   3.869   3.291  17.280 -1.0807 -0.0705 -1.3812
  863MPD2    H112671   3.890   2.975  17.567 -0.3304  0.7025  0.8910
  863MPD2    H212672   3.593   2.965  17.261  1.1246 -0.2698 -0.3610
  863MPD2    H312673   3.698   2.865  17.447  2.3702 -0.3722 -0.9211
  863MPD2     N12674   3.992   3.203  17.502  0.6280  0.0887 -0.4595
  863MPD2    H512675   4.026   3.147  17.580 -0.8378  0.1869  0.2543
  863MPD2    N112676   3.661   3.188  17.141 -0.0105 -0.4837 -0.3799
  863MPD2    H712677   3.596   3.127  17.093  0.9550 -2.0312  0.2759
  864MPD2     C12678   3.737   0.237  17.404 -0.9291 -0.8757 -0.1465
  864MPD2    C112679   3.845   0.173  17.342  0.0565  0.9424  0.2056
  864MPD2    C212680   3.896   0.229  17.231  0.2245  0.3165 -0.0735
  864MPD2    C312681   3.835   0.336  17.166  0.2504  0.0253 -0.3305
  864MPD2    C412682   3.722   0.390  17.211  0.1010 -0.8766 -0.0718
  864MPD2    C512683   3.674   0.342  17.333 -0.2168  0.4553  0.0823
  864MPD2     H12684   3.991   0.192  17.196  0.0981 -0.8556  0.8078
  864MPD2    H112685   3.680   0.480  17.168  0.7187  0.1008  1.3531
  864MPD2    H212686   3.704   0.199  17.500  1.1786  0.7467  1.2089
  864MPD2    H312687   3.604   0.398  17.393 -1.8174 -1.7392  0.2543
  864MPD2     N12688   3.887   0.380  17.047 -0.4133 -0.0593 -0.9038
  864MPD2    H512689   3.836   0.453  16.997  0.3120  0.5125 -0.8095
  864MPD2    N112690   3.904   0.055  17.406 -0.0240  0.0948 -0.3152
  864MPD2    H712691   3.884   0.035  17.504  0.0685  0.6659 -0.1815
  865MPD2     C12692   3.909   0.106  16.188 -0.0778 -0.2243 -0.1516
  865MPD2    C112693   3.943   0.046  16.304 -0.0509  0.8329 -0.8782
  865MPD2    C212694   3.920   0.115  16.424 -0.3914  0.4758 -1.0569
  865MPD2    C312695   3.871   0.243  16.422 -0.1323 -0.0522 -0.5096
  865MPD2    C412696   3.838   0.303  16.303 -0.5847 -0.2512  0.2400
  865MPD2    C512697   3.856   0.232  16.187 -0.5082 -0.0853 -0.5244
  865MPD2     H12698   3.964   0.079  16.516 -0.5539 -0.9729 -1.5439
  865MPD2    H112699   3.804   0.405  16.289  0.9132  0.0843 -1.0017
  865MPD2    H212700   3.920   0.050  16.096  0.1701  0.8347 -0.7626
  865MPD2    H312701   3.827   0.279  16.093 -0.5238 -0.0435 -0.4986
  865MPD2     N12702   3.887   0.314  16.545 -0.4782  0.0897 -0.3057
  865MPD2    H512703   3.908   0.259  16.628 -0.6530 -1.1633 -1.0985
  865MPD2    N112704   4.010   4.637  16.298 -0.5948  0.6670  0.4369
  865MPD2    H712705   4.044   4.609  16.207 -0.1528  0.7185  0.5869
  866MPD2     C12706   1.065   0.992  11.861 -0.7326  0.6851  0.5205
  866MPD2    C112707   1.082   1.008  11.721  0.2833  0.3514 -0.6199
  866MPD2    C212708   0.973   1.056  11.643 -0.5446 -0.4538  0.2816
  866MPD2    C312709   0.861   1.104  11.702 -0.6996 -0.6807  0.5809
  866MPD2    C412710   0.855   1.106  11.843 -0.0160 -0.3736 -0.0008
  866MPD2    C512711   0.959   1.056  11.916 -0.5665 -0.6515  0.3914
  866MPD2     H12712   0.984   1.051  11.536 -1.3353  2.5902  0.0553
  866MPD2    H112713   0.768   1.141  11.899  0.7741 -1.1031  1.6921
  866MPD2    H212714   1.145   0.959  11.926 -0.1343  1.5268  0.2069
  866MPD2    H312715   0.949   1.052  12.024  0.9281 -0.3906  0.5459
  866MPD2     N12716   0.743   1.137  11.627 -0.6037 -0.4254 -0.1595
  866MPD2    H512717   0.666   1.172  11.681  1.1628  0.3564  1.8512
  866MPD2    N112718   1.197   0.959  11.664 -0.2777 -0.6285 -0.2000
  866MPD2    H712719   1.257   0.915  11.733 -0.5871 -0.6834  0.0368
  867MPD2     C12720   3.064   4.300  16.685  0.2611 -0.1280 -0.1649
  867MPD2    C112721   3.132   4.334  16.805  0.2277  0.3916 -0.2981
  867MPD2    C212722   3.114   4.459  16.855 -0.1111  0.7104 -0.5774
  867MPD2    C312723   3.031   4.550  16.796 -0.1522 -1.0837  0.0560
  867MPD2    C412724   2.966   4.509  16.685  0.2959  0.5030  0.3961
  867MPD2    C512725   2.986   4.387  16.628 -0.1879  0.1208 -0.5604
  867MPD2     H12726   3.188   4.483  16.930 -1.0210 -2.0473  1.2086
  867MPD2    H112727   2.895   4.576  16.640 -1.5297 -0.4582  1.8467
  867MPD2    H212728   3.085   4.204  16.638 -0.9108 -0.2726 -0.3785
  867MPD2    H312729   2.927   4.366  16.539 -0.3783 -0.4088 -0.3084
  867MPD2     N12730   2.997   4.680  16.838 -0.2232 -0.1849  0.3729
  867MPD2    H512731   2.926   0.014  16.791  0.5189  0.8664  0.4957
  867MPD2    N112732   3.226   4.243  16.856 -0.2836  0.1189 -0.1501
  867MPD2    H712733   3.245   4.157  16.804 -1.9971  0.0795 -0.7156
  868MPD2     C12734   0.492   2.972  13.393  0.0346 -0.3726  0.7127
  868MPD2    C112735   0.502   3.105  13.374  0.3258  0.3043  0.8602
  868MPD2    C212736   0.392   3.191  13.408 -0.6794 -0.2300  0.3595
  868MPD2    C312737   0.286   3.136  13.480  0.8283 -0.8418 -0.2947
  868MPD2    C412738   0.291   3.004  13.509  0.0849 -0.7238 -1.5447
  868MPD2    C512739   0.389   2.919  13.465  0.9450 -0.0286 -0.6266
  868MPD2     H12740   0.396   3.299  13.396 -0.4479 -0.0459  2.1037
  868MPD2    H112741   0.220   2.967  13.581  0.5155 -0.9514 -1.2332
  868MPD2    H212742   0.578   2.911  13.368 -0.2725 -1.5900  2.6388
  868MPD2    H312743   0.398   2.815  13.491 -0.6410  0.6732  2.7367
  868MPD2     N12744   0.183   3.221  13.516  0.1092 -0.3196 -0.0336
  868MPD2    H512745   0.202   3.320  13.508 -1.0445 -0.3234 -2.8145
  868MPD2    N112746   0.627   3.155  13.316 -0.8240 -0.3063  0.0356
  868MPD2    H712747   0.711   3.099  13.321 -0.6086 -0.1266 -1.5730
  869MPD2     C12748   0.381   2.995   2.484  0.6272  0.5215 -0.1788
  869MPD2    C112749   0.354   2.904   2.381 -0.3753  0.1986 -0.3130
  869MPD2    C212750   0.455   2.865   2.290  0.5209 -0.9489  0.0813
  869MPD2    C312751   0.589   2.892   2.321  0.0767  0.3720 -0.1784
  869MPD2    C412752   0.616   2.994   2.414 -0.4758 -0.3420 -0.4848
  869MPD2    C512753   0.514   3.041   2.494  0.1502  0.2368  0.0134
  869MPD2     H12754   0.422   2.800   2.210  0.6716 -1.5711  0.5227
  869MPD2    H112755   0.717   3.034   2.415 -0.9471  0.7789  1.9238
  869MPD2    H212756   0.313   3.024   2.563  1.4315 -0.5771  0.9164
  869MPD2    H312757   0.544   3.104   2.577 -2.6412 -0.1294  1.3204
  869MPD2     N12758   0.696   2.833   2.250 -0.2536  0.1422 -0.2403
  869MPD2    H512759   0.784   2.883   2.258 -0.7756  0.8909  0.8321
  869MPD2    N112760   0.228   2.853   2.384  0.2395 -0.1715 -0.0761
  869MPD2    H712761   0.158   2.887   2.449  0.6410 -0.3504  0.4497
  870MPD2     C12762   0.255   1.228   2.099  1.2632  1.0893 -0.2000
  870MPD2    C112763   0.261   1.261   1.966  0.7018  0.0829  0.1974
  870MPD2    C212764   0.389   1.271   1.903 -0.2963  0.3284  0.1947
  870MPD2    C312765   0.508   1.234   1.965  0.4152 -0.3922  0.8351
  870MPD2    C412766   0.493   1.193   2.100  0.0012  0.2102 -0.2864
  870MPD2    C512767   0.372   1.193   2.171 -0.2911  0.0664 -0.2063
  870MPD2     H12768   0.392   1.283   1.795  0.8552 -0.8391  0.1074
  870MPD2    H112769   0.585   1.166   2.149 -0.2476 -1.3112 -0.6699
  870MPD2    H212770   0.161   1.233   2.153  1.5911 -3.3962  0.8008
  870MPD2    H312771   0.357   1.165   2.275 -0.2042 -1.2812 -0.5568
  870MPD2     N12772   0.640   1.244   1.910 -0.6144  0.1184  0.1574
  870MPD2    H512773   0.716   1.205   1.965 -0.2606 -0.6381 -0.8658
  870MPD2    N112774   0.149   1.315   1.906  0.3112 -0.6511 -0.1006
  870MPD2    H712775   0.069   1.334   1.966  0.9159 -0.1435  0.5375
  871MPD2     C12776   1.873   0.204  16.466  0.2946  0.3062 -0.2034
  871MPD2    C112777   1.802   0.123  16.550  0.0267 -0.1424 -0.7635
  871MPD2    C212778   1.779   4.715  16.523 -0.4265  0.8065  0.3848
  871MPD2    C312779   1.810   4.664  16.398  0.1591 -0.0652  0.0588
  871MPD2    C412780   1.866   0.028  16.308 -0.1663  0.0726 -0.7025
  871MPD2    C512781   1.892   0.160  16.342 -0.8761  0.2061  0.3197
  871MPD2     H12782   1.746   4.645  16.599 -0.8085 -1.2033 -1.6138
  871MPD2    H112783   1.897   4.717  16.209 -0.6474 -1.6866 -0.2977
  871MPD2    H212784   1.886   0.310  16.487 -3.2394  0.2857  2.1670
  871MPD2    H312785   1.931   0.228  16.266 -1.5224 -0.3766 -0.5375
  871MPD2     N12786   1.791   4.524  16.382  0.2914 -0.2084  0.2238
  871MPD2    H512787   1.736   4.474  16.450 -2.0349  0.3733 -1.2492
  871MPD2    N112788   1.767   0.167  16.680  0.7169 -0.3682  0.0374
  871MPD2    H712789   1.803   0.260  16.703  0.9043 -0.7788  1.3850
  872MPD2     C12790   2.727   2.630  14.346  0.5113  0.8310 -0.1147
  872MPD2    C112791   2.647   2.692  14.251  1.0618  0.3457  0.0888
  872MPD2    C212792   2.518   2.729  14.287 -0.1661  0.2395 -0.6795
  872MPD2    C312793   2.477   2.709  14.418  0.7162 -0.5328  0.4358
  872MPD2    C412794   2.558   2.654  14.511 -0.5830 -0.1454 -0.1640
  872MPD2    C512795   2.677   2.604  14.472 -0.4842  0.5081 -0.0389
  872MPD2     H12796   2.451   2.762  14.209  0.1318 -2.8420 -2.2696
  872MPD2    H112797   2.530   2.641  14.615  1.1414  0.0163  0.3178
  872MPD2    H212798   2.827   2.593  14.328  0.3054  0.0072  0.4238
  872MPD2    H312799   2.738   2.542  14.537  0.0584 -0.8088 -1.7944
  872MPD2     N12800   2.342   2.733  14.463  0.2576  0.8087 -0.3186
  872MPD2    H512801   2.324   2.708  14.560  0.6283 -0.0460 -0.4636
  872MPD2    N112802   2.686   2.723  14.123  0.2740  0.6307  0.6252
  872MPD2    H712803   2.623   2.782  14.071  0.9934 -0.4810 -1.5318
  873MPD2     C12804   4.335   2.909   1.241 -0.4102 -0.0644 -0.0940
  873MPD2    C112805   4.202   2.907   1.209  0.3135  0.1905 -0.6972
  873MPD2    C212806   4.154   2.819   1.115 -0.3415 -0.4224  0.1716
  873MPD2    C312807   4.236   2.725   1.056  0.6314  0.2996 -0.3388
  873MPD2    C412808   4.366   2.742   1.073 -0.4223  0.0878 -0.1344
  873MPD2    C512809   4.421   2.829   1.166  0.1947  0.3976  0.5058
  873MPD2     H12810   4.047   2.808   1.103 -0.7330  2.6852  0.8254
  873MPD2    H112811   4.432   2.668   1.027  1.2672  1.6252 -0.1496
  873MPD2    H212812   4.373   2.966   1.326 -1.3210 -0.6346  0.6990
  873MPD2    H312813   4.529   2.825   1.175  0.4290  0.1562 -2.2050
  873MPD2     N12814   4.189   2.633   0.958 -0.8230  0.2728  0.3111
  873MPD2    H512815   4.252   2.591   0.891 -3.4759 -2.6776 -0.3502
  873MPD2    N112816   4.125   2.992   1.290  0.4504 -0.6550  0.5727
  873MPD2    H712817   4.173   3.061   1.347  0.2845  1.3807 -1.7996
  874MPD2     C12818   3.963   2.560  15.955 -0.9856 -0.1314  0.5148
  874MPD2    C112819   3.977   2.465  16.053  0.3394  0.5554  0.4366
  874MPD2    C212820   4.090   2.475  16.132 -0.1398  0.4154  0.3930
  874MPD2    C312821   4.166   2.592  16.134 -0.3975 -0.6467 -0.1842
  874MPD2    C412822   4.147   2.690  16.042  0.1858  0.4891 -0.3830
  874MPD2    C512823   4.047   2.671  15.946 -0.3262 -0.1990 -0.3890
  874MPD2     H12824   4.102   2.406  16.215  1.4943 -0.9183 -0.9708
  874MPD2    H112825   4.203   2.781  16.027 -1.1055  0.9275 -2.4783
  874MPD2    H212826   3.882   2.564  15.883 -2.4645  0.5057  2.2143
  874MPD2    H312827   4.033   2.737  15.861  0.3161  0.0148 -0.3257
  874MPD2     N12828   4.265   2.599  16.235 -0.3624  0.2066  0.2107
  874MPD2    H512829   4.264   2.522  16.301 -2.7779 -0.8577 -1.1082
  874MPD2    N112830   3.881   2.366  16.063  0.1699 -0.1833 -0.4502
  874MPD2    H712831   3.803   2.374  15.998 -0.4128  0.0459  0.2735
  875MPD2     C12832   0.931   1.104  14.967  0.3386 -0.4662  0.9244
  875MPD2    C112833   0.797   1.102  14.980 -0.3119  0.7115 -0.2328
  875MPD2    C212834   0.733   1.110  15.104  0.4465  0.0345 -0.1616
  875MPD2    C312835   0.803   1.148  15.219 -0.4114 -0.2087 -0.5141
  875MPD2    C412836   0.940   1.173  15.197 -0.2820  0.5659  0.2478
  875MPD2    C512837   1.000   1.148  15.079  0.2894  0.3750  0.0309
  875MPD2     H12838   0.624   1.112  15.109  0.4539 -2.0514  0.8356
  875MPD2    H112839   1.002   1.198  15.282  2.1589  2.1493 -2.0314
  875MPD2    H212840   0.985   1.077  14.877 -1.4463  2.5604 -1.0449
  875MPD2    H312841   1.108   1.154  15.073  0.6624 -1.8943  3.8092
  875MPD2     N12842   0.746   1.185  15.343  0.4063 -0.1708  0.2777
  875MPD2    H512843   0.799   1.240  15.410  0.4418  1.3288 -0.9784
  875MPD2    N112844   0.710   1.090  14.864  0.0664 -0.5611  0.4839
  875MPD2    H712845   0.614   1.067  14.891 -0.2007 -1.4488 -1.2111
  876MPD2     C12846   3.730   2.137  15.757  0.2426 -0.5382  0.3215
  876MPD2    C112847   3.863   2.149  15.799 -0.6199 -0.1421  0.2089
  876MPD2    C212848   3.917   2.050  15.873  0.4941 -0.1862  0.2275
  876MPD2    C312849   3.842   1.940  15.919  0.3623 -0.0388 -0.5190
  876MPD2    C412850   3.703   1.946  15.884  0.3121 -0.5416  0.3540
  876MPD2    C512851   3.648   2.041  15.807  0.1102 -0.0323 -0.3762
  876MPD2     H12852   4.022   2.043  15.902  0.6417 -0.4055 -0.3591
  876MPD2    H112853   3.642   1.861  15.912  1.4520 -0.4947  3.0275
  876MPD2    H212854   3.700   2.214  15.687 -0.1596 -0.2304  0.8313
  876MPD2    H312855   3.548   2.047  15.765  0.1095 -3.4233 -0.8511
  876MPD2     N12856   3.902   1.844  16.002  0.4210 -0.3871  0.1472
  876MPD2    H512857   4.000   1.859  16.021  1.0108 -3.2660 -0.5972
  876MPD2    N112858   3.930   2.252  15.746  0.1600  0.1916  0.3754
  876MPD2    H712859   3.883   2.319  15.686  0.3130  0.2987  0.3766
  877MPD2     C12860   3.928   2.720  15.150  0.1308  0.0618 -0.4644
  877MPD2    C112861   4.060   2.686  15.177 -0.2804 -0.8997 -0.4132
  877MPD2    C212862   4.151   2.711  15.073  0.6279  0.5384  0.2784
  877MPD2    C312863   4.106   2.737  14.943  0.0401 -0.1714  0.0999
  877MPD2    C412864   3.973   2.743  14.914 -0.2311 -0.4161 -1.0262
  877MPD2    C512865   3.887   2.741  15.020 -0.2254 -0.5848 -0.6770
  877MPD2     H12866   4.257   2.709  15.096  1.3483  0.0331 -3.0623
  877MPD2    H112867   3.941   2.770  14.813 -2.4691  2.0631  0.3390
  877MPD2    H212868   3.858   2.720  15.233  3.6864 -0.3252  2.5242
  877MPD2    H312869   3.780   2.748  15.009 -0.4418  0.4140  2.0776
  877MPD2     N12870   4.192   2.777  14.833  0.1064 -0.1590  0.5020
  877MPD2    H512871   4.150   2.808  14.746 -1.7022 -1.6867  0.8394
  877MPD2    N112872   4.108   2.656  15.308 -0.9580  0.0963  0.0623
  877MPD2    H712873   4.206   2.677  15.321 -0.6112 -0.6683 -1.2848
  878MPD2     C12874   4.034   2.449  13.421  0.4473 -0.2456 -0.2313
  878MPD2    C112875   4.166   2.434  13.452 -0.1539 -0.0909  0.1336
  878MPD2    C212876   4.189   2.364  13.570  0.0105 -0.1266 -0.4217
  878MPD2    C312877   4.093   2.313  13.648 -0.4804  0.6274 -0.2673
  878MPD2    C412878   3.963   2.332  13.617  0.8411 -0.4870 -0.3410
  878MPD2    C512879   3.934   2.398  13.499 -0.4745 -0.2501 -0.1873
  878MPD2     H12880   4.290   2.351  13.607 -0.2227 -0.1724  0.2061
  878MPD2    H112881   3.884   2.275  13.665 -0.7210  1.8430 -0.1590
  878MPD2    H212882   3.999   2.490  13.326 -1.1294 -0.2068  0.3735
  878MPD2    H312883   3.830   2.398  13.471  0.1779 -1.6424 -2.6500
  878MPD2     N12884   4.137   2.237  13.756 -0.1650  0.6930  0.3703
  878MPD2    H512885   4.237   2.223  13.768  0.3915  1.7861 -3.1649
  878MPD2    N112886   4.265   2.483  13.361 -0.4057 -0.3181  0.0203
  878MPD2    H712887   4.232   2.533  13.280  0.5431  1.1421  0.5455
  879MPD2     C12888   4.430   3.788  17.317  0.9456  0.3265 -0.4402
  879MPD2    C112889   4.496   3.686  17.384  0.9815 -0.2799 -0.8101
  879MPD2    C212890   4.468   3.552  17.353  0.4000 -0.2347 -0.0500
  879MPD2    C312891   4.358   3.521  17.266  0.6687 -0.1949 -0.0457
  879MPD2    C412892   4.298   3.626  17.201 -0.7440 -0.0764  0.4166
  879MPD2    C512893   4.335   3.753  17.223  0.0279 -0.0115  0.5898
  879MPD2     H12894   4.526   3.467  17.388  0.9404  0.7012  1.3174
  879MPD2    H112895   4.240   3.610  17.111 -1.2440  0.2509  0.6789
  879MPD2    H212896   4.461   3.891  17.330  0.5223  0.5014 -0.8411
  879MPD2    H312897   4.283   3.827  17.163  0.6328  1.0396  1.3682
  879MPD2     N12898   4.313   3.385  17.236 -0.1024 -0.3948  0.2500
  879MPD2    H512899   4.234   3.370  17.174 -1.4652 -0.7907  2.1034
  879MPD2    N112900   4.610   3.720  17.461  0.2696 -0.6511  0.4298
  879MPD2    H712901   4.619   3.820  17.469 -1.3662 -0.5087  0.3971
  880MPD2     C12902   1.154   0.087   0.713 -0.1414  0.2224  0.0720
  880MPD2    C112903   1.237   0.194   0.724 -0.2386  0.4234  0.6005
  880MPD2    C212904   1.375   0.188   0.705  0.8169 -0.2286 -0.1593
  880MPD2    C312905   1.427   0.074   0.664 -0.6763 -0.0270  0.1146
  880MPD2    C412906   1.347   4.684   0.635  0.2242 -0.1149 -0.4549
  880MPD2    C512907   1.213   4.688   0.667 -0.2913 -0.1522 -0.0576
  880MPD2     H12908   1.443   0.272   0.705  1.5296 -0.8127 -0.1742
  880MPD2    H112909   1.383   4.590   0.595 -1.5678 -1.0555  0.1698
  880MPD2    H212910   1.050   0.092   0.742  0.0985  0.9324  0.8296
  880MPD2    H312911   1.151   4.600   0.663  1.3471 -1.2309 -2.1443
  880MPD2     N12912   1.570   0.073   0.647 -0.6688  0.5142  0.8192
  880MPD2    H512913   1.620   0.158   0.672  1.8609 -0.6485 -0.2343
  880MPD2    N112914   1.173   0.320   0.735 -0.2981  0.3398  0.1375
  880MPD2    H712915   1.075   0.326   0.711 -0.6073 -1.0057  1.0643
  881MPD2     C12916   0.710   0.965   0.100  0.9176  0.4652  0.1017
  881MPD2    C112917   0.826   0.892   0.095  0.1317  0.1350 -0.5836
  881MPD2    C212918   0.878   0.831   0.207 -0.3422 -0.2232  0.1421
  881MPD2    C312919   0.832   0.858   0.332  0.2936  0.0134 -0.5056
  881MPD2    C412920   0.728   0.953   0.333 -0.8154  0.1586 -0.7485
  881MPD2    C512921   0.664   1.000   0.221 -0.7922 -0.9447  0.2185
  881MPD2     H12922   0.957   0.759   0.191  1.6288  2.5417 -2.6346
  881MPD2    H112923   0.690   0.997   0.424 -1.3004 -1.5206 -0.1388
  881MPD2    H212924   0.661   1.016   0.018 -0.8565 -1.4304  0.0005
  881MPD2    H312925   0.590   1.078   0.236 -0.5139 -0.5807 -0.2777
  881MPD2     N12926   0.889   0.808   0.454  0.0863 -0.2513  0.4478
  881MPD2    H512927   0.841   0.827   0.541 -1.2895 -0.0958 -0.3485
  881MPD2    N112928   0.863   0.847  17.653 -0.4898  0.2404  0.6037
  881MPD2    H712929   0.821   0.892  17.573  1.1521 -2.3207 -1.6679
  882MPD2     C12930   4.254   2.509  14.099  0.3642  0.9113  0.1797
  882MPD2    C112931   4.198   2.594  14.192  0.0608 -0.0218  0.1113
  882MPD2    C212932   4.075   2.659  14.161  0.2602 -0.0008  0.6444
  882MPD2    C312933   4.013   2.637  14.039 -0.6211  0.2880  0.5264
  882MPD2    C412934   4.071   2.549  13.949 -0.4428  0.7196  0.0834
  882MPD2    C512935   4.194   2.489  13.981 -0.2787 -0.3564  0.2337
  882MPD2     H12936   4.033   2.727  14.235 -0.1441  0.4314  0.0095
  882MPD2    H112937   4.024   2.525  13.855  2.2670 -1.6557 -0.6638
  882MPD2    H212938   4.350   2.459  14.097  1.0652  2.2224  0.8056
  882MPD2    H312939   4.244   2.433  13.903 -0.4311  0.7602 -0.6666
  882MPD2     N12940   3.890   2.688  14.000  0.0434 -0.0732  0.1383
  882MPD2    H512941   3.842   2.673  13.911  0.5589  0.8394 -0.2897
  882MPD2    N112942   4.275   2.613  14.307 -0.1782 -0.4242 -0.1428
  882MPD2    H712943   4.368   2.574  14.309 -0.7532 -1.9251 -2.7889
  883MPD2     C12944   1.112   2.623  16.576 -0.0865  0.0435 -0.3770
  883MPD2    C112945   1.206   2.657  16.483 -0.0091  0.4019 -0.4540
  883MPD2    C212946   1.337   2.682  16.518  0.5749  0.6171 -0.4923
  883MPD2    C312947   1.373   2.650  16.649  0.2811  0.3681  0.1335
  883MPD2    C412948   1.276   2.614  16.747  0.1641 -0.1098  0.7622
  883MPD2    C512949   1.147   2.596  16.707  0.2499  0.0894  0.6758
  883MPD2     H12950   1.400   2.726  16.441  0.6596 -0.5644 -1.1107
  883MPD2    H112951   1.310   2.571  16.841  1.3822  1.1151  0.8731
  883MPD2    H212952   1.010   2.605  16.545 -0.3732  0.2826  0.4447
  883MPD2    H312953   1.072   2.567  16.779 -1.8551 -0.0805 -1.6057
  883MPD2     N12954   1.512   2.657  16.673 -0.5907  0.0624  0.2672
  883MPD2    H512955   1.568   2.677  16.591 -0.6956  4.1147  1.1923
  883MPD2    N112956   1.177   2.659  16.342 -0.2585 -0.6949  0.7446
  883MPD2    H712957   1.254   2.687  16.281 -0.4181  1.5040  1.5437
  884MPD2     C12958   3.340   3.303  15.624  0.4137 -0.2871 -0.4597
  884MPD2    C112959   3.327   3.417  15.562  0.1426 -0.3032  0.4477
  884MPD2    C212960   3.208   3.459  15.504 -0.0230  0.3507 -0.0341
  884MPD2    C312961   3.100   3.378  15.520 -0.5786  0.5886  0.3300
  884MPD2    C412962   3.104   3.266  15.594 -0.0421  0.1214  0.1935
  884MPD2    C512963   3.225   3.229  15.649 -0.1711 -0.9002 -0.2701
  884MPD2     H12964   3.208   3.549  15.443 -1.8383  0.4331  0.0879
  884MPD2    H112965   3.009   3.218  15.614 -0.5590  0.7438 -0.8103
  884MPD2    H212966   3.423   3.272  15.686  1.0065  0.3900 -0.9203
  884MPD2    H312967   3.232   3.140  15.710  0.6968 -0.7430 -0.1391
  884MPD2     N12968   2.979   3.425  15.464 -0.8336 -0.7482  0.2415
  884MPD2    H512969   2.984   3.504  15.401 -4.1904  0.0350  0.9147
  884MPD2    N112970   3.440   3.506  15.558  0.3807  0.6587 -0.6539
  884MPD2    H712971   3.424   3.599  15.519  1.9091  1.5557  0.8431
  885MPD2     C12972   1.297   2.939   0.228  0.4664  0.4351  0.0781
  885MPD2    C112973   1.266   3.070   0.254  0.7551 -0.4586 -0.6012
  885MPD2    C212974   1.276   3.162   0.150 -0.3441 -0.0902 -0.7325
  885MPD2    C312975   1.315   3.129   0.022 -0.3392 -0.4566 -0.0019
  885MPD2    C412976   1.355   3.000   0.002 -0.2872  0.3003 -0.4055
  885MPD2    C512977   1.337   2.904   0.102  0.2349 -0.3006  0.3019
  885MPD2     H12978   1.240   3.264   0.160 -1.4892 -0.3331 -2.3049
  885MPD2    H112979   1.385   2.967  17.589  2.7564  1.4904  0.1237
  885MPD2    H212980   1.286   2.858   0.300  0.0562  0.6458  0.2536
  885MPD2    H312981   1.368   2.801   0.087  1.7844  0.0817  0.8411
  885MPD2     N12982   1.317   3.234  17.611  0.1779  0.6376 -0.2530
  885MPD2    H512983   1.275   3.320  17.646  0.3779  0.5850  0.1179
  885MPD2    N112984   1.246   3.096   0.383  0.6951  0.4661  0.3746
  885MPD2    H712985   1.236   3.014   0.442  2.7756 -0.3022 -0.3439
  886MPD2     C12986   2.522   1.998  15.102 -0.1129  0.1424  0.1911
  886MPD2    C112987   2.620   2.021  15.195 -0.4126  0.0645 -0.1765
  886MPD2    C212988   2.698   2.134  15.176  0.0915  0.1008 -0.2687
  886MPD2    C312989   2.678   2.224  15.074  0.1134  0.2714 -0.1735
  886MPD2    C412990   2.568   2.204  14.990 -0.0336 -0.7205 -0.0520
  886MPD2    C512991   2.488   2.099  15.005  0.6438 -0.3973 -0.2144
  886MPD2     H12992   2.779   2.147  15.246 -0.6437  0.1272  0.5729
  886MPD2    H112993   2.546   2.266  14.904  0.0047 -1.8338 -0.8649
  886MPD2    H212994   2.449   1.917  15.101 -0.6432  0.6156  1.0363
  886MPD2    H312995   2.408   2.080  14.935  0.5435 -0.1002 -0.1793
  886MPD2     N12996   2.759   2.336  15.051  0.2356 -0.1693  0.4341
  886MPD2    H512997   2.730   2.398  14.976  2.0333 -1.0174 -0.9642
  886MPD2    N112998   2.657   1.934  15.303  0.2830  0.3789  0.1196
  886MPD2    H712999   2.742   1.947  15.356  0.6704  0.9574 -0.6397
  887MPD2     C13000   3.145   1.610  15.708 -0.8638 -0.2973  0.7112
  887MPD2    C113001   3.113   1.709  15.615  0.1697  0.4145 -0.0632
  887MPD2    C213002   3.140   1.844  15.642 -0.8031  0.2575 -0.0841
  887MPD2    C313003   3.210   1.876  15.758  0.0228  0.1808  0.0755
  887MPD2    C413004   3.251   1.771  15.836 -0.2431 -0.8030 -0.0277
  887MPD2    C513005   3.214   1.641  15.817  0.3141 -0.0740  0.1495
  887MPD2     H13006   3.108   1.923  15.575 -0.6495  0.3130 -0.0914
  887MPD2    H113007   3.317   1.797  15.918  0.7591 -1.9473 -0.4566
  887MPD2    H213008   3.134   1.503  15.694  1.4393 -0.6262  1.3838
  887MPD2    H313009   3.250   1.563  15.883  3.6881  1.5739  0.2686
  887MPD2     N13010   3.239   2.011  15.784  0.1674  0.2667  0.1107
  887MPD2    H513011   3.191   2.070  15.716 -1.3629 -0.4716  0.5563
  887MPD2    N113012   3.016   1.686  15.507  0.1272  0.3026  0.4656
  887MPD2    H713013   2.978   1.769  15.463  0.0617 -0.3667 -0.7386
  888MPD2     C13014   0.953   2.233  15.029 -0.0202 -0.1667  0.2627
  888MPD2    C113015   0.829   2.245  15.073 -0.4824  0.0843 -0.5392
  888MPD2    C213016   0.762   2.367  15.054  0.0385  0.9692 -0.4011
  888MPD2    C313017   0.829   2.481  15.003  0.8357  0.3600  0.6630
  888MPD2    C413018   0.958   2.467  14.948  0.0107  0.7447 -0.8850
  888MPD2    C513019   1.023   2.342  14.971  0.4591  0.1857  0.2514
  888MPD2     H13020   0.660   2.381  15.090  0.1563  0.7058  0.0242
  888MPD2    H113021   1.019   2.544  14.904  0.2135  1.4470  0.6151
  888MPD2    H213022   1.010   2.145  15.056  2.2354  0.7312 -1.5046
  888MPD2    H313023   1.127   2.338  14.942 -0.1543  0.5364 -1.9889
  888MPD2     N13024   0.754   2.601  14.984  0.1761 -0.0253  0.4209
  888MPD2    H513025   0.669   2.607  15.040  0.1482 -0.0923  0.3856
  888MPD2    N113026   0.770   2.141  15.155  0.8027  0.2312  0.1531
  888MPD2    H713027   0.682   2.168  15.197 -1.6224  0.1011 -4.9237
  889MPD2     C13028   0.564   2.232  13.201  0.7120  0.7188 -0.4158
  889MPD2    C113029   0.512   2.147  13.297 -0.3187 -1.4830 -0.5174
  889MPD2    C213030   0.416   2.201  13.382  0.4292  0.3805  0.5248
  889MPD2    C313031   0.388   2.335  13.384 -0.0968 -0.1884 -0.3506
  889MPD2    C413032   0.451   2.421  13.296 -0.4922 -0.3157  0.0330
  889MPD2    C513033   0.537   2.363  13.205 -0.1194 -0.2637  0.2585
  889MPD2     H13034   0.370   2.131  13.451 -1.2489  0.2156 -0.7328
  889MPD2    H113035   0.415   2.522  13.285 -0.3650 -0.3975 -1.1468
  889MPD2    H213036   0.644   2.194  13.138  1.2189  1.1814 -0.0517
  889MPD2    H313037   0.596   2.423  13.136 -0.6791  0.6206  0.5616
  889MPD2     N13038   0.296   2.384  13.478 -0.7024  0.0550  0.6579
  889MPD2    H513039   0.254   2.324  13.548 -1.2687  0.6224  0.8083
  889MPD2    N113040   0.516   2.004  13.281 -0.5398 -0.9110 -0.1431
  889MPD2    H713041   0.468   1.952  13.354 -2.7543 -0.8872 -1.5629
  890MPD2     C13042   3.539   3.647  15.174  0.1789  0.3823  0.2396
  890MPD2    C113043   3.672   3.614  15.167 -0.7473 -0.1190  0.0311
  890MPD2    C213044   3.712   3.486  15.206 -1.0736  0.8801 -0.5091
  890MPD2    C313045   3.620   3.389  15.243 -0.3172  0.2193  0.8963
  890MPD2    C413046   3.484   3.424  15.240  0.0848 -0.1545  0.0550
  890MPD2    C513047   3.447   3.552  15.208 -0.1081 -0.8013  0.0513
  890MPD2     H13048   3.817   3.459  15.201 -1.4254 -0.7778  1.2418
  890MPD2    H113049   3.415   3.346  15.269 -0.7382  0.5601  0.0397
  890MPD2    H213050   3.502   3.745  15.150  1.6632  1.1392  1.0498
  890MPD2    H313051   3.342   3.578  15.210  0.4572  1.5954 -1.0943
  890MPD2     N13052   3.655   3.259  15.294 -0.1894 -0.6613  0.3507
  890MPD2    H513053   3.583   3.191  15.320  0.5787 -1.6275 -0.0438
  890MPD2    N113054   3.778   3.704  15.126  0.0856 -0.6347  0.0563
  890MPD2    H713055   3.873   3.669  15.122  1.2033  2.3959 -0.2778
  891MPD2     C13056   2.221   1.964  16.861  0.0747  0.0553  0.7479
  891MPD2    C113057   2.102   1.919  16.920 -0.8933 -0.1742  0.1131
  891MPD2    C213058   2.095   1.792  16.982  0.5210 -0.0437  0.0953
  891MPD2    C313059   2.212   1.721  16.986 -0.2754  0.3347  0.0106
  891MPD2    C413060   2.334   1.763  16.930  0.1982  0.1204  0.3735
  891MPD2    C513061   2.338   1.888  16.877 -0.3542 -0.2436 -0.1226
  891MPD2     H13062   2.001   1.751  17.018  0.5736 -0.9057 -0.7634
  891MPD2    H113063   2.431   1.716  16.940 -0.6196 -0.5287  5.3605
  891MPD2    H213064   2.219   2.061  16.813  0.1752 -0.7886 -0.9646
  891MPD2    H313065   2.434   1.930  16.850 -0.4667  0.3966  0.4701
  891MPD2     N13066   2.216   1.608  17.073  0.1587 -0.5802 -0.0099
  891MPD2    H513067   2.144   1.592  17.143 -0.5200  0.7265 -0.4137
  891MPD2    N113068   1.989   2.004  16.911  0.3070 -0.5627 -0.0994
  891MPD2    H713069   1.991   2.085  16.851 -0.6421  1.0124  1.9675
  892MPD2     C13070   3.405   2.869  14.811  0.8731  0.0595  0.2528
  892MPD2    C113071   3.327   2.930  14.717 -0.1325  0.1353 -0.1646
  892MPD2    C213072   3.350   2.918  14.578  0.9126  0.3376 -0.6697
  892MPD2    C313073   3.459   2.844  14.531  0.0793  0.2259 -0.2350
  892MPD2    C413074   3.530   2.777  14.624  0.0313 -0.5439  0.2810
  892MPD2    C513075   3.506   2.798  14.760 -0.3069  0.6097 -0.4854
  892MPD2     H13076   3.281   2.969  14.510  3.0512  1.6328 -1.8775
  892MPD2    H113077   3.612   2.707  14.607 -1.0301 -2.2818  2.3151
  892MPD2    H213078   3.395   2.878  14.919  0.4868  0.1017  0.2138
  892MPD2    H313079   3.573   2.755  14.833  0.0047  0.7741 -0.6751
  892MPD2     N13080   3.484   2.817  14.394  0.4879  0.4390 -0.0291
  892MPD2    H513081   3.557   2.753  14.366 -1.6217 -1.3688 -1.3892
  892MPD2    N113082   3.209   2.995  14.757  0.8281  0.8387 -0.4532
  892MPD2    H713083   3.159   3.047  14.685  0.5734  2.8592  1.2010
  893MPD2     C13084   0.263   1.394   1.409 -0.1677  0.1904 -0.1040
  893MPD2    C113085   0.214   1.523   1.387  0.3282 -0.2018 -0.8501
  893MPD2    C213086   0.157   1.558   1.268 -0.2886  0.1751 -0.4468
  893MPD2    C313087   0.134   1.462   1.168  0.4924 -1.4096 -0.9130
  893MPD2    C413088   0.188   1.332   1.189  0.3735  0.6556 -0.5869
  893MPD2    C513089   0.245   1.302   1.311  0.6920 -0.1509  0.1841
  893MPD2     H13090   0.121   1.660   1.261  1.2583  0.8392  1.1224
  893MPD2    H113091   0.183   1.254   1.113 -3.3605  1.8800 -1.6231
  893MPD2    H213092   0.330   1.367   1.490  0.5212 -0.0900 -0.7615
  893MPD2    H313093   0.283   1.202   1.330  0.1997 -0.4959 -0.6801
  893MPD2     N13094   0.075   1.490   1.044 -0.0022  0.2666 -0.5735
  893MPD2    H513095   0.061   1.413   0.979 -1.5591 -0.9236  1.1681
  893MPD2    N113096   0.224   1.614   1.503  0.2197 -0.0529 -0.4086
  893MPD2    H713097   0.293   1.586   1.571 -0.2495  0.0524  0.1162
  894MPD2     C13098   3.178   3.884   1.117 -0.5743 -0.0969  0.1316
  894MPD2    C113099   3.237   4.006   1.111 -0.7593  0.0624  0.6705
  894MPD2    C213100   3.166   4.100   1.036 -0.1012  0.2189 -0.0636
  894MPD2    C313101   3.042   4.080   0.974 -0.1188  0.4842 -0.0661
  894MPD2    C413102   2.989   3.956   0.982  0.6111 -0.9393 -0.4363
  894MPD2    C513103   3.060   3.854   1.046  0.2692 -1.0009 -0.6659
  894MPD2     H13104   3.196   4.204   1.030  1.1115 -0.1751 -0.8817
  894MPD2    H113105   2.895   3.925   0.939  0.0149 -0.0552  0.2226
  894MPD2    H213106   3.227   3.802   1.169  1.8619  0.9992 -0.4298
  894MPD2    H313107   3.007   3.760   1.045 -0.9920 -0.3093  0.3574
  894MPD2     N13108   2.979   4.183   0.893 -0.2599 -0.1883 -0.3772
  894MPD2    H513109   3.009   4.279   0.901  1.3336 -0.5559 -1.9633
  894MPD2    N113110   3.353   4.049   1.179 -0.1572 -0.1033 -0.3670
  894MPD2    H713111   3.371   4.146   1.153 -2.9566  0.4760 -0.0427
  895MPD2     C13112   2.849   2.156  14.329  0.3988 -0.6150 -0.8111
  895MPD2    C113113   2.846   2.236  14.217  0.3442 -0.0963  0.1416
  895MPD2    C213114   2.963   2.257  14.145  0.8426  0.1002 -0.3861
  895MPD2    C313115   3.074   2.179  14.184  0.8727  0.5221 -0.7435
  895MPD2    C413116   3.065   2.092  14.284  0.3945  0.8618  0.9139
  895MPD2    C513117   2.963   2.098  14.372  0.0044 -0.1643 -0.1291
  895MPD2     H13118   2.958   2.322  14.058 -1.2781 -2.0238 -1.8220
  895MPD2    H113119   3.144   2.024  14.314 -1.4784 -1.3405  0.8076
  895MPD2    H213120   2.764   2.149  14.396  1.2918  0.3470  0.4121
  895MPD2    H313121   2.967   2.033  14.459 -0.3700 -1.4618 -1.0816
  895MPD2     N13122   3.182   2.157  14.099 -0.0996 -0.6263  0.0238
  895MPD2    H513123   3.237   2.073  14.115 -1.3920 -1.8836 -2.1678
  895MPD2    N113124   2.726   2.301  14.171 -0.0085 -0.8301  0.5509
  895MPD2    H713125   2.741   2.376  14.104  1.2705 -1.2525  0.3664
  896MPD2     C13126   4.153   0.520   1.223 -0.1468  0.4604  0.2226
  896MPD2    C113127   4.232   0.450   1.134  0.5769 -0.2858 -0.2548
  896MPD2    C213128   4.168   0.353   1.053 -0.3259  0.3205 -0.6078
  896MPD2    C313129   4.026   0.358   1.045 -0.2299  0.7332 -0.5257
  896MPD2    C413130   3.955   0.417   1.143 -0.5765  0.3737 -0.8173
  896MPD2    C513131   4.020   0.499   1.231 -0.1271  0.3692  0.1023
  896MPD2     H13132   4.225   0.298   0.978 -1.6921  0.7362 -1.9657
  896MPD2    H113133   3.852   0.395   1.165 -0.1745 -0.4963  0.1788
  896MPD2    H213134   4.204   0.594   1.284 -4.1614  2.2464  1.4264
  896MPD2    H313135   3.961   0.536   1.314  0.6277  1.5111  0.1172
  896MPD2     N13136   3.957   0.276   0.953  0.0991 -0.4996  0.1834
  896MPD2    H513137   4.015   0.216   0.895  1.2058 -0.0030  0.7659
  896MPD2    N113138   4.372   0.466   1.132 -0.5695 -0.6709  0.5813
  896MPD2    H713139   4.412   0.547   1.177 -0.2380 -0.3303 -0.3216
  897MPD2     C13140   1.250   2.097  10.873 -0.2293  0.5242  0.3849
  897MPD2    C113141   1.160   2.057  10.779 -0.8157  0.9543  0.4735
  897MPD2    C213142   1.073   1.958  10.802 -0.0776  0.3184 -0.3259
  897MPD2    C313143   1.075   1.889  10.914 -0.0522 -0.1324  0.6099
  897MPD2    C413144   1.151   1.928  11.022  0.2591 -0.4835  0.1730
  897MPD2    C513145   1.244   2.029  10.996  0.4914  0.0190 -0.0183
  897MPD2     H13146   1.009   1.919  10.723 -2.5543  2.9662  0.4231
  897MPD2    H113147   1.140   1.887  11.122 -0.8976 -0.9692 -0.1556
  897MPD2    H213148   1.317   2.181  10.861  0.0910  0.0616 -1.0334
  897MPD2    H313149   1.308   2.053  11.081  0.1768 -1.4670  0.6321
  897MPD2     N13150   0.970   1.791  10.926 -0.1329  0.4879  0.5370
  897MPD2    H513151   0.904   1.782  10.849 -1.0809 -0.5683  1.4713
  897MPD2    N113152   1.179   2.116  10.655 -0.8166  0.2449 -0.2161
  897MPD2    H713153   1.232   2.202  10.666 -0.6546  0.2739 -1.2373
  898MPD2     C13154   2.030   2.933   0.728 -1.0441  0.6940 -0.1022
  898MPD2    C113155   2.162   2.916   0.695  0.1359  0.7224 -0.4349
  898MPD2    C213156   2.197   2.983   0.573 -0.0241 -0.7621  0.0916
  898MPD2    C313157   2.114   3.064   0.496 -0.8404  0.5100 -0.6631
  898MPD2    C413158   1.982   3.070   0.534 -0.1958 -0.6980  0.3114
  898MPD2    C513159   1.942   3.011   0.655  0.4804 -0.1436  0.8394
  898MPD2     H13160   2.304   2.988   0.556  0.3254  1.9571  3.1328
  898MPD2    H113161   1.919   3.150   0.498 -1.3007 -1.0256  1.5040
  898MPD2    H213162   1.993   2.874   0.812  1.0553 -1.5592 -0.7874
  898MPD2    H313163   1.837   3.024   0.681  0.0545 -0.5275 -0.6482
  898MPD2     N13164   2.173   3.130   0.388  0.1234 -0.1938 -0.4570
  898MPD2    H513165   2.273   3.118   0.382 -0.1959 -0.9974 -3.9978
  898MPD2    N113166   2.258   2.844   0.768  0.2533 -0.2729  0.1638
  898MPD2    H713167   2.349   2.829   0.724  1.1877 -2.9798  3.0115
  899MPD2     C13168   4.574   3.226   0.421 -0.1571  0.1941 -0.6375
  899MPD2    C113169   4.441   3.229   0.370  0.2571 -0.3014 -0.0118
  899MPD2    C213170   4.346   3.174   0.452 -0.4138 -0.5523  0.3747
  899MPD2    C313171   4.370   3.119   0.579 -0.5091 -0.2614  0.1302
  899MPD2    C413172   4.502   3.125   0.626  0.8949  0.3682  0.1307
  899MPD2    C513173   4.597   3.180   0.548 -0.1763 -0.1782  0.1921
  899MPD2     H13174   4.242   3.158   0.424 -0.4951  2.0049 -0.8008
  899MPD2    H113175   4.540   3.087   0.720  0.6437  2.1063  0.9294
  899MPD2    H213176   4.655   3.263   0.359 -0.8828  0.9318 -1.1412
  899MPD2    H313177   4.700   3.189   0.581 -0.2921 -0.7365  0.7068
  899MPD2     N13178   4.264   3.062   0.647  0.6222 -0.4059  0.3019
  899MPD2    H513179   4.178   3.055   0.593  1.1019  1.8994 -0.7708
  899MPD2    N113180   4.424   3.259   0.239 -0.5386 -0.1013  0.4135
  899MPD2    H713181   4.495   3.318   0.197 -1.3951 -0.2805 -1.2884
  900MPD2     C13182   3.630   0.193  12.789 -0.3869 -0.5167 -0.6548
  900MPD2    C113183   3.538   0.108  12.716  0.0585  0.1363  0.6620
  900MPD2    C213184   3.456   0.166  12.622 -0.1598  0.0844 -0.2352
  900MPD2    C313185   3.456   0.305  12.604 -0.6211 -0.5781  0.6492
  900MPD2    C413186   3.551   0.382  12.672 -0.2144  0.2920  0.7597
  900MPD2    C513187   3.632   0.327  12.762 -0.6003 -0.0526  0.0814
  900MPD2     H13188   3.377   0.108  12.576 -0.5967 -0.5192  1.2783
  900MPD2    H113189   3.564   0.489  12.661 -1.0598  0.4754  1.5721
  900MPD2    H213190   3.708   0.156  12.855 -0.3366 -0.8701 -0.9115
  900MPD2    H313191   3.697   0.384  12.827  0.9523 -2.8941  1.0295
  900MPD2     N13192   3.364   0.363  12.513  0.3648 -0.2188 -0.4999
  900MPD2    H513193   3.291   0.305  12.474  1.1582 -0.0296 -2.2872
  900MPD2    N113194   3.560   4.686  12.727 -0.0935  0.2002 -0.3816
  900MPD2    H713195   3.625   4.656  12.799 -1.1919  0.9866  0.9385
  901MPD2     C13196   3.281   3.638  12.628  0.0634 -0.7504  0.2188
  901MPD2    C113197   3.395   3.647  12.705  0.1139  0.1086 -0.1996
  901MPD2    C213198   3.440   3.778  12.733 -0.1264  0.5029 -0.1195
  901MPD2    C313199   3.371   3.886  12.692  0.4302 -0.1593 -0.0726
  901MPD2    C413200   3.243   3.870  12.636 -0.0700  0.2734  0.3908
  901MPD2    C513201   3.199   3.748  12.598  0.1707 -0.3890  0.1514
  901MPD2     H13202   3.528   3.793  12.793  0.7748 -2.2321 -0.7479
  901MPD2    H113203   3.177   3.945  12.593 -0.0379 -0.9343 -1.7975
  901MPD2    H213204   3.246   3.539  12.600  1.6985 -0.7564 -1.8268
  901MPD2    H313205   3.112   3.733  12.536 -2.0741  1.1251  2.9417
  901MPD2     N13206   3.426   4.011  12.729  0.5832  0.8297 -0.2830
  901MPD2    H513207   3.518   3.999  12.770  0.3733  3.0357  0.8488
  901MPD2    N113208   3.462   3.524  12.746 -0.4813  0.2884 -0.5407
  901MPD2    H713209   3.414   3.436  12.733 -0.1476  0.2957 -1.8153
  902MPD2     C13210   2.474   2.252  13.104  0.7189  0.3212  0.3488
  902MPD2    C113211   2.552   2.305  13.011  0.0891  0.2767  0.4956
  902MPD2    C213212   2.681   2.253  12.994 -0.4478  0.1185  0.3357
  902MPD2    C313213   2.726   2.141  13.064 -0.2469  0.2983  0.7975
  902MPD2    C413214   2.639   2.088  13.160  0.4044  0.4672  0.3647
  902MPD2    C513215   2.516   2.146  13.179  0.4791 -0.3025 -0.3842
  902MPD2     H13216   2.737   2.308  12.919  0.7014 -0.6069  0.6629
  902MPD2    H113217   2.661   1.996  13.211  0.9382  0.4880  0.1733
  902MPD2    H213218   2.374   2.291  13.116  1.1909  1.3467  1.0597
  902MPD2    H313219   2.445   2.100  13.246 -0.3444  0.0089 -1.0355
  902MPD2     N13220   2.849   2.070  13.033  0.6414 -0.3068 -0.0977
  902MPD2    H513221   2.854   1.977  13.073 -0.1434 -0.7129 -0.9466
  902MPD2    N113222   2.513   2.417  12.934  0.0213 -0.3067 -0.0217
  902MPD2    H713223   2.577   2.446  12.861 -0.8285 -0.8040 -0.9650
  903MPD2     C13224   2.985   2.212  12.296 -1.1286  0.4148  0.3130
  903MPD2    C113225   2.887   2.151  12.371  0.1631 -0.1312  0.0281
  903MPD2    C213226   2.750   2.173  12.344  0.4126 -0.3918  0.1982
  903MPD2    C313227   2.714   2.256  12.239  0.3441 -0.9333  0.1546
  903MPD2    C413228   2.813   2.305  12.156 -0.6934  0.1234  0.6885
  903MPD2    C513229   2.945   2.287  12.187  0.0108 -0.6183 -0.7410
  903MPD2     H13230   2.677   2.133  12.414 -0.5910  0.4678 -0.3463
  903MPD2    H113231   2.786   2.380  12.083 -1.3405 -0.7131  0.0722
  903MPD2    H213232   3.091   2.198  12.317 -1.2297  1.5461  1.5411
  903MPD2    H313233   3.024   2.329  12.126  0.3723  0.6167  0.5730
  903MPD2     N13234   2.584   2.292  12.235 -0.6216 -0.2678 -0.4131
  903MPD2    H513235   2.537   2.262  12.320 -2.1556 -1.2923 -1.6007
  903MPD2    N113236   2.920   2.067  12.488 -0.4582 -0.4065 -0.3814
  903MPD2    H713237   2.840   2.052  12.549 -0.5038 -0.2373 -0.3978
  904MPD2     C13238   2.560   1.685  13.848 -0.2813  0.1339 -0.4446
  904MPD2    C113239   2.519   1.637  13.972 -0.2421 -0.3881 -1.0320
  904MPD2    C213240   2.611   1.610  14.070 -0.0466 -0.4793 -0.1772
  904MPD2    C313241   2.746   1.641  14.042  0.2858 -0.4891 -0.1565
  904MPD2    C413242   2.783   1.698  13.924  0.0754  0.4152 -0.2216
  904MPD2    C513243   2.692   1.713  13.822  0.6008 -0.2533 -0.5450
  904MPD2     H13244   2.578   1.568  14.165 -1.2547  2.9408  0.9368
  904MPD2    H113245   2.884   1.732  13.901  0.2881  1.5256  2.3057
  904MPD2    H213246   2.494   1.720  13.769 -1.9068 -0.9281  0.4433
  904MPD2    H313247   2.724   1.756  13.727  0.9048 -2.1365 -1.2820
  904MPD2     N13248   2.844   1.625  14.150 -0.1139  0.4204 -0.1908
  904MPD2    H513249   2.808   1.563  14.222  1.9458 -0.8496 -0.2482
  904MPD2    N113250   2.381   1.644  14.002  0.2659 -0.6141  0.4501
  904MPD2    H713251   2.362   1.641  14.102 -0.3112  1.1322  0.3901
  905MPD2     C13252   2.559   2.164  13.554  0.7333  0.1912 -0.7644
  905MPD2    C113253   2.584   2.119  13.681  0.1906  0.4187  0.2693
  905MPD2    C213254   2.715   2.109  13.729  0.7185 -0.6262 -0.2805
  905MPD2    C313255   2.823   2.140  13.642  0.4265 -0.2701 -0.2205
  905MPD2    C413256   2.794   2.188  13.515  0.1123 -0.3698 -0.1306
  905MPD2    C513257   2.662   2.203  13.477 -0.3069  0.3013 -0.1982
  905MPD2     H13258   2.725   2.080  13.833 -2.8295  0.4237  0.3373
  905MPD2    H113259   2.872   2.209  13.443  0.9895  0.3730  1.0296
  905MPD2    H213260   2.457   2.182  13.523  0.6977  0.7124 -0.3487
  905MPD2    H313261   2.639   2.245  13.380  0.7409 -0.2202 -0.6709
  905MPD2     N13262   2.948   2.119  13.692 -0.0691  0.3071  0.0009
  905MPD2    H513263   2.962   2.057  13.771  2.7777  0.1091 -0.6765
  905MPD2    N113264   2.472   2.085  13.761 -0.6471 -0.1445 -0.2413
  905MPD2    H713265   2.388   2.064  13.709 -1.2041  3.0499 -0.6583
  906MPD2     C13266   4.361   1.813  11.630 -0.9337  0.3103  0.0323
  906MPD2    C113267   4.328   1.685  11.586  0.5212 -0.1760 -0.4309
  906MPD2    C213268   4.246   1.605  11.659  0.1378 -0.3219 -0.2123
  906MPD2    C313269   4.186   1.654  11.776 -0.3676 -0.7993 -0.4028
  906MPD2    C413270   4.216   1.779  11.822  0.6365  0.2277  0.0064
  906MPD2    C513271   4.302   1.856  11.745  0.5007 -0.4531 -0.1050
  906MPD2     H13272   4.236   1.502  11.627 -1.5310 -0.5223  0.9454
  906MPD2    H113273   4.164   1.827  11.905 -0.4286  1.6705 -1.4864
  906MPD2    H213274   4.420   1.889  11.580  1.0214 -1.3225 -0.1269
  906MPD2    H313275   4.319   1.958  11.777  1.9532  0.5245 -3.9268
  906MPD2     N13276   4.092   1.573  11.854 -0.0378 -0.8161  0.4242
  906MPD2    H513277   4.077   1.587  11.953  0.5969 -1.8885  0.6778
  906MPD2    N113278   4.369   1.641  11.462 -0.6779 -0.1831 -0.1576
  906MPD2    H713279   4.363   1.540  11.447 -0.4733 -0.3839  1.0750
  907MPD2     C13280   3.522   0.582  15.848  0.2984  0.0697  0.2681
  907MPD2    C113281   3.494   0.462  15.799 -0.4492  0.0257 -0.0312
  907MPD2    C213282   3.505   0.359  15.891  0.0620  0.6446  0.4808
  907MPD2    C313283   3.546   0.374  16.022 -0.0886 -0.5011  0.1119
  907MPD2    C413284   3.574   0.505  16.065 -0.0169  0.1146 -0.5107
  907MPD2    C513285   3.564   0.609  15.975  0.5073  0.2872 -0.2055
  907MPD2     H13286   3.495   0.259  15.850  0.3604  0.8394 -0.0758
  907MPD2    H113287   3.590   0.533  16.168 -0.9683  3.0794 -1.1449
  907MPD2    H213288   3.520   0.675  15.793 -2.3362 -0.3804 -0.3897
  907MPD2    H313289   3.582   0.707  16.018 -0.2109 -0.1048  0.9868
  907MPD2     N13290   3.539   0.255  16.108  0.1737  0.2639 -0.2821
  907MPD2    H513291   3.541   0.163  16.065 -0.2770 -0.3406  0.9865
  907MPD2    N113292   3.459   0.441  15.669 -0.0983 -0.5696  0.4049
  907MPD2    H713293   3.452   0.345  15.638 -2.7593 -0.1124 -0.3579
  908MPD2     C13294   0.934   1.812   9.699 -0.9005  0.3344 -0.1528
  908MPD2    C113295   1.031   1.762   9.782  0.3414 -0.1018 -0.2915
  908MPD2    C213296   1.069   1.842   9.890 -0.5859 -0.0375 -0.3771
  908MPD2    C313297   1.011   1.962   9.912 -0.6486 -0.1049 -0.2552
  908MPD2    C413298   0.917   2.014   9.827 -0.3929  0.2686  0.1059
  908MPD2    C513299   0.877   1.936   9.715  0.4694 -0.3363 -0.1495
  908MPD2     H13300   1.150   1.810   9.955 -1.9235 -0.6541  0.9979
  908MPD2    H113301   0.867   2.109   9.837 -0.5840  0.2331 -0.4964
  908MPD2    H213302   0.897   1.756   9.613 -2.2548 -1.5371  1.6568
  908MPD2    H313303   0.812   1.972   9.636  0.6064 -1.5497 -0.8093
  908MPD2     N13304   1.050   2.029  10.033 -0.0390  0.4090 -0.1525
  908MPD2    H513305   1.114   1.989  10.101 -1.0744 -1.3426 -0.2111
  908MPD2    N113306   1.077   1.630   9.753  0.3752 -0.0551 -0.5109
  908MPD2    H713307   1.060   1.597   9.658 -0.8860 -1.7224  0.3163
  909MPD2     C13308   1.812   4.387  12.164  0.5955 -0.0762  0.4439
  909MPD2    C113309   1.780   4.502  12.097 -0.1283  0.1483 -0.0427
  909MPD2    C213310   1.691   4.593  12.158 -0.1484  0.1125 -0.5946
  909MPD2    C313311   1.635   4.576  12.283  0.1292  0.9115  0.3872
  909MPD2    C413312   1.663   4.454  12.345 -0.2346 -0.1806 -0.3327
  909MPD2    C513313   1.755   4.367  12.284  0.1306 -0.0881 -0.0274
  909MPD2     H13314   1.666   4.687  12.110 -0.1016  0.2497 -0.3475
  909MPD2    H113315   1.614   4.418  12.435  1.0091 -0.4437  0.2325
  909MPD2    H213316   1.884   4.313  12.131 -0.8548 -1.3719  0.1992
  909MPD2    H313317   1.795   4.280  12.335  1.3128  1.0625  0.9779
  909MPD2     N13318   1.540   4.671  12.336  0.2030  0.2448  0.1601
  909MPD2    H513319   1.515   0.030  12.279  0.0131  0.7996  1.0362
  909MPD2    N113320   1.831   4.527  11.968 -0.4164  0.3193  0.0597
  909MPD2    H713321   1.794   4.612  11.927 -0.6212 -0.0893 -0.6189
  910MPD2     C13322   2.795   1.005  15.865  0.0504  0.1616 -0.1784
  910MPD2    C113323   2.903   0.946  15.795  0.3051  0.0287  0.1081
  910MPD2    C213324   2.914   0.983  15.664  0.3149  1.2184  0.6816
  910MPD2    C313325   2.838   1.082  15.606 -0.0936 -0.6362  0.6649
  910MPD2    C413326   2.735   1.145  15.671  0.1184  0.3999 -0.3577
  910MPD2    C513327   2.717   1.102  15.798 -0.3872  0.4244  0.1486
  910MPD2     H13328   2.999   0.942  15.610  0.0528 -0.6189  1.6781
  910MPD2    H113329   2.670   1.216  15.622 -2.9947 -1.5920  0.8613
  910MPD2    H213330   2.775   0.989  15.970 -1.3698  0.8999 -0.3284
  910MPD2    H313331   2.643   1.159  15.853 -0.5454  2.0405 -1.7389
  910MPD2     N13332   2.844   1.118  15.468  0.2937  0.1242  0.2631
  910MPD2    H513333   2.776   1.189  15.443 -1.8528 -1.1572  2.4201
  910MPD2    N113334   2.991   0.843  15.849 -0.4297 -0.6457 -0.1488
  910MPD2    H713335   3.061   0.808  15.785  1.3763 -1.0480  2.0541
  911MPD2     C13336   0.259   1.668  16.466 -0.1012 -0.1252  0.6647
  911MPD2    C113337   0.306   1.775  16.532  0.2146  0.1050 -0.0256
  911MPD2    C213338   0.210   1.873  16.567  1.1095 -0.0364 -0.0317
  911MPD2    C313339   0.072   1.863  16.533  0.2846 -0.6603 -0.2205
  911MPD2    C413340   0.034   1.751  16.464  0.4628 -0.3278  0.8597
  911MPD2    C513341   0.128   1.648  16.442 -0.5854  0.0854  0.5192
  911MPD2     H13342   0.244   1.968  16.607  2.6883  0.9164 -3.7150
  911MPD2    H113343   4.651   1.737  16.436  0.8160  0.1684 -0.6800
  911MPD2    H213344   0.330   1.600  16.420 -2.2723 -1.1088 -1.2284
  911MPD2    H313345   0.105   1.560  16.384 -1.1854  1.0228 -0.6500
  911MPD2     N13346   4.698   1.959  16.559 -0.3563  0.0101 -0.1825
  911MPD2    H513347   4.605   1.941  16.523 -0.6050 -0.5141  0.7322
  911MPD2    N113348   0.444   1.777  16.562 -0.4386  0.0810  0.3997
  911MPD2    H713349   0.502   1.695  16.545  0.0277  0.8683 -1.8202
  912MPD2     C13350   4.543   1.945  16.066 -0.1666  0.3307  0.1253
  912MPD2    C113351   4.483   1.903  16.185 -0.0897  0.4407 -0.0740
  912MPD2    C213352   4.485   1.768  16.215  0.1377 -0.1474  0.2147
  912MPD2    C313353   4.563   1.683  16.134 -0.7138 -0.5023  0.7447
  912MPD2    C413354   4.604   1.729  16.010 -0.4002 -0.0523 -0.5580
  912MPD2    C513355   4.591   1.856  15.975 -0.2427  0.0292 -1.3152
  912MPD2     H13356   4.430   1.729  16.300 -1.7041 -1.6161 -1.6699
  912MPD2    H113357   4.644   1.663  15.934  0.6853 -0.0053 -0.0359
  912MPD2    H213358   4.559   2.048  16.037 -0.2864 -0.1472 -1.6955
  912MPD2    H313359   4.629   1.891  15.880  0.9309  0.8282 -0.5573
  912MPD2     N13360   4.582   1.552  16.181  0.3101 -0.2415  0.2851
  912MPD2    H513361   4.532   1.537  16.267  0.5918  1.2965  0.7246
  912MPD2    N113362   4.439   2.006  16.277  0.7136  0.2059  0.3107
  912MPD2    H713363   4.441   2.097  16.233 -1.6798  1.1345  2.1911
  913MPD2     C13364   0.822   3.492  10.879  0.0329  0.0410  0.1959
  913MPD2    C113365   0.945   3.539  10.916 -0.2428  0.6084  0.0972
  913MPD2    C213366   1.039   3.552  10.813  0.3449  0.0153 -0.4795
  913MPD2    C313367   1.011   3.542  10.678  0.5759  0.1238 -0.5961
  913MPD2    C413368   0.882   3.498  10.644  0.3269 -0.4013 -0.6553
  913MPD2    C513369   0.797   3.470  10.749 -0.0353 -0.7563 -0.1716
  913MPD2     H13370   1.134   3.596  10.843  0.9124 -1.9476  0.5988
  913MPD2    H113371   0.849   3.483  10.542 -0.2979 -1.7428 -0.2514
  913MPD2    H213372   0.746   3.462  10.949  0.3554 -0.1901  0.4497
  913MPD2    H313373   0.698   3.431  10.727 -1.0704  2.8816 -2.0480
  913MPD2     N13374   1.107   3.572  10.579  0.4572  0.3860  0.1507
  913MPD2    H513375   1.065   3.586  10.488  0.0146  0.4898  0.3712
  913MPD2    N113376   0.975   3.562  11.046  0.3674  0.5494 -0.2346
  913MPD2    H713377   0.911   3.528  11.117  1.0223 -2.6865 -1.2000
  914MPD2     C13378   3.597   3.391  12.113 -0.4090  0.0049  0.7670
  914MPD2    C113379   3.544   3.471  12.213  0.1860 -0.1137 -0.4010
  914MPD2    C213380   3.560   3.426  12.338 -0.2298 -0.4044  0.0486
  914MPD2    C313381   3.621   3.307  12.367 -0.1276  0.2447 -0.1625
  914MPD2    C413382   3.688   3.237  12.274  0.5393  0.3527 -0.6378
  914MPD2    C513383   3.669   3.276  12.141 -0.3156 -0.0061  0.0249
  914MPD2     H13384   3.530   3.489  12.421 -0.6947  0.9113 -1.1249
  914MPD2    H113385   3.747   3.150  12.298  1.2542  0.8932 -0.4286
  914MPD2    H213386   3.585   3.414  12.008 -0.2210 -0.8667  0.5558
  914MPD2    H313387   3.716   3.219  12.062  0.0480  1.7742 -1.0299
  914MPD2     N13388   3.620   3.274  12.503 -0.6119 -0.5439  0.0549
  914MPD2    H513389   3.577   3.347  12.558  1.1595  0.1872  0.4741
  914MPD2    N113390   3.474   3.592  12.174  0.0534  0.8118 -0.4698
  914MPD2    H713391   3.459   3.599  12.073 -1.5131  0.3745 -0.2669
  915MPD2     C13392   1.728   2.979  15.536 -0.0154  0.2561 -0.3640
  915MPD2    C113393   1.621   3.065  15.519 -0.3416  1.0346  0.4599
  915MPD2    C213394   1.560   3.140  15.618 -0.5010 -0.0433 -0.0191
  915MPD2    C313395   1.616   3.126  15.740 -0.1884 -0.4236 -0.1000
  915MPD2    C413396   1.710   3.037  15.769 -0.0728  0.1026 -0.4857
  915MPD2    C513397   1.772   2.965  15.667  0.0171  0.1864 -0.7346
  915MPD2     H13398   1.480   3.210  15.600 -0.8151 -0.8412 -1.6930
  915MPD2    H113399   1.745   3.032  15.871  0.2319  0.1353 -0.5901
  915MPD2    H213400   1.778   2.940  15.448  1.3514  1.0683  0.0447
  915MPD2    H313401   1.849   2.891  15.683 -0.1366  0.4537  1.1620
  915MPD2     N13402   1.560   3.217  15.840  0.1864 -0.0087  0.0208
  915MPD2    H513403   1.501   3.294  15.811 -0.8796 -1.3317 -1.3354
  915MPD2    N113404   1.575   3.083  15.387 -0.2404 -0.3388  0.4374
  915MPD2    H713405   1.611   3.022  15.314 -1.3655  0.2773 -0.6219
  916MPD2     C13406   4.390   1.567  15.747  0.5804  0.5528 -0.8106
  916MPD2    C113407   4.374   1.492  15.860  1.1579 -0.5656 -0.0497
  916MPD2    C213408   4.461   1.390  15.888  0.2217  0.2132 -0.3080
  916MPD2    C313409   4.569   1.374  15.802  0.4462  1.1175 -0.2036
  916MPD2    C413410   4.590   1.452  15.690 -0.0470  0.1225 -0.4378
  916MPD2    C513411   4.497   1.544  15.662 -0.0232  0.2056  0.5766
  916MPD2     H13412   4.453   1.322  15.972  1.4963  1.3977  0.7699
  916MPD2    H113413   4.659   1.430  15.610 -0.7300  1.9776 -1.5350
  916MPD2    H213414   4.325   1.651  15.726 -0.4032  0.0802  0.3526
  916MPD2    H313415   4.499   1.597  15.568  0.6453  1.4434  1.2997
  916MPD2     N13416   4.649   1.259  15.832  0.4709 -0.1118  0.5496
  916MPD2    H513417   4.612   1.197  15.902 -1.3160 -0.9756 -1.1577
  916MPD2    N113418   4.263   1.529  15.943 -0.6619  0.4129 -0.2531
  916MPD2    H713419   4.203   1.607  15.915 -2.1816 -0.2401  1.1957
  917MPD2     C13420   0.670   4.445  11.986  0.4236  0.4047 -0.5338
  917MPD2    C113421   0.539   4.434  11.945 -0.7752 -0.9056 -0.2189
  917MPD2    C213422   0.497   4.536  11.855  0.1793  1.2947 -0.5912
  917MPD2    C313423   0.577   4.643  11.811 -0.0114  0.3883  0.6460
  917MPD2    C413424   0.708   4.649  11.854  0.2718 -0.3791  0.7887
  917MPD2    C513425   0.747   4.552  11.944  0.1611 -0.0076  0.7251
  917MPD2     H13426   0.396   4.531  11.816 -0.0486  1.1976  0.0115
  917MPD2    H113427   0.774   0.012  11.833  0.2346 -0.1766  1.4845
  917MPD2    H213428   0.719   4.367  12.042  1.6013  1.3558 -0.2413
  917MPD2    H313429   0.847   4.558  11.987  0.2289 -0.1190  0.5872
  917MPD2     N13430   0.527   0.022  11.720  0.0172 -0.2247  0.4346
  917MPD2    H513431   0.595   0.093  11.694 -1.7736  1.0952 -0.6789
  917MPD2    N113432   0.464   4.322  11.992 -0.1055 -0.4236 -0.0409
  917MPD2    H713433   0.517   4.274  12.065 -0.7967  1.3867  1.6619
  918MPD2     C13434   0.409   4.126  12.812  0.1400  0.4530  1.0194
  918MPD2    C113435   0.492   4.185  12.716  0.1954 -0.2429  0.1387
  918MPD2    C213436   0.447   4.191  12.588  0.2182 -0.3866  0.4449
  918MPD2    C313437   0.315   4.157  12.551 -0.1099  0.0318 -0.3895
  918MPD2    C413438   0.233   4.101  12.648  0.3305 -0.5510  0.8224
  918MPD2    C513439   0.287   4.084  12.777  0.2940  0.1580 -0.3174
  918MPD2     H13440   0.515   4.228  12.513 -2.1685  1.5231 -0.7623
  918MPD2    H113441   0.129   4.071  12.637  0.4608 -0.3724 -0.9338
  918MPD2    H213442   0.441   4.120  12.915 -1.1068  2.9963  1.5501
  918MPD2    H313443   0.223   4.041  12.853 -0.8518 -0.5476 -1.6698
  918MPD2     N13444   0.270   4.189  12.420 -0.1924  0.5173  0.0945
  918MPD2    H513445   0.337   4.200  12.345 -0.8738 -1.5866 -0.8233
  918MPD2    N113446   0.622   4.243  12.739  0.5615  0.0150 -0.0950
  918MPD2    H713447   0.654   4.298  12.660 -0.6606 -0.5583 -0.9954
  919MPD2     C13448   0.996   3.336  12.231 -0.0820 -0.7391 -0.3490
  919MPD2    C113449   0.895   3.265  12.164 -0.1597  0.3493  0.2211
  919MPD2    C213450   0.808   3.319  12.071 -0.4063  0.0426  0.3847
  919MPD2    C313451   0.833   3.449  12.028 -0.3547  0.1110  0.1017
  919MPD2    C413452   0.944   3.521  12.086  0.5058 -0.2701 -0.1042
  919MPD2    C513453   1.018   3.464  12.184  0.5897  0.5315 -0.0799
  919MPD2     H13454   0.732   3.267  12.015  0.1816  0.5404 -0.8730
  919MPD2    H113455   0.981   3.615  12.047  2.7844 -1.4572 -0.8352
  919MPD2    H213456   1.068   3.293  12.300 -1.7958 -1.0431  1.2429
  919MPD2    H313457   1.111   3.500  12.227  1.6252  0.4513 -2.2817
  919MPD2     N13458   0.756   3.497  11.916 -0.0334 -0.7495  0.0776
  919MPD2    H513459   0.680   3.436  11.889 -0.4971  0.0627 -0.4448
  919MPD2    N113460   0.881   3.124  12.184 -0.2140 -0.0542 -0.0304
  919MPD2    H713461   0.810   3.086  12.122 -1.0016 -0.1589  0.9273
  920MPD2     C13462   0.913   4.005  11.001  0.5601  0.4537  0.0348
  920MPD2    C113463   0.802   3.923  10.977 -0.0360  0.4834  0.2577
  920MPD2    C213464   0.725   3.887  11.092  0.5329 -0.1739  0.0648
  920MPD2    C313465   0.754   3.918  11.222 -0.0040  0.1636  0.3758
  920MPD2    C413466   0.868   3.994  11.236  0.3986  0.0731  0.4274
  920MPD2    C513467   0.947   4.025  11.133  0.0587 -0.9269  0.7923
  920MPD2     H13468   0.642   3.820  11.073  0.9555 -1.1532  1.7296
  920MPD2    H113469   0.914   4.028  11.328 -0.0773 -0.0547  0.7118
  920MPD2    H213470   0.975   4.037  10.918  0.3705 -1.3720 -0.8173
  920MPD2    H313471   1.035   4.085  11.153  0.2833 -1.1627  0.5016
  920MPD2     N13472   0.689   3.852  11.326 -0.0578 -0.7702 -0.3483
  920MPD2    H513473   0.604   3.800  11.306 -0.5732 -0.1732  0.2917
  920MPD2    N113474   0.779   3.862  10.849  0.0507  0.1139  0.0703
  920MPD2    H713475   0.704   3.794  10.842  0.2079  0.0933 -1.3607
  921MPD2     C13476   1.113   2.362  17.092 -0.1582  0.7110 -0.0496
  921MPD2    C113477   1.186   2.248  17.057 -0.2484  0.5165 -0.1573
  921MPD2    C213478   1.118   2.145  16.991 -0.6517 -0.9107  0.0381
  921MPD2    C313479   0.979   2.159  16.979 -0.3592  0.5071 -0.2756
  921MPD2    C413480   0.913   2.269  17.009  0.3619 -0.3828 -0.5484
  921MPD2    C513481   0.978   2.367  17.067  0.3322 -0.2096 -0.0030
  921MPD2     H13482   1.173   2.063  16.947  1.8246 -0.3132  2.0388
  921MPD2    H113483   0.807   2.274  16.984 -0.3820  0.0383  2.7520
  921MPD2    H213484   1.169   2.441  17.142 -1.0232  1.0205  0.4339
  921MPD2    H313485   0.916   2.456  17.080  0.1946 -0.2240 -0.5810
  921MPD2     N13486   0.892   2.066  16.917 -0.6299 -0.7094 -0.4215
  921MPD2    H513487   0.797   2.092  16.894 -0.1873  0.4425 -0.9257
  921MPD2    N113488   1.330   2.247  17.059 -0.0364 -0.9138  0.2311
  921MPD2    H713489   1.372   2.336  17.081 -0.9665 -0.1563 -1.0710
  922MPD2     C13490   2.129   4.137  16.793  0.0134  0.2743  0.4570
  922MPD2    C113491   2.116   4.212  16.904 -0.2625  0.2956 -0.2963
  922MPD2    C213492   2.011   4.180  16.990  0.4830  0.0577  0.2574
  922MPD2    C313493   1.933   4.064  16.975 -0.2924 -0.0827  0.7011
  922MPD2    C413494   1.939   3.999  16.857 -0.6784 -0.6638 -0.1477
  922MPD2    C513495   2.035   4.035  16.764 -1.1992  0.2053  0.3465
  922MPD2     H13496   1.995   4.248  17.073  1.0594 -0.9234  1.1738
  922MPD2    H113497   1.864   3.927  16.828 -1.4746 -0.5004  1.5512
  922MPD2    H213498   2.205   4.158  16.718 -0.9192 -0.2534 -0.6342
  922MPD2    H313499   2.057   3.988  16.668 -1.4381 -0.9912  0.8807
  922MPD2     N13500   1.822   4.030  17.054  0.1682 -0.2950 -0.3741
  922MPD2    H513501   1.760   3.960  17.016  1.9021 -2.1212  0.2042
  922MPD2    N113502   2.196   4.327  16.940 -0.0173  0.3959 -0.4469
  922MPD2    H713503   2.162   4.393  17.009  1.2556  0.7678 -0.1736
  923MPD2     C13504   4.399   0.780   9.579  0.2443 -0.6920  0.0269
  923MPD2    C113505   4.322   0.869   9.651 -0.7147 -0.0137  0.1482
  923MPD2    C213506   4.357   0.907   9.776  0.1285 -0.2170 -0.2224
  923MPD2    C313507   4.465   0.863   9.845  0.0907 -0.0352 -0.0873
  923MPD2    C413508   4.539   0.767   9.778  0.2009  0.4850 -0.7025
  923MPD2    C513509   4.498   0.715   9.650  0.2651  0.1588  0.5196
  923MPD2     H13510   4.289   0.973   9.828 -0.0048  0.6349 -1.4891
  923MPD2    H113511   4.627   0.718   9.819  0.5334  0.8658 -0.9527
  923MPD2    H213512   4.388   0.752   9.475  0.9113  0.6368 -0.3985
  923MPD2    H313513   4.544   0.630   9.602 -0.9560 -0.5566  0.6117
  923MPD2     N13514   4.506   0.917   9.972 -0.0625 -0.6198  0.7062
  923MPD2    H513515   4.592   0.875  10.005  0.9301  0.7035 -0.1987
  923MPD2    N113516   4.203   0.913   9.596 -1.1912 -0.5532 -0.1281
  923MPD2    H713517   4.161   0.861   9.520  0.2254 -1.5891 -0.1868
  924MPD2     C13518   3.720   4.014  16.395 -0.5646  0.5133  0.2197
  924MPD2    C113519   3.646   4.066  16.296 -0.2102  0.0959 -0.3030
  924MPD2    C213520   3.636   4.203  16.287 -0.6925  0.0574  1.1849
  924MPD2    C313521   3.715   4.284  16.372 -0.1094  0.4789 -0.5309
  924MPD2    C413522   3.786   4.225  16.478 -0.4153  0.6286 -0.2338
  924MPD2    C513523   3.786   4.089  16.490  0.3895  0.2954 -0.2475
  924MPD2     H13524   3.576   4.257  16.214 -0.7666 -0.9892  0.4706
  924MPD2    H113525   3.847   4.288  16.542 -0.1992  0.4851 -0.3027
  924MPD2    H213526   3.717   3.907  16.411  0.0981  0.6082  0.9788
  924MPD2    H313527   3.828   4.048  16.581 -1.1802  1.2981  0.9344
  924MPD2     N13528   3.704   4.421  16.378  0.0703  0.1690 -0.0555
  924MPD2    H513529   3.749   4.472  16.454  1.3956 -1.3135  0.1500
  924MPD2    N113530   3.570   3.985  16.217  0.9174 -0.5308 -0.2365
  924MPD2    H713531   3.599   3.888  16.215  1.1968 -0.4814  1.2913
  925MPD2     C13532   1.954   2.822  15.077 -0.1627 -0.5408 -0.7054
  925MPD2    C113533   1.924   2.705  15.009 -0.8432  0.2216 -0.2545
  925MPD2    C213534   1.905   2.588  15.079 -0.2955  0.4600  0.2009
  925MPD2    C313535   1.911   2.592  15.220  0.5519 -0.3831 -0.4139
  925MPD2    C413536   1.942   2.715  15.282 -0.4320 -0.4732 -0.4800
  925MPD2    C513537   1.964   2.826  15.206 -0.1518 -0.4283  0.1244
  925MPD2     H13538   1.875   2.499  15.026  0.6883  0.8176 -0.9575
  925MPD2    H113539   1.946   2.716  15.391 -1.9172 -0.5647 -0.4263
  925MPD2    H213540   1.979   2.909  15.017 -0.5971  1.7331  2.4155
  925MPD2    H313541   2.000   2.916  15.255 -1.6206  0.8510 -1.1757
  925MPD2     N13542   1.889   2.477  15.303 -0.9616  0.1842 -0.1245
  925MPD2    H513543   1.917   2.493  15.399  1.0283  0.6380 -0.7766
  925MPD2    N113544   1.924   2.697  14.867 -0.2649 -0.4469 -0.5496
  925MPD2    H713545   1.920   2.606  14.823  2.0469 -0.1183 -1.4460
  926MPD2     C13546   1.876   1.220  13.946  0.3593  0.3285  0.2063
  926MPD2    C113547   1.759   1.278  13.894  0.3828  0.1993 -0.4953
  926MPD2    C213548   1.747   1.315  13.765 -0.0992  0.1988  0.6836
  926MPD2    C313549   1.859   1.292  13.677 -0.2402 -0.1811 -0.0482
  926MPD2    C413550   1.980   1.242  13.725 -0.2287 -0.1677  0.7075
  926MPD2    C513551   1.985   1.207  13.859 -0.7246 -0.1858  0.1907
  926MPD2     H13552   1.658   1.363  13.728  0.9587 -0.1082 -2.2909
  926MPD2    H113553   2.072   1.220  13.672 -0.9495  0.5027 -0.8045
  926MPD2    H213554   1.896   1.186  14.047  2.9101 -1.8967 -1.0534
  926MPD2    H313555   2.074   1.169  13.907 -0.7519  0.2616  0.5876
  926MPD2     N13556   1.861   1.313  13.540 -0.1133 -1.0192 -0.2089
  926MPD2    H513557   1.951   1.295  13.494  0.2967 -0.3651  0.3414
  926MPD2    N113558   1.631   1.268  13.957  0.9000 -0.4891 -0.0570
  926MPD2    H713559   1.555   1.299  13.898 -0.2293 -0.6141  1.3331
  927MPD2     C13560   0.270   3.486   0.417  0.0904  0.3519  0.2676
  927MPD2    C113561   0.361   3.591   0.408  0.3971 -0.0075  0.4625
  927MPD2    C213562   0.435   3.593   0.292  0.1688  0.6037  0.6184
  927MPD2    C313563   0.438   3.482   0.208 -0.2669  0.5466 -0.6135
  927MPD2    C413564   0.352   3.375   0.223 -0.0189 -0.4731 -0.8089
  927MPD2    C513565   0.260   3.386   0.323  0.3113  0.1469  0.5203
  927MPD2     H13566   0.517   3.662   0.278  0.3441  0.2597 -0.0610
  927MPD2    H113567   0.345   3.298   0.147 -2.5137  0.3582 -1.4397
  927MPD2    H213568   0.203   3.485   0.502 -1.2188  1.0262 -0.7673
  927MPD2    H313569   0.186   3.307   0.326  2.2842 -1.6600  2.0552
  927MPD2     N13570   0.537   3.481   0.107 -0.3534  0.1623 -0.3593
  927MPD2    H513571   0.573   3.573   0.085  0.0248 -0.6935 -3.3331
  927MPD2    N113572   0.366   3.688   0.509 -0.0632  0.0273 -0.9512
  927MPD2    H713573   0.295   3.681   0.582  1.3476 -0.3939  0.3679
  928MPD2     C13574   2.437   2.402   0.772  0.5297  0.2672  0.2077
  928MPD2    C113575   2.554   2.383   0.844 -0.1357  0.1210 -0.9509
  928MPD2    C213576   2.673   2.388   0.779 -0.4761  0.0041  0.5360
  928MPD2    C313577   2.681   2.399   0.642  0.2107 -0.4356 -0.1264
  928MPD2    C413578   2.560   2.392   0.572  0.5181 -0.0072 -0.1358
  928MPD2    C513579   2.442   2.402   0.639 -0.1543  0.6425  1.0970
  928MPD2     H13580   2.768   2.383   0.832 -1.1190  0.9682  1.7914
  928MPD2    H113581   2.545   2.383   0.465 -0.9295 -1.6770  0.2054
  928MPD2    H213582   2.339   2.404   0.818  1.7102 -0.8925  2.7812
  928MPD2    H313583   2.352   2.399   0.579 -0.6619 -0.8418  1.9495
  928MPD2     N13584   2.804   2.410   0.573  0.1361  0.1663  0.2728
  928MPD2    H513585   2.790   2.432   0.475  2.4386  0.5019  0.0002
  928MPD2    N113586   2.543   2.365   0.990 -0.1299 -0.4281  0.0541
  928MPD2    H713587   2.447   2.355   1.020 -0.5767 -1.1819 -1.5782
  929MPD2     C13588   3.838   1.623  10.261 -0.3815 -0.7306 -0.1110
  929MPD2    C113589   3.754   1.593  10.368 -0.0124  0.6101  0.5077
  929MPD2    C213590   3.624   1.635  10.359  0.3320 -0.5291 -0.1713
  929MPD2    C313591   3.590   1.726  10.266  0.3149 -0.4313 -0.5527
  929MPD2    C413592   3.680   1.766  10.164  0.2913  0.2874 -0.3848
  929MPD2    C513593   3.808   1.712  10.164 -0.1253  0.1419  0.1331
  929MPD2     H13594   3.541   1.612  10.425 -0.0445 -0.6766 -0.6862
  929MPD2    H113595   3.645   1.835  10.089 -2.1341 -0.2569  0.2588
  929MPD2    H213596   3.942   1.592  10.258  0.1005  0.8504  0.1889
  929MPD2    H313597   3.877   1.736  10.084 -1.3255  2.0421 -0.3470
  929MPD2     N13598   3.458   1.764  10.265  0.5185  0.3688  0.2522
  929MPD2    H513599   3.406   1.729  10.344 -4.0838  2.2588 -1.9621
  929MPD2    N113600   3.804   1.524  10.479  0.0037 -0.0762 -0.4422
  929MPD2    H713601   3.902   1.498  10.473  0.3207  1.0010  0.0836
  930MPD2     C13602   0.927   3.917  14.726 -0.1658 -0.3549  0.2406
  930MPD2    C113603   0.874   4.036  14.699 -0.3024  0.0812 -0.0565
  930MPD2    C213604   0.774   4.042  14.605 -0.2897  0.3165 -0.5377
  930MPD2    C313605   0.731   3.923  14.543  0.5690  0.4108 -0.6902
  930MPD2    C413606   0.790   3.802  14.576  0.4863  0.1449  0.6217
  930MPD2    C513607   0.880   3.798  14.673 -0.8888 -0.6337 -0.1560
  930MPD2     H13608   0.733   4.139  14.578 -1.8470 -0.2539 -0.2052
  930MPD2    H113609   0.767   3.703  14.540 -0.3381  0.8969 -0.8825
  930MPD2    H213610   1.010   3.918  14.796 -0.5616  0.7315  0.6999
  930MPD2    H313611   0.925   3.703  14.700  1.9021  0.7489  0.0387
  930MPD2     N13612   0.645   3.925  14.431 -0.5558  0.0507  0.3082
  930MPD2    H513613   0.632   3.835  14.386 -0.4418  0.0882  0.2027
  930MPD2    N113614   0.940   4.157  14.736 -0.5345  0.3736  0.0307
  930MPD2    H713615   1.019   4.146  14.799  1.6664  0.7888 -2.6560
  931MPD2     C13616   0.095   3.916   1.224 -0.2098 -0.6130  0.6700
  931MPD2    C113617   0.205   3.855   1.172 -0.2971 -0.5484  0.1248
  931MPD2    C213618   0.253   3.743   1.247  0.4115  0.1385  0.6012
  931MPD2    C313619   0.172   3.694   1.349  0.3013  0.1943 -0.2355
  931MPD2    C413620   0.060   3.761   1.391  0.9526  0.2661 -0.2440
  931MPD2    C513621   0.033   3.877   1.329  0.1550 -0.1086 -0.6119
  931MPD2     H13622   0.339   3.684   1.216  0.0140 -0.0234 -0.1862
  931MPD2    H113623   4.718   3.718   1.469  0.1279 -0.0086 -1.0716
  931MPD2    H213624   0.043   3.997   1.175 -1.6595 -0.5980  2.2289
  931MPD2    H313625   4.658   3.926   1.347  0.9075  1.6806 -1.5600
  931MPD2     N13626   0.206   3.580   1.419 -0.0260  0.5236 -0.3142
  931MPD2    H513627   0.148   3.554   1.498  0.1286  1.1055 -0.0084
  931MPD2    N113628   0.263   3.899   1.055 -0.1054 -0.0625  0.3167
  931MPD2    H713629   0.231   3.989   1.020  0.8619  0.2633  0.2563
  932MPD2     C13630   2.057   2.370  11.487  0.9318  0.7162 -0.8498
  932MPD2    C113631   2.179   2.370  11.557 -1.4790  0.3716 -0.1877
  932MPD2    C213632   2.176   2.318  11.683 -0.4609  0.9732 -0.0974
  932MPD2    C313633   2.067   2.253  11.743 -0.6851  0.2661  0.1841
  932MPD2    C413634   1.948   2.252  11.665  0.6911 -0.2614 -0.3703
  932MPD2    C513635   1.946   2.322  11.545 -0.0427 -0.0598 -0.2737
  932MPD2     H13636   2.269   2.312  11.738  0.0413  1.6715 -0.8872
  932MPD2    H113637   1.862   2.215  11.720 -0.5007  1.7237 -0.9033
  932MPD2    H213638   2.047   2.407  11.386 -1.3462  0.0077 -0.8945
  932MPD2    H313639   1.856   2.321  11.485 -0.1900 -1.8687 -0.0051
  932MPD2     N13640   2.055   2.205  11.871  0.0079 -0.2002  0.0557
  932MPD2    H513641   1.964   2.179  11.906  0.8359 -2.3556  0.6123
  932MPD2    N113642   2.295   2.433  11.511  0.0082 -0.0825  0.5240
  932MPD2    H713643   2.373   2.434  11.576  2.1186  1.1764 -2.0429
  933MPD2     C13644   2.019   2.150   1.307  0.4643  0.2414 -0.7139
  933MPD2    C113645   2.137   2.103   1.362  0.6969  0.4095 -0.2554
  933MPD2    C213646   2.139   1.980   1.435 -0.0699  0.7427 -0.0036
  933MPD2    C313647   2.016   1.918   1.457  0.1066 -0.0437 -0.6437
  933MPD2    C413648   1.903   1.966   1.403  0.7868 -0.6582 -0.2321
  933MPD2    C513649   1.902   2.085   1.327  0.5448 -0.2741  0.6961
  933MPD2     H13650   2.226   1.937   1.482 -1.8955 -1.2268  1.6192
  933MPD2    H113651   1.807   1.915   1.409 -0.5384  1.9105  0.1175
  933MPD2    H213652   2.013   2.241   1.249 -1.4366  0.2039 -0.5481
  933MPD2    H313653   1.810   2.130   1.290  1.1757 -1.1796 -1.9725
  933MPD2     N13654   2.023   1.813   1.551 -0.4832  0.3338 -0.4090
  933MPD2    H513655   2.114   1.793   1.591 -1.3521 -1.9634  0.4471
  933MPD2    N113656   2.260   2.159   1.335  0.1626 -0.5185 -0.2707
  933MPD2    H713657   2.252   2.226   1.260  1.2267  1.0262  1.0137
  934MPD2     C13658   3.623   0.605   1.597  0.3098  0.6735 -0.2556
  934MPD2    C113659   3.741   0.531   1.604  0.1001  0.3067  0.3690
  934MPD2    C213660   3.759   0.422   1.523  0.0491  0.4712 -0.1057
  934MPD2    C313661   3.660   0.394   1.424  0.2908  1.0624  0.4540
  934MPD2    C413662   3.542   0.470   1.426  0.2407  0.0202 -0.9720
  934MPD2    C513663   3.519   0.569   1.517 -0.5346  0.2409 -0.5186
  934MPD2     H13664   3.853   0.366   1.519  0.3388  1.1932 -4.0743
  934MPD2    H113665   3.467   0.443   1.352 -1.5156  0.8782  0.5128
  934MPD2    H213666   3.606   0.684   1.669 -0.5725 -0.2862  0.5898
  934MPD2    H313667   3.425   0.622   1.514 -0.3292  0.4685 -3.1680
  934MPD2     N13668   3.663   0.285   1.333  0.5551 -0.0253  0.1991
  934MPD2    H513669   3.590   0.280   1.262  1.2934  0.2342 -0.5777
  934MPD2    N113670   3.849   0.572   1.691 -0.1078 -0.3576 -0.4959
  934MPD2    H713671   3.943   0.537   1.673 -0.6432 -1.7698 -0.5603
  935MPD2     C13672   4.233   4.137   1.008  0.3838  0.4627  0.3163
  935MPD2    C113673   4.172   4.154   1.134 -0.6834 -0.0115 -0.2889
  935MPD2    C213674   4.074   4.251   1.139 -0.2347  1.4797 -0.1380
  935MPD2    C313675   4.037   4.324   1.030  0.2236  0.4760 -0.2212
  935MPD2    C413676   4.088   4.296   0.908  0.0245 -0.7210 -0.4158
  935MPD2    C513677   4.183   4.200   0.902 -0.3591  1.0092 -0.3268
  935MPD2     H13678   4.025   4.262   1.235 -1.0922  1.1228 -0.5357
  935MPD2    H113679   4.056   4.344   0.816  0.2673 -0.8562 -0.5730
  935MPD2    H213680   4.303   4.060   0.977 -2.3486 -1.1444 -1.8855
  935MPD2    H313681   4.233   4.188   0.807 -1.2612  0.1264 -0.6944
  935MPD2     N13682   3.950   4.439   1.043 -0.2254  0.0861 -0.0951
  935MPD2    H513683   3.918   4.482   0.957  0.9183 -1.7367 -1.4313
  935MPD2    N113684   4.201   4.070   1.244  0.5542  0.5057  0.1622
  935MPD2    H713685   4.132   4.054   1.317  0.7875  2.9061  0.8982
  936MPD2     C13686   3.603   0.908  12.859  0.4034 -0.0126 -0.7600
  936MPD2    C113687   3.527   0.979  12.951 -0.2825  0.2226  0.3572
  936MPD2    C213688   3.462   1.091  12.908 -0.2183  0.5815 -0.5485
  936MPD2    C313689   3.470   1.134  12.781 -0.5496  0.2539 -0.5022
  936MPD2    C413690   3.550   1.064  12.694  0.8252  0.9491  0.3141
  936MPD2    C513691   3.617   0.952  12.732  0.4021  0.2058  0.5166
  936MPD2     H13692   3.412   1.148  12.985  0.1621  0.1581  0.0142
  936MPD2    H113693   3.576   1.103  12.596  2.6450  1.3042  0.9253
  936MPD2    H213694   3.642   0.811  12.887  0.6126  0.5351  0.8405
  936MPD2    H313695   3.676   0.896  12.660  0.1955 -2.1285  2.1672
  936MPD2     N13696   3.400   1.248  12.743  0.0752 -0.6841 -0.7533
  936MPD2    H513697   3.418   1.290  12.652  0.5612  0.4351 -0.1363
  936MPD2    N113698   3.520   0.942  13.087  0.8567  0.2816 -0.4141
  936MPD2    H713699   3.452   1.001  13.134 -0.6294 -1.0507 -0.9400
  937MPD2     C13700   0.734   2.674  11.676  0.7443 -0.5376 -0.3481
  937MPD2    C113701   0.853   2.722  11.731 -0.5927  0.1990  0.1441
  937MPD2    C213702   0.947   2.779  11.649 -0.0802 -0.1511  0.6450
  937MPD2    C313703   0.937   2.763  11.508  0.1669 -0.0473  0.5147
  937MPD2    C413704   0.821   2.700  11.457  0.5331  0.1730 -0.8883
  937MPD2    C513705   0.715   2.666  11.543 -0.7412  0.6343  0.0697
  937MPD2     H13706   1.034   2.820  11.698 -0.1378 -0.3779  0.9388
  937MPD2    H113707   0.806   2.678  11.352 -0.1842 -2.7549 -0.1835
  937MPD2    H213708   0.652   2.643  11.740  0.2762 -0.8490 -1.0993
  937MPD2    H313709   0.629   2.621  11.495 -0.3113  0.5556 -0.6208
  937MPD2     N13710   1.045   2.812  11.430  0.0019 -0.3039  0.0739
  937MPD2    H513711   1.122   2.851  11.484  1.5111 -0.7632 -1.7288
  937MPD2    N113712   0.859   2.756  11.872 -0.0278 -0.4551  0.0248
  937MPD2    H713713   0.929   2.822  11.902  0.1669 -1.0477  0.8912
  938MPD2     C13714   3.415   3.554   0.918 -0.3225  0.1453  0.5894
  938MPD2    C113715   3.285   3.589   0.921  0.6645  0.2268 -0.2569
  938MPD2    C213716   3.195   3.529   1.008  0.0890 -0.5497 -0.0864
  938MPD2    C313717   3.245   3.435   1.096 -0.1802 -1.1423 -0.1222
  938MPD2    C413718   3.374   3.396   1.094  0.2650 -0.7786 -0.0245
  938MPD2    C513719   3.457   3.463   1.007 -0.2686  0.3212 -0.1008
  938MPD2     H13720   3.088   3.545   1.004  0.3639  1.2430 -0.2104
  938MPD2    H113721   3.412   3.323   1.165  0.5018 -0.9014 -0.2767
  938MPD2    H213722   3.488   3.599   0.851 -1.0672  0.8290  0.2431
  938MPD2    H313723   3.560   3.431   1.003 -0.5502 -0.2790 -2.3061
  938MPD2     N13724   3.158   3.382   1.192  0.0481 -0.6485 -0.2459
  938MPD2    H513725   3.199   3.326   1.266  2.4290  0.7115 -0.5278
  938MPD2    N113726   3.245   3.669   0.814 -0.1565  0.6665 -0.4966
  938MPD2    H713727   3.320   3.723   0.771  1.1405 -0.4567  0.3853
  939MPD2     C13728   4.546   0.330   0.642  0.3236  0.0644 -0.0961
  939MPD2    C113729   4.558   0.454   0.695 -0.2697 -0.2421  1.0824
  939MPD2    C213730   4.688   0.509   0.704 -0.1039 -0.0447 -0.0719
  939MPD2    C313731   0.077   0.451   0.647 -0.7969  0.3868  0.6265
  939MPD2    C413732   0.057   0.337   0.576  0.4385  0.7081  0.1686
  939MPD2    C513733   4.661   0.274   0.587 -0.2858 -0.3205 -0.2932
  939MPD2     H13734   4.696   0.600   0.762 -0.8273 -0.3290  0.4724
  939MPD2    H113735   0.127   0.286   0.512  0.5300  1.8678 -0.6599
  939MPD2    H213736   4.452   0.276   0.640  0.1665  0.3336  0.0512
  939MPD2    H313737   4.659   0.184   0.527  0.7425 -0.4716 -0.1041
  939MPD2     N13738   0.204   0.514   0.649 -0.3591  0.1349  0.2457
  939MPD2    H513739   0.212   0.602   0.700  0.9648  0.1666 -0.0070
  939MPD2    N113740   4.442   0.526   0.730  0.2671  0.1566  0.0856
  939MPD2    H713741   4.363   0.462   0.722 -0.0876  0.2098  3.2513
  940MPD2     C13742   3.955   1.065  13.389 -0.3734 -0.3355  0.3240
  940MPD2    C113743   4.084   1.024  13.397 -0.5822 -0.2905 -0.1814
  940MPD2    C213744   4.142   0.942  13.303  0.6120 -0.1625 -0.4464
  940MPD2    C313745   4.068   0.888  13.199  0.0240 -0.1324  0.4272
  940MPD2    C413746   3.937   0.927  13.195  0.0706  0.3914  0.4572
  940MPD2    C513747   3.879   1.008  13.290 -1.1196 -0.2405  0.3309
  940MPD2     H13748   4.247   0.916  13.312  0.8401  0.4801 -1.2100
  940MPD2    H113749   3.870   0.897  13.115 -0.7584 -1.6376  1.9093
  940MPD2    H213750   3.905   1.127  13.462 -1.3718 -0.5085 -0.2154
  940MPD2    H313751   3.773   1.030  13.285 -0.6228  1.9958 -0.5208
  940MPD2     N13752   4.117   0.807  13.094  0.0089 -0.8339 -0.2387
  940MPD2    H513753   4.058   0.773  13.019 -1.7943  0.2846  0.6840
  940MPD2    N113754   4.157   1.065  13.507 -0.3187 -0.0397  0.3248
  940MPD2    H713755   4.251   1.027  13.514 -0.6014 -0.3953  2.2601
  941MPD2     C13756   3.309   4.010   9.218 -0.2280 -0.4898 -0.1253
  941MPD2    C113757   3.270   4.045   9.346  1.0730  0.1639 -0.0316
  941MPD2    C213758   3.172   3.968   9.404  0.6991  0.4697 -0.4981
  941MPD2    C313759   3.105   3.869   9.335  0.4509 -0.3176 -0.2266
  941MPD2    C413760   3.144   3.840   9.206  0.3072  1.2294 -0.1775
  941MPD2    C513761   3.249   3.904   9.150 -0.0556 -0.1237 -0.1965
  941MPD2     H13762   3.161   3.986   9.511 -0.7717 -1.3503 -0.3237
  941MPD2    H113763   3.098   3.753   9.160  1.2948  0.5523  0.0878
  941MPD2    H213764   3.386   4.068   9.168 -1.4132  1.3439  0.1724
  941MPD2    H313765   3.279   3.883   9.049 -0.6755  0.1554 -0.4389
  941MPD2     N13766   3.003   3.786   9.386  0.2607  0.4858  0.2314
  941MPD2    H513767   2.963   3.714   9.327 -1.6803  0.9371  1.0196
  941MPD2    N113768   3.331   4.155   9.419 -0.5854  0.2955  0.4235
  941MPD2    H713769   3.294   4.160   9.513 -0.8721  2.1413  0.2237
  942MPD2     C13770   2.935   0.906   9.879  0.5676  0.7176  0.3147
  942MPD2    C113771   2.902   0.846   9.763  0.7071  0.0526  0.4023
  942MPD2    C213772   2.989   0.765   9.692 -0.3786  0.5831 -0.6486
  942MPD2    C313773   3.115   0.741   9.750 -0.5129 -0.2604 -1.0721
  942MPD2    C413774   3.152   0.804   9.871  0.1647 -0.6006 -0.3526
  942MPD2    C513775   3.063   0.895   9.931 -0.5528  0.8030 -0.7793
  942MPD2     H13776   2.959   0.712   9.603  1.9461 -0.0945 -1.0208
  942MPD2    H113777   3.242   0.789   9.930  0.0863 -1.6737 -0.5104
  942MPD2    H213778   2.866   0.970   9.933  0.6287 -0.8089  2.2359
  942MPD2    H313779   3.092   0.932  10.028 -0.3067 -0.7346 -0.2642
  942MPD2     N13780   3.212   0.656   9.694 -0.0269 -0.4060  0.5572
  942MPD2    H513781   3.301   0.652   9.744 -0.3329  1.2334  1.2611
  942MPD2    N113782   2.782   0.877   9.698  0.3666 -0.0850 -0.8094
  942MPD2    H713783   2.763   0.827   9.612  0.6833  1.2367 -1.6463
  943MPD2     C13784   2.539   3.939   9.746 -0.6153  0.1399 -0.1787
  943MPD2    C113785   2.433   3.892   9.810  0.7531 -0.5011  0.7466
  943MPD2    C213786   2.330   3.835   9.736  0.1385  0.0255 -0.1368
  943MPD2    C313787   2.329   3.840   9.599  0.0685  0.0076  0.7424
  943MPD2    C413788   2.426   3.908   9.535 -0.5664 -0.4004 -0.3619
  943MPD2    C513789   2.535   3.953   9.610 -0.5355 -0.2620 -0.1765
  943MPD2     H13790   2.242   3.802   9.790  0.4054  0.5436  0.6232
  943MPD2    H113791   2.426   3.914   9.427 -3.5438 -0.4447 -0.3630
  943MPD2    H213792   2.628   3.976   9.795 -0.1144  0.0233 -1.0195
  943MPD2    H313793   2.619   3.995   9.557 -0.2561 -0.1367  0.3655
  943MPD2     N13794   2.233   3.772   9.517 -0.2633 -0.5375  0.1658
  943MPD2    H513795   2.234   3.780   9.416 -1.4290  2.8588  0.4573
  943MPD2    N113796   2.436   3.869   9.948  0.3049 -0.1256 -0.1240
  943MPD2    H713797   2.349   3.827   9.980 -0.8627  0.8184 -2.0541
  944MPD2     C13798   2.016   3.798  11.571 -0.2386  0.3071  0.1263
  944MPD2    C113799   1.912   3.820  11.485 -0.8590  0.4235 -0.0666
  944MPD2    C213800   1.803   3.897  11.537 -1.0318 -0.2776 -0.0933
  944MPD2    C313801   1.802   3.937  11.669 -0.7239 -0.2984 -0.1584
  944MPD2    C413802   1.914   3.913  11.747  0.3277  0.0704  0.1260
  944MPD2    C513803   2.016   3.841  11.699  0.0488  0.1376  0.1351
  944MPD2     H13804   1.722   3.928  11.473 -0.4737  2.8102  0.7039
  944MPD2    H113805   1.920   3.933  11.853  1.1950  0.2694  0.0440
  944MPD2    H213806   2.105   3.744  11.540 -1.3220 -1.3631 -0.0862
  944MPD2    H313807   2.103   3.832  11.763  0.6400  0.4853 -0.6198
  944MPD2     N13808   1.691   4.011  11.717  0.2851 -0.4844  0.2310
  944MPD2    H513809   1.633   4.058  11.648 -0.9700  2.0112  3.0239
  944MPD2    N113810   1.935   3.795  11.349 -0.1577 -0.2449 -0.1069
  944MPD2    H713811   2.026   3.761  11.320 -0.2426 -0.5475 -0.0165
    1TCq1    O113812   0.050   4.442  13.995 -0.0814 -0.1839  0.6468
    1TCq1    C113813   0.096   4.447  14.117  0.0645 -0.7292  0.3495
    1TCq1    O213814   0.114   4.357  14.193 -0.1340  0.2437 -0.1673
    1TCq1    C213815   0.087   4.587  14.153  0.3143 -0.3823  0.2646
    1TCq1    C313816   4.694   4.660  14.130 -0.2520 -0.1825  0.8096
    1TCq1    C413817   4.647   0.035  14.216 -0.1765  0.3714 -0.1024
    1TCq1    C513818   4.711   0.060  14.334 -0.2535 -0.4166  0.4729
    1TCq1    C613819   0.106   4.711  14.358 -0.4137 -0.4363  0.3362
    1TCq1    C713820   0.151   4.610  14.271  0.5341  0.1600 -0.6525
    1TCq1    C813821   0.159   4.709  14.494  0.1088 -0.5906  0.2211
    1TCq1    O413822   0.241   4.620  14.511  0.8976  0.1265 -0.1599
    1TCq1    C913823   4.532   0.115  14.188  0.6672 -0.2413 -0.8880
    1TCq1    O513824   4.457   0.135  14.283 -0.0509  0.1799  0.0430
    1TCq1    O613825   4.511   0.144  14.066 -0.3833 -0.0939 -0.2461
    1TCq1    H113826   0.041   4.532  13.957 -2.9236 -0.3015  1.0610
    1TCq1    H213827   4.631   4.643  14.043  0.3047  1.5205  0.0804
    1TCq1    H313828   4.661   0.131  14.400 -0.8365  0.9479 -1.4361
    1TCq1    H413829   0.232   4.543  14.298 -1.1099 -0.8574  1.7509
    2MPD2     C13830   0.215   0.154  14.976  0.5193 -0.6991  0.3879
    2MPD2    C113831   0.132   0.242  14.911 -0.2854 -0.1426  0.6151
    2MPD2    C213832   0.108   0.215  14.773  0.0895  0.0667 -0.4698
    2MPD2    C313833   0.166   0.110  14.707 -0.0103  0.0726 -0.2129
    2MPD2    C413834   0.256   0.028  14.774  0.3659  0.7753 -0.0501
    2MPD2    C513835   0.274   0.047  14.913 -0.9616 -0.3122 -0.4660
    2MPD2     H13836   0.029   0.269  14.722 -0.7393 -2.1507 -1.5530
    2MPD2    H113837   0.312   4.670  14.724 -1.1311  2.0495 -3.6838
    2MPD2    H213838   0.222   0.165  15.084 -0.2368 -0.2752  0.3959
    2MPD2    H313839   0.341   4.702  14.967  0.5358  0.1689 -1.7392
    2MPD2     N13840   0.128   0.095  14.572 -0.3878 -0.3836 -0.1913
    2MPD2    H513841   0.064   0.164  14.536 -0.5830 -1.0137 -1.0601
    2MPD2    N113842   0.072   0.353  14.980  0.3314 -0.5522  0.1325
    2MPD2    H713843   0.079   0.359  15.081  0.2629 -2.5518  0.2592
    3TMC2    C113844   4.687   0.562  15.015  0.1136  0.0663 -0.5053
    3TMC2    C213845   4.665   0.544  15.150 -0.2784 -0.2126 -0.5608
    3TMC2    C313846   4.605   0.654  15.217 -0.0117  1.2855  0.6727
    3TMC2    C413847   4.664   0.680  14.957  0.3939 -0.7435  0.4868
    3TMC2    C513848   4.611   0.787  15.023 -0.1294  0.2156 -0.2311
    3TMC2    C613849   4.573   0.770  15.154 -0.2953  0.0605  0.6436
    3TMC2     C13850   0.017   0.463  14.919  0.3582 -0.0952  0.2334
    3TMC2     O13851   0.017   0.491  14.799  0.9682  0.2046  0.2409
    3TMC2     H13852   4.666   0.448  15.200  2.6953 -0.2082 -0.6048
    3TMC2    H113853   4.696   0.698  14.855 -0.1695 -1.6930  0.1387
    3TMC2    H213854   4.554   0.854  15.219  3.4246  1.6907 -0.3559
    3TMC2    C713855   4.590   0.917  14.956  0.1310  0.0032  0.2965
    3TMC2    C813856   4.587   0.648  15.362  0.2224 -0.2439 -0.6087
    3TMC2    O113857   4.520   1.004  15.006  0.2982 -0.0863  0.0547
    3TMC2    O213858   4.649   0.568  15.430  0.4367 -0.0949  0.0912
    3TMC2    O513859   4.463   0.702  15.395 -0.7672  0.4046 -0.2547
    3TMC2    H513860   4.429   0.759  15.323  2.2812 -0.3457 -2.2935
    4MPD2     C13861   3.569   1.472  14.095 -0.3719  0.0506 -0.9182
    4MPD2    C113862   3.668   1.515  14.011  0.6168 -0.2303  0.4681
    4MPD2    C213863   3.800   1.485  14.047 -0.9293 -1.0052  0.6753
    4MPD2    C313864   3.831   1.446  14.173 -0.1169  0.8427 -0.4263
    4MPD2    C413865   3.730   1.419  14.259  0.2915  0.0535 -0.5737
    4MPD2    C513866   3.599   1.425  14.216  0.7470  0.4821 -0.5248
    4MPD2     H13867   3.883   1.521  13.987 -0.8396 -1.8989  0.2619
    4MPD2    H113868   3.761   1.398  14.360  0.5141  2.1555 -0.2101
    4MPD2    H213869   3.465   1.491  14.067 -0.7898 -0.9087 -0.0226
    4MPD2    H313870   3.520   1.382  14.277  0.1881  1.3685 -0.6135
    4MPD2     N13871   3.970   1.445  14.213 -0.6367  0.6784 -0.0768
    4MPD2    H513872   4.036   1.473  14.142  0.7600  0.5342  1.1540
    4MPD2    N113873   3.641   1.572  13.884  0.2696 -0.6030  0.4702
    4MPD2    H713874   3.543   1.577  13.858  0.8794 -0.7331 -1.8303
    5TCq2    C113875   4.020   1.377  14.321 -0.3128 -0.1353  0.3434
    5TCq2    O213876   3.961   1.329  14.414 -0.4868  0.4024  0.2885
    5TCq2    C213877   4.159   1.364  14.320 -0.1017 -1.4145  0.1542
    5TCq2    C313878   4.235   1.409  14.210 -0.5636  0.2590  0.1894
    5TCq2    C413879   4.361   1.349  14.196 -0.1009 -0.2388  0.1031
    5TCq2    C513880   4.412   1.259  14.277  0.5403 -0.7049  0.4063
    5TCq2    C613881   4.330   1.222  14.390 -0.9738 -0.0058  0.5307
    5TCq2    C713882   4.206   1.274  14.414  0.1784  0.6718 -0.9941
    5TCq2    C813883   4.399   1.163  14.503  0.0788  0.6708  0.1170
    5TCq2    O413884   4.328   1.123  14.596  0.1457  0.0866 -0.0277
    5TCq2    C913885   4.427   1.386  14.073 -0.3616  0.9555 -0.3648
    5TCq2    O513886   4.544   1.335  14.054  0.1307 -0.2665 -0.0719
    5TCq2    O613887   4.361   1.448  13.984 -0.8380  0.4050 -0.3535
    5TCq2    H213888   4.216   1.494  14.146 -2.4878  0.6146  1.2579
    5TCq2    H313889   4.500   1.200  14.253  1.0592  0.0499  0.4579
    5TCq2    H413890   4.146   1.238  14.496 -0.0911  1.2369 -0.9446
    6MPD1     C13891   3.436   2.345  12.023 -0.3115 -0.5759  0.0020
    6MPD1    C113892   3.555   2.390  12.080 -0.3359  0.7687 -0.3321
    6MPD1    C213893   3.589   2.354  12.207  0.6681 -0.5306 -0.3640
    6MPD1    C313894   3.498   2.279  12.279 -0.1495 -0.2540 -0.1483
    6MPD1    C413895   3.378   2.239  12.223 -0.0003  0.2109 -0.0670
    6MPD1    C513896   3.347   2.273  12.092 -0.1440  0.1256  0.0194
    6MPD1     H13897   3.682   2.386  12.254 -0.2384  2.5715 -0.6568
    6MPD1    H113898   3.317   2.173  12.284  2.5197 -0.9505  1.1698
    6MPD1    H213899   3.416   2.374  11.920  1.7328  0.3445 -0.1540
    6MPD1    H313900   3.257   2.240  12.041 -0.3215  0.6986 -0.0407
    6MPD1     N13901   3.512   2.230  12.412  0.1148 -0.1111  0.2992
    6MPD1    H513902   3.434   2.178  12.450 -0.0293  0.0346  0.2003
    6MPD1    N113903   3.651   2.460  11.996  0.0565  0.4058 -0.7774
    6MPD1    H613904   3.722   2.510  12.049 -0.3370  0.3617 -0.1989
    6MPD1    H713905   3.605   2.526  11.934 -0.6420 -0.6959 -1.4268
    7MPD2     C13906   3.251   2.088  13.143  0.1072  0.0979  0.5469
    7MPD2    C113907   3.371   2.027  13.118  1.1493  0.1596 -0.3646
    7MPD2    C213908   3.420   1.932  13.202 -0.3072  0.0144  0.0018
    7MPD2    C313909   3.358   1.899  13.318  0.5242 -0.0285 -0.3471
    7MPD2    C413910   3.229   1.950  13.341 -0.5108 -0.0681  0.1101
    7MPD2    C513911   3.175   2.044  13.251  0.2061 -0.5532 -0.5019
    7MPD2     H13912   3.514   1.888  13.172  0.2824 -0.3150  2.3132
    7MPD2    H113913   3.174   1.937  13.434 -1.4591 -0.2605 -0.4783
    7MPD2    H213914   3.204   2.159  13.076  1.0600  1.0897  0.9374
    7MPD2    H313915   3.079   2.093  13.264  2.0153  2.8761 -0.0203
    7MPD2     N13916   3.425   1.791  13.387 -0.0287 -0.6836 -0.4081
    7MPD2    H513917   3.511   1.763  13.341 -0.7103 -1.3580 -1.2556
    7MPD2    N113918   3.438   2.046  12.994  0.4555  0.2114  0.0822
    7MPD2    H713919   3.522   1.991  12.986  0.7126  0.5860  0.1727
    8TMC3    C113920   3.490   1.632  13.530  0.0867  0.0802  0.0732
    8TMC3    C213921   3.543   1.632  13.656 -0.5578 -0.1459 -0.1517
    8TMC3    C313922   3.675   1.613  13.661 -0.4138  0.4387  0.7584
    8TMC3    C413923   3.550   1.577  13.419  0.0265 -0.4344 -0.2254
    8TMC3    C513924   3.684   1.584  13.428 -0.1609 -0.6172 -0.0440
    8TMC3    C613925   3.750   1.598  13.548  0.4431 -0.4536  0.0994
    8TMC3     C13926   3.386   1.728  13.500 -0.3860 -0.1389 -0.2567
    8TMC3     O13927   3.300   1.762  13.578 -0.3491 -0.1353 -0.0314
    8TMC3     H13928   3.494   1.692  13.731 -0.6191 -0.1764 -0.1673
    8TMC3    H113929   3.506   1.563  13.321  0.3778  1.2467 -0.6285
    8TMC3    H213930   3.856   1.576  13.551  0.4860  0.1140  2.6576
    8TMC3    C713931   3.726   1.660  13.314 -0.2042  0.1581 -0.6305
    8TMC3    C813932   3.740   1.597  13.789  0.1183  0.2075  0.1939
    8TMC3    O113933   3.644   1.692  13.229  0.5372 -0.4024 -0.0626
    8TMC3    O213934   3.863   1.606  13.792 -0.5004  0.1918  0.2424
    9TMC3    C113935   3.632   2.184  12.620 -0.3590 -0.4342 -0.0706
    9TMC3    C213936   3.757   2.185  12.680 -0.3931  0.1420  0.5457
    9TMC3    C313937   3.767   2.180  12.814  0.1323 -0.0774 -0.3858
    9TMC3    C413938   3.514   2.168  12.686  0.0857 -0.2470 -0.1070
    9TMC3    C513939   3.528   2.146  12.816 -0.0762  0.6819  0.0870
    9TMC3    C613940   3.645   2.166  12.882 -0.3961  0.0626  0.4919
    9TMC3     C13941   3.626   2.259  12.488  0.3315  0.0178 -0.3549
    9TMC3     O13942   3.721   2.328  12.455  0.1904  0.5855 -0.5055
    9TMC3     H13943   3.846   2.190  12.618  0.8899  1.0747  2.4650
    9TMC3    H113944   3.416   2.149  12.644 -0.7194  0.5105  1.4428
    9TMC3    H213945   3.644   2.172  12.990 -0.3015  0.7432  0.4550
    9TMC3    C713946   3.406   2.136  12.894  0.0554 -0.2690 -0.8573
    9TMC3    C813947   3.884   2.110  12.875  0.1290 -0.4543  0.1898
    9TMC3    O113948   3.310   2.205  12.868 -0.2793 -0.1619 -0.3664
    9TMC3    O213949   3.987   2.098  12.809 -0.2655  0.0966 -0.5437
   10MPD2     C13950   4.063   1.763  13.199 -0.4479 -0.5371 -0.1173
   10MPD2    C113951   3.929   1.787  13.233  0.1974  0.5168 -0.2676
   10MPD2    C213952   3.862   1.885  13.164  1.1131  0.4552 -0.5430
   10MPD2    C313953   3.923   1.954  13.064 -0.1398  0.1207  0.2053
   10MPD2    C413954   4.055   1.931  13.030  0.3079  0.8772  0.2064
   10MPD2    C513955   4.122   1.847  13.109  0.2827  0.1596 -0.4205
   10MPD2     H13956   3.756   1.904  13.174  0.9432 -0.4150 -0.6197
   10MPD2    H113957   4.121   1.996  12.973 -2.0466  1.1608 -2.1694
   10MPD2    H213958   4.113   1.669  13.217  0.9828  0.6624  2.3015
   10MPD2    H313959   4.228   1.837  13.091  0.9993  1.3539  3.1798
   10MPD2     N13960   3.854   2.049  12.993 -0.1440  0.4295 -0.0567
   10MPD2    H513961   3.760   2.068  13.024  0.1069  1.7165 -0.1003
   10MPD2    N113962   3.862   1.696  13.321  0.3154  0.2980  0.8019
   10MPD2    H713963   3.927   1.644  13.379  0.2524 -1.3086 -0.5726
   11MPD2     C13964   0.126   1.053  14.727  0.4301  0.0262 -0.4924
   11MPD2    C113965   4.719   1.015  14.765 -0.9686  0.6156  0.7393
   11MPD2    C213966   4.609   1.064  14.687  0.4405  0.2896  0.2325
   11MPD2    C313967   4.633   1.138  14.578  0.0053  0.1557  0.4415
   11MPD2    C413968   0.040   1.176  14.535  0.7564 -0.5237  0.4701
   11MPD2    C513969   0.140   1.132  14.614  0.1166 -0.0132  0.5867
   11MPD2     H13970   4.510   1.033  14.719  1.0169 -1.3868  0.3682
   11MPD2    H113971   0.060   1.238  14.448 -1.0588 -0.7968 -0.1273
   11MPD2    H213972   0.214   1.014  14.778  0.5780 -1.8495 -2.1844
   11MPD2    H313973   0.240   1.164  14.587  0.1666 -1.3579 -0.7517
   11MPD2     N13974   4.536   1.176  14.488  0.3148  0.4227  0.1973
   11MPD2    H513975   4.578   1.234  14.416 -1.4348 -1.9737 -2.7572
   11MPD2    N113976   4.708   0.936  14.884 -0.0321 -1.2329  0.4718
   11MPD2    H713977   0.072   0.892  14.917  1.0630  0.0758 -0.5949
    1MPD1     C13978   1.156   2.100  17.461  0.1672  0.5904  0.4425
    1MPD1    C113979   1.209   2.186  17.551  1.0251  0.5917  0.0674
    1MPD1    C213980   1.349   2.206  17.564  0.5288 -0.1617  0.2655
    1MPD1    C313981   1.437   2.128  17.486 -0.3968 -0.4858 -0.0031
    1MPD1    C413982   1.379   2.028  17.405  0.1222  0.0673 -0.3441
    1MPD1    C513983   1.243   2.013  17.388 -0.2581  0.1472  0.5815
    1MPD1     H13984   1.373   2.297  17.618  0.0960  0.3072 -0.3375
    1MPD1    H113985   1.450   1.970  17.346  0.9050  0.9082 -0.2268
    1MPD1    H213986   1.054   2.069  17.443  0.1428  0.9829 -0.0911
    1MPD1    H313987   1.210   1.929  17.328  0.2963  1.0309 -0.9560
    1MPD1     N13988   1.580   2.153  17.468  0.4128  0.0145  0.5247
    1MPD1    H513989   1.639   2.097  17.407 -0.0122  0.3248 -0.1772
    1MPD1    N113990   1.124   2.278  17.618 -0.0564 -0.1013  0.2420
    1MPD1    H613991   1.033   2.241  17.645  0.1979 -0.2788  0.8414
    1MPD1    H713992   1.159   2.315   0.021  1.6536 -1.4032  0.0992
    2MPD1     C13993   2.558   2.435   0.177  0.1353  0.0121 -0.1226
    2MPD1    C113994   2.565   2.404   0.040  0.2036 -0.7102  0.3782
    2MPD1    C213995   2.451   2.395  17.653 -0.2617 -0.1078  0.3008
    2MPD1    C313996   2.324   2.415   0.021  0.3721  0.0626 -0.4851
    2MPD1    C413997   2.319   2.454   0.153 -0.6190  0.1352 -0.6345
    2MPD1    C513998   2.433   2.463   0.232 -0.2859  1.7896 -0.6339
    2MPD1     H13999   2.455   2.363  17.549  2.7782  1.5187 -0.0925
    2MPD1    H114000   2.226   2.475   0.205 -0.3469 -0.2125 -0.0155
    2MPD1    H214001   2.647   2.433   0.239 -0.0743  2.0704  0.2648
    2MPD1    H314002   2.424   2.495   0.335  0.5175  1.4254 -0.4439
    2MPD1     N14003   2.214   2.399  17.625 -0.6431 -1.0101  0.5130
    2MPD1    H514004   2.229   2.366  17.530 -1.9406  0.5780 -0.2661
    2MPD1    N114005   2.683   2.348  17.674  0.2457  0.5961  0.1595
    2MPD1    H614006   2.686   2.333  17.573 -2.3737 -0.7086  0.2681
    2MPD1    H714007   2.764   2.392   0.031 -0.1944  1.1607  0.4082
    3TMC3    C114008   1.994   2.359  17.564 -0.1032  0.0405 -0.0624
    3TMC3    C214009   2.028   2.370  17.435  0.0971  0.3801  0.6619
    3TMC3    C314010   1.938   2.337  17.341 -0.5172 -0.7703  0.1158
    3TMC3    C414011   1.873   2.305  17.604  0.2466  0.4222 -0.1561
    3TMC3    C514012   1.795   2.259  17.506  0.4060 -0.0332 -0.0656
    3TMC3    C614013   1.818   2.282  17.376 -0.2319 -0.3531 -0.2404
    3TMC3     C14014   2.083   2.389  17.668 -0.9547 -0.4044  0.2198
    3TMC3     O14015   2.047   2.388   0.099 -0.6344  0.0524  0.2308
    3TMC3     H14016   2.101   2.441  17.398 -2.4651  2.8384  0.4035
    3TMC3    H114017   1.856   2.289   0.024 -1.3646  0.5059 -0.4084
    3TMC3    H214018   1.744   2.276  17.297 -1.7654  2.5439  0.9749
    3TMC3    C714019   1.658   2.236  17.549 -0.9250  0.2260 -0.2006
    3TMC3    C814020   1.978   2.345  17.201 -0.1827 -0.6114  0.0312
    3TMC3    O114021   1.632   2.271  17.665 -0.7841 -0.5906  0.2937
    3TMC3    O214022   1.891   2.312  17.123  0.7587  0.5517  0.0042
    4MPD1     C14023   2.306   2.347  16.808  0.2640 -0.9388 -0.2705
    4MPD1    C114024   2.378   2.365  16.924  0.2656  1.0896 -0.0731
    4MPD1    C214025   2.309   2.364  17.050  0.5152  0.2250 -0.4343
    4MPD1    C314026   2.173   2.361  17.052  0.1930 -0.3069 -0.1632
    4MPD1    C414027   2.097   2.364  16.931  0.5605 -0.0445 -0.0411
    4MPD1    C514028   2.172   2.349  16.816 -0.1840  0.7587  0.0975
    4MPD1     H14029   2.368   2.367  17.141 -1.3420 -2.9897  0.8517
    4MPD1    H114030   1.990   2.355  16.923  0.7083  1.0437 -3.3597
    4MPD1    H214031   2.345   2.333  16.708 -0.6328 -1.3103 -0.5744
    4MPD1    H314032   2.119   2.333  16.723  1.0391 -3.8548  0.1666
    4MPD1     N14033   2.113   2.339  17.181  0.6376  0.8647  0.1787
    4MPD1    H514034   2.176   2.340  17.260 -0.8600 -0.0361  1.3876
    4MPD1    N114035   2.519   2.337  16.920  0.1772  0.0315 -0.5018
    4MPD1    H614036   2.566   2.389  16.995  0.1081  0.8534 -1.0236
    4MPD1    H714037   2.563   2.354  16.830 -0.4973 -0.9297 -1.0038
    1TCq1    O114038   2.591   1.286  12.749  0.3284  0.4680  0.4034
    1TCq1    C114039   2.594   1.369  12.642  0.2537  0.1125 -0.6365
    1TCq1    O214040   2.489   1.416  12.602 -0.3528 -0.0314  0.2001
    1TCq1    C214041   2.732   1.421  12.625 -0.0559  0.5887 -0.4048
    1TCq1    C314042   2.831   1.324  12.618 -0.0093 -0.7973 -0.1092
    1TCq1    C414043   2.951   1.348  12.557  0.4727 -0.5149  0.3641
    1TCq1    C514044   2.960   1.466  12.479 -0.2744  0.2562  0.4810
    1TCq1    C614045   2.863   1.563  12.483 -0.1343  0.1881 -0.8538
    1TCq1    C714046   2.749   1.540  12.555  0.0232  0.0434  0.5056
    1TCq1    C814047   2.847   1.658  12.371 -0.1690 -0.6627  0.1674
    1TCq1    O414048   2.747   1.727  12.367 -0.7138  0.1277  0.1571
    1TCq1    C914049   3.028   1.244  12.495 -0.3530 -0.2059 -0.6613
    1TCq1    O514050   2.984   1.131  12.479  0.0961 -0.1616 -0.0269
    1TCq1    O614051   3.134   1.285  12.438 -0.3183 -0.3641 -0.5258
    1TCq1    H114052   2.679   1.269  12.788 -0.5037 -0.7679  1.7256
    1TCq1    H214053   2.825   1.217  12.636  0.6266 -0.5782  1.3705
    1TCq1    H314054   3.030   1.471  12.397 -0.3528 -1.8228  0.2926
    1TCq1    H414055   2.657   1.599  12.550 -0.2568 -0.3566  0.8984
    2MPD1     C14056   3.079   1.962  12.022 -0.3869 -0.2637 -0.3116
    2MPD1    C114057   3.177   1.890  12.084  0.1430 -0.5282  0.3648
    2MPD1    C214058   3.139   1.800  12.182 -0.3954 -1.7049 -0.2398
    2MPD1    C314059   3.007   1.792  12.229  0.2926 -0.4798 -0.7863
    2MPD1    C414060   2.916   1.880  12.171  0.0534 -0.0467 -0.2594
    2MPD1    C514061   2.953   1.956  12.069  0.3802 -0.4461  0.4574
    2MPD1     H14062   3.218   1.734  12.216  2.3482  0.8759 -1.5474
    2MPD1    H114063   2.810   1.879  12.194  0.2431 -1.8753  0.5528
    2MPD1    H214064   3.099   2.027  11.938  0.1375  2.7661  2.1762
    2MPD1    H314065   2.877   2.011  12.015  1.1900 -1.7396 -2.0579
    2MPD1     N14066   2.969   1.687  12.320 -0.1433 -0.0680  0.1065
    2MPD1    H514067   3.042   1.624  12.350 -1.0530 -0.7891  0.8104
    2MPD1    N114068   3.309   1.906  12.036  0.6026 -0.0915 -0.6936
    2MPD1    H614069   3.326   1.997  11.993 -0.7119  0.8500  0.7676
    2MPD1    H714070   3.385   1.869  12.093 -0.3311  0.3401  0.8332
    1TCq1    O114071   4.188   2.017   2.189  0.8755 -0.4973  0.5613
    1TCq1    C114072   4.235   1.935   2.291  0.8532 -0.2515 -0.4471
    1TCq1    O214073   4.262   1.989   2.399  0.5497 -0.0302 -0.4642
    1TCq1    C214074   4.336   1.848   2.230  0.0255 -0.2649  0.4068
    1TCq1    C314075   4.306   1.744   2.150  0.1439  0.0074 -0.0251
    1TCq1    C414076   4.389   1.638   2.138  0.2356 -0.1924  0.7965
    1TCq1    C514077   4.496   1.635   2.213  0.1271 -0.4153  0.2401
    1TCq1    C614078   4.536   1.746   2.290 -0.0950 -0.6159 -0.0225
    1TCq1    C714079   4.449   1.850   2.294  0.2967 -0.0790  0.6374
    1TCq1    C814080   4.671   1.772   2.325 -0.3923  0.1883  0.1297
    1TCq1    O414081   4.691   1.883   2.373 -0.4303 -0.7378 -0.0823
    1TCq1    C914082   4.338   1.523   2.078  1.0186  0.3250  0.2104
    1TCq1    O514083   4.407   1.420   2.083  0.3901  0.1990 -0.3818
    1TCq1    O614084   4.220   1.516   2.042 -0.0743  0.1920 -0.5548
    1TCq1    H114085   4.201   1.975   2.102  2.1339 -0.1480  0.5819
    1TCq1    H214086   4.204   1.724   2.119 -0.0565  0.3185  0.4354
    1TCq1    H314087   4.543   1.539   2.229 -3.3243 -2.4136 -1.5087
    1TCq1    H414088   4.473   1.937   2.352 -1.2384  0.8605 -0.1257
    2MPD1     C14089   0.449   1.666   2.330  0.0671 -0.4866 -0.3747
    2MPD1    C114090   0.390   1.565   2.256 -0.1427 -0.2996  0.1702
    2MPD1    C214091   0.251   1.561   2.250  0.1970 -0.0909  0.4601
    2MPD1    C314092   0.174   1.655   2.314 -0.4526 -0.9303  0.6449
    2MPD1    C414093   0.237   1.755   2.390  0.4746  1.3806  0.1287
    2MPD1    C514094   0.372   1.752   2.396 -0.1573 -0.0060 -0.3936
    2MPD1     H14095   0.198   1.502   2.176 -0.1326  0.1345  0.5146
    2MPD1    H114096   0.183   1.829   2.447 -1.0832 -0.3709  0.9367
    2MPD1    H214097   0.557   1.674   2.336  0.0708  0.0663 -1.1940
    2MPD1    H314098   0.421   1.828   2.456 -2.3184  0.3827  0.8807
    2MPD1     N14099   0.032   1.666   2.292  0.0414 -0.1502  0.5303
    2MPD1    H514100   4.720   1.597   2.226  3.5851  1.2062 -2.6131
    2MPD1    N114101   0.474   1.490   2.174  1.2507  0.0323 -0.0031
    2MPD1    H614102   0.553   1.462   2.231  1.4958 -0.1058 -0.4130
    2MPD1    H714103   0.432   1.406   2.132 -0.0720  1.3571 -1.3439
    1MPD1     C14104   3.850   1.568  12.211 -0.0561  0.0411  0.4072
    1MPD1    C114105   3.914   1.523  12.317 -0.3697 -0.1259  0.3501
    1MPD1    C214106   4.040   1.581  12.332  0.3577 -0.1917 -0.4711
    1MPD1    C314107   4.086   1.698  12.275 -0.3332 -0.3490 -0.4693
    1MPD1    C414108   4.000   1.753  12.178 -0.3426  0.6070 -0.0874
    1MPD1    C514109   3.891   1.678  12.140 -0.5092  0.4244  0.6625
    1MPD1     H14110   4.095   1.526  12.407  1.0981  0.3118 -0.6469
    1MPD1    H114111   4.027   1.833  12.110 -1.6556  0.6551 -0.5495
    1MPD1    H214112   3.753   1.525  12.190 -1.4977  3.2101  0.6796
    1MPD1    H314113   3.824   1.711  12.062  0.7011 -1.2514 -1.0641
    1MPD1     N14114   4.210   1.750  12.324  0.3796  0.0913  0.4032
    1MPD1    H514115   4.247   1.693  12.400 -0.8447 -1.3157 -0.0410
    1MPD1    N114116   3.887   1.405  12.393  0.5603  0.0338  0.1213
    1MPD1    H614117   3.787   1.383  12.394  0.8005 -1.0787  0.3805
    1MPD1    H714118   3.920   1.407  12.490 -0.1916 -2.0901  0.4319
    2MPD1     C14119   4.487   3.003  11.573 -0.6453  0.5565 -0.3377
    2MPD1    C114120   4.390   2.920  11.520  0.8042 -0.2768  0.9773
    2MPD1    C214121   4.428   2.804  11.464  0.0335  0.7695  0.5320
    2MPD1    C314122   4.558   2.765  11.446  0.3866 -0.1077  0.4637
    2MPD1    C414123   4.654   2.854  11.479 -0.2647  0.0277  0.1038
    2MPD1    C514124   4.613   2.976  11.531  0.1746 -0.0741 -0.6074
    2MPD1     H14125   4.351   2.730  11.445  1.5905 -0.6861 -0.1664
    2MPD1    H114126   0.038   2.829  11.468 -0.9901 -2.5714 -0.9534
    2MPD1    H214127   4.461   3.098  11.619 -3.7080  0.0007 -0.9235
    2MPD1    H314128   4.687   3.055  11.542  1.2202 -1.4077  1.7854
    2MPD1     N14129   4.608   2.641  11.393  0.3213 -0.1732 -0.3587
    2MPD1    H514130   4.709   2.635  11.396  0.2685  0.1796  2.5741
    2MPD1    N114131   4.259   2.934  11.561 -0.1431  0.0254  0.2383
    2MPD1    H614132   4.235   3.032  11.579 -1.1226 -0.0936 -0.4183
    2MPD1    H714133   4.199   2.903  11.484 -0.3545 -1.6691  1.0939
    3MPD1     C14134   4.090   2.035  10.795  0.5443 -0.2629 -0.3173
    3MPD1    C114135   4.070   2.155  10.859  0.1694 -0.2423 -0.1054
    3MPD1    C214136   4.169   2.201  10.942  0.1684  1.0336 -0.4851
    3MPD1    C314137   4.289   2.132  10.964 -0.4075 -0.4275  0.1773
    3MPD1    C414138   4.315   2.023  10.883  0.0328 -0.2345 -0.2971
    3MPD1    C514139   4.211   1.973  10.803 -0.0268 -0.2572  0.4575
    3MPD1     H14140   4.162   2.286  11.010  1.9905  0.3470  0.5886
    3MPD1    H114141   4.407   1.966  10.891  0.0739 -0.1657 -0.2823
    3MPD1    H214142   4.007   2.000  10.736 -1.2926  4.5160 -0.5884
    3MPD1    H314143   4.235   1.889  10.740 -0.2765  0.1545 -0.1862
    3MPD1     N14144   4.386   2.185  11.056  0.5988 -0.1933  0.0991
    3MPD1    H514145   4.360   2.268  11.108 -1.1096  0.2915 -1.5378
    3MPD1    N114146   3.948   2.230  10.850  0.3801 -1.0800  0.5647
    3MPD1    H614147   3.905   2.230  10.758  2.4016 -0.1379 -0.3838
    3MPD1    H714148   3.942   2.320  10.896  0.8366 -0.5338 -0.4538
    4MPD2     C14149   4.709   2.381  12.189 -0.1868 -0.1037  0.8068
    4MPD2    C114150   0.023   2.256  12.242  0.1061 -1.0422 -0.1532
    4MPD2    C214151   0.145   2.201  12.224 -0.0317 -0.5193  0.4078
    4MPD2    C314152   0.247   2.266  12.159 -0.5776 -0.2660  0.4750
    4MPD2    C414153   0.211   2.389  12.108  0.8424 -0.5088 -0.0224
    4MPD2    C514154   0.083   2.445  12.121  0.2174 -0.2310 -0.5237
    4MPD2     H14155   0.149   2.098  12.256 -0.3227 -0.8558 -0.6539
    4MPD2    H114156   0.280   2.447  12.048  2.5145 -2.1274  0.3537
    4MPD2    H214157   4.610   2.422  12.199 -0.4085 -0.2500 -0.8363
    4MPD2    H314158   0.052   2.530  12.061 -2.5639 -1.1715 -0.3966
    4MPD2     N14159   0.377   2.215  12.137 -0.7281 -0.9845 -0.1313
    4MPD2    H514160   0.442   2.266  12.077 -0.6313  0.4022  1.1347
    4MPD2    N114161   4.659   2.180  12.333  0.4489  0.8610  0.6296
    4MPD2    H714162   4.695   2.093  12.369  0.7821  0.2409 -1.1989
    5TMC3    C114163   4.467   2.123  12.450 -1.4230  0.2315  0.6036
    5TMC3    C214164   4.356   2.064  12.385  0.2046  0.1386 -0.4526
    5TMC3    C314165   4.346   1.926  12.381  0.0705 -0.2509  0.3145
    5TMC3    C414166   4.548   2.040  12.522  0.4012 -1.1274  0.2204
    5TMC3    C514167   4.540   1.907  12.513  0.1814 -0.2988  0.2813
    5TMC3    C614168   4.438   1.846  12.443 -0.8670  0.9686  0.6742
    5TMC3     C14169   4.535   2.217  12.366  0.2067 -0.8282  0.4523
    5TMC3     O14170   4.461   2.306  12.334 -0.2115  0.0228  0.1187
    5TMC3     H14171   4.291   2.123  12.321 -0.2457  1.4023  1.1771
    5TMC3    H114172   4.631   2.089  12.571 -0.2791  0.5895 -0.3316
    5TMC3    H214173   4.422   1.739  12.436 -0.0421  0.8401  0.7305
    5TMC3    C714174   4.676   1.864  12.481 -0.4491  0.1172 -0.4199
    5TMC3    C814175   4.254   1.876  12.291 -0.9484  0.1058  0.1106
    5TMC3    O114176   0.039   1.948  12.451  0.0223 -0.2072  0.4011
    5TMC3    O214177   4.199   1.954  12.217 -0.2742  0.5986 -0.3345
    6TMC3    C114178   4.597   2.420  11.297  0.1575  0.6213 -0.4384
    6TMC3    C214179   4.544   2.351  11.202 -0.4621  0.9176 -0.5937
    6TMC3    C314180   4.580   2.218  11.186 -0.4420 -0.1589 -0.0201
    6TMC3    C414181   4.689   2.372  11.380 -0.2186 -0.2205 -0.2334
    6TMC3    C514182   0.006   2.239  11.363  0.7753  0.3245  0.0164
    6TMC3    C614183   4.674   2.158  11.264  0.2082 -0.1524 -0.0408
    6TMC3     C14184   4.532   2.549  11.320  0.0099 -0.4972  0.1202
    6TMC3     O14185   4.416   2.553  11.285  0.5514  0.4523  0.6084
    6TMC3     H14186   4.493   2.406  11.125  0.4813 -0.1707 -2.0064
    6TMC3    H114187   0.009   2.436  11.457  0.9209 -0.0592 -0.9580
    6TMC3    H214188   4.671   2.050  11.274  0.6915 -0.0624  1.0742
    6TMC3    C714189   0.117   2.190  11.435 -0.5518 -0.1657 -0.4766
    6TMC3    C814190   4.510   2.132  11.083  0.8225 -0.2328 -0.1517
    6TMC3    O114191   0.122   2.206  11.557  0.0347  0.3145  0.2205
    6TMC3    O214192   4.550   2.015  11.058  0.1709  0.6753  0.0297
    7MPD2     C14193   0.287   1.526  12.275 -0.8263  0.3346 -0.1524
    7MPD2    C114194   0.286   1.668  12.271 -0.3313  0.3097  0.1249
    7MPD2    C214195   0.178   1.733  12.331  0.2466  0.2070  0.2796
    7MPD2    C314196   0.072   1.668  12.391  0.4443  0.2373 -0.2088
    7MPD2    C414197   0.073   1.526  12.380 -0.3749  0.3702  1.0981
    7MPD2    C514198   0.175   1.461  12.316  0.1401 -0.6054 -0.1774
    7MPD2     H14199   0.181   1.841  12.337  0.2428  0.2441 -0.3221
    7MPD2    H114200   4.709   1.470  12.418  0.6671 -1.3668  0.8804
    7MPD2    H214201   0.364   1.467  12.226  0.4407  0.5944  1.5167
    7MPD2    H314202   0.169   1.353  12.305  1.7190 -0.3930 -3.1022
    7MPD2     N14203   4.688   1.729  12.459  0.1907 -0.7312 -0.1211
    7MPD2    H514204   4.624   1.659  12.496 -0.5025  0.0578  0.1765
    7MPD2    N114205   0.380   1.751  12.211  0.9585 -0.0430 -0.2006
    7MPD2    H714206   0.372   1.851  12.227  1.1981 -0.1843  0.8242
    8TMC3    C114207   0.563   1.813  12.075 -1.2257 -0.8223 -0.3638
    8TMC3    C214208   0.558   1.843  11.942 -0.5070  0.0755  0.3719
    8TMC3    C314209   0.562   1.975  11.904  0.0194 -0.2219 -0.4908
    8TMC3    C414210   0.564   1.907  12.171 -0.4427  0.0562  0.2484
    8TMC3    C514211   0.546   2.040  12.129  0.1229 -0.4137 -0.1233
    8TMC3    C614212   0.566   2.072  11.997 -0.4220 -0.0401  0.0835
    8TMC3     C14213   0.484   1.704  12.128  0.1755 -0.3610 -0.2398
    8TMC3     O14214   0.507   1.589  12.094 -0.4135  0.0547 -0.7305
    8TMC3     H14215   0.533   1.769  11.868 -2.0440  0.0233  0.9397
    8TMC3    H114216   0.581   1.881  12.275 -0.3149 -0.9402 -0.0229
    8TMC3    H214217   0.557   2.172  11.956 -0.6283  0.5999  1.6900
    8TMC3    C714218   0.420   2.093  12.186 -0.3741  0.1030 -0.5254
    8TMC3    C814219   0.495   2.018  11.778  0.6427 -0.0661 -0.5895
    8TMC3    O114220   0.372   2.020  12.272  0.1895  0.2603 -0.5582
    8TMC3    O214221   0.437   2.125  11.774 -0.3206 -0.2804  0.2177
    9MPD2     C14222   0.491   1.839  11.465 -0.0619 -0.1415 -0.0742
    9MPD2    C114223   0.447   1.930  11.551  0.3057 -0.3280 -0.1014
    9MPD2    C214224   0.350   2.022  11.514 -0.2382 -0.5217  0.0111
    9MPD2    C314225   0.297   2.015  11.389  0.2292  0.2119  0.1509
    9MPD2    C414226   0.350   1.936  11.296 -0.8386  0.1328  0.7228
    9MPD2    C514227   0.449   1.849  11.334 -0.2139 -0.8739 -0.3417
    9MPD2     H14228   0.311   2.090  11.588  0.9323 -0.6400  0.7349
    9MPD2    H114229   0.300   1.920  11.201  0.7934  0.9823 -0.2884
    9MPD2    H214230   0.541   1.749  11.500 -0.7977 -0.4782  0.1120
    9MPD2    H314231   0.452   1.760  11.272  1.9052 -1.9022  1.2409
    9MPD2     N14232   0.193   2.109  11.351 -0.1883  0.2110 -0.6229
    9MPD2    H514233   0.163   2.101  11.254  1.6852  2.5147 -1.3952
    9MPD2    N114234   0.507   1.925  11.679  0.2956 -0.3248 -0.1015
    9MPD2    H714235   0.578   1.857  11.703  1.6266  1.2715  0.4939
    1MPD1     C14236   4.348   1.012  16.361  0.7207 -0.4846 -0.7829
    1MPD1    C114237   4.317   0.927  16.463 -0.0718 -0.3833  0.4202
    1MPD1    C214238   4.186   0.924  16.515  0.4068 -0.1206 -0.1829
    1MPD1    C314239   4.092   1.015  16.474 -0.1179  0.4295  0.1027
    1MPD1    C414240   4.128   1.107  16.382  0.8869  0.7023 -0.0631
    1MPD1    C514241   4.247   1.101  16.319  0.0803  0.2469  0.7284
    1MPD1     H14242   4.170   0.843  16.585  1.0391  0.0975  0.2218
    1MPD1    H114243   4.054   1.174  16.340  0.4370 -0.3418 -0.9374
    1MPD1    H214244   4.442   1.009  16.307 -0.0111  1.4859 -2.1959
    1MPD1    H314245   4.265   1.166  16.234  1.8963 -0.9271  0.2382
    1MPD1     N14246   3.958   1.020  16.520  0.2322 -0.2773  0.3143
    1MPD1    H514247   3.895   1.072  16.460 -1.1531 -1.9435  0.3328
    1MPD1    N114248   4.413   0.848  16.531  0.0209 -0.4420 -0.1944
    1MPD1    H614249   4.378   0.755  16.551  1.8228 -1.5821 -2.2903
    1MPD1    H714250   4.498   0.837  16.476  0.1907 -5.1435  1.0304
    2MPD1     C14251   3.297   1.014  15.982 -0.1841 -0.4020 -0.3050
    2MPD1    C114252   3.437   1.027  15.981 -0.0218  0.3099 -0.0275
    2MPD1    C214253   3.498   1.028  16.108  0.3378  0.2968 -0.8501
    2MPD1    C314254   3.431   1.011  16.221  0.2879  0.6953  0.6636
    2MPD1    C414255   3.291   0.997  16.216 -0.1100  0.0085 -0.0656
    2MPD1    C514256   3.227   1.004  16.096 -0.6215 -1.0373  0.0730
    2MPD1     H14257   3.606   1.037  16.108  0.3542  0.2438 -2.2322
    2MPD1    H114258   3.226   0.969  16.298 -0.4435 -0.8177 -0.6165
    2MPD1    H214259   3.233   1.030  15.896  1.2167  1.4353 -1.0082
    2MPD1    H314260   3.120   0.994  16.087 -0.5062 -0.5972 -1.7252
    2MPD1     N14261   3.503   0.999  16.346  0.3603 -0.2477  0.1141
    2MPD1    H514262   3.602   1.022  16.342  0.0608  0.8712 -1.0746
    2MPD1    N114263   3.508   1.070  15.870 -0.4230 -0.2793 -0.1966
    2MPD1    H614264   3.467   1.037  15.783 -1.9208  0.2211  0.3135
    2MPD1    H714265   3.607   1.047  15.873 -0.3999 -0.0421  0.7206
    3TCq2    C114266   3.455   0.961  16.467 -0.0798  0.0156  0.3445
    3TCq2    O214267   3.339   0.939  16.505 -0.1179 -0.3349  0.0450
    3TCq2    C214268   3.552   0.941  16.568  0.0593 -0.9606  0.0820
    3TCq2    C314269   3.501   0.902  16.697 -0.2693 -0.3092 -0.4984
    3TCq2    C414270   3.592   0.906  16.803  0.3611 -0.9912 -0.5012
    3TCq2    C514271   3.724   0.933  16.771  0.7215  0.0392  1.0623
    3TCq2    C614272   3.770   0.962  16.643 -0.0049 -0.2622 -0.2308
    3TCq2    C714273   3.686   0.978  16.541 -0.0683 -0.2337  0.1437
    3TCq2    C814274   3.916   0.947  16.625  0.2643  0.4976  0.8977
    3TCq2    O414275   3.978   0.890  16.714  0.0383 -0.0714 -0.2796
    3TCq2    C914276   3.544   0.854  16.931 -0.0247 -0.1200 -0.3560
    3TCq2    O514277   3.419   0.839  16.943 -0.1435 -0.2149  0.1724
    3TCq2    O614278   3.631   0.823  17.022  0.3572  0.1887  0.0768
    3TCq2    H214279   3.403   0.865  16.723  0.1594  1.1481  3.2214
    3TCq2    H314280   3.799   0.919  16.847  0.0957 -2.4779  1.2145
    3TCq2    H414281   3.723   0.974  16.439 -1.3220 -2.6485 -0.2106
    1TCq1    O114282   2.373   4.596  12.982  0.0230  0.3064  0.7196
    1TCq1    C114283   2.502   4.647  12.963 -0.1807  0.5167 -0.4593
    1TCq1    O214284   2.549   4.702  12.864 -0.0766 -0.5546  0.4861
    1TCq1    C214285   2.567   4.633  13.090 -0.7859 -0.6802 -0.0761
    1TCq1    C314286   2.504   4.613  13.218 -0.1085  0.2782  0.4998
    1TCq1    C414287   2.583   4.599  13.329  0.4272 -0.6249 -0.4603
    1TCq1    C514288   2.721   4.620  13.326 -0.3700 -0.8820 -0.0080
    1TCq1    C614289   2.779   4.657  13.206  0.2252  0.3796  0.3821
    1TCq1    C714290   2.704   4.649  13.086  0.4574  0.9688  0.1787
    1TCq1    C814291   2.900   0.014  13.207 -0.1175 -0.2286 -0.1280
    1TCq1    O414292   2.962   0.025  13.099 -0.4521 -0.3501 -0.3800
    1TCq1    C914293   2.513   4.580  13.455  0.1900  0.3054  0.1489
    1TCq1    O514294   2.575   4.612  13.557 -0.1565  0.3338 -0.6315
    1TCq1    O614295   2.386   4.554  13.453 -0.0807 -0.1022 -0.6558
    1TCq1    H114296   2.354   4.555  13.069  0.2100  0.4897  0.8439
    1TCq1    H214297   2.396   4.624  13.217  0.0267  1.5295 -2.0632
    1TCq1    H314298   2.783   4.595  13.411 -1.3801  1.1816  1.3211
    1TCq1    H414299   2.752   4.677  12.993 -3.6433 -0.1782 -2.2627
    2MPD2     C14300   3.103   0.234  13.282  0.1983 -0.1822 -0.3771
    2MPD2    C114301   3.033   0.149  13.370 -0.3409 -0.2658 -0.4057
    2MPD2    C214302   3.077   0.155  13.499  0.2698  0.0050 -0.1448
    2MPD2    C314303   3.194   0.220  13.533  0.0887  0.5508  0.8609
    2MPD2    C414304   3.258   0.301  13.449  0.5187 -0.6190  0.2672
    2MPD2    C514305   3.210   0.311  13.320 -0.1145 -0.5364  0.6668
    2MPD2     H14306   3.035   0.093  13.578  0.4190  0.0606 -0.0223
    2MPD2    H114307   3.341   0.366  13.476 -0.8249  0.9293  0.6261
    2MPD2    H214308   3.076   0.230  13.177 -0.8344 -1.1712 -0.0692
    2MPD2    H314309   3.268   0.373  13.252  0.9552 -0.4714  1.6203
    2MPD2     N14310   3.237   0.201  13.668  0.1763 -0.7948  1.0931
    2MPD2    H514311   3.177   0.147  13.729 -1.5521  0.3360  0.4095
    2MPD2    N114312   2.930   0.063  13.336 -0.3873  0.0078  0.4591
    2MPD2    H714313   2.868   0.038  13.411 -2.5739 -1.4547 -1.8430
    3TCq1    O114314   3.059   0.495  14.120  0.5685 -0.4634  0.3024
    3TCq1    C114315   3.044   0.361  14.094  0.6059  0.2724  0.3246
    3TCq1    O214316   2.934   0.310  14.070  0.0306 -0.7155  0.2589
    3TCq1    C214317   3.172   0.307  14.056  0.0170  0.3518 -0.2116
    3TCq1    C314318   3.278   0.321  14.142  0.2156  0.0427  0.4575
    3TCq1    C414319   3.401   0.325  14.088  0.0503 -0.6383 -0.2851
    3TCq1    C514320   3.420   0.315  13.954 -0.2874 -0.4231  1.0757
    3TCq1    C614321   3.319   0.270  13.880 -0.1624 -0.6081  0.7486
    3TCq1    C714322   3.190   0.272  13.926  0.4576  0.1152 -0.4973
    3TCq1    C814323   3.338   0.264  13.732 -0.3595 -0.1252  0.2123
    3TCq1    O414324   3.435   0.330  13.685  0.5146  0.2794  0.3817
    3TCq1    C914325   3.517   0.335  14.172  0.2215 -0.0951  0.3774
    3TCq1    O514326   3.498   0.356  14.300  0.1908 -0.0354 -0.6408
    3TCq1    O614327   3.634   0.331  14.122  0.0546  0.0910  0.7806
    3TCq1    H114328   3.149   0.533  14.113  0.8978 -1.3529 -0.2921
    3TCq1    H214329   3.257   0.325  14.248 -2.4737 -0.2162 -0.0688
    3TCq1    H314330   3.522   0.320  13.919 -0.1871  0.8698  1.5546
    3TCq1    H414331   3.098   0.275  13.869  0.3148 -0.3259 -0.2898
    1MPD2     C14332   2.400   1.464  14.954 -0.3407 -0.3833 -0.3253
    1MPD2    C114333   2.298   1.371  14.981 -0.6243 -0.4813  0.3070
    1MPD2    C214334   2.315   1.238  14.943  0.4927 -0.0371  0.8169
    1MPD2    C314335   2.432   1.188  14.882 -0.8336 -0.4549 -0.0881
    1MPD2    C414336   2.536   1.284  14.860 -0.1574 -0.3270  0.2176
    1MPD2    C514337   2.511   1.416  14.886  0.7043 -0.4918 -0.4298
    1MPD2     H14338   2.236   1.166  14.960  1.2043  0.3559  5.6817
    1MPD2    H114339   2.626   1.254  14.806  0.9683  0.7403  1.5084
    1MPD2    H214340   2.402   1.571  14.972  1.8162 -0.2909 -1.0629
    1MPD2    H314341   2.585   1.485  14.848 -0.4287  0.2462 -1.2932
    1MPD2     N14342   2.466   1.051  14.858 -0.1399  0.1783  0.6331
    1MPD2    H514343   2.565   1.038  14.840  0.1777  1.3912  1.4257
    1MPD2    N114344   2.192   1.419  15.061  0.0829  0.3078 -0.2961
    1MPD2    H714345   2.196   1.516  15.090  0.2898  0.4289 -0.7191
    2TMC3    C114346   2.039   1.411  15.241 -0.0842 -0.5419 -0.5717
    2TMC3    C214347   2.027   1.309  15.329  0.0350 -0.6579  0.9993
    2TMC3    C314348   1.909   1.288  15.392  0.6495  0.8802  0.3389
    2TMC3    C414349   1.931   1.489  15.215  1.2114 -0.2318  0.0854
    2TMC3    C514350   1.824   1.483  15.307  0.0932 -0.3941 -0.8521
    2TMC3    C614351   1.806   1.372  15.388  0.1188  0.2999 -0.1355
    2TMC3     C14352   2.098   1.349  15.126 -0.5768 -0.0185  0.2640
    2TMC3     O14353   2.069   1.236  15.109  0.0002 -0.5322  0.0767
    2TMC3     H14354   2.112   1.249  15.357  0.5317  0.6687  2.3471
    2TMC3    H114355   1.955   1.566  15.142  3.1725 -1.2900 -0.4039
    2TMC3    H214356   1.712   1.354  15.439  1.1318 -1.0240  1.2549
    2TMC3    C714357   1.699   1.538  15.274 -0.5725 -0.8886 -0.4998
    2TMC3    C814358   1.869   1.146  15.388 -0.4782  0.3267 -0.4677
    2TMC3    O114359   1.603   1.518  15.350 -0.4287  0.1496 -0.3998
    2TMC3    O214360   1.780   1.111  15.460 -0.1928 -0.1231 -0.7163
    3TCq1    O114361   1.588   2.148  14.201  0.3666 -0.4608  0.2856
    3TCq1    C114362   1.555   2.036  14.269  0.8460 -0.4604 -0.2081
    3TCq1    O214363   1.496   1.938  14.228  0.6494  0.3724 -0.6359
    3TCq1    C214364   1.561   2.067  14.414  0.0755 -0.2593  0.5643
    3TCq1    C314365   1.668   2.138  14.454  0.2272  0.6099  0.2877
    3TCq1    C414366   1.694   2.149  14.589  0.5638 -0.0193 -0.0875
    3TCq1    C514367   1.608   2.108  14.683 -0.4414  0.4714  0.1456
    3TCq1    C614368   1.503   2.037  14.632  0.3475 -0.3820  0.2446
    3TCq1    C714369   1.468   2.014  14.502  0.1323 -0.3990 -0.1271
    3TCq1    C814370   1.442   1.950  14.732  0.3088 -0.2652  0.2025
    3TCq1    O414371   1.329   1.910  14.702  0.0912 -0.4317 -0.0819
    3TCq1    C914372   1.821   2.201  14.637 -0.3437  0.3525 -0.3489
    3TCq1    O514373   1.845   2.171  14.759 -0.0815  0.5493 -0.3744
    3TCq1    O614374   1.884   2.270  14.552  0.0637  0.3526  0.4360
    3TCq1    H114375   1.599   2.222  14.264  3.6292 -0.4187 -0.3300
    3TCq1    H214376   1.734   2.180  14.379 -0.4696 -2.1511 -1.8615
    3TCq1    H314377   1.638   2.122  14.786 -1.7506  3.9686  0.0741
    3TCq1    H414378   1.377   1.960  14.478 -0.2968  0.3302 -0.1441
    4MPD2     C14379   1.372   1.758  14.943 -0.1406  0.2699  0.8932
    4MPD2    C114380   1.503   1.810  14.921  0.2535  0.5171 -0.1747
    4MPD2    C214381   1.609   1.760  14.998 -0.4111  0.6301 -0.6817
    4MPD2    C314382   1.589   1.676  15.102  0.3852 -0.3019 -0.3201
    4MPD2    C414383   1.462   1.639  15.135  0.2167  0.6108 -0.2254
    4MPD2    C514384   1.360   1.682  15.054  0.4330 -0.4759  0.0860
    4MPD2     H14385   1.711   1.792  14.980 -0.5287  1.3694 -0.0552
    4MPD2    H114386   1.440   1.576  15.220 -1.8065  1.6203 -0.0032
    4MPD2    H214387   1.286   1.769  14.878  0.4473 -3.0592 -0.4314
    4MPD2    H314388   1.267   1.628  15.059  1.6849 -2.6042  0.3140
    4MPD2     N14389   1.706   1.626  15.168  0.1287 -0.4790  0.3645
    4MPD2    H514390   1.799   1.656  15.138  0.7761 -2.2528  0.6227
    4MPD2    N114391   1.531   1.898  14.815 -0.4022 -0.4605  0.7034
    4MPD2    H714392   1.628   1.928  14.811 -0.9338  1.5084  2.5855
    5TMC2    C114393   2.318   0.635  14.952  0.5443  0.6448 -0.2501
    5TMC2    C214394   2.422   0.623  15.038  0.5165 -0.5176  0.6746
    5TMC2    C314395   2.530   0.701  15.035  0.0156 -0.4547  0.0317
    5TMC2    C414396   2.333   0.736  14.855 -0.0250 -1.6336  0.2807
    5TMC2    C514397   2.435   0.820  14.863  0.1073  0.4953 -0.4856
    5TMC2    C614398   2.541   0.807  14.951 -0.4350 -0.0611 -0.6480
    5TMC2     C14399   2.187   0.612  15.013 -0.6278  0.0554  0.1475
    5TMC2     O14400   2.179   0.512  15.083  0.2780 -0.0192  0.2322
    5TMC2     H14401   2.422   0.547  15.116  2.3559  0.9018  2.0623
    5TMC2    H114402   2.260   0.751  14.777 -1.1352  1.0940  1.8254
    5TMC2    H214403   2.619   0.880  14.965 -0.7077  0.5638 -2.3286
    5TMC2    C714404   2.372   0.950  14.863 -0.9868  0.1313 -0.1260
    5TMC2    C814405   2.625   0.678  15.137  0.0882  0.2748  0.3599
    5TMC2    O114406   2.255   0.962  14.893 -0.4171 -0.0535  0.4019
    5TMC2    O214407   2.606   0.613  15.243 -0.1256 -0.3572 -0.3781
    5TMC2    O514408   2.742   0.742  15.107  0.7211  0.0210  0.7084
    5TMC2    H514409   2.753   0.784  15.019  0.5536 -1.5887 -0.1033
    6MPD2     C14410   1.843   0.859  15.300 -0.2198 -0.2247 -0.0720
    6MPD2    C114411   1.934   0.947  15.251 -0.4017  0.0110 -0.0338
    6MPD2    C214412   2.018   0.902  15.151  0.1598  0.2276 -0.8283
    6MPD2    C314413   2.019   0.773  15.107 -0.1472 -0.5067 -0.0636
    6MPD2    C414414   1.928   0.685  15.155 -0.9500  0.4010  0.0369
    6MPD2    C514415   1.837   0.729  15.250  0.1293 -0.3472  0.0831
    6MPD2     H14416   2.095   0.969  15.114  0.6959  1.3361  2.3183
    6MPD2    H114417   1.919   0.579  15.134 -0.6961  0.5062 -0.5967
    6MPD2    H214418   1.781   0.884  15.385  1.1048 -0.0688  0.8326
    6MPD2    H314419   1.771   0.655  15.295 -0.1641 -1.4963 -2.2494
    6MPD2     N14420   2.124   0.736  15.017  0.4813 -0.0057 -0.0624
    6MPD2    H514421   2.172   0.805  14.961 -1.2815  0.1173 -1.3911
    6MPD2    N114422   1.955   1.072  15.302  0.2945  0.3324  0.1222
    6MPD2    H714423   2.020   1.127  15.246  2.3809 -2.4154 -0.2075
  945NH4     N114424   2.966   3.068   0.378 -0.3304 -0.2446  0.6012
  945NH4     H214425   2.898   2.989   0.385  3.1316 -3.3439 -0.4242
  945NH4     H314426   2.951   3.116   0.287 -0.5533  1.3491  1.4846
  945NH4     H414427   3.053   3.011   0.374 -0.1886  0.0687 -0.5379
  945NH4     H514428   2.957   3.111   0.472  1.3631  2.7332 -0.6281
  946SOD     NA14429   3.045   4.439  10.191 -0.2336  0.0751  0.0607
  947SOD     NA14430   2.446   3.877  10.787 -0.2170 -0.4625 -0.3667
  948SOD     NA14431   2.708   4.401  10.395 -0.1248  0.4999 -0.2950
  949SOD     NA14432   2.282   2.553   9.548 -0.0800  0.1068 -0.3489
  950SOD     NA14433   1.467   4.527   4.125 -0.0431  0.3482 -0.1044
  951SOD     NA14434   4.463   0.317  10.233  0.2799  0.4061  0.0017
  952SOD     NA14435   1.569   4.272  13.122  0.3809  0.3969  0.2289
  953SOD     NA14436   4.699   0.284  12.657  0.2762 -0.1214  0.5462
  954SOD     NA14437   1.050   4.264  10.414 -0.1600  0.1777 -0.0540
  955SOD     NA14438   0.182   1.909   9.845 -0.3129 -0.2476 -0.1742
  956SOD     NA14439   2.022   2.272  14.385  0.6700 -0.4367  0.4383
  957SOD     NA14440   3.093   3.508   7.776  0.1152 -0.2667 -0.0450
  958SOD     NA14441   3.408   0.759  17.144  0.3460  0.2176  0.0398
  959SOD     NA14442   0.554   1.143  13.459  0.1560 -0.3408 -0.6057
  960SOD     NA14443   4.097   3.189  14.693 -0.5552  0.2685  0.4306
  961SOD     NA14444   0.410   2.513   2.159  0.0622 -0.3598 -0.3545
  962SOD     NA14445   3.333   2.061   7.993 -0.2868  0.0775 -0.4750
  963SOD     NA14446   1.943   0.055   2.616 -0.0730  0.5973 -0.2376
  964SOD     NA14447   2.523   1.174  13.248 -0.0499  0.0001  0.1805
  965SOD     NA14448   4.716   4.130  13.610  0.0420  0.0301 -0.3262
  966SOD     NA14449   2.913   4.641  11.374  0.7926 -0.1022 -0.4419
  967SOD     NA14450   3.955   4.656  14.643 -0.2369  0.3205  0.1491
  968SOD     NA14451   1.737   1.468  10.577 -0.2448 -0.2101 -0.7493
  969SOD     NA14452   2.404   1.286   7.288 -0.2856  0.1314 -0.5841
  970SOD     NA14453   2.833   1.359   0.526  0.4842  0.0825 -0.3951
  971SOD     NA14454   3.267   2.943   1.073  0.9172 -0.0864 -0.0170
  972SOD     NA14455   3.421   0.525  14.414 -0.2039 -0.2894 -0.0011
  973SOD     NA14456   2.179   4.154  11.048  0.0723  0.2342  0.0839
  974SOD     NA14457   3.097   2.823   2.307 -0.0470 -0.0900  0.2352
  975SOD     NA14458   3.734   0.027  13.293 -0.0082 -0.0666 -0.2593
  976SOD     NA14459   3.727   0.386  14.318 -0.0628 -0.1009  0.0647
  977SOD     NA14460   1.728   4.227  15.599  0.3952 -0.2770 -0.1269
  978SOD     NA14461   3.144   0.118  11.845  0.1562 -0.4780 -0.1137
  979SOD     NA14462   3.105   4.098  10.373  0.5903  0.4730  0.6528
  980SOD     NA14463   2.342   0.528  15.553  0.3996 -0.2491  0.2311
  981SOD     NA14464   2.405   0.201  12.490 -0.2428 -0.1663 -0.8041
  982SOD     NA14465   0.594   1.581   0.883  0.2352  0.2532  0.2819
  983SOD     NA14466   1.590   0.537   1.672  0.6611  0.1165  0.1622
  984SOD     NA14467   3.735   0.340  11.696  0.4803 -0.1294 -0.1191
  985SOD     NA14468   1.503   2.709   7.203 -0.1821 -0.1215  0.8526
  986SOD     NA14469   1.790   3.586  14.724  0.1191 -0.0586 -0.0119
  987SOD     NA14470   2.237   4.697  13.402 -0.2570 -0.1047  0.4696
  988SOD     NA14471   3.458   1.336  16.154 -0.0190 -0.2705 -0.5267
  989SOD     NA14472   4.418   4.485   0.788  0.1479  0.2464 -0.1343
  990SOD     NA14473   0.596   3.903   2.078 -0.1692 -0.0304  0.4154
  991SOD     NA14474   2.725   4.106   1.796  0.1921  0.0592 -0.3860
  992SOD     NA14475   2.932   1.064  12.272 -0.0854  0.3880  0.0228
  993SOD     NA14476   3.458   0.485  14.786  0.3813 -0.3951 -0.4312
  994SOD     NA14477   3.722   1.807  15.004  0.0455 -0.1188  0.0703
  995SOD     NA14478   2.179   3.583   7.013 -0.1382 -0.2800 -0.2857
  996SOD     NA14479   4.456   2.979  15.088  0.3327  0.2394 -0.2394
  997SOD     NA14480   3.713   1.080   1.061 -0.1693  0.1797  0.3949
  998SOD     NA14481   2.771   4.719  11.089  0.2007 -0.3014 -0.1422
  999SOD     NA14482   2.668   3.953   0.323 -0.3608 -0.2785  0.6287
 1000SOD     NA14483   0.433   0.934   1.515  0.1120 -0.0634 -0.2087
 1001SOD     NA14484   3.087   0.968  12.589 -0.0498 -0.1912 -0.6286
 1002SOD     NA14485   0.401   0.922  15.312 -0.3156 -0.5919  0.0072
 1003SOD     NA14486   2.873   4.521   9.933 -0.0313  0.2287  0.3773
 1004SOD     NA14487   2.666   2.099  10.249  0.1899 -0.4985  0.1875
 1005SOD     NA14488   4.114   4.550   1.403  0.3987 -0.2001  0.5373
 1006SOD     NA14489   1.917   4.035  12.986  0.0074 -0.6255  0.5104
 1007SOD     NA14490   1.120   3.917   2.178  0.0229 -0.3440 -0.4666
 1008SOD     NA14491   3.865   2.131  11.645 -0.0703  0.0918  0.1975
 1009SOD     NA14492   3.903   1.143  11.251  0.8859 -0.2204  0.2318
 1010SOD     NA14493   1.416   2.681   9.591 -0.4077  0.5767 -0.3429
 1011SOL     OW14494   1.269   0.071   9.498 -0.8592  0.1891  0.4594
 1011SOL    HW114495   1.320   0.142   9.538 -1.9539  0.8900  0.6260
 1011SOL    HW214496   1.217   0.125   9.438  1.0889  1.3804 -0.1709
 1012SOL     OW14497   2.939   2.746   2.180  0.9180 -0.1126 -0.4035
 1012SOL    HW114498   2.960   2.748   2.086  0.9857 -2.5799 -0.4355
 1012SOL    HW214499   2.844   2.749   2.177  0.9460 -0.5423 -1.7112
 1013SOL     OW14500   4.068   0.834   6.121  0.1121  0.4356 -0.2244
 1013SOL    HW114501   4.134   0.766   6.110  0.1314 -0.2115  3.9635
 1013SOL    HW214502   4.124   0.908   6.097  2.3030 -1.2679 -0.4004
 1014SOL     OW14503   2.870   4.595  15.805 -0.3598  0.2801 -0.1379
 1014SOL    HW114504   2.932   4.638  15.864 -0.6133 -1.4288  1.3877
 1014SOL    HW214505   2.882   4.638  15.721 -1.4392  2.5576  0.8823
 1015SOL     OW14506   0.803   0.218   2.317  0.0012  0.1686  0.6573
 1015SOL    HW114507   0.749   0.145   2.288 -0.2064 -0.0840  1.6999
 1015SOL    HW214508   0.748   0.283   2.272  3.1903  1.4912 -1.3464
 1016SOL     OW14509   2.278   4.350   4.385  0.1471  0.0157 -0.2924
 1016SOL    HW114510   2.369   4.378   4.374  0.0084  0.0831 -1.3232
 1016SOL    HW214511   2.227   4.426   4.358  0.4467  0.7487  1.2109
 1017SOL     OW14512   3.394   1.526   4.602 -0.4140  0.3390  0.2930
 1017SOL    HW114513   3.442   1.454   4.562  0.0225 -0.9031  3.0530
 1017SOL    HW214514   3.333   1.544   4.530  1.4566  2.2904 -0.8019
 1018SOL     OW14515   2.404   0.557   5.328  0.2439 -0.2270  0.5961
 1018SOL    HW114516   2.484   0.520   5.365  1.0018 -1.1878 -1.9988
 1018SOL    HW214517   2.386   0.487   5.266  3.4417 -1.0144  0.5450
 1019SOL     OW14518   0.655   0.085   4.203 -0.2195  0.5098 -0.9122
 1019SOL    HW114519   0.743   0.094   4.166  0.2521 -0.7835 -0.1044
 1019SOL    HW214520   0.604   0.135   4.140  1.4997  0.0207 -2.7008
 1020SOL     OW14521   4.692   0.404   7.825  0.4647  0.2111  0.0820
 1020SOL    HW114522   4.718   0.373   7.912 -3.0237  0.8300  1.3347
 1020SOL    HW214523   0.049   0.374   7.777  0.7625  0.2471  0.5506
 1021SOL     OW14524   4.720   0.881   2.691  0.1368 -0.3413 -0.0216
 1021SOL    HW114525   4.717   0.956   2.631  2.6021  0.3822  0.7829
 1021SOL    HW214526   4.627   0.862   2.677  0.0754 -2.3285  3.0884
 1022SOL     OW14527   0.475   3.122   1.210 -0.1525  0.1188  0.3668
 1022SOL    HW114528   0.448   3.183   1.142 -0.9699  1.2413  1.6853
 1022SOL    HW214529   0.504   3.048   1.157  0.4700  0.3795  0.3532
 1023SOL     OW14530   3.114   4.240   3.417 -0.3652  0.1068  0.2523
 1023SOL    HW114531   3.157   4.312   3.372 -0.8973 -0.9576 -1.9583
 1023SOL    HW214532   3.020   4.261   3.416 -0.3689  0.0906  0.2470
 1024SOL     OW14533   1.409   0.710  16.225 -0.0180 -0.2225 -0.2193
 1024SOL    HW114534   1.427   0.743  16.313  0.1475  0.7005 -0.6036
 1024SOL    HW214535   1.496   0.695  16.189 -0.0208 -2.1348  0.5626
 1025SOL     OW14536   2.122   3.280   5.362 -0.1651  0.2040  0.4640
 1025SOL    HW114537   2.144   3.356   5.416 -0.1029  0.1639  0.4955
 1025SOL    HW214538   2.030   3.290   5.341 -0.3982 -1.1697  0.8043
 1026SOL     OW14539   1.318   4.406   4.617 -0.2101  0.2238 -0.0553
 1026SOL    HW114540   1.333   4.312   4.611 -1.7863 -0.1080  1.0119
 1026SOL    HW214541   1.222   4.404   4.618 -0.2166  0.5630  0.1549
 1027SOL     OW14542   4.428   2.998   5.999 -0.7532  0.1224  0.1575
 1027SOL    HW114543   4.450   3.020   5.909 -0.2710 -1.9066 -0.2306
 1027SOL    HW214544   4.363   3.061   6.028 -0.0648  1.2743 -0.8269
 1028SOL     OW14545   0.580   2.998   3.163 -0.4872  0.4727 -0.1899
 1028SOL    HW114546   0.554   3.069   3.104  1.8009  1.2311 -0.2629
 1028SOL    HW214547   0.525   2.927   3.128 -2.8314  1.5863  1.2390
 1029SOL     OW14548   4.682   4.119  14.272 -0.3795 -0.2345 -0.0733
 1029SOL    HW114549   4.595   4.156  14.259  0.2449  1.5062  0.6336
 1029SOL    HW214550   0.019   4.167  14.213  0.0720  0.8627  1.2637
 1030SOL     OW14551   2.127   1.019   7.364 -0.1184 -0.4433  0.1150
 1030SOL    HW114552   2.206   1.056   7.325  0.6945  0.1442  2.2946
 1030SOL    HW214553   2.148   0.926   7.369 -0.4967 -0.5095  0.4238
 1031SOL     OW14554   2.540   2.012   7.281 -1.1862 -0.1977  0.0917
 1031SOL    HW114555   2.564   2.101   7.255 -0.9517 -0.0609  0.7729
 1031SOL    HW214556   2.601   1.985   7.349 -0.1939  0.8377 -0.3777
 1032SOL     OW14557   0.897   2.589   9.995 -0.4247  0.1287 -0.4036
 1032SOL    HW114558   0.818   2.623   9.954 -0.0197  2.1410  0.4838
 1032SOL    HW214559   0.876   2.499  10.021 -1.1430  0.9865  1.9880
 1033SOL     OW14560   0.669   0.073   9.810  0.4759 -0.7686 -0.5297
 1033SOL    HW114561   0.625   0.021   9.878 -0.0467 -2.2552 -2.0109
 1033SOL    HW214562   0.607   0.069   9.737  0.3178  0.7548 -0.4741
 1034SOL     OW14563   4.144   4.106   7.688  0.3288 -0.6453 -0.4148
 1034SOL    HW114564   4.122   4.097   7.781  1.4159 -0.9643 -0.1901
 1034SOL    HW214565   4.065   4.147   7.653 -0.2193 -0.5792  0.9061
 1035SOL     OW14566   4.716   2.802   5.061 -0.1941 -0.3107  0.1556
 1035SOL    HW114567   0.065   2.770   5.004 -1.9338 -2.0946 -0.9758
 1035SOL    HW214568   0.026   2.807   5.151 -1.7751 -0.6131  0.7143
 1036SOL     OW14569   1.024   2.597   4.912 -0.2003 -0.2087  0.1341
 1036SOL    HW114570   1.073   2.647   4.848 -0.6613 -1.5291 -1.2610
 1036SOL    HW214571   0.964   2.543   4.860 -2.3239  0.8941  1.4312
 1037SOL     OW14572   4.624   2.656  16.020  0.3846  0.2886  0.0686
 1037SOL    HW114573   4.601   2.582  16.077 -0.4970  3.2637  3.5769
 1037SOL    HW214574   4.551   2.649  15.958  0.7500  1.1710 -0.4593
 1038SOL     OW14575   0.813   2.099  14.515  0.7503 -0.5951  0.2543
 1038SOL    HW114576   0.862   2.155  14.575  0.1354  0.7028 -0.4644
 1038SOL    HW214577   0.738   2.090  14.574  0.0151 -4.0530 -1.1998
 1039SOL     OW14578   0.308   0.903  17.479 -0.0811 -0.5114 -0.8366
 1039SOL    HW114579   0.296   0.816  17.517  1.9409 -0.8744 -1.0491
 1039SOL    HW214580   0.284   0.962  17.550 -1.0420 -1.5093 -0.3307
 1040SOL     OW14581   1.635   0.891   8.249  0.2370 -0.3522  0.5576
 1040SOL    HW114582   1.566   0.955   8.236 -0.1898 -1.0039 -0.4147
 1040SOL    HW214583   1.596   0.830   8.312  0.3957 -1.1704 -0.1346
 1041SOL     OW14584   4.485   0.124   3.862 -0.0731  0.0171  0.6164
 1041SOL    HW114585   4.520   0.129   3.773  0.2559  0.2656  0.7605
 1041SOL    HW214586   4.392   0.130   3.837  1.0864  1.2406 -3.5202
 1042SOL     OW14587   0.316   0.181  12.613 -0.1082 -0.0592 -0.4695
 1042SOL    HW114588   0.325   0.086  12.599  1.0094 -0.0836  0.3868
 1042SOL    HW214589   0.250   0.190  12.681 -0.4270  2.0167 -1.0435
 1043SOL     OW14590   3.324   2.194   4.884 -0.2456  0.0627  0.2826
 1043SOL    HW114591   3.287   2.146   4.959 -0.3085  1.3924  1.1111
 1043SOL    HW214592   3.320   2.288   4.902 -1.4062 -0.1642  1.1913
 1044SOL     OW14593   3.699   2.424   8.584  0.1050 -0.6080  0.0660
 1044SOL    HW114594   3.616   2.386   8.555 -0.0150 -0.4914  0.2566
 1044SOL    HW214595   3.739   2.342   8.612 -0.8050 -0.5731  1.4832
 1045SOL     OW14596   0.145   0.152   7.947 -0.1807  0.5285 -0.1351
 1045SOL    HW114597   0.150   0.238   7.988 -0.0819  0.0210  0.9257
 1045SOL    HW214598   0.186   0.180   7.866 -1.8402 -1.0105 -1.5152
 1046SOL     OW14599   2.332   1.296   7.859  0.0582 -0.0956  0.1602
 1046SOL    HW114600   2.406   1.356   7.850 -0.8971  1.2234  1.1126
 1046SOL    HW214601   2.365   1.206   7.857 -0.9503 -0.4907  0.9364
 1047SOL     OW14602   0.329   2.323   8.836  0.1862 -0.1874 -0.3284
 1047SOL    HW114603   0.252   2.376   8.814  0.3838  0.8947  1.6158
 1047SOL    HW214604   0.379   2.375   8.898 -0.4392 -1.1929  1.0063
 1048SOL     OW14605   0.316   2.031   9.260 -0.7252 -0.0331  0.0352
 1048SOL    HW114606   0.389   1.996   9.310  0.0393  0.2559 -0.8698
 1048SOL    HW214607   0.362   2.032   9.176  1.7383  1.1175  1.4072
 1049SOL     OW14608   3.268   3.360   7.771  0.4369 -0.0065  0.7199
 1049SOL    HW114609   3.306   3.297   7.832  0.1301  0.8253  1.7649
 1049SOL    HW214610   3.345   3.368   7.714 -0.7474  2.2427 -0.5496
 1050SOL     OW14611   4.077   1.880   0.888 -0.8992 -0.0910 -0.7076
 1050SOL    HW114612   4.144   1.815   0.868  0.7116  0.1762  3.9079
 1050SOL    HW214613   4.104   1.956   0.836  2.4049  0.1497  1.3535
 1051SOL     OW14614   0.623   3.761   0.063  0.0262  0.8165  0.9444
 1051SOL    HW114615   0.592   3.837   0.113 -1.6227 -0.4561  1.8368
 1051SOL    HW214616   0.668   3.796  17.672 -1.3521  2.0071  0.6781
 1052SOL     OW14617   0.297   4.012   1.457 -0.0406 -0.3940 -0.0715
 1052SOL    HW114618   0.270   3.933   1.410  0.5087 -0.8932  0.4646
 1052SOL    HW214619   0.220   4.022   1.513  0.6600  0.1787  0.7772
 1053SOL     OW14620   0.783   0.106  16.354  0.1850 -0.2948  0.1579
 1053SOL    HW114621   0.860   0.153  16.386 -1.0452  0.5887  1.8703
 1053SOL    HW214622   0.732   0.089  16.433  1.1393  1.8241  1.2363
 1054SOL     OW14623   3.021   1.878   8.366 -0.0810  0.1175 -0.5747
 1054SOL    HW114624   3.037   1.820   8.291  0.7982 -1.3585  0.7652
 1054SOL    HW214625   3.007   1.809   8.431 -0.3546 -1.0748 -1.8805
 1055SOL     OW14626   0.080   3.715   5.369  0.4072 -0.6361 -0.1583
 1055SOL    HW114627   0.120   3.628   5.377  0.3468 -0.6223  0.2831
 1055SOL    HW214628   0.151   3.763   5.327  1.9104 -1.7738  1.1002
 1056SOL     OW14629   1.031   2.356   6.154 -0.0181  0.0986 -0.0544
 1056SOL    HW114630   1.090   2.283   6.134  0.7428  0.7748 -0.2565
 1056SOL    HW214631   1.079   2.419   6.100 -0.3786 -1.5715 -2.3553
 1057SOL     OW14632   3.094   4.413   7.251 -0.1028 -0.3265  0.1496
 1057SOL    HW114633   3.066   4.322   7.263  0.7837 -0.5267  0.7221
 1057SOL    HW214634   3.184   4.414   7.283 -0.2335 -2.2013  0.5885
 1058SOL     OW14635   0.123   0.769   8.752 -0.5045  0.4293 -0.1494
 1058SOL    HW114636   0.117   0.833   8.823 -2.2096  1.2119 -0.9848
 1058SOL    HW214637   0.031   0.751   8.734 -1.1658  1.9373  1.7352
 1059SOL     OW14638   3.404   2.169   3.193  0.5291  0.6399 -0.1886
 1059SOL    HW114639   3.428   2.186   3.284  2.9663 -0.4539 -0.6348
 1059SOL    HW214640   3.444   2.083   3.182 -1.8612 -0.4638 -0.2755
 1060SOL     OW14641   2.261   0.110   3.573 -0.3024 -0.4685  0.1968
 1060SOL    HW114642   2.226   0.098   3.485  0.6993 -0.5530 -0.1880
 1060SOL    HW214643   2.337   0.165   3.554 -0.8798  0.8894  1.8898
 1061SOL     OW14644   3.373   4.505   7.424 -0.5990 -0.0554 -0.8097
 1061SOL    HW114645   3.441   4.564   7.456 -0.9596  0.5285 -1.1368
 1061SOL    HW214646   3.298   4.560   7.445  1.5580  2.5304 -0.0191
 1062SOL     OW14647   1.475   0.292  10.094  0.2059 -0.0359  0.3911
 1062SOL    HW114648   1.556   0.335  10.120  0.1302 -0.0932  0.7200
 1062SOL    HW214649   1.422   0.371  10.100  1.6033  0.8545  1.0780
 1063SOL     OW14650   4.301   0.407   3.715  0.0702  0.3034 -0.1128
 1063SOL    HW114651   4.344   0.481   3.672 -0.2413  1.2904  1.2903
 1063SOL    HW214652   4.255   0.441   3.791  1.4121 -0.9801  1.2842
 1064SOL     OW14653   1.244   3.997   9.244 -0.3783 -0.6950 -0.2020
 1064SOL    HW114654   1.165   3.965   9.201 -0.9037 -0.8610  0.8806
 1064SOL    HW214655   1.296   3.939   9.189  1.5284  0.3173  0.5371
 1065SOL     OW14656   2.712   0.007   4.601  0.2068  0.0281  0.0584
 1065SOL    HW114657   2.782   4.710   4.664  0.1388 -0.8540 -0.1243
 1065SOL    HW214658   2.632   0.006   4.653  0.0516 -0.5380 -0.1912
 1066SOL     OW14659   4.126   3.010   8.219  0.0126 -0.2342  0.0355
 1066SOL    HW114660   4.139   3.095   8.261 -2.8250  0.6845 -0.8938
 1066SOL    HW214661   4.209   2.985   8.178 -0.0630  0.7889 -0.7710
 1067SOL     OW14662   1.579   3.759   3.069  0.2643  0.8875 -0.7986
 1067SOL    HW114663   1.560   3.847   3.037  2.4853  0.9047 -2.0340
 1067SOL    HW214664   1.596   3.773   3.163  0.1518  0.9004 -0.7804
 1068SOL     OW14665   1.144   4.669  10.247  0.0859  0.2574  0.8974
 1068SOL    HW114666   1.177   4.583  10.273 -1.2753 -0.4067  0.4889
 1068SOL    HW214667   1.184   4.672  10.160  1.0610  0.8575  1.3738
 1069SOL     OW14668   1.691   0.148   0.016 -0.1145  0.0218  0.1673
 1069SOL    HW114669   1.733   0.084   0.075  2.0988  1.5945  0.2831
 1069SOL    HW214670   1.698   0.113  17.613 -1.7908 -0.5150  0.2406
 1070SOL     OW14671   3.579   0.466   2.882  0.4833 -0.5226 -0.3483
 1070SOL    HW114672   3.667   0.499   2.862  0.2460  0.1583 -0.2569
 1070SOL    HW214673   3.529   0.483   2.803  2.0065  2.2142 -0.7060
 1071SOL     OW14674   2.330   1.566   9.092  0.1923  0.3466 -0.1041
 1071SOL    HW114675   2.352   1.656   9.116 -1.1204  0.3662  1.0585
 1071SOL    HW214676   2.324   1.527   9.180 -0.5423  1.3129  0.2684
 1072SOL     OW14677   3.421   3.395   7.253  0.0749  0.2541  0.3405
 1072SOL    HW114678   3.442   3.313   7.298 -1.6388 -0.4711 -0.1825
 1072SOL    HW214679   3.339   3.422   7.295  0.0591 -2.6333  2.1558
 1073SOL     OW14680   0.471   3.531   9.775 -0.5009 -0.2642 -0.9108
 1073SOL    HW114681   0.540   3.523   9.841 -1.6276  1.9512  0.5270
 1073SOL    HW214682   0.397   3.527   9.836  0.7738  2.9105  0.8437
 1074SOL     OW14683   0.556   0.441   8.544  0.1664 -0.0395  0.1096
 1074SOL    HW114684   0.625   0.406   8.601 -0.1184 -0.1535  0.3891
 1074SOL    HW214685   0.498   0.451   8.620 -0.7715  1.1816 -0.7763
 1075SOL     OW14686   2.505   3.342   3.207  0.2185  0.0075 -0.9674
 1075SOL    HW114687   2.527   3.389   3.127 -1.5981  0.6631 -1.0764
 1075SOL    HW214688   2.582   3.285   3.204  0.1178 -0.1846  0.0870
 1076SOL     OW14689   3.084   4.410   2.011 -0.2383 -0.4512 -0.7166
 1076SOL    HW114690   3.126   4.461   2.080 -1.3252 -0.1588 -0.2708
 1076SOL    HW214691   3.144   4.336   2.004  1.2415  0.8174 -1.2998
 1077SOL     OW14692   2.263   2.127  12.805 -0.3071  0.4044 -0.2949
 1077SOL    HW114693   2.245   2.034  12.797  0.7909  0.0943  0.9860
 1077SOL    HW214694   2.218   2.146  12.888  0.5480 -1.3265  0.5705
 1078SOL     OW14695   4.644   2.529   7.737 -0.0145  0.1394 -0.1245
 1078SOL    HW114696   4.660   2.486   7.821  0.5328  2.8619  1.1750
 1078SOL    HW214697   4.626   2.620   7.760  1.3933  0.3949 -0.0740
 1079SOL     OW14698   2.056   4.145   5.752  0.1963 -0.2688 -0.3259
 1079SOL    HW114699   2.099   4.230   5.739 -0.7817  0.1062 -1.0992
 1079SOL    HW214700   1.982   4.179   5.801  1.3951  0.5877  0.9103
 1080SOL     OW14701   1.985   3.876   2.267  0.5188 -0.3417 -0.1136
 1080SOL    HW114702   1.951   3.799   2.223 -0.5073  0.3759 -0.5705
 1080SOL    HW214703   2.060   3.854   2.323 -0.7106  1.1509  2.1348
 1081SOL     OW14704   4.528   0.443   8.767  0.2740  0.0808  0.0034
 1081SOL    HW114705   4.599   0.398   8.722 -0.7823  1.4058 -3.0027
 1081SOL    HW214706   4.548   0.536   8.760 -0.7549  0.5569  3.0521
 1082SOL     OW14707   2.764   0.491   0.873 -0.3026  0.2261 -0.1193
 1082SOL    HW114708   2.711   0.417   0.843  2.0165 -1.2284 -0.5579
 1082SOL    HW214709   2.800   0.523   0.791  1.5112 -1.4500  0.0327
 1083SOL     OW14710   2.444   1.624  10.909  0.9727 -0.3694  0.9023
 1083SOL    HW114711   2.381   1.692  10.886  1.8890  0.5861  1.2354
 1083SOL    HW214712   2.389   1.561  10.956 -0.7314 -1.4297 -2.5260
 1084SOL     OW14713   0.480   0.732  10.636  0.7035 -0.4601  0.1424
 1084SOL    HW114714   0.408   0.786  10.602 -0.4094 -1.0824  1.5076
 1084SOL    HW214715   0.439   0.678  10.704  0.4281 -1.6365 -0.9594
 1085SOL     OW14716   0.517   3.104   7.370  0.0795  0.3527 -0.1509
 1085SOL    HW114717   0.607   3.118   7.342 -0.0977  0.4443 -0.6768
 1085SOL    HW214718   0.477   3.186   7.343  2.6295  1.3941 -0.7315
 1086SOL     OW14719   4.597   0.448   1.924  0.8085  0.3238  0.5255
 1086SOL    HW114720   4.634   0.430   1.837 -1.9544  0.6440 -0.7151
 1086SOL    HW214721   4.658   0.406   1.984  1.2434 -1.4213 -1.1659
 1087SOL     OW14722   1.831   0.655   7.555  0.0873 -0.1207  0.2015
 1087SOL    HW114723   1.759   0.656   7.619 -1.3110  0.1730 -1.3721
 1087SOL    HW214724   1.786   0.645   7.471 -0.5386  0.9662  0.4060
 1088SOL     OW14725   4.006   0.865  15.785 -0.3079 -0.4007  0.7843
 1088SOL    HW114726   4.009   0.827  15.697 -3.4514 -0.9073  0.9037
 1088SOL    HW214727   4.100   0.876  15.800 -0.2648 -0.2385  0.3953
 1089SOL     OW14728   3.540   3.059   5.669  0.1055 -0.2254  0.0597
 1089SOL    HW114729   3.468   2.997   5.656  1.9325 -2.1608 -0.8396
 1089SOL    HW214730   3.548   3.065   5.764 -0.1133 -1.1398  0.1422
 1090SOL     OW14731   1.118   1.777   9.098  0.2033 -0.4485  0.3269
 1090SOL    HW114732   1.100   1.858   9.049  1.7781 -0.6341 -0.5465
 1090SOL    HW214733   1.105   1.802   9.190  1.9117  1.5534  0.0204
 1091SOL     OW14734   0.992   1.625   8.925  0.1340 -0.3040 -0.2183
 1091SOL    HW114735   1.029   1.682   8.993  0.8967 -1.3632  0.2465
 1091SOL    HW214736   1.042   1.644   8.846  1.4195 -0.7665  0.4917
 1092SOL     OW14737   4.373   0.595   2.170  0.0755  0.2371 -0.1353
 1092SOL    HW114738   4.381   0.689   2.153  1.2604  0.2357  0.3512
 1092SOL    HW214739   4.451   0.572   2.120 -0.6825 -0.8828 -0.8109
 1093SOL     OW14740   2.239   4.472   4.972  0.7427  0.2474  0.0330
 1093SOL    HW114741   2.183   4.452   4.898  1.0135  2.1976 -0.7048
 1093SOL    HW214742   2.307   4.404   4.968 -0.9777 -1.4207 -0.5672
 1094SOL     OW14743   3.186   3.104  16.890 -0.0669 -0.2904  0.4596
 1094SOL    HW114744   3.123   3.038  16.864 -0.4757 -0.3609  1.6252
 1094SOL    HW214745   3.131   3.151  16.953 -2.2296 -1.0627 -0.8472
 1095SOL     OW14746   0.673   0.054   9.397  0.2235  0.1485  0.5550
 1095SOL    HW114747   0.633   0.021   9.317  3.5027 -1.2179 -0.5369
 1095SOL    HW214748   0.766   0.075   9.388  0.1740  1.0166  2.0584
 1096SOL     OW14749   1.127   1.253   4.743  0.0165 -0.1093  0.4767
 1096SOL    HW114750   1.098   1.163   4.761  1.2695 -0.7993 -0.9193
 1096SOL    HW214751   1.197   1.259   4.809 -1.0541 -1.7688  1.7755
 1097SOL     OW14752   2.718   0.814   7.774  0.0906  0.5459  0.0434
 1097SOL    HW114753   2.767   0.739   7.740  1.1689  1.3739 -0.2399
 1097SOL    HW214754   2.628   0.781   7.777  0.1744  0.4100  0.8941
 1098SOL     OW14755   3.053   0.696   2.111 -0.3373 -0.3898 -0.1744
 1098SOL    HW114756   3.080   0.753   2.183  0.7445 -0.5109 -0.4805
 1098SOL    HW214757   3.134   0.700   2.059 -0.3505 -1.9009 -0.2893
 1099SOL     OW14758   2.905   0.157   2.286 -0.1828  0.3958  0.4274
 1099SOL    HW114759   2.966   0.109   2.229  2.5962  2.5168  1.6457
 1099SOL    HW214760   2.923   0.249   2.269  3.5521 -0.5360 -0.6256
 1100SOL     OW14761   0.225   3.972   3.249  0.6630 -0.6285  0.2093
 1100SOL    HW114762   0.191   4.060   3.266  3.8451  1.0143 -1.9503
 1100SOL    HW214763   0.289   3.994   3.181 -0.2525  0.4044 -0.3119
 1101SOL     OW14764   0.877   3.236   5.336 -0.0417 -0.0045 -0.3543
 1101SOL    HW114765   0.879   3.324   5.374 -1.4138 -0.2208  0.2120
 1101SOL    HW214766   0.891   3.252   5.242  1.1631  0.7975 -0.0429
 1102SOL     OW14767   2.106   2.123   9.389 -0.2518 -0.3553  0.1802
 1102SOL    HW114768   2.194   2.137   9.354  0.2022 -2.4909  0.4885
 1102SOL    HW214769   2.062   2.071   9.321  1.1176  2.1801 -2.6723
 1103SOL     OW14770   4.125   2.626   3.844 -0.0867  0.6568  0.6194
 1103SOL    HW114771   4.170   2.606   3.926 -0.5074 -1.7555  0.2832
 1103SOL    HW214772   4.094   2.714   3.865  0.9727  1.4278 -1.0520
 1104SOL     OW14773   0.358   0.578  12.149 -0.3947  0.1248 -0.6673
 1104SOL    HW114774   0.400   0.664  12.155 -2.2881  0.7680  2.8461
 1104SOL    HW214775   0.271   0.599  12.115 -0.0605  0.2795 -1.4297
 1105SOL     OW14776   2.112   0.517   9.420 -0.3173  0.1252 -0.4125
 1105SOL    HW114777   2.107   0.447   9.486  0.7867  1.6688  1.3348
 1105SOL    HW214778   2.027   0.559   9.418 -0.8137 -0.8094  0.7080
 1106SOL     OW14779   0.710   3.701   7.890 -0.0521  0.0680 -0.9209
 1106SOL    HW114780   0.717   3.692   7.795  1.2392 -1.3609 -0.6821
 1106SOL    HW214781   0.756   3.784   7.899 -1.9171  0.9827  0.4491
 1107SOL     OW14782   4.254   0.222  11.008 -0.8541  0.1350  0.0335
 1107SOL    HW114783   4.334   0.257  10.968  0.5080 -2.7296  0.2224
 1107SOL    HW214784   4.207   0.196  10.929  3.2876  2.3201 -3.1663
 1108SOL     OW14785   2.426   0.744   0.650 -0.3552 -0.2085  0.5621
 1108SOL    HW114786   2.444   0.765   0.741  1.4787 -2.3657  0.7083
 1108SOL    HW214787   2.345   0.698   0.670 -1.4570  1.1077 -0.8560
 1109SOL     OW14788   1.437   1.292   8.300  0.7655 -0.1041 -0.3155
 1109SOL    HW114789   1.431   1.382   8.266  0.6475 -0.2877 -0.7888
 1109SOL    HW214790   1.389   1.312   8.380 -2.2223 -2.0519 -1.6282
 1110SOL     OW14791   1.360   0.377  11.818  0.0623 -0.0253  0.1796
 1110SOL    HW114792   1.336   0.458  11.863 -1.9910 -0.4585 -0.1353
 1110SOL    HW214793   1.404   0.418  11.743  0.2461 -0.4472  0.0550
 1111SOL     OW14794   2.152   2.193   2.299  0.3374  0.6132 -0.0923
 1111SOL    HW114795   2.101   2.194   2.217  0.5496 -0.2745 -0.2338
 1111SOL    HW214796   2.075   2.190   2.355  0.7626  1.7067  0.5475
 1112SOL     OW14797   0.645   3.942   9.587 -0.5475  0.2735 -0.3096
 1112SOL    HW114798   0.675   3.936   9.497 -2.0020  0.3662 -0.8020
 1112SOL    HW214799   0.550   3.929   9.582 -0.2096 -1.8269 -1.1678
 1113SOL     OW14800   0.736   4.569   1.690 -0.0789 -0.2224  0.1771
 1113SOL    HW114801   0.647   4.533   1.691 -0.0918 -0.1876  0.2656
 1113SOL    HW214802   0.759   4.562   1.597  0.7999 -1.5379  0.4866
 1114SOL     OW14803   1.229   1.282  14.409  0.1468  0.5464 -0.0447
 1114SOL    HW114804   1.182   1.201  14.426  1.8125 -0.1950  1.0670
 1114SOL    HW214805   1.159   1.346  14.412  0.1701  0.6128 -0.7832
 1115SOL     OW14806   0.558   4.149   2.406 -0.2980  0.4434  0.0673
 1115SOL    HW114807   0.499   4.114   2.473 -0.2214  0.7612  0.3027
 1115SOL    HW214808   0.585   4.070   2.360 -1.1130 -1.4905  2.8982
 1116SOL     OW14809   1.195   2.953   4.821  0.7004 -0.0780 -0.5969
 1116SOL    HW114810   1.163   2.949   4.731  1.0239 -1.2289 -0.6634
 1116SOL    HW214811   1.263   3.021   4.827 -0.2429  0.8779 -0.7954
 1117SOL     OW14812   2.098   0.863   7.092 -0.2144 -0.0620  0.1851
 1117SOL    HW114813   2.086   0.936   7.153 -2.0732 -0.5942  0.4687
 1117SOL    HW214814   2.171   0.816   7.133 -0.8270 -1.3103 -0.1618
 1118SOL     OW14815   1.277   2.748   2.143 -0.0643  0.0764  0.0958
 1118SOL    HW114816   1.358   2.734   2.092 -1.2204  0.2530 -1.8026
 1118SOL    HW214817   1.216   2.760   2.070 -4.7120 -2.5456  3.5801
 1119SOL     OW14818   3.176   2.327  10.340 -0.5987 -0.2359  0.4454
 1119SOL    HW114819   3.110   2.301  10.405  0.1813 -0.3700  1.1867
 1119SOL    HW214820   3.171   2.422  10.332  0.9068 -0.2401 -0.5287
 1120SOL     OW14821   2.635   1.764  11.372 -0.5627 -0.7104  0.7581
 1120SOL    HW114822   2.575   1.837  11.388  0.0315  0.1215 -0.7894
 1120SOL    HW214823   2.669   1.794  11.288 -0.7915  1.5710  1.4788
 1121SOL     OW14824   0.714   4.616   2.004 -0.1064 -0.1869  0.6765
 1121SOL    HW114825   0.778   4.553   2.037 -0.2718  0.4226  2.1658
 1121SOL    HW214826   0.707   4.590   1.912 -0.1781 -1.2261  0.9799
 1122SOL     OW14827   4.398   1.088  16.722  0.3166 -0.2403 -0.0066
 1122SOL    HW114828   4.352   1.157  16.674  1.5314 -0.0529 -0.9173
 1122SOL    HW214829   4.411   1.024  16.651 -1.2619  1.9808 -2.3077
 1123SOL     OW14830   2.356   1.050   2.653 -0.2103 -0.0315 -0.4200
 1123SOL    HW114831   2.352   1.036   2.559 -0.4218 -0.0543 -0.4069
 1123SOL    HW214832   2.358   1.144   2.667 -4.1512  0.1096 -0.8831
 1124SOL     OW14833   1.876   2.717   5.965  0.4203  0.4248  1.0010
 1124SOL    HW114834   1.815   2.727   5.892 -0.3123 -1.9732  1.2646
 1124SOL    HW214835   1.856   2.628   5.995  1.2042  0.6313  2.1239
 1125SOL     OW14836   1.878   1.095   7.664 -0.2389 -0.0192 -0.4775
 1125SOL    HW114837   1.875   1.100   7.759 -0.8832 -1.2549 -0.4311
 1125SOL    HW214838   1.944   1.026   7.655 -1.6240 -1.4542  0.3450
 1126SOL     OW14839   0.277   0.173   6.503  0.0422  0.2056 -0.6939
 1126SOL    HW114840   0.360   0.174   6.551 -0.6261  1.5767  0.4520
 1126SOL    HW214841   0.263   0.268   6.496 -1.4767  0.0249 -0.0489
 1127SOL     OW14842   0.051   0.128   7.610  0.0344 -0.4422  0.3786
 1127SOL    HW114843   0.103   0.116   7.531 -0.4590 -0.1990  0.0183
 1127SOL    HW214844   0.124   0.167   7.659 -2.3477  4.2726  0.1949
 1128SOL     OW14845   2.271   2.974   6.096  0.4137  0.6483 -0.0886
 1128SOL    HW114846   2.361   2.952   6.071  0.4216  0.1418  0.3778
 1128SOL    HW214847   2.271   3.069   6.108  2.4670  0.0721  4.5935
 1129SOL     OW14848   3.099   1.237  15.855  0.3021 -0.3022 -0.5398
 1129SOL    HW114849   3.050   1.300  15.908 -0.9004 -0.0081 -1.9806
 1129SOL    HW214850   3.035   1.168  15.836  0.5211 -0.5590 -0.3435
 1130SOL     OW14851   0.649   1.776  12.543  0.0228 -0.4285 -0.1498
 1130SOL    HW114852   0.696   1.733  12.471  1.9447 -1.7007  1.8454
 1130SOL    HW214853   0.673   1.719  12.616 -0.4016  0.7276  0.8908
 1131SOL     OW14854   1.714   2.315   5.999  0.1289  0.1631 -0.0620
 1131SOL    HW114855   1.771   2.239   5.992  0.1181  0.2603 -1.2236
 1131SOL    HW214856   1.669   2.314   5.914 -0.2412  0.0624  0.1339
 1132SOL     OW14857   4.518   0.073   5.272  0.3277  0.6016  0.0615
 1132SOL    HW114858   4.517   0.069   5.177 -1.0872 -0.3015  0.1115
 1132SOL    HW214859   4.574   0.148   5.293  0.2986  0.5178  0.4339
 1133SOL     OW14860   2.483   0.619   2.156 -0.1582 -0.5292  0.4246
 1133SOL    HW114861   2.558   0.670   2.186 -0.1157 -0.3270 -0.0316
 1133SOL    HW214862   2.489   0.533   2.199 -1.0853 -0.8953 -0.1905
 1134SOL     OW14863   2.445   2.888   7.641 -0.0419 -0.3606 -0.3355
 1134SOL    HW114864   2.489   2.953   7.586 -0.7992  0.7193  0.3447
 1134SOL    HW214865   2.382   2.942   7.688  1.3304  1.5171 -0.6848
 1135SOL     OW14866   1.143   2.922  10.101  0.0677 -0.1264 -0.0510
 1135SOL    HW114867   1.098   2.886  10.178  0.6612 -0.9034 -0.0639
 1135SOL    HW214868   1.174   2.844  10.055  0.7404 -0.9896  1.8455
 1136SOL     OW14869   3.658   0.982   9.061 -0.1482  0.2739  0.2200
 1136SOL    HW114870   3.702   1.049   9.008 -0.1319  0.8526  0.9593
 1136SOL    HW214871   3.721   0.911   9.058 -0.6637 -0.1389 -0.8119
 1137SOL     OW14872   3.779   4.511   9.140 -0.5920  0.8332  0.0244
 1137SOL    HW114873   3.783   4.577   9.071  0.4836  1.3161  0.5414
 1137SOL    HW214874   3.847   4.553   9.192  1.9500 -1.4671 -1.4397
 1138SOL     OW14875   0.612   3.746   7.360 -0.5514 -0.0092 -0.0535
 1138SOL    HW114876   0.526   3.786   7.371  0.6117  1.7867  2.4644
 1138SOL    HW214877   0.616   3.701   7.276  2.1767 -0.4967  0.3277
 1139SOL     OW14878   3.627   0.157   2.819 -0.3325 -0.0714 -0.0106
 1139SOL    HW114879   3.591   0.089   2.876 -2.0063  0.0706 -0.9112
 1139SOL    HW214880   3.709   0.175   2.866 -0.0977  1.3566 -0.9682
 1140SOL     OW14881   1.088   1.785   7.693  0.2172 -0.1449  0.5693
 1140SOL    HW114882   1.012   1.729   7.680  0.8985 -0.5663 -1.6887
 1140SOL    HW214883   1.154   1.741   7.639 -0.4486 -0.1689 -0.2308
 1141SOL     OW14884   1.516   4.094   1.814  0.0695 -0.8061  0.1850
 1141SOL    HW114885   1.478   4.182   1.815  1.0394 -0.4086  1.5499
 1141SOL    HW214886   1.481   4.065   1.729  0.4362 -1.7291  0.3444
 1142SOL     OW14887   2.750   4.622   8.231  0.3196  0.1273  0.0607
 1142SOL    HW114888   2.777   4.714   8.233  0.0368  0.2649 -1.7407
 1142SOL    HW214889   2.746   4.603   8.137  0.0114  1.4277 -0.1895
 1143SOL     OW14890   4.369   1.232   7.720 -0.6651 -0.0101 -0.6794
 1143SOL    HW114891   4.325   1.163   7.669 -2.6292 -0.5005  1.6693
 1143SOL    HW214892   4.452   1.193   7.747 -0.5608  2.4386  2.5205
 1144SOL     OW14893   4.153   1.321   9.111 -0.0475 -0.5207 -0.2382
 1144SOL    HW114894   4.181   1.259   9.044 -1.5396 -1.0039 -0.3925
 1144SOL    HW214895   4.219   1.297   9.177  0.6754  1.8316 -0.0974
 1145SOL     OW14896   1.919   3.624   3.489 -0.1449  0.5247  0.4637
 1145SOL    HW114897   1.996   3.680   3.479 -0.2032  0.5312  0.0644
 1145SOL    HW214898   1.938   3.572   3.567 -0.2408  2.8858  2.0678
 1146SOL     OW14899   0.561   0.845   2.588 -0.1586 -0.2955 -0.8962
 1146SOL    HW114900   0.539   0.893   2.509  1.0003  0.8405 -0.5293
 1146SOL    HW214901   0.603   0.917   2.636 -1.8405 -0.4430  0.8335
 1147SOL     OW14902   0.523   3.607   4.305  0.0553  0.5591 -0.3525
 1147SOL    HW114903   0.583   3.632   4.375  1.3417  1.2999 -1.7392
 1147SOL    HW214904   0.560   3.523   4.279 -0.5966 -0.0748  0.7317
 1148SOL     OW14905   2.467   0.357   4.290  1.1039  0.0545 -0.6104
 1148SOL    HW114906   2.378   0.389   4.273  0.6765  0.4705  2.5129
 1148SOL    HW214907   2.482   0.391   4.378 -0.2859 -1.9901  0.4254
 1149SOL     OW14908   2.684   0.810   8.679  0.5382  0.3927 -0.8354
 1149SOL    HW114909   2.630   0.731   8.681  0.5433  0.4345  0.9292
 1149SOL    HW214910   2.637   0.872   8.622 -1.2434 -0.1377  0.0587
 1150SOL     OW14911   2.740   0.219  10.997  0.2496 -0.2075 -0.2726
 1150SOL    HW114912   2.799   0.265  10.938  2.3741 -1.1486  1.1297
 1150SOL    HW214913   2.708   0.288  11.055  0.2258 -0.3141 -0.1592
 1151SOL     OW14914   1.462   3.316  14.792  0.0304 -0.0509  0.2865
 1151SOL    HW114915   1.448   3.363  14.710  0.2254  0.5808  0.6172
 1151SOL    HW214916   1.555   3.299  14.777  0.4529  2.2003  0.3941
 1152SOL     OW14917   3.309   2.986   6.140 -0.0421  0.1478 -0.4878
 1152SOL    HW114918   3.394   2.947   6.121 -0.9142 -2.1414  0.3408
 1152SOL    HW214919   3.335   3.029   6.222  1.5470  1.2156 -1.5386
 1153SOL     OW14920   1.788   3.829   6.791  0.0511 -0.3454 -0.3091
 1153SOL    HW114921   1.742   3.750   6.761 -0.7268  1.3484 -3.5264
 1153SOL    HW214922   1.808   3.873   6.709  1.5848 -0.8760 -0.2215
 1154SOL     OW14923   3.066   1.755   3.527  0.5727 -0.1523  0.7262
 1154SOL    HW114924   2.989   1.775   3.474  1.3400  1.0042  0.0723
 1154SOL    HW214925   3.037   1.689   3.590 -0.6468  1.0720  1.4324
 1155SOL     OW14926   3.397   0.944   8.695  0.3833  0.5692 -0.3135
 1155SOL    HW114927   3.472   0.982   8.649 -0.9297  1.4045 -1.7382
 1155SOL    HW214928   3.410   0.855   8.663 -0.1849  0.6645 -0.7990
 1156SOL     OW14929   1.910   3.980  12.559  0.1956  0.4924  0.6583
 1156SOL    HW114930   1.836   4.007  12.504 -1.2472 -0.5443  2.0704
 1156SOL    HW214931   1.894   3.886  12.570 -0.1152  0.3903 -0.7098
 1157SOL     OW14932   4.221   2.897   9.281 -0.1734  0.1914 -0.4321
 1157SOL    HW114933   4.181   2.831   9.224  2.2773 -0.2960 -1.6055
 1157SOL    HW214934   4.149   2.918   9.340  0.3905 -1.8194  0.9871
 1158SOL     OW14935   2.247   3.962   0.276  0.1542 -0.3348  0.4765
 1158SOL    HW114936   2.263   4.055   0.260 -0.9045 -0.8870 -3.6379
 1158SOL    HW214937   2.335   3.936   0.303  1.2164 -0.2496 -2.9254
 1159SOL     OW14938   1.123   2.254   4.887 -0.4141  0.3157 -0.3654
 1159SOL    HW114939   1.190   2.318   4.862 -1.0506  0.8520 -0.6869
 1159SOL    HW214940   1.113   2.290   4.975 -1.0518 -2.0093  0.5296
 1160SOL     OW14941   3.967   1.411  11.223 -0.4035 -0.3565 -0.7619
 1160SOL    HW114942   4.040   1.404  11.284 -2.6313 -0.2047  1.9122
 1160SOL    HW214943   3.893   1.440  11.276  1.2727  1.0791  0.7699
 1161SOL     OW14944   1.052   0.811  15.263 -0.0938  0.0906 -0.5982
 1161SOL    HW114945   1.098   0.816  15.179  0.7971  0.4320 -0.0970
 1161SOL    HW214946   1.120   0.826  15.329 -0.9309 -2.1733  0.7734
 1162SOL     OW14947   1.204   1.807   4.957  0.1501 -0.0156  0.3967
 1162SOL    HW114948   1.120   1.830   4.996  1.8388  1.2684  3.2753
 1162SOL    HW214949   1.223   1.880   4.898 -0.6629  0.3330  0.5715
 1163SOL     OW14950   4.014   1.356   5.456 -0.1087  0.5155 -0.4310
 1163SOL    HW114951   4.030   1.409   5.378 -3.3230  1.2243 -0.6493
 1163SOL    HW214952   4.028   1.420   5.526  1.0289 -0.5871  0.3323
 1164SOL     OW14953   4.304   0.071   8.369  0.1398  0.2178  0.7886
 1164SOL    HW114954   4.368   0.002   8.351 -0.9748 -0.5681 -0.0904
 1164SOL    HW214955   4.325   0.078   8.463  0.1892  2.1478  0.6354
 1165SOL     OW14956   2.486   3.231   7.080  0.1222  0.3822  0.2542
 1165SOL    HW114957   2.522   3.196   6.998 -0.1278 -0.3593  0.4632
 1165SOL    HW214958   2.392   3.212   7.084 -0.0420  0.6406 -2.3154
 1166SOL     OW14959   0.505   2.488   4.441 -0.3057  0.1580  0.3614
 1166SOL    HW114960   0.464   2.518   4.521 -0.5819  2.4339 -0.6369
 1166SOL    HW214961   0.447   2.516   4.370 -0.2057  0.5489  0.4376
 1167SOL     OW14962   2.191   1.257   5.398 -0.0899 -0.1325  0.2301
 1167SOL    HW114963   2.102   1.292   5.408  0.5584  1.4325  0.4330
 1167SOL    HW214964   2.204   1.217   5.484 -1.8155 -1.2004 -0.0071
 1168SOL     OW14965   0.091   3.153   3.610  0.1968 -0.4767 -0.1538
 1168SOL    HW114966   0.097   3.080   3.548 -2.2913 -0.8668  0.0450
 1168SOL    HW214967   0.108   3.226   3.550  0.1344 -0.9275 -0.7199
 1169SOL     OW14968   2.275   2.303   8.316  0.3867  0.1248  0.6368
 1169SOL    HW114969   2.189   2.265   8.331  0.4773 -0.0990  0.5961
 1169SOL    HW214970   2.324   2.274   8.393  2.0108 -1.7168 -1.0700
 1170SOL     OW14971   0.146   0.431   8.060 -0.0598  0.2339  0.3395
 1170SOL    HW114972   0.060   0.457   8.092 -0.7325  1.0235 -2.0310
 1170SOL    HW214973   0.200   0.508   8.075 -1.1008  0.7099  1.6105
 1171SOL     OW14974   3.525   0.259   3.085  0.6308 -0.1582  0.4794
 1171SOL    HW114975   3.463   0.204   3.038 -1.1036  1.6948  0.5958
 1171SOL    HW214976   3.564   0.300   3.008  2.1144 -1.3743  0.5929
 1172SOL     OW14977   1.416   1.679  14.296  0.1251 -0.4687 -0.1770
 1172SOL    HW114978   1.334   1.702  14.338 -0.3047 -1.1150 -0.6621
 1172SOL    HW214979   1.450   1.768  14.290 -0.5528 -0.0983  1.6445
 1173SOL     OW14980   3.639   4.124  10.436 -0.3396 -0.1246 -0.1107
 1173SOL    HW114981   3.636   4.214  10.403 -0.7297  0.7251  2.2074
 1173SOL    HW214982   3.622   4.143  10.529  1.3664  1.1313 -0.0646
 1174SOL     OW14983   1.169   4.552  15.610  0.3703 -0.5677  0.5551
 1174SOL    HW114984   1.241   4.515  15.660  2.5527  3.4097  0.3515
 1174SOL    HW214985   1.176   4.639  15.648  1.7993 -0.8842  1.0016
 1175SOL     OW14986   0.473   1.522  16.964 -0.2539  0.2216  0.2239
 1175SOL    HW114987   0.469   1.468  17.043 -0.7518 -0.2636 -0.1367
 1175SOL    HW214988   0.424   1.602  16.982 -0.5623  0.4649 -1.6580
 1176SOL     OW14989   0.811   0.382  13.213  0.1823  0.3631  0.6271
 1176SOL    HW114990   0.822   0.474  13.190  1.8359  0.1894  0.7234
 1176SOL    HW214991   0.738   0.383  13.276  0.1777 -2.0558  0.6559
 1177SOL     OW14992   2.329   2.260   6.510  0.1456  0.0919  0.6384
 1177SOL    HW114993   2.407   2.208   6.531  0.6369 -0.2188 -2.0277
 1177SOL    HW214994   2.362   2.342   6.548 -1.2790 -0.0389  2.1646
 1178SOL     OW14995   3.062   0.272   7.859 -0.3076  0.3248  0.2822
 1178SOL    HW114996   3.067   0.275   7.763 -0.9289 -1.4199  0.1998
 1178SOL    HW214997   3.006   0.349   7.866  0.5576  1.1276 -1.6627
 1179SOL     OW14998   0.896   3.909   7.840  0.2108 -0.1947 -0.5393
 1179SOL    HW114999   0.856   3.958   7.768 -0.3402  0.6959  0.3687
 1179SOL    HW215000   0.975   3.962   7.851  0.5162 -0.8343  0.3311
 1180SOL     OW15001   3.846   1.497  15.363 -0.1312 -0.0829  0.0082
 1180SOL    HW115002   3.759   1.534  15.375 -0.9209 -1.9294 -0.0395
 1180SOL    HW215003   3.842   1.409  15.402 -1.8459 -0.1615 -0.3408
 1181SOL     OW15004   2.738   3.907  17.316 -0.0930  0.9712 -0.0530
 1181SOL    HW115005   2.698   3.905  17.229  2.3034 -0.2348 -1.1340
 1181SOL    HW215006   2.666   3.867  17.364  2.1315 -1.4064  1.2803
 1182SOL     OW15007   0.164   4.379   6.503 -0.2306 -0.1955  0.0005
 1182SOL    HW115008   0.093   4.444   6.503  1.1199  1.2760  1.2484
 1182SOL    HW215009   0.176   4.357   6.596  1.2892  1.0598  0.0984
 1183SOL     OW15010   1.791   2.187   2.346  0.0670 -0.0058  0.0022
 1183SOL    HW115011   1.814   2.095   2.356 -1.4191 -0.2057  1.4627
 1183SOL    HW215012   1.853   2.224   2.408  0.8161 -2.5584  0.7808
 1184SOL     OW15013   1.683   4.267   2.048 -0.6672 -0.7142  0.2735
 1184SOL    HW115014   1.743   4.326   2.094 -0.3893 -2.7262  2.5064
 1184SOL    HW215015   1.719   4.179   2.062  1.2610 -0.5138 -3.4679
 1185SOL     OW15016   1.733   3.048   3.390 -0.5242 -0.3378  0.1294
 1185SOL    HW115017   1.649   3.011   3.417 -0.7090  0.7666  1.1165
 1185SOL    HW215018   1.712   3.057   3.297  1.6191 -0.2687 -0.3557
 1186SOL     OW15019   1.214   1.001  12.449 -0.2258 -0.5719  0.3335
 1186SOL    HW115020   1.142   0.998  12.386 -0.7249  0.8202  0.8305
 1186SOL    HW215021   1.264   1.075  12.415 -0.6901 -1.1611 -1.6061
 1187SOL     OW15022   2.769   2.355   3.870 -0.1494 -0.2857  0.0661
 1187SOL    HW115023   2.717   2.289   3.917 -2.3346 -0.9011 -3.2835
 1187SOL    HW215024   2.821   2.300   3.812  0.5763 -0.9895  1.3714
 1188SOL     OW15025   0.234   1.706  12.657 -0.4709 -0.0120  0.0855
 1188SOL    HW115026   0.224   1.690  12.563  2.9080  0.5907 -0.4134
 1188SOL    HW215027   0.279   1.627  12.688 -2.1315 -1.7649 -2.0082
 1189SOL     OW15028   4.166   3.071   3.800  0.2799 -0.2076 -0.1541
 1189SOL    HW115029   4.154   3.165   3.783 -0.8848 -0.5097 -0.9521
 1189SOL    HW215030   4.254   3.080   3.837  0.9268 -2.9975 -0.9931
 1190SOL     OW15031   2.133   1.183   2.845  0.4038  0.7032  0.1167
 1190SOL    HW115032   2.213   1.220   2.808  0.0271  1.3800 -0.0224
 1190SOL    HW215033   2.081   1.261   2.863 -1.6326 -0.5998 -0.0961
 1191SOL     OW15034   2.455   1.938   1.029 -0.6284  0.9069 -0.4187
 1191SOL    HW115035   2.522   1.899   1.086 -0.4814  2.2441  0.3246
 1191SOL    HW215036   2.509   1.961   0.954 -1.0497  1.2024 -0.6245
 1192SOL     OW15037   4.545   0.377   2.910  0.1589  0.1766 -0.2908
 1192SOL    HW115038   4.610   0.433   2.953  0.1877  1.4009 -1.9585
 1192SOL    HW215039   4.477   0.382   2.977  2.1638  0.9992  1.6980
 1193SOL     OW15040   3.797   4.252   3.610  0.0239  0.5366 -0.4532
 1193SOL    HW115041   3.798   4.162   3.577  2.5989  0.1915  0.5630
 1193SOL    HW215042   3.793   4.236   3.704  0.2546  0.6506 -0.4247
 1194SOL     OW15043   2.074   4.614   8.984 -0.3032 -0.0664 -0.1361
 1194SOL    HW115044   1.988   4.645   9.011 -1.1814 -0.5220 -2.3480
 1194SOL    HW215045   2.112   4.697   8.955  3.3464 -1.7171 -0.1646
 1195SOL     OW15046   4.298   0.767  17.118  0.2561 -0.3631  0.1071
 1195SOL    HW115047   4.284   0.783  17.025  0.2532 -0.4574  0.0905
 1195SOL    HW215048   4.228   0.709  17.148 -0.5988  0.5066 -0.2423
 1196SOL     OW15049   1.567   1.559  10.438 -0.3468  0.0466  0.0392
 1196SOL    HW115050   1.540   1.472  10.410  0.1363 -0.2681  0.5480
 1196SOL    HW215051   1.489   1.582  10.487 -0.2798 -1.3261  0.7899
 1197SOL     OW15052   2.695   2.122   5.841 -0.3319 -0.0021 -0.2520
 1197SOL    HW115053   2.635   2.195   5.826  1.8170  1.0211 -3.8265
 1197SOL    HW215054   2.783   2.160   5.848 -0.7401  1.4241 -2.8945
 1198SOL     OW15055   2.794   2.067   0.585 -0.6143 -0.3095 -0.5998
 1198SOL    HW115056   2.835   2.134   0.639  0.5822  0.7637 -2.8306
 1198SOL    HW215057   2.853   1.995   0.606  1.4402  1.4674 -0.2418
 1199SOL     OW15058   4.625   3.886   3.602  0.0522 -0.4004 -0.0470
 1199SOL    HW115059   4.662   3.950   3.542 -1.1942  2.0442  1.8258
 1199SOL    HW215060   4.535   3.873   3.570  0.2426 -1.4951 -0.1639
 1200SOL     OW15061   4.694   0.035  17.199 -1.0037 -0.1755  0.1992
 1200SOL    HW115062   4.648   0.077  17.127  0.7862  1.3835 -0.0385
 1200SOL    HW215063   4.636   4.680  17.209 -0.5499 -0.5908 -0.3398
 1201SOL     OW15064   3.333   0.041   3.469  0.1396 -0.1732 -0.1231
 1201SOL    HW115065   3.286   4.707   3.532 -4.0933  5.3757  1.5294
 1201SOL    HW215066   3.422   0.058   3.500  0.2287  1.5347 -1.2960
 1202SOL     OW15067   2.950   3.350  10.187 -0.3473  0.0434 -0.6474
 1202SOL    HW115068   2.993   3.421  10.140  0.8148 -0.9857 -1.1241
 1202SOL    HW215069   2.881   3.400  10.230  0.0316  1.1588 -1.3522
 1203SOL     OW15070   2.777   0.523   7.107 -0.0060  0.8439  0.1267
 1203SOL    HW115071   2.715   0.487   7.170 -0.5464  1.8481  0.1703
 1203SOL    HW215072   2.767   0.614   7.136 -1.0122  1.0408 -0.7919
 1204SOL     OW15073   3.105   3.830  15.373 -0.1852  0.0071  0.9363
 1204SOL    HW115074   3.096   3.750  15.321  3.0418  1.4779 -1.8840
 1204SOL    HW215075   3.014   3.833  15.403 -0.4650  0.4517  0.0674
 1205SOL     OW15076   2.691   3.597   7.103  0.5100  0.0760  0.7869
 1205SOL    HW115077   2.764   3.592   7.041  0.5688 -0.5986  0.9131
 1205SOL    HW215078   2.728   3.633   7.184  2.4786 -1.1734  0.4562
 1206SOL     OW15079   0.487   0.678   1.522 -0.0650  0.4848  0.3886
 1206SOL    HW115080   0.518   0.675   1.613  0.3865 -3.4500  0.1037
 1206SOL    HW215081   0.537   0.603   1.490  1.3548  1.7715 -0.4115
 1207SOL     OW15082   3.301   1.092  15.311 -0.0882  0.2849 -0.1761
 1207SOL    HW115083   3.278   1.123  15.224 -0.8134 -0.6151 -0.3002
 1207SOL    HW215084   3.265   1.164  15.363 -0.5490 -1.2176  1.5862
 1208SOL     OW15085   0.443   3.557   4.670  1.0360  0.2928  0.7960
 1208SOL    HW115086   0.382   3.486   4.687  1.7511 -0.9187 -1.5526
 1208SOL    HW215087   0.391   3.618   4.618 -0.4424 -1.5166  0.1387
 1209SOL     OW15088   1.945   3.226   6.579  0.5701 -0.2153 -0.7699
 1209SOL    HW115089   1.934   3.133   6.559  0.8112 -0.6927  1.3178
 1209SOL    HW215090   1.872   3.268   6.534  1.7654  0.3968 -2.1497
 1210SOL     OW15091   2.498   0.495   8.222 -0.1596 -0.2500 -0.5085
 1210SOL    HW115092   2.415   0.529   8.189  0.7830  4.1258  1.6769
 1210SOL    HW215093   2.499   0.541   8.306  1.9474 -0.3512 -0.4745
 1211SOL     OW15094   1.455   0.172   6.662 -0.1185  0.0323 -0.4318
 1211SOL    HW115095   1.393   0.100   6.649  1.6670 -1.8308  1.3528
 1211SOL    HW215096   1.509   0.145   6.588  1.1854 -0.3177  0.6420
 1212SOL     OW15097   3.404   0.685  13.813 -0.3910 -0.2710  0.2063
 1212SOL    HW115098   3.485   0.640  13.789  1.9616  3.2659  1.7189
 1212SOL    HW215099   3.437   0.748  13.876 -0.1123 -0.2920  0.0829
 1213SOL     OW15100   1.356   2.117   5.463 -0.3118 -0.3264  0.3877
 1213SOL    HW115101   1.387   2.059   5.533  1.1847  1.6867  1.3655
 1213SOL    HW215102   1.414   2.192   5.474 -0.3905 -0.0876 -0.8248
 1214SOL     OW15103   1.846   1.095   7.937  0.0764 -0.4857  0.2470
 1214SOL    HW115104   1.789   1.134   8.003  0.2149  0.5697 -0.2444
 1214SOL    HW215105   1.916   1.158   7.953 -0.0288 -0.5272  0.8727
 1215SOL     OW15106   2.666   1.947  17.190 -0.4498 -0.5489 -0.6067
 1215SOL    HW115107   2.663   1.853  17.175  0.1891 -0.5263 -0.8987
 1215SOL    HW215108   2.760   1.946  17.211 -0.2659 -0.4839 -1.4217
 1216SOL     OW15109   3.163   4.478   8.122  0.2579  0.1439 -0.1510
 1216SOL    HW115110   3.172   4.538   8.196  2.8057  0.3128 -0.5832
 1216SOL    HW215111   3.148   4.531   8.044  2.9694 -0.3803 -1.0225
 1217SOL     OW15112   0.356   3.584   7.114  0.1940  0.4316 -0.5566
 1217SOL    HW115113   0.266   3.554   7.130  0.2747 -0.3667 -1.6539
 1217SOL    HW215114   0.386   3.522   7.047 -1.8273  1.1762 -2.1408
 1218SOL     OW15115   1.667   1.604   8.409 -0.0546 -0.6002 -0.0586
 1218SOL    HW115116   1.572   1.605   8.399 -0.1250  0.7375  0.6481
 1218SOL    HW215117   1.684   1.694   8.378 -2.2960 -0.2973 -0.3962
 1219SOL     OW15118   2.204   2.414   7.570 -0.2848 -0.4576  0.6615
 1219SOL    HW115119   2.150   2.475   7.520  0.7020 -0.3951 -0.3181
 1219SOL    HW215120   2.130   2.370   7.611 -0.9578 -0.5173 -0.6233
 1220SOL     OW15121   3.117   4.488  13.257  0.2898  0.5177 -0.0939
 1220SOL    HW115122   3.178   4.426  13.218  1.5700  1.7622 -0.0867
 1220SOL    HW215123   3.103   4.447  13.342 -2.0842 -0.8124 -1.1153
 1221SOL     OW15124   0.409   0.629   8.905  0.4158 -0.4245 -0.0571
 1221SOL    HW115125   0.383   0.699   8.965  2.5133  0.2666  0.0303
 1221SOL    HW215126   0.484   0.591   8.950  0.4059 -0.1434  0.1911
 1222SOL     OW15127   2.473   2.621   2.900  0.1415 -0.1131  0.6786
 1222SOL    HW115128   2.399   2.562   2.912 -0.1676  0.6576  2.5026
 1222SOL    HW215129   2.492   2.595   2.810 -0.3497 -1.9333  1.1068
 1223SOL     OW15130   3.517   1.562  16.125  0.0845 -0.0827 -0.0483
 1223SOL    HW115131   3.592   1.617  16.108 -1.2370  1.3068 -1.3331
 1223SOL    HW215132   3.454   1.634  16.128  0.1264 -0.0597  0.2669
 1224SOL     OW15133   2.694   0.680  13.068 -0.1103 -0.7281 -0.5797
 1224SOL    HW115134   2.605   0.671  13.101 -0.4286  2.4345 -0.4872
 1224SOL    HW215135   2.735   0.757  13.107  0.4287 -0.4991 -1.6037
 1225SOL     OW15136   4.075   0.193   5.814 -0.3901 -0.2261  0.2705
 1225SOL    HW115137   4.142   0.252   5.780 -2.1288  0.1481 -2.5207
 1225SOL    HW215138   4.063   0.148   5.730  1.7958 -0.3218 -0.0021
 1226SOL     OW15139   3.507   3.481   6.412  0.3200  0.3054  0.0149
 1226SOL    HW115140   3.541   3.569   6.425 -0.0531  0.4813 -0.1919
 1226SOL    HW215141   3.588   3.434   6.427  1.2155  1.6759 -0.5554
 1227SOL     OW15142   0.465   1.329   5.368 -0.6619  0.0760 -0.4237
 1227SOL    HW115143   0.436   1.344   5.458 -0.5254  0.0691 -0.3788
 1227SOL    HW215144   0.380   1.340   5.325 -0.8118 -2.5589 -0.8395
 1228SOL     OW15145   0.050   0.847   4.454 -0.0276 -0.1784 -0.0631
 1228SOL    HW115146   0.009   0.822   4.536  0.6385 -1.9621 -0.2693
 1228SOL    HW215147   0.008   0.932   4.440  2.4225  1.2084  0.8760
 1229SOL     OW15148   3.699   1.225  13.564  0.2909  0.0261 -0.1085
 1229SOL    HW115149   3.660   1.146  13.601 -0.1780  1.4532  2.4376
 1229SOL    HW215150   3.762   1.246  13.633  0.9843 -1.1269 -0.3895
 1230SOL     OW15151   3.160   0.729   5.646  0.6432  0.1304 -0.2749
 1230SOL    HW115152   3.198   0.676   5.577  0.3905 -0.2525 -0.1158
 1230SOL    HW215153   3.223   0.723   5.718  0.1522 -0.4460  0.1055
 1231SOL     OW15154   3.053   2.700  11.361  0.1609  0.2117  0.5380
 1231SOL    HW115155   3.126   2.739  11.314 -0.7939  1.2867 -0.0666
 1231SOL    HW215156   2.999   2.776  11.383  1.0532  1.0109 -0.0442
 1232SOL     OW15157   2.568   2.734   8.246  0.2679 -0.4208 -0.1639
 1232SOL    HW115158   2.659   2.705   8.245 -0.3725 -2.4880  1.1309
 1232SOL    HW215159   2.522   2.650   8.252 -1.0788  0.4918  2.4597
 1233SOL     OW15160   2.904   4.140   2.129 -0.3134 -0.4882 -0.3205
 1233SOL    HW115161   2.960   4.063   2.120 -2.7212 -2.0681 -1.8053
 1233SOL    HW215162   2.954   4.183   2.199  0.1807  0.9386 -1.5676
 1234SOL     OW15163   0.617   0.192   8.240 -0.0914 -0.0914  0.6963
 1234SOL    HW115164   0.613   0.287   8.249  0.3472 -0.0275  0.2231
 1234SOL    HW215165   0.586   0.166   8.326  0.4561  1.3978  1.3281
 1235SOL     OW15166   4.058   0.596   6.488 -0.4312  0.2566  0.8191
 1235SOL    HW115167   4.061   0.688   6.462  0.3997  0.0477  0.1393
 1235SOL    HW215168   3.968   0.567   6.475  0.2544 -1.4534 -0.1122
 1236SOL     OW15169   3.360   1.588   5.709  0.3085  0.0705  0.1417
 1236SOL    HW115170   3.361   1.568   5.615  3.5932  0.3114  0.1153
 1236SOL    HW215171   3.361   1.683   5.695 -2.1095 -0.0908 -1.1778
 1237SOL     OW15172   1.662   2.727   6.642 -0.1291 -0.2029 -0.4335
 1237SOL    HW115173   1.660   2.804   6.699 -2.1014 -1.1682  0.7800
 1237SOL    HW215174   1.749   2.739   6.602  0.7379 -2.9264  0.5859
 1238SOL     OW15175   0.598   1.799  13.730  0.1289 -0.0549 -0.2609
 1238SOL    HW115176   0.599   1.831  13.820 -0.2756  1.5608 -0.8397
 1238SOL    HW215177   0.535   1.727  13.721 -1.2967  1.3058 -1.1308
 1239SOL     OW15178   0.256   0.099   6.005  0.5458 -0.4732 -0.4037
 1239SOL    HW115179   0.258   0.118   5.911  0.2386  0.3181 -0.2516
 1239SOL    HW215180   0.345   0.065   6.012  0.3127 -0.4410  2.4620
 1240SOL     OW15181   1.004   1.315   2.809  0.2881 -0.0443  0.4623
 1240SOL    HW115182   1.080   1.258   2.793 -0.4531 -0.3422 -1.8805
 1240SOL    HW215183   1.017   1.341   2.900 -2.3163  1.0839  0.4988
 1241SOL     OW15184   4.032   0.613   3.668  0.0717  0.1817  0.3431
 1241SOL    HW115185   3.961   0.661   3.623  1.2500  1.6032 -0.0151
 1241SOL    HW215186   3.999   0.608   3.758 -1.6005 -1.1132 -0.3549
 1242SOL     OW15187   4.370   4.052   4.715  0.6949 -0.4356 -0.2383
 1242SOL    HW115188   4.386   4.115   4.645  0.0753 -0.7360 -0.6473
 1242SOL    HW215189   4.280   4.022   4.703 -0.3636  2.3339  0.7906
 1243SOL     OW15190   1.638   4.529   5.393  0.6400 -0.4481  0.3284
 1243SOL    HW115191   1.703   4.500   5.329 -0.6843 -0.8532 -0.8428
 1243SOL    HW215192   1.690   4.607   5.414  0.6577 -0.5465  0.6476
 1244SOL     OW15193   4.315   4.326   2.320  0.5170 -0.5940  0.9159
 1244SOL    HW115194   4.340   4.418   2.311  1.0028 -0.7081  1.0737
 1244SOL    HW215195   4.227   4.328   2.357 -0.4039  0.6507 -1.3558
 1245SOL     OW15196   0.521   3.255   3.689 -0.3919 -0.4019  0.1963
 1245SOL    HW115197   0.501   3.280   3.599 -0.2763 -1.5409 -0.1383
 1245SOL    HW215198   0.488   3.166   3.698 -0.4271 -0.4232 -0.1453
 1246SOL     OW15199   1.399   2.609  12.182  0.4866 -0.3998 -0.3649
 1246SOL    HW115200   1.409   2.612  12.277  0.2482  0.5267 -0.3626
 1246SOL    HW215201   1.422   2.518  12.165 -0.9697 -0.7955 -0.1773
 1247SOL     OW15202   2.723   3.233  13.813  0.0994  0.1860 -0.4555
 1247SOL    HW115203   2.728   3.312  13.760 -1.4508  0.2073 -0.5950
 1247SOL    HW215204   2.628   3.231  13.827  0.0504 -0.2706 -0.8373
 1248SOL     OW15205   1.741   3.933  13.360 -0.1982 -0.7958 -0.5940
 1248SOL    HW115206   1.656   3.915  13.401 -1.0852 -1.9294 -2.9536
 1248SOL    HW215207   1.778   3.987  13.430  0.3250 -1.2513 -0.5174
 1249SOL     OW15208   3.603   1.293  17.138 -0.6155  0.2911 -0.0631
 1249SOL    HW115209   3.650   1.354  17.081  1.4060 -1.8486 -0.6803
 1249SOL    HW215210   3.656   1.213  17.135 -2.3680 -0.9650  2.3666
 1250SOL     OW15211   2.517   1.277   0.606  0.6213  0.6512 -0.0453
 1250SOL    HW115212   2.484   1.206   0.660  1.7407  1.0966  1.2070
 1250SOL    HW215213   2.488   1.256   0.517  0.3145  0.0767  0.1934
 1251SOL     OW15214   2.149   4.478  15.026  0.2557 -0.0305  0.3106
 1251SOL    HW115215   2.209   4.403  15.030  1.0036  0.6822  3.1410
 1251SOL    HW215216   2.151   4.527  15.109  1.2857  0.1171  0.2069
 1252SOL     OW15217   2.584   1.373   7.928 -0.1265 -0.2494 -0.0199
 1252SOL    HW115218   2.627   1.296   7.890 -2.6773 -1.5944 -0.2374
 1252SOL    HW215219   2.657   1.432   7.914 -2.1163  2.5131  1.3598
 1253SOL     OW15220   0.375   4.352   9.383  0.2985  0.0051  0.6553
 1253SOL    HW115221   0.365   4.259   9.366 -1.4696  0.5947 -1.3868
 1253SOL    HW215222   0.302   4.386   9.332  0.8090  2.3536  1.4982
 1254SOL     OW15223   2.723   3.790   4.291 -0.9510 -0.0632 -0.2383
 1254SOL    HW115224   2.632   3.815   4.275 -0.8018 -1.2760 -2.9688
 1254SOL    HW215225   2.760   3.870   4.327 -1.0374  0.5299 -1.4602
 1255SOL     OW15226   2.251   1.806  11.769 -0.0111  0.3812 -0.3174
 1255SOL    HW115227   2.237   1.772  11.681 -0.6320  2.1247 -0.8816
 1255SOL    HW215228   2.161   1.805  11.800 -0.0978 -2.0893 -0.6967
 1256SOL     OW15229   4.117   1.566  16.957  0.2516 -0.0249  0.0066
 1256SOL    HW115230   4.072   1.574  16.873  0.4911  0.7281 -0.0481
 1256SOL    HW215231   4.143   1.474  16.946 -1.0906 -0.1207 -2.3424
 1257SOL     OW15232   2.078   2.154   1.018 -0.4196  0.3805  0.3103
 1257SOL    HW115233   2.082   2.093   0.944 -0.1631  1.7371 -0.8054
 1257SOL    HW215234   1.985   2.172   1.006 -0.4247 -0.6989 -1.2459
 1258SOL     OW15235   0.774   0.760   1.439  0.0182  0.6686  0.0498
 1258SOL    HW115236   0.865   0.780   1.417  0.9557 -2.0262  1.5349
 1258SOL    HW215237   0.772   0.666   1.419 -0.4938  0.9881 -1.4213
 1259SOL     OW15238   4.609   0.572   6.211  0.2718  0.2229 -0.1178
 1259SOL    HW115239   4.659   0.567   6.130  2.0835  1.5459  0.9142
 1259SOL    HW215240   4.554   0.494   6.203  0.4700  0.0102  0.5799
 1260SOL     OW15241   2.856   0.610   0.655 -0.5136 -0.1577  0.0285
 1260SOL    HW115242   2.936   0.663   0.647 -1.4349  1.1947 -0.2270
 1260SOL    HW215243   2.842   0.567   0.570 -0.8434 -1.0626  0.5453
 1261SOL     OW15244   2.806   0.291   0.157 -0.0740 -0.2589 -0.4794
 1261SOL    HW115245   2.732   0.318   0.101 -1.0236 -1.8133  0.0146
 1261SOL    HW215246   2.767   0.250   0.235 -1.1397  1.9977  0.1776
 1262SOL     OW15247   0.771   4.406   3.392  0.0205 -0.4470 -0.0388
 1262SOL    HW115248   0.851   4.361   3.418  1.0040  0.8495 -0.7890
 1262SOL    HW215249   0.794   4.499   3.393 -0.3856 -0.3063 -2.9576
 1263SOL     OW15250   1.330   2.922   3.718 -0.1102 -0.2685  0.4529
 1263SOL    HW115251   1.345   3.002   3.768  0.5709  0.2441 -0.5988
 1263SOL    HW215252   1.244   2.895   3.751 -0.1172 -1.1237 -0.2835
 1264SOL     OW15253   2.227   0.884   8.644 -0.1808 -0.2214  0.1010
 1264SOL    HW115254   2.239   0.963   8.590  0.4080 -0.4898 -0.1604
 1264SOL    HW215255   2.206   0.813   8.583  0.3634 -0.5907  0.3464
 1265SOL     OW15256   3.932   3.067  16.918 -0.0121 -0.4654 -0.1343
 1265SOL    HW115257   4.005   3.018  16.880  1.2206  1.7832 -0.6709
 1265SOL    HW215258   3.882   3.008  16.973 -1.0661 -0.4682 -1.0868
 1266SOL     OW15259   3.809   3.917   8.708  0.3661 -0.0054  0.1460
 1266SOL    HW115260   3.717   3.932   8.687  0.1742 -1.3085  0.0745
 1266SOL    HW215261   3.857   3.919   8.626 -1.4002  0.6741 -0.8642
 1267SOL     OW15262   1.043   0.472  12.888  0.0994  0.8803 -0.3935
 1267SOL    HW115263   1.074   0.394  12.936  1.9545  0.0340 -3.0009
 1267SOL    HW215264   0.951   0.448  12.879  0.5687 -0.4736 -1.5848
 1268SOL     OW15265   1.222   3.310   2.781 -0.1998 -0.3626 -0.2106
 1268SOL    HW115266   1.307   3.305   2.823 -0.0378  2.8999 -0.1364
 1268SOL    HW215267   1.187   3.221   2.790 -2.7365  0.7048  0.6131
 1269SOL     OW15268   0.385   0.823   9.090  0.3603 -0.2328  0.1312
 1269SOL    HW115269   0.450   0.877   9.044  0.5982  1.0859  1.9810
 1269SOL    HW215270   0.435   0.795   9.167  0.0020 -1.6152 -0.1520
 1270SOL     OW15271   1.537   2.329   3.813 -0.3618 -0.2601 -0.4253
 1270SOL    HW115272   1.496   2.258   3.861  0.2447 -0.9027 -0.8502
 1270SOL    HW215273   1.588   2.281   3.747  0.2463  1.2216 -1.0422
 1271SOL     OW15274   3.594   2.316   7.316  0.2019  0.3268  0.0194
 1271SOL    HW115275   3.556   2.246   7.370 -0.9420  0.9425  0.0078
 1271SOL    HW215276   3.521   2.377   7.308 -0.7958 -0.9328 -0.4909
 1272SOL     OW15277   2.145   1.411  12.334 -0.1935 -0.0103  0.5009
 1272SOL    HW115278   2.082   1.480  12.313 -2.8275 -3.1502 -1.8911
 1272SOL    HW215279   2.211   1.474  12.362  0.7718 -1.1684  0.8125
 1273SOL     OW15280   3.147   0.594   6.271 -0.3533  0.1264  0.2355
 1273SOL    HW115281   3.210   0.650   6.315  1.7875 -0.7843 -1.6367
 1273SOL    HW215282   3.160   0.612   6.178 -2.6125  1.7365  0.2309
 1274SOL     OW15283   3.253   3.625   1.907 -0.0408 -0.1598  0.0773
 1274SOL    HW115284   3.244   3.640   1.813 -1.7723  0.8346  0.3875
 1274SOL    HW215285   3.167   3.589   1.929 -0.0524  1.0145  1.9409
 1275SOL     OW15286   1.260   1.659   9.412  0.0939 -0.4251 -0.3565
 1275SOL    HW115287   1.170   1.628   9.417  0.0495 -0.2220  0.1144
 1275SOL    HW215288   1.301   1.572   9.411 -1.2047 -1.0051 -1.9858
 1276SOL     OW15289   0.071   3.588  16.734  0.2261 -0.1948  0.1876
 1276SOL    HW115290   0.165   3.583  16.718  0.1530  1.0519 -0.7134
 1276SOL    HW215291   0.040   3.580  16.644 -0.3719  0.7921  0.2987
 1277SOL     OW15292   1.562   0.258  11.969 -0.0201 -0.4847 -0.3921
 1277SOL    HW115293   1.612   0.340  11.971 -1.9787  0.7821 -2.4088
 1277SOL    HW215294   1.474   0.294  11.956  0.6985  1.3146 -0.3122
 1278SOL     OW15295   0.830   1.108   2.133 -0.2660  0.1193  0.1897
 1278SOL    HW115296   0.873   1.112   2.218  2.4515 -1.2938 -1.1017
 1278SOL    HW215297   0.788   1.022   2.130 -0.9529  0.4561  0.1396
 1279SOL     OW15298   3.741   0.870   3.086  0.2846 -0.2872  0.2227
 1279SOL    HW115299   3.746   0.853   2.992 -1.5390  3.7514 -0.6372
 1279SOL    HW215300   3.659   0.920   3.080 -0.7305 -1.8313  1.1564
 1280SOL     OW15301   4.350   3.493   7.438 -0.1183 -0.0479 -0.5664
 1280SOL    HW115302   4.438   3.528   7.449  0.2698 -1.2303  0.1353
 1280SOL    HW215303   4.343   3.417   7.495 -2.2061  0.8005  0.3089
 1281SOL     OW15304   2.494   1.590   5.546 -0.0362  0.0392 -0.7809
 1281SOL    HW115305   2.418   1.578   5.489 -1.3298 -1.3540  1.1974
 1281SOL    HW215306   2.476   1.680   5.571  0.1488 -0.5599  1.5590
 1282SOL     OW15307   2.223   2.724  13.747  0.4550 -0.7912  0.6084
 1282SOL    HW115308   2.147   2.706  13.692  0.3111  1.4355  0.0766
 1282SOL    HW215309   2.262   2.638  13.766  1.3444 -0.7108 -0.8416
 1283SOL     OW15310   0.680   0.463   2.725 -0.1180 -0.2105  0.5553
 1283SOL    HW115311   0.747   0.420   2.672 -1.3853 -0.8209 -0.5614
 1283SOL    HW215312   0.668   0.538   2.667 -1.7146 -0.9551 -0.0763
 1284SOL     OW15313   2.187   3.807   2.826  0.1135  0.7691  0.1870
 1284SOL    HW115314   2.172   3.877   2.890  1.3304  0.6088  0.6443
 1284SOL    HW215315   2.107   3.756   2.842  0.3933  0.3612  0.2879
 1285SOL     OW15316   2.288   4.440   8.165  0.1447  0.2035 -0.5099
 1285SOL    HW115317   2.374   4.403   8.146  0.0188 -0.6039  0.4894
 1285SOL    HW215318   2.319   4.489   8.242  1.5367 -0.7751 -0.4476
 1286SOL     OW15319   2.369   2.736  14.753  0.0544  0.2344 -0.0242
 1286SOL    HW115320   2.340   2.753  14.843 -0.7434 -0.4985 -0.1389
 1286SOL    HW215321   2.457   2.770  14.766 -0.1622  1.6234 -2.1546
 1287SOL     OW15322   2.884   4.050  12.163  0.6118 -0.3630 -0.4032
 1287SOL    HW115323   2.797   4.088  12.149  1.0873  1.0142  0.3912
 1287SOL    HW215324   2.866   3.965  12.204 -0.8308  0.7328  1.2698
 1288SOL     OW15325   3.381   3.102   7.449  0.3121 -0.2881 -0.6196
 1288SOL    HW115326   3.393   3.084   7.355 -0.3372  0.4724 -0.8375
 1288SOL    HW215327   3.290   3.084   7.472  0.6171  0.0844  0.8832
 1289SOL     OW15328   1.946   4.089   6.313 -0.2819  0.2673 -0.3564
 1289SOL    HW115329   2.011   4.126   6.252  1.5662  0.1290  1.5493
 1289SOL    HW215330   1.924   4.003   6.277 -1.0164  0.9206 -1.4763
 1290SOL     OW15331   2.731   0.518   4.926 -0.1604 -0.1040 -0.1341
 1290SOL    HW115332   2.760   0.551   4.841 -1.7846 -0.0113 -0.6537
 1290SOL    HW215333   2.790   0.442   4.933 -0.1335 -0.1478 -0.8166
 1291SOL     OW15334   2.856   0.933  11.665 -0.4858 -0.0793  0.2535
 1291SOL    HW115335   2.871   0.855  11.611  0.1095 -0.8349  1.4965
 1291SOL    HW215336   2.923   0.920  11.733  0.8384 -0.3045 -1.0884
 1292SOL     OW15337   3.344   3.883   4.995  0.0288  0.1459  0.1235
 1292SOL    HW115338   3.357   3.901   4.902  2.4488  0.7952  0.5873
 1292SOL    HW215339   3.267   3.829   5.011 -2.4780  2.8210 -2.8953
 1293SOL     OW15340   2.681   4.709   0.493  0.4127  0.0264  0.1812
 1293SOL    HW115341   2.712   4.673   0.410  0.1630  0.6297 -0.1737
 1293SOL    HW215342   2.714   0.078   0.490 -0.8102  0.5584  2.5591
 1294SOL     OW15343   4.134   4.699   7.805 -0.1752 -0.3225 -0.2601
 1294SOL    HW115344   4.147   4.622   7.860 -0.0603 -0.2650 -0.2057
 1294SOL    HW215345   4.194   4.675   7.734  0.2260  1.2980 -0.4671
 1295SOL     OW15346   2.479   4.224  10.582 -0.1407 -0.4765  0.7357
 1295SOL    HW115347   2.574   4.228  10.576 -0.1772 -1.1861 -0.3710
 1295SOL    HW215348   2.464   4.259  10.494 -0.6736  1.3113  1.5421
 1296SOL     OW15349   4.494   0.677  12.035 -0.0357 -0.6057  0.9225
 1296SOL    HW115350   4.491   0.698  11.942 -2.7781  1.5707  1.5251
 1296SOL    HW215351   4.441   0.597  12.036  0.0848 -0.6965  0.2048
 1297SOL     OW15352   3.802   3.138   5.984 -0.1043  0.2202  0.5350
 1297SOL    HW115353   3.844   3.203   6.041  0.1399  0.0767  0.5193
 1297SOL    HW215354   3.849   3.160   5.903 -0.9727  0.7704  0.1866
 1298SOL     OW15355   1.149   1.480  15.229  0.2848  0.0661 -0.0718
 1298SOL    HW115356   1.211   1.415  15.261  0.9695  0.3315 -0.8798
 1298SOL    HW215357   1.194   1.551  15.275  0.5958  0.2521 -0.6647
 1299SOL     OW15358   0.241   0.960   7.748  0.1325  0.1145 -0.4451
 1299SOL    HW115359   0.283   1.046   7.743  0.3804  0.0053 -0.1527
 1299SOL    HW215360   0.199   0.950   7.662  3.0258 -1.3561 -1.6606
 1300SOL     OW15361   1.862   2.932   9.471  0.5391 -0.0646  0.0743
 1300SOL    HW115362   1.928   2.945   9.539  1.7420 -0.6704 -0.9948
 1300SOL    HW215363   1.871   3.012   9.420  1.5964 -0.6993 -0.7318
 1301SOL     OW15364   1.699   4.581   4.071  0.1349 -0.1580 -0.2672
 1301SOL    HW115365   1.770   4.585   4.134 -0.3383  1.4287  0.1561
 1301SOL    HW215366   1.751   4.637   4.013  0.1987  0.2646  0.2075
 1302SOL     OW15367   0.468   3.549   8.554 -0.0156  0.0463 -0.1841
 1302SOL    HW115368   0.488   3.462   8.589  0.9313  1.1433  1.9886
 1302SOL    HW215369   0.501   3.597   8.630  0.6409  1.8107 -1.6041
 1303SOL     OW15370   2.124   2.373   3.916 -0.2033  0.2442 -0.3211
 1303SOL    HW115371   2.103   2.465   3.900  0.4771  0.5225  0.3655
 1303SOL    HW215372   2.067   2.322   3.858 -1.2712 -0.5725  1.4453
 1304SOL     OW15373   2.207   4.720   9.327 -0.3231  0.0724 -0.1540
 1304SOL    HW115374   2.300   4.711   9.347  0.0297 -0.7432 -2.1784
 1304SOL    HW215375   2.206   0.094   9.312  1.7949 -0.0265 -0.9437
 1305SOL     OW15376   3.300   2.240   6.281 -0.3053 -0.4575  0.4457
 1305SOL    HW115377   3.230   2.193   6.236 -0.6925 -0.7619  1.3594
 1305SOL    HW215378   3.369   2.181   6.252 -1.2087 -1.3631  0.1522
 1306SOL     OW15379   4.654   4.203   8.927 -0.0454 -0.0418  0.1625
 1306SOL    HW115380   4.631   4.217   9.019 -0.4132 -0.4960  0.1341
 1306SOL    HW215381   0.028   4.215   8.917 -0.1185 -0.7083 -1.3201
 1307SOL     OW15382   4.594   3.626   5.139 -0.3456 -0.2997  0.7333
 1307SOL    HW115383   4.521   3.631   5.077  0.6372  2.7419 -0.1747
 1307SOL    HW215384   4.578   3.693   5.205  0.7477  0.9135 -0.2312
 1308SOL     OW15385   2.975   3.377   5.375  0.3223  0.2399 -0.3619
 1308SOL    HW115386   3.057   3.333   5.355 -0.5417 -0.4670 -2.3911
 1308SOL    HW215387   2.939   3.312   5.435  0.5330  0.6148  0.1641
 1309SOL     OW15388   2.928   3.489   4.403  0.0775 -0.0625  0.1502
 1309SOL    HW115389   2.922   3.464   4.495  0.1554 -2.5364 -0.5418
 1309SOL    HW215390   2.834   3.495   4.386 -0.1357 -0.6995  1.0970
 1310SOL     OW15391   1.810   0.359   4.403 -0.8226  0.3735  0.3506
 1310SOL    HW115392   1.749   0.297   4.363 -1.4796  0.7771  0.7247
 1310SOL    HW215393   1.796   0.434   4.346 -1.2062 -0.1682 -0.2645
 1311SOL     OW15394   3.962   3.081   7.296 -0.1437  0.4572  0.0770
 1311SOL    HW115395   3.892   3.139   7.267 -1.2982 -1.0339 -0.0994
 1311SOL    HW215396   3.938   3.063   7.387  1.2009  0.7182  0.4797
 1312SOL     OW15397   4.105   0.063   9.220  0.1163 -0.7548 -0.2051
 1312SOL    HW115398   4.065   0.111   9.147 -0.0431  1.3424  1.2453
 1312SOL    HW215399   4.171   0.012   9.173  0.6016  1.7317 -2.1917
 1313SOL     OW15400   0.488   4.156   7.527  0.0945  0.6154  0.0215
 1313SOL    HW115401   0.566   4.198   7.564  1.2736 -1.1590 -0.4633
 1313SOL    HW215402   0.456   4.234   7.482 -0.3952 -0.4688 -1.5011
 1314SOL     OW15403   3.168   1.184  10.029 -0.3271 -0.0265  0.3850
 1314SOL    HW115404   3.251   1.231  10.031 -0.6661  0.5015  2.1318
 1314SOL    HW215405   3.215   1.101  10.019 -1.6969 -0.4324 -2.6826
 1315SOL     OW15406   0.210   2.448   9.528  0.2346  0.0752 -0.7339
 1315SOL    HW115407   0.184   2.370   9.576  0.7219  0.0143 -0.5718
 1315SOL    HW215408   0.304   2.434   9.527  0.3579  0.9160 -0.2672
 1316SOL     OW15409   4.516   4.199   6.057 -0.3373  0.2765  0.4530
 1316SOL    HW115410   4.428   4.172   6.083 -0.4883 -0.3301 -0.6734
 1316SOL    HW215411   4.494   4.246   5.977  0.1002 -0.0648  0.1306
 1317SOL     OW15412   1.112   0.404   6.623 -0.2020 -0.2787  0.1577
 1317SOL    HW115413   1.203   0.401   6.652 -0.1702  0.2863  0.1054
 1317SOL    HW215414   1.089   0.318   6.658  0.2043  0.1706  1.5203
 1318SOL     OW15415   1.507   3.958  13.492  0.5100 -0.1949 -0.5201
 1318SOL    HW115416   1.466   3.997  13.569 -0.7081  2.3584 -2.5026
 1318SOL    HW215417   1.440   3.907  13.447 -0.0287 -1.1666  1.3513
 1319SOL     OW15418   1.021   3.877   7.418 -0.2849  0.1335  0.3002
 1319SOL    HW115419   1.111   3.871   7.386 -0.3396  1.5767 -0.1051
 1319SOL    HW215420   1.030   3.819   7.493 -0.1173  0.4662  0.5373
 1320SOL     OW15421   1.904   3.304   0.897  0.4692 -0.2307  0.0406
 1320SOL    HW115422   1.936   3.334   0.812 -1.0095  2.4897  0.4305
 1320SOL    HW215423   1.982   3.254   0.919  1.8570  2.4033  1.0645
 1321SOL     OW15424   2.124   4.121   6.598 -0.0309 -0.4798 -0.5131
 1321SOL    HW115425   2.177   4.193   6.631 -1.4470  0.1659  0.3476
 1321SOL    HW215426   2.139   4.115   6.503  1.2590 -0.4427 -0.3045
 1322SOL     OW15427   1.071   0.630  10.631  0.3789 -0.0333 -0.0598
 1322SOL    HW115428   1.018   0.703  10.662  0.4404 -0.0421  0.0671
 1322SOL    HW215429   1.086   0.588  10.716 -0.6158 -1.1911 -0.4611
 1323SOL     OW15430   2.674   2.272   7.209  0.9690 -0.4499 -0.1475
 1323SOL    HW115431   2.661   2.305   7.298  0.8149 -0.8510 -0.0231
 1323SOL    HW215432   2.769   2.266   7.198  1.0384  0.4261 -0.0047
 1324SOL     OW15433   4.149   1.730   4.792 -0.1370 -0.0172  0.1093
 1324SOL    HW115434   4.190   1.803   4.840  2.8673 -1.5061 -0.2027
 1324SOL    HW215435   4.060   1.765   4.791  0.5742  1.8232  0.7745
 1325SOL     OW15436   0.678   3.950   4.260 -0.0165 -0.4217 -0.1414
 1325SOL    HW115437   0.761   3.916   4.291  0.1790 -0.8378 -1.1378
 1325SOL    HW215438   0.634   3.984   4.338  1.7258  2.1588 -0.2758
 1326SOL     OW15439   0.753   1.033  12.256 -0.2290  0.1997 -0.5326
 1326SOL    HW115440   0.659   1.030  12.270 -0.2111  0.6230 -0.2970
 1326SOL    HW215441   0.764   1.128  12.266  0.5211 -0.1239  1.6185
 1327SOL     OW15442   1.081   0.966   8.658 -0.1186 -0.1902  0.3514
 1327SOL    HW115443   1.089   1.057   8.631 -3.2333 -0.3213 -1.0333
 1327SOL    HW215444   1.051   0.934   8.573  0.1975 -0.1574  0.2278
 1328SOL     OW15445   2.463   3.031   4.872  0.3744  0.7866  0.1311
 1328SOL    HW115446   2.399   3.100   4.852 -0.3140 -0.9065 -3.5018
 1328SOL    HW215447   2.428   2.990   4.952 -0.8876 -2.2621 -1.9850
 1329SOL     OW15448   2.723   3.612   4.869 -0.2672  0.5257  0.0958
 1329SOL    HW115449   2.727   3.657   4.953  0.1165  1.1792 -0.2736
 1329SOL    HW215450   2.746   3.526   4.902 -1.9173 -0.5570 -1.5447
 1330SOL     OW15451   3.937   1.239   8.535  0.4050 -0.4177 -0.0697
 1330SOL    HW115452   3.953   1.241   8.630  4.6156  0.2862 -0.8145
 1330SOL    HW215453   3.850   1.280   8.537  0.3716 -0.5338  0.9591
 1331SOL     OW15454   1.650   3.422  12.162  0.2574  0.1086 -0.1416
 1331SOL    HW115455   1.686   3.387  12.081  0.1277 -1.1863  0.3642
 1331SOL    HW215456   1.621   3.340  12.202 -1.3330  1.5572  1.6906
 1332SOL     OW15457   1.810   1.137   9.112  0.1629  0.3191 -0.5439
 1332SOL    HW115458   1.851   1.220   9.093  0.6566  0.3018  0.4339
 1332SOL    HW215459   1.891   1.086   9.113 -0.2354 -0.3744 -2.7420
 1333SOL     OW15460   4.043   3.575  12.508 -0.2252 -0.0217  0.2612
 1333SOL    HW115461   4.122   3.528  12.480 -1.4839 -1.6272 -0.5562
 1333SOL    HW215462   3.978   3.526  12.458 -1.1128  0.1011  1.2842
 1334SOL     OW15463   2.386   0.220  10.354  0.0811 -0.5273  0.6603
 1334SOL    HW115464   2.333   0.192  10.280  1.2637  1.1963 -0.8242
 1334SOL    HW215465   2.325   0.209  10.427 -1.1489 -0.6047 -0.3856
 1335SOL     OW15466   4.455   4.483   5.293  0.2559 -0.0314  0.2342
 1335SOL    HW115467   4.514   4.475   5.368  1.8473  1.5379 -0.8537
 1335SOL    HW215468   4.472   4.572   5.263  2.1495  0.0347  1.4519
 1336SOL     OW15469   3.214   1.582   4.425  0.1848  0.6221  0.2821
 1336SOL    HW115470   3.157   1.625   4.490 -0.9079 -0.4656  0.0406
 1336SOL    HW215471   3.148   1.555   4.362  0.3916  0.8984 -0.0515
 1337SOL     OW15472   4.131   0.500  14.704  1.2688 -0.4292  0.5628
 1337SOL    HW115473   4.045   0.529  14.733  1.7276  0.8281  0.6373
 1337SOL    HW215474   4.109   0.455  14.622  0.5159 -0.5933  0.8569
 1338SOL     OW15475   4.342   3.320   4.364 -0.2252  1.4037  0.3806
 1338SOL    HW115476   4.277   3.284   4.424  1.9512 -1.3472  1.1191
 1338SOL    HW215477   4.291   3.327   4.283 -0.8216  1.8874  0.8039
 1339SOL     OW15478   3.907   1.001  15.225 -0.5238 -0.3455 -0.3566
 1339SOL    HW115479   3.959   1.012  15.145  0.2434 -0.6256  0.1042
 1339SOL    HW215480   3.847   1.075  15.220  1.5942  1.5227  2.0299
 1340SOL     OW15481   0.902   1.120   8.157 -0.3620  0.1686 -0.8914
 1340SOL    HW115482   0.825   1.115   8.213 -0.7786  0.4389 -1.4514
 1340SOL    HW215483   0.865   1.107   8.070  1.4898 -0.8332 -1.5406
 1341SOL     OW15484   1.625   3.799  12.788  0.5254 -0.4702 -0.5648
 1341SOL    HW115485   1.562   3.840  12.729  0.3058  1.3584  0.9320
 1341SOL    HW215486   1.669   3.878  12.820 -0.3987  1.0325 -2.9532
 1342SOL     OW15487   2.261   1.983  10.176 -0.0841 -0.1467  0.2165
 1342SOL    HW115488   2.212   1.907  10.145  0.6706 -0.0512 -1.2697
 1342SOL    HW215489   2.208   2.008  10.250 -1.0288 -0.3991 -0.3773
 1343SOL     OW15490   3.340   1.383   9.482 -0.0939  0.5447 -0.5688
 1343SOL    HW115491   3.369   1.334   9.559 -3.3015  1.0185  0.9602
 1343SOL    HW215492   3.410   1.360   9.421 -0.2890 -0.4706 -0.3931
 1344SOL     OW15493   2.150   3.918  12.418 -0.2552  0.3923  0.3129
 1344SOL    HW115494   2.087   3.947  12.484 -0.7102 -0.5427  0.2815
 1344SOL    HW215495   2.229   3.889  12.464 -0.8682 -2.0441 -0.1724
 1345SOL     OW15496   0.843   2.245   4.992 -0.2443 -0.5233 -0.0311
 1345SOL    HW115497   0.915   2.224   5.052 -0.8361  0.3227  0.9793
 1345SOL    HW215498   0.885   2.231   4.907 -0.6887  1.5623 -0.5791
 1346SOL     OW15499   3.504   0.608   7.811  0.2525  0.0225 -0.0404
 1346SOL    HW115500   3.437   0.548   7.778  0.4543 -0.7628  0.9800
 1346SOL    HW215501   3.451   0.659   7.872  1.4945  1.8304 -0.4997
 1347SOL     OW15502   0.902   1.464  15.333 -0.1486 -0.2885 -0.3362
 1347SOL    HW115503   0.995   1.480  15.315 -0.2187 -0.1106 -0.5460
 1347SOL    HW215504   0.877   1.439  15.244 -2.5424 -0.1565  0.3119
 1348SOL     OW15505   3.179   3.729   6.014 -0.0772  0.4892  0.1450
 1348SOL    HW115506   3.271   3.747   5.992  0.2304  0.0713  1.0885
 1348SOL    HW215507   3.140   3.777   5.941  0.4771 -1.3178 -1.3443
 1349SOL     OW15508   4.429   2.878   4.311 -0.1641  0.6464  0.7867
 1349SOL    HW115509   4.360   2.838   4.364  2.5645 -1.2979  2.8512
 1349SOL    HW215510   4.459   2.807   4.255  1.0266  0.7165  1.3254
 1350SOL     OW15511   4.196   4.694   7.309 -0.0000 -0.6026  0.7721
 1350SOL    HW115512   4.191   0.058   7.354  0.8785 -0.4187  0.5295
 1350SOL    HW215513   4.165   0.005   7.224 -2.0978  0.1300  1.8084
 1351SOL     OW15514   1.518   2.226   4.248 -0.2446  0.1088  0.3698
 1351SOL    HW115515   1.484   2.150   4.200  0.0127 -0.2256  0.7192
 1351SOL    HW215516   1.574   2.184   4.313 -0.1324  1.3529  1.0769
 1352SOL     OW15517   0.543   4.494   3.902  0.8067 -0.1280  0.1259
 1352SOL    HW115518   0.459   4.478   3.858 -0.0827  3.2966  0.5406
 1352SOL    HW215519   0.514   4.550   3.974 -0.4132 -0.0142 -0.4488
 1353SOL     OW15520   3.807   0.220  14.766 -0.0331  0.0273 -0.6376
 1353SOL    HW115521   3.822   0.148  14.704 -0.0735 -0.3898 -0.1589
 1353SOL    HW215522   3.717   0.195  14.785  0.4765 -1.5952 -0.3836
 1354SOL     OW15523   4.546   3.377   6.258 -0.8083 -0.1149 -0.4989
 1354SOL    HW115524   4.522   3.454   6.206  0.3890  1.2793  0.9630
 1354SOL    HW215525   4.541   3.416   6.346 -0.2041  1.3567 -1.1216
 1355SOL     OW15526   1.982   2.536   7.444 -0.2688 -0.1839  0.4207
 1355SOL    HW115527   1.889   2.515   7.433 -0.5132  0.5137  1.0953
 1355SOL    HW215528   2.019   2.536   7.356 -0.2800  1.1285  0.4043
 1356SOL     OW15529   0.169   3.905   4.990 -0.1329  0.2300  0.0758
 1356SOL    HW115530   0.231   3.858   4.934  0.6069  2.4968 -0.9729
 1356SOL    HW215531   0.147   3.840   5.058  2.4347 -1.6280 -0.8601
 1357SOL     OW15532   2.814   3.449   3.811  0.1484 -0.2047  0.1173
 1357SOL    HW115533   2.729   3.464   3.852  0.2605 -0.3302  0.3979
 1357SOL    HW215534   2.873   3.473   3.883 -3.3258  2.2671  2.1390
 1358SOL     OW15535   2.186   0.102   5.683  0.5982  0.1095  0.1103
 1358SOL    HW115536   2.097   0.092   5.650  0.2640  0.0204  1.0252
 1358SOL    HW215537   2.201   0.193   5.659 -1.8857  0.5133  0.0800
 1359SOL     OW15538   2.959   0.689  12.921  0.3932 -0.6938 -0.5391
 1359SOL    HW115539   2.868   0.664  12.942  0.2766 -2.7826 -3.6125
 1359SOL    HW215540   2.988   0.674  13.012  0.2569  0.7882 -0.2636
 1360SOL     OW15541   0.497   1.837   9.370  0.3806 -0.0883 -0.4683
 1360SOL    HW115542   0.591   1.818   9.367  0.7063  1.2711  1.3350
 1360SOL    HW215543   0.457   1.753   9.393 -0.3649  0.5641  0.6182
 1361SOL     OW15544   3.278   0.791   7.107  0.2040  0.8118  0.7748
 1361SOL    HW115545   3.213   0.775   7.038  1.8892 -0.3434 -0.5440
 1361SOL    HW215546   3.353   0.736   7.083  1.2176  2.2579  0.6418
 1362SOL     OW15547   0.735   4.689   3.491 -0.1082  0.3342  0.1450
 1362SOL    HW115548   0.792   4.710   3.565  1.3227 -0.6584 -0.6740
 1362SOL    HW215549   0.656   4.691   3.545 -1.2140 -3.6258 -1.3443
 1363SOL     OW15550   1.576   0.405   5.928  0.2435  0.4498  0.0137
 1363SOL    HW115551   1.612   0.316   5.923  2.2469  1.1465  2.2184
 1363SOL    HW215552   1.504   0.391   5.990 -0.3585 -1.4391 -1.1150
 1364SOL     OW15553   2.031   1.267   4.790 -0.0668  0.5210 -0.6397
 1364SOL    HW115554   1.958   1.235   4.738 -0.8850 -0.5882  1.1915
 1364SOL    HW215555   1.987   1.327   4.851 -0.4329  0.4177 -0.8049
 1365SOL     OW15556   1.780   2.079  13.594 -0.8087 -0.4144  0.3497
 1365SOL    HW115557   1.803   2.077  13.501  0.2840  1.4138  0.5913
 1365SOL    HW215558   1.685   2.083  13.583 -0.8519  2.6802  1.7634
 1366SOL     OW15559   3.612   3.701   6.523  0.0356  0.0577 -0.3630
 1366SOL    HW115560   3.674   3.662   6.585  0.1297  1.0485  0.1575
 1366SOL    HW215561   3.615   3.794   6.546 -0.8166 -0.2594  1.0193
 1367SOL     OW15562   1.916   0.210  10.160  0.1777  0.3150  0.8508
 1367SOL    HW115563   1.825   0.217  10.131 -0.3469 -0.1339  2.4204
 1367SOL    HW215564   1.911   0.227  10.254 -0.6668  0.2579  0.8129
 1368SOL     OW15565   1.002   4.187   8.633  0.2002  0.3941  0.3078
 1368SOL    HW115566   1.058   4.249   8.680  2.8246 -0.9169 -1.0639
 1368SOL    HW215567   1.052   4.106   8.649  0.0564  0.2792  0.1780
 1369SOL     OW15568   3.808   0.491   4.242  0.4677  0.4785  0.1491
 1369SOL    HW115569   3.801   0.425   4.311 -3.2014  1.1702  0.4357
 1369SOL    HW215570   3.717   0.521   4.241  0.0022 -0.8918  2.1703
 1370SOL     OW15571   2.077   4.457   3.944 -0.5879 -0.1387  0.2230
 1370SOL    HW115572   2.035   4.536   3.911 -1.5387 -0.2357  1.1966
 1370SOL    HW215573   2.013   4.391   3.917  0.7404 -1.5813  0.5897
 1371SOL     OW15574   2.154   2.175   4.740 -0.3368 -0.4544 -0.5891
 1371SOL    HW115575   2.240   2.134   4.751 -0.4160 -1.2057 -2.7163
 1371SOL    HW215576   2.174   2.244   4.677 -0.7228  2.2547  2.2506
 1372SOL     OW15577   1.756   1.784  14.393  0.0363  0.3828 -0.7728
 1372SOL    HW115578   1.816   1.804  14.464 -1.1553  0.8119  0.1269
 1372SOL    HW215579   1.726   1.695  14.414 -2.6913  1.4899  0.1011
 1373SOL     OW15580   2.048   2.274   6.499  0.0761 -0.3659  0.0103
 1373SOL    HW115581   2.142   2.287   6.486  0.4034 -2.5783  0.1962
 1373SOL    HW215582   2.023   2.244   6.412 -2.3707 -0.1204  0.6311
 1374SOL     OW15583   0.911   3.571   3.345 -0.3745 -0.1587  0.1227
 1374SOL    HW115584   0.840   3.615   3.391 -0.1880  1.1040 -0.7749
 1374SOL    HW215585   0.902   3.477   3.359 -2.3042  0.1399  0.9050
 1375SOL     OW15586   2.591   0.109   2.294 -0.0229 -0.1145 -0.0286
 1375SOL    HW115587   2.529   0.080   2.362 -1.9971  3.0691 -0.4590
 1375SOL    HW215588   2.657   0.140   2.356 -0.5802  0.8141  0.1082
 1376SOL     OW15589   0.050   1.761  13.259 -0.0784 -0.2922 -0.1778
 1376SOL    HW115590   0.084   1.850  13.249  0.5926 -0.5780 -0.4932
 1376SOL    HW215591   0.103   1.729  13.185 -2.3752  1.5664 -2.6114
 1377SOL     OW15592   1.697   4.056  12.394  0.1390 -0.2971 -0.0029
 1377SOL    HW115593   1.619   4.110  12.396 -0.4461 -1.2218  2.3348
 1377SOL    HW215594   1.711   4.037  12.301 -1.4135  1.7928 -0.6541
 1378SOL     OW15595   3.562   3.937   2.463  0.2546  0.8666  0.0691
 1378SOL    HW115596   3.473   3.918   2.493  0.9798 -3.1033 -0.2700
 1378SOL    HW215597   3.561   3.872   2.392 -2.0854  0.4319  0.5286
 1379SOL     OW15598   2.995   1.826   5.875 -0.3057 -0.5290 -0.1715
 1379SOL    HW115599   3.082   1.836   5.913 -0.9192  1.0181  0.8422
 1379SOL    HW215600   2.971   1.737   5.902 -3.6051  0.3090 -0.3236
 1380SOL     OW15601   2.876   2.662   3.935 -0.5436 -0.2352 -0.2169
 1380SOL    HW115602   2.855   2.756   3.929 -0.8973 -0.2871  0.2149
 1380SOL    HW215603   2.794   2.628   3.970 -0.3407  0.1827  0.6533
 1381SOL     OW15604   4.160   0.365   4.401  0.3101 -0.1363  0.1006
 1381SOL    HW115605   4.136   0.374   4.493  4.2893 -2.7683  1.4246
 1381SOL    HW215606   4.143   0.272   4.383 -0.2984 -0.0981  0.4955
 1382SOL     OW15607   3.546   0.791   6.608  0.0115  0.6746 -0.0882
 1382SOL    HW115608   3.528   0.726   6.676 -1.3500  0.4148 -0.7030
 1382SOL    HW215609   3.523   0.875   6.648 -0.1325  2.1378 -3.2787
 1383SOL     OW15610   1.712   3.949   8.172  0.0414 -0.0190 -0.1743
 1383SOL    HW115611   1.769   3.901   8.232 -0.6894 -2.1531 -1.1912
 1383SOL    HW215612   1.688   4.026   8.224  2.7233  0.1061  0.8364
 1384SOL     OW15613   1.703   0.383   7.145 -0.5376  0.2910 -0.1763
 1384SOL    HW115614   1.668   0.409   7.060 -0.7387  0.6879  0.0250
 1384SOL    HW215615   1.631   0.407   7.204  0.6109 -0.1328  1.4027
 1385SOL     OW15616   4.427   3.227   3.932 -0.1848  0.2581 -0.2474
 1385SOL    HW115617   4.482   3.296   3.969  1.9369 -1.6199  0.1609
 1385SOL    HW215618   4.483   3.204   3.858 -1.1046  1.2008 -1.2328
 1386SOL     OW15619   2.843   1.593   3.667  0.0530  0.4504 -0.4968
 1386SOL    HW115620   2.789   1.672   3.678  0.5044  0.7690 -0.6046
 1386SOL    HW215621   2.812   1.544   3.743  0.1046  3.1257  1.2691
 1387SOL     OW15622   4.562   4.166  13.452  0.0606  0.4098  0.1925
 1387SOL    HW115623   4.551   4.244  13.397  0.0981 -0.9483 -1.7663
 1387SOL    HW215624   4.507   4.096  13.415 -1.0391  1.3879 -0.0106
 1388SOL     OW15625   2.881   4.706   6.104  0.3487  0.2060  1.1160
 1388SOL    HW115626   2.937   0.061   6.085  0.4949  0.3141  1.9592
 1388SOL    HW215627   2.933   4.648   6.161  2.1752  1.1310  0.4142
 1389SOL     OW15628   0.137   2.611   1.417  0.5259  0.7199 -0.0111
 1389SOL    HW115629   0.102   2.526   1.443  1.9404  0.3154  0.6243
 1389SOL    HW215630   0.174   2.636   1.502 -1.7191 -2.2865  1.8572
 1390SOL     OW15631   3.463   1.604   8.714 -0.1457  0.2354  0.1896
 1390SOL    HW115632   3.387   1.662   8.709 -0.4810 -0.1872  0.3695
 1390SOL    HW215633   3.459   1.579   8.807  1.0866  0.3123  0.2668
 1391SOL     OW15634   2.934   1.277   7.719  0.0952  0.1353 -0.2617
 1391SOL    HW115635   3.008   1.322   7.760  2.7621 -3.7472 -0.8584
 1391SOL    HW215636   2.973   1.191   7.704  2.4592  0.8821  1.5156
 1392SOL     OW15637   2.906   1.648   7.916 -0.0108  0.3727  0.5726
 1392SOL    HW115638   2.924   1.710   7.845  2.7525 -2.7376 -1.4144
 1392SOL    HW215639   2.815   1.623   7.896  0.0270  0.9980 -0.3967
 1393SOL     OW15640   3.533   1.630  11.217 -0.0666  0.0059  0.3527
 1393SOL    HW115641   3.475   1.705  11.202 -0.0523  0.3923  2.1351
 1393SOL    HW215642   3.617   1.673  11.231  0.0689  0.4999 -2.1577
 1394SOL     OW15643   2.026   0.073   8.581 -0.0522 -0.1178  0.1480
 1394SOL    HW115644   2.058   0.004   8.523 -1.4158 -0.3955 -0.2623
 1394SOL    HW215645   2.114   0.100   8.610 -0.0012 -1.4739  1.2733
 1395SOL     OW15646   2.897   2.525   4.717 -0.1682 -0.9187 -0.0441
 1395SOL    HW115647   2.946   2.512   4.636 -1.2701  0.0256 -0.8468
 1395SOL    HW215648   2.940   2.472   4.785  0.1989  0.4970  0.8306
 1396SOL     OW15649   4.348   4.139   7.530 -0.4991 -0.3866  0.6400
 1396SOL    HW115650   4.274   4.128   7.589  0.4293 -0.8980  1.7323
 1396SOL    HW215651   4.380   4.225   7.559  0.3333 -1.0252  1.6190
 1397SOL     OW15652   1.544   1.228   9.632  0.1668 -0.2275 -0.4231
 1397SOL    HW115653   1.598   1.306   9.626 -0.7353  0.6509  2.3734
 1397SOL    HW215654   1.565   1.176   9.555 -0.0296 -0.6032 -0.2203
 1398SOL     OW15655   0.001   0.197  12.144 -0.3434  0.3908 -0.0444
 1398SOL    HW115656   0.089   0.210  12.107  0.1350 -1.0527  0.5895
 1398SOL    HW215657   4.682   0.144  12.075  0.4560 -0.8004  0.3974
 1399SOL     OW15658   0.749   0.231  12.971  0.4000  0.1018 -0.1627
 1399SOL    HW115659   0.776   0.300  13.031 -0.5479 -0.8314  1.3615
 1399SOL    HW215660   0.746   0.287  12.894 -0.2584 -1.0828 -0.9964
 1400SOL     OW15661   4.515   3.998   8.058 -0.3162 -0.9263  0.0766
 1400SOL    HW115662   4.574   4.065   8.024 -1.7762 -0.0349 -0.6602
 1400SOL    HW215663   4.462   4.039   8.126  0.0083 -1.7345  0.8179
 1401SOL     OW15664   3.384   4.366   6.923 -0.0149  1.2118  0.3845
 1401SOL    HW115665   3.476   4.355   6.900  0.0238 -0.3996  1.3083
 1401SOL    HW215666   3.351   4.340   6.837  1.9080  3.0359 -0.8987
 1402SOL     OW15667   0.427   3.541   8.857  0.2719 -0.3392  0.2296
 1402SOL    HW115668   0.366   3.603   8.819  0.9177  0.1329 -0.0323
 1402SOL    HW215669   0.456   3.584   8.938 -3.4108 -1.3593  2.0788
 1403SOL     OW15670   0.401   2.713   2.781  0.1024  0.1410 -0.3455
 1403SOL    HW115671   0.357   2.628   2.776  1.1239 -0.2809 -2.0772
 1403SOL    HW215672   0.476   2.705   2.723 -0.9358 -0.9515 -1.5413
 1404SOL     OW15673   2.730   0.406   4.191 -0.1290  0.1044 -0.4027
 1404SOL    HW115674   2.720   0.483   4.134 -0.0236  0.5320  0.1506
 1404SOL    HW215675   2.637   0.397   4.211  0.3583 -1.2748  1.2247
 1405SOL     OW15676   4.601   0.042  10.668 -0.0169 -0.0808  0.3950
 1405SOL    HW115677   4.632   0.002  10.749 -3.7570  0.6188  2.1752
 1405SOL    HW215678   4.510   0.061  10.688 -0.6274 -1.5743 -0.9815
 1406SOL     OW15679   1.626   0.409  13.109  0.4453  0.1342 -0.4854
 1406SOL    HW115680   1.707   0.364  13.085 -0.9683 -2.2275 -0.7755
 1406SOL    HW215681   1.549   0.357  13.086 -0.1012  0.8185 -0.1962
 1407SOL     OW15682   2.584   1.419   5.246 -0.0074  0.6110 -0.3570
 1407SOL    HW115683   2.536   1.339   5.268 -0.0387  0.6033 -0.4533
 1407SOL    HW215684   2.511   1.474   5.215  0.0876  0.9971  0.0916
 1408SOL     OW15685   3.527   1.944   5.067 -0.2106  0.3129 -0.0372
 1408SOL    HW115686   3.580   1.869   5.042 -0.4713  0.4374 -0.9846
 1408SOL    HW215687   3.556   2.017   5.012  0.3728 -0.3050 -0.5414
 1409SOL     OW15688   1.013   3.233   3.129 -0.2586  0.7838 -0.4399
 1409SOL    HW115689   0.985   3.261   3.216  1.4846  0.3110  0.2807
 1409SOL    HW215690   1.106   3.254   3.135 -0.5493  1.8475  0.4378
 1410SOL     OW15691   1.830   1.103   3.711 -0.3883  0.0240  0.2551
 1410SOL    HW115692   1.880   1.092   3.629 -0.7117 -1.1369  0.2153
 1410SOL    HW215693   1.793   1.191   3.705  2.2663  1.2076  1.0565
 1411SOL     OW15694   0.062   2.915   4.658  0.3049  0.5124  0.0897
 1411SOL    HW115695   0.049   2.884   4.568 -1.5653  2.1474 -0.2118
 1411SOL    HW215696   0.081   2.836   4.709 -1.5052 -0.1644 -0.2606
 1412SOL     OW15697   0.959   1.044   4.427  0.6704  0.4581  0.7147
 1412SOL    HW115698   0.963   1.130   4.385  0.8973 -0.4196 -1.0617
 1412SOL    HW215699   0.882   1.064   4.480 -1.0778  0.1322 -1.6964
 1413SOL     OW15700   4.097   3.707   3.185 -0.4664 -0.0441 -0.0828
 1413SOL    HW115701   4.182   3.751   3.188 -0.5186  0.2128 -2.6784
 1413SOL    HW215702   4.044   3.725   3.263 -2.0704  1.1694 -1.4739
 1414SOL     OW15703   3.921   4.640   7.227 -0.0780  0.0025  0.2011
 1414SOL    HW115704   3.983   4.620   7.156 -1.1462 -1.3265 -0.3630
 1414SOL    HW215705   3.851   4.684   7.180  0.3281 -0.2093 -0.6083
 1415SOL     OW15706   1.991   0.437   7.643  0.1096  0.3208  0.1773
 1415SOL    HW115707   1.948   0.352   7.637  0.8431 -0.0382  0.0664
 1415SOL    HW215708   1.916   0.494   7.661 -0.4299 -0.2550 -0.2599
 1416SOL     OW15709   0.980   1.453  11.400  0.6736  0.4070  0.0377
 1416SOL    HW115710   1.042   1.409  11.342  1.5057  0.1181  1.1385
 1416SOL    HW215711   0.982   1.393  11.475  2.6783 -1.8476 -1.8100
 1417SOL     OW15712   3.843   4.348   6.642  0.0287 -0.0274  0.2455
 1417SOL    HW115713   3.908   4.402   6.688  0.7043 -1.1212  0.5648
 1417SOL    HW215714   3.903   4.279   6.615  2.2956  1.8606  0.5046
 1418SOL     OW15715   3.135   3.424   4.905 -0.1633 -0.3510 -0.5752
 1418SOL    HW115716   3.108   3.486   4.972 -0.5646 -0.4838 -0.6127
 1418SOL    HW215717   3.230   3.436   4.899 -0.2402 -0.1456 -1.4039
 1419SOL     OW15718   0.201   0.334   7.196  0.0485  0.0986 -0.3837
 1419SOL    HW115719   0.224   0.388   7.121  0.3877 -1.0241 -1.0854
 1419SOL    HW215720   0.111   0.354   7.223  0.1679  1.6698 -1.1252
 1420SOL     OW15721   2.344   2.744   4.112 -0.1835  0.1847  1.0991
 1420SOL    HW115722   2.344   2.786   4.026  1.7753  0.0042  1.0123
 1420SOL    HW215723   2.268   2.686   4.103  0.2546 -0.0862 -0.9146
 1421SOL     OW15724   4.690   3.353   4.026  0.3493 -0.1015  0.2419
 1421SOL    HW115725   0.060   3.355   3.996 -0.3959  0.0844 -1.9991
 1421SOL    HW215726   4.679   3.444   4.052  1.1450 -0.2362  1.0452
 1422SOL     OW15727   4.172   2.064   3.242  0.2510 -0.3471  0.4693
 1422SOL    HW115728   4.158   2.097   3.331 -0.8678  0.5996 -0.0496
 1422SOL    HW215729   4.139   2.139   3.192 -1.7211 -0.0868  2.1389
 1423SOL     OW15730   1.125   4.397  15.358  0.5557 -0.5187  0.7442
 1423SOL    HW115731   1.161   4.469  15.410 -0.0788  0.2325  0.1393
 1423SOL    HW215732   1.049   4.383  15.414 -0.4375 -0.1632 -0.5251
 1424SOL     OW15733   4.627   0.350   6.907  0.1700 -0.3702 -0.3622
 1424SOL    HW115734   0.001   0.339   6.901  0.3449  0.2384  1.4267
 1424SOL    HW215735   4.603   0.390   6.823  0.9584  1.7741  0.4274
 1425SOL     OW15736   3.762   2.291   2.992  0.0074  0.3515  0.5294
 1425SOL    HW115737   3.707   2.358   3.032 -0.0274 -0.5766  2.0319
 1425SOL    HW215738   3.718   2.272   2.909  1.3160 -0.4442  0.0153
 1426SOL     OW15739   3.807   2.922   5.189 -0.1887 -0.4853 -0.3579
 1426SOL    HW115740   3.763   2.884   5.113 -0.7561  2.5044 -1.5539
 1426SOL    HW215741   3.734   2.976   5.220 -1.1695 -1.3637 -1.1469
 1427SOL     OW15742   1.021   4.200   9.659  0.3751  0.1712  0.2348
 1427SOL    HW115743   1.112   4.213   9.686  0.3263  1.9571 -0.4955
 1427SOL    HW215744   0.990   4.290   9.649  1.4292  0.7212  1.8881
 1428SOL     OW15745   3.356   3.459   0.580  0.0218 -0.6180 -0.4481
 1428SOL    HW115746   3.401   3.375   0.577  0.4545 -0.3639 -1.1567
 1428SOL    HW215747   3.281   3.430   0.632 -1.1069  2.6600 -0.2125
 1429SOL     OW15748   3.599   1.372   4.131  0.3516 -0.2972  0.3929
 1429SOL    HW115749   3.677   1.360   4.186 -0.7918 -2.7107  1.5284
 1429SOL    HW215750   3.607   1.300   4.068 -0.1483  1.3563 -1.5458
 1430SOL     OW15751   0.199   4.237   3.009 -0.2479  0.3885 -0.0629
 1430SOL    HW115752   0.149   4.194   3.078 -0.6499 -2.2509 -2.0163
 1430SOL    HW215753   0.177   4.330   3.023 -2.2250 -0.1455  0.4119
 1431SOL     OW15754   2.838   1.694  16.373  0.3334  0.0258  0.1744
 1431SOL    HW115755   2.788   1.692  16.455 -1.4077  0.0324 -0.8842
 1431SOL    HW215756   2.765   1.711  16.314  0.0871  1.9577  1.0424
 1432SOL     OW15757   4.684   4.561   6.516 -0.0042 -0.3497 -0.1749
 1432SOL    HW115758   4.596   4.522   6.514 -0.6602  1.1596 -0.3156
 1432SOL    HW215759   4.669   4.627   6.449  2.6672 -0.6615 -1.0791
 1433SOL     OW15760   1.533   0.503   7.547  0.0179 -0.5493  0.2982
 1433SOL    HW115761   1.595   0.442   7.508  0.6887 -1.6972  3.1107
 1433SOL    HW215762   1.517   0.460   7.631  1.8365 -0.0269  0.9063
 1434SOL     OW15763   3.361   0.361   7.160 -0.5593 -0.3655 -0.4396
 1434SOL    HW115764   3.274   0.322   7.171 -1.2855  1.1623 -0.7834
 1434SOL    HW215765   3.384   0.331   7.072  2.5205 -0.9167  0.5838
 1435SOL     OW15766   4.064   1.211   0.580 -0.0201  0.1265 -0.3628
 1435SOL    HW115767   4.108   1.247   0.657 -0.0851 -0.9911  0.2057
 1435SOL    HW215768   4.113   1.243   0.504 -0.2894  0.9293 -0.1993
 1436SOL     OW15769   0.426   0.987  14.929 -0.2447  0.4538 -0.8657
 1436SOL    HW115770   0.387   1.071  14.955  2.1853  1.0906  0.6740
 1436SOL    HW215771   0.349   0.931  14.936 -0.4358  0.8026 -0.1403
 1437SOL     OW15772   0.372   3.096  17.188 -0.3201 -0.2336  0.2575
 1437SOL    HW115773   0.463   3.066  17.196 -0.8482 -1.4388  1.7949
 1437SOL    HW215774   0.374   3.173  17.245  0.0191 -0.1481  0.1315
 1438SOL     OW15775   3.650   2.906   2.913  0.0247  0.3325 -0.1871
 1438SOL    HW115776   3.732   2.954   2.897  0.2759  0.3359  1.1372
 1438SOL    HW215777   3.579   2.970   2.908 -1.7172 -1.6636 -1.1694
 1439SOL     OW15778   1.849   0.158   5.443  0.6838  0.1641  0.0731
 1439SOL    HW115779   1.831   0.148   5.536  3.6328 -1.3645  0.4713
 1439SOL    HW215780   1.890   0.245   5.447 -0.8184  0.8426  0.6449
 1440SOL     OW15781   4.605   0.674   8.390 -0.1553  0.6140 -0.4621
 1440SOL    HW115782   4.515   0.698   8.368  0.4221  0.6068 -2.8460
 1440SOL    HW215783   4.624   0.625   8.309  0.5140 -0.2516  0.2242
 1441SOL     OW15784   3.583   1.409   7.606  0.8596 -0.6408 -0.3133
 1441SOL    HW115785   3.573   1.315   7.591  0.5805 -0.9727  1.9001
 1441SOL    HW215786   3.500   1.428   7.650  1.7262  0.5671  0.8286
 1442SOL     OW15787   2.701   3.687   2.339 -0.2162  0.3680  0.1217
 1442SOL    HW115788   2.729   3.731   2.419  1.7524 -1.1000  0.2462
 1442SOL    HW215789   2.764   3.616   2.328 -1.1080  0.1725 -3.5967
 1443SOL     OW15790   0.153   1.267  12.746  0.0960  0.3508  0.7116
 1443SOL    HW115791   0.229   1.326  12.742  0.8666 -0.7557 -1.0276
 1443SOL    HW215792   0.105   1.318  12.811 -1.2533 -0.1141  0.0765
 1444SOL     OW15793   4.055   0.230   2.631  0.5300  0.0981  0.3620
 1444SOL    HW115794   4.097   0.217   2.546 -1.1783  0.8441 -0.6057
 1444SOL    HW215795   4.123   0.199   2.692 -0.3480  0.8636  1.7382
 1445SOL     OW15796   1.594   1.399   3.437 -0.0434 -0.2375 -0.0691
 1445SOL    HW115797   1.511   1.433   3.405 -0.1571 -1.6406 -1.2591
 1445SOL    HW215798   1.652   1.432   3.368 -0.6448  1.0400  0.0417
 1446SOL     OW15799   1.533   3.494   2.639 -0.0089  0.1533 -0.2145
 1446SOL    HW115800   1.616   3.497   2.687 -0.2694 -0.3521  0.2605
 1446SOL    HW215801   1.539   3.411   2.593 -2.4524  1.2061 -2.3952
 1447SOL     OW15802   2.899   2.954   1.558  0.0821  0.0897 -0.5319
 1447SOL    HW115803   2.986   2.916   1.566  0.5914  1.6789  1.5882
 1447SOL    HW215804   2.891   2.969   1.463  0.3948  1.3535 -0.3630
 1448SOL     OW15805   1.750   1.944  17.358  0.1266  0.0419 -0.4814
 1448SOL    HW115806   1.827   1.892  17.380  1.9908  2.1535 -2.0184
 1448SOL    HW215807   1.779   1.956  17.268 -0.6393  2.4942 -0.3973
 1449SOL     OW15808   4.302   2.896   0.279  0.2510  0.6981  0.4465
 1449SOL    HW115809   4.317   2.988   0.256 -3.3564  0.2645 -3.7915
 1449SOL    HW215810   4.252   2.867   0.202 -0.9269  0.1194  1.4278
 1450SOL     OW15811   0.824   3.606   6.540 -0.0375 -0.0791 -0.3922
 1450SOL    HW115812   0.748   3.576   6.490  0.8558 -1.3551 -0.9947
 1450SOL    HW215813   0.890   3.611   6.470 -0.1087 -0.9995 -0.5191
 1451SOL     OW15814   0.152   4.440   1.436 -0.1198 -0.8837  0.0838
 1451SOL    HW115815   0.097   4.515   1.459 -1.0890 -1.9130  1.1843
 1451SOL    HW215816   0.232   4.477   1.400 -0.5552  0.3897  0.4334
 1452SOL     OW15817   4.679   2.141   7.245  0.2557  0.2113  0.4041
 1452SOL    HW115818   4.651   2.051   7.228 -1.2093  0.7374  0.0411
 1452SOL    HW215819   4.653   2.152   7.336  0.3861 -0.2002  0.4869
 1453SOL     OW15820   2.099   4.031   0.517 -0.1194  0.0628  0.2757
 1453SOL    HW115821   2.178   4.027   0.571  2.0989  1.4593 -2.8949
 1453SOL    HW215822   2.134   4.014   0.430 -0.5753  0.4192  0.0196
 1454SOL     OW15823   2.214   2.455   3.593  0.0459  0.0818 -0.1798
 1454SOL    HW115824   2.208   2.359   3.592  0.5096  0.0417  0.8727
 1454SOL    HW215825   2.295   2.458   3.543  2.3106  0.7771  3.5323
 1455SOL     OW15826   0.845   2.396  11.425  0.4099  0.0090 -0.2032
 1455SOL    HW115827   0.757   2.376  11.393  0.9919 -0.4132 -1.5334
 1455SOL    HW215828   0.820   2.446  11.502 -1.5142 -2.4094  0.7541
 1456SOL     OW15829   0.086   3.352  17.398 -0.3094  0.0268 -0.3010
 1456SOL    HW115830   0.020   3.346  17.329  1.5290  0.9025 -2.1331
 1456SOL    HW215831   0.051   3.434  17.432  3.4440  1.5771 -0.1127
 1457SOL     OW15832   0.166   2.447   0.912 -0.2345  0.5173  0.2265
 1457SOL    HW115833   0.192   2.409   0.996  1.1860 -0.4588 -0.6475
 1457SOL    HW215834   0.071   2.435   0.918 -0.3511  1.0292 -0.5726
 1458SOL     OW15835   0.057   4.150   2.203 -0.2441 -0.2384 -0.2967
 1458SOL    HW115836   0.022   4.061   2.200  0.9260 -0.7947  1.9943
 1458SOL    HW215837   0.038   4.154   2.297 -1.9000  0.9510 -0.6810
 1459SOL     OW15838   1.168   1.354   7.802  0.1320  0.0585 -0.0552
 1459SOL    HW115839   1.158   1.408   7.723  0.8486  1.0052  0.5099
 1459SOL    HW215840   1.085   1.306   7.796  0.0936  0.1240 -0.0415
 1460SOL     OW15841   2.021   3.934   3.811  0.8902 -0.7197  0.7225
 1460SOL    HW115842   2.047   4.007   3.867  0.5605  0.2610 -0.4231
 1460SOL    HW215843   1.929   3.954   3.799  1.3967  0.3571 -1.3351
 1461SOL     OW15844   0.763   2.414   4.517  0.0568  1.0722  0.2288
 1461SOL    HW115845   0.683   2.465   4.529 -0.8678 -0.6153  1.2231
 1461SOL    HW215846   0.804   2.459   4.443  2.0965  0.7676  1.1683
 1462SOL     OW15847   1.892   1.318  10.694 -0.0768  0.2677  0.5662
 1462SOL    HW115848   1.921   1.269  10.771  1.6223  2.6571  1.4769
 1462SOL    HW215849   1.902   1.254  10.624 -2.8916  0.3882  0.0898
 1463SOL     OW15850   0.221   0.314   1.515 -0.1276 -0.0388  0.4626
 1463SOL    HW115851   0.296   0.336   1.460 -1.3158  0.3838 -0.9674
 1463SOL    HW215852   0.152   0.345   1.457  0.8928  1.0996 -0.1378
 1464SOL     OW15853   1.431   3.179   7.353  0.1443  1.0263  0.2043
 1464SOL    HW115854   1.419   3.100   7.407  2.2714  0.7264  0.2645
 1464SOL    HW215855   1.444   3.237   7.428  0.7353  2.1041 -0.7314
 1465SOL     OW15856   0.154   3.646   5.812 -0.0473  0.0648  0.9032
 1465SOL    HW115857   0.210   3.705   5.864 -0.9694  1.2231  0.5746
 1465SOL    HW215858   0.182   3.676   5.725  1.2918 -2.8915  0.3227
 1466SOL     OW15859   4.525   0.026  12.359 -0.1688 -0.2742  0.4293
 1466SOL    HW115860   4.549   4.714  12.446  2.8893 -0.0679 -0.3458
 1466SOL    HW215861   4.490   4.664  12.325  2.0826 -0.1338 -2.1709
 1467SOL     OW15862   2.836   1.888   4.540  0.1535 -0.4921 -0.0111
 1467SOL    HW115863   2.907   1.950   4.522 -0.6392  0.7787  1.2113
 1467SOL    HW215864   2.812   1.854   4.454  1.1827 -1.2610  0.0137
 1468SOL     OW15865   4.574   3.538   2.371  0.4672 -0.0115 -0.2934
 1468SOL    HW115866   4.508   3.477   2.405  1.2730 -0.6826  0.0641
 1468SOL    HW215867   4.531   3.566   2.290 -0.0143  1.3080  0.4370
 1469SOL     OW15868   1.624   0.100   3.198  0.1723 -0.1769  0.2886
 1469SOL    HW115869   1.643   0.042   3.124  0.3414  1.8132 -1.2285
 1469SOL    HW215870   1.646   0.179   3.148 -0.1548 -0.0755  0.3040
 1470SOL     OW15871   4.496   2.711   7.108  0.0130  0.2119  0.4631
 1470SOL    HW115872   4.425   2.668   7.061  0.1178  1.1854 -0.5739
 1470SOL    HW215873   4.541   2.760   7.040  1.4819  1.7794  2.5644
 1471SOL     OW15874   1.611   0.774   8.970  0.3981  0.2751  0.6037
 1471SOL    HW115875   1.699   0.787   8.935  2.1116 -0.7808  4.5034
 1471SOL    HW215876   1.609   0.845   9.034  0.2230  0.6406  0.1917
 1472SOL     OW15877   1.208   3.259  14.712 -0.0748 -0.0713  0.2443
 1472SOL    HW115878   1.151   3.334  14.730 -0.8287 -0.5904  0.0497
 1472SOL    HW215879   1.282   3.275  14.770  0.3621  2.9078 -1.1200
 1473SOL     OW15880   1.031   1.573   7.932  0.0693 -0.2157  0.1739
 1473SOL    HW115881   1.066   1.603   8.016  0.5071  0.7041 -0.3363
 1473SOL    HW215882   1.094   1.512   7.893 -1.6959 -0.5259 -2.2069
 1474SOL     OW15883   2.070   2.415   9.546 -0.4282 -0.1982 -0.6066
 1474SOL    HW115884   2.085   2.336   9.494 -0.2412 -0.2728 -0.4398
 1474SOL    HW215885   2.040   2.386   9.632  1.1284  1.1020  0.3604
 1475SOL     OW15886   1.798   4.533   7.773  0.4582  0.3023  0.0039
 1475SOL    HW115887   1.760   4.447   7.787 -1.1616  1.2643  1.4492
 1475SOL    HW215888   1.890   4.510   7.761  1.3626  2.7887  2.1825
 1476SOL     OW15889   3.999   1.215   2.481 -0.0311 -0.6805  0.2674
 1476SOL    HW115890   3.907   1.223   2.507 -0.5163 -0.9088 -1.3607
 1476SOL    HW215891   4.025   1.300   2.447 -0.5904 -0.8363 -0.5495
 1477SOL     OW15892   1.387   0.340   9.538  0.3852 -0.8355 -0.1316
 1477SOL    HW115893   1.480   0.325   9.523  0.1937 -2.3017  0.1522
 1477SOL    HW215894   1.391   0.405   9.607  0.4924 -1.7206  0.6959
 1478SOL     OW15895   3.919   2.979   4.555 -0.1373  0.2200  0.3569
 1478SOL    HW115896   3.975   2.939   4.488 -1.4338  0.1104 -0.6516
 1478SOL    HW215897   3.889   2.892   4.581 -0.2535 -0.5664 -2.3334
 1479SOL     OW15898   0.982   3.449   1.599 -0.3640  0.7660 -0.3477
 1479SOL    HW115899   0.970   3.377   1.661  0.0630  2.0896  1.2819
 1479SOL    HW215900   0.981   3.411   1.511 -0.9567  1.0653 -0.4646
 1480SOL     OW15901   1.806   4.270   9.891  0.1872  0.5347 -0.9479
 1480SOL    HW115902   1.758   4.191   9.914  3.1811 -0.3372  2.4264
 1480SOL    HW215903   1.885   4.257   9.944 -1.7272 -0.3661  1.6197
 1481SOL     OW15904   0.580   0.482   6.459  0.1590  0.3151  0.5266
 1481SOL    HW115905   0.613   0.538   6.388 -1.3876  0.5588 -0.0174
 1481SOL    HW215906   0.665   0.445   6.482  0.1983 -0.4460 -0.8787
 1482SOL     OW15907   4.414   3.620  14.553 -0.0615  0.3182 -0.3609
 1482SOL    HW115908   4.449   3.708  14.569 -0.8130  0.7411 -1.0566
 1482SOL    HW215909   4.326   3.631  14.589 -0.4078  0.3861 -1.2154
 1483SOL     OW15910   3.208   2.952  17.403  0.1395 -0.5432  0.0538
 1483SOL    HW115911   3.196   2.857  17.400 -1.5700 -0.2634 -1.5306
 1483SOL    HW215912   3.251   2.968  17.320 -2.6139 -0.4004 -1.3407
 1484SOL     OW15913   2.821   2.497   3.161  0.0771  0.1078 -0.0658
 1484SOL    HW115914   2.727   2.484   3.176 -0.0795 -0.8189 -1.8479
 1484SOL    HW215915   2.829   2.526   3.071 -2.8240  3.0168  0.6276
 1485SOL     OW15916   4.446   0.148   5.889  0.0536 -0.0063 -0.6961
 1485SOL    HW115917   4.414   0.187   5.807 -0.1693 -1.3037 -1.2314
 1485SOL    HW215918   4.521   0.103   5.851  0.3952 -1.6224  1.9537
 1486SOL     OW15919   3.639   1.363  13.039 -0.1649 -0.0324  0.2732
 1486SOL    HW115920   3.733   1.349  13.032 -0.3811 -0.3177 -2.1523
 1486SOL    HW215921   3.617   1.311  13.116  1.5021 -1.6873 -0.3805
 1487SOL     OW15922   1.760   0.984  11.628  0.1596  0.6859  0.5373
 1487SOL    HW115923   1.816   1.056  11.600  0.5072  0.2891  0.2083
 1487SOL    HW215924   1.817   0.911  11.604 -1.8005 -0.1680 -1.5950
 1488SOL     OW15925   1.110   2.628  15.370 -0.1679 -0.2330 -0.4866
 1488SOL    HW115926   1.137   2.711  15.331  1.0540 -0.0206  0.8233
 1488SOL    HW215927   1.198   2.591  15.380  1.6134  4.5204  1.1098
 1489SOL     OW15928   0.641   0.545   9.023 -0.5545  0.0279  0.6240
 1489SOL    HW115929   0.728   0.568   9.053  1.2191 -1.9225 -3.0164
 1489SOL    HW215930   0.608   0.488   9.092 -0.8061 -1.5477 -0.7809
 1490SOL     OW15931   3.270   3.031   6.735  0.3003 -0.6945  0.7740
 1490SOL    HW115932   3.271   2.984   6.652  0.9784  0.2146  0.2565
 1490SOL    HW215933   3.283   2.961   6.799  0.7198 -0.7872  0.5855
 1491SOL     OW15934   0.078   3.135   8.804 -0.2139  0.4618 -0.2507
 1491SOL    HW115935   0.157   3.189   8.801 -1.4294  2.2691 -0.5636
 1491SOL    HW215936   0.062   3.114   8.712 -0.8331 -2.1460  0.4708
 1492SOL     OW15937   0.638   0.628   1.746 -0.2073  0.3740 -0.2879
 1492SOL    HW115938   0.671   0.551   1.792 -1.1049 -0.0719 -0.3908
 1492SOL    HW215939   0.613   0.683   1.820 -0.4898 -0.2228  0.0619
 1493SOL     OW15940   1.895   0.448  16.721 -0.3383 -0.1486 -0.4993
 1493SOL    HW115941   1.830   0.515  16.700  1.9455  2.3863  0.5114
 1493SOL    HW215942   1.978   0.493  16.737  0.0463 -0.4068 -1.7447
 1494SOL     OW15943   2.945   3.898   4.048  0.6635 -0.3297 -0.2441
 1494SOL    HW115944   2.975   3.829   4.108  0.7538  0.9746  1.2079
 1494SOL    HW215945   2.861   3.929   4.080  1.4849  2.2338 -0.5917
 1495SOL     OW15946   3.767   0.975  15.887 -0.0024  0.8270 -0.1827
 1495SOL    HW115947   3.857   0.960  15.859  0.4692  0.9217  1.2965
 1495SOL    HW215948   3.765   0.944  15.978 -2.7795 -1.9471 -1.1724
 1496SOL     OW15949   0.892   3.155   4.623  1.0143  0.2645  0.2524
 1496SOL    HW115950   0.887   3.215   4.548  1.0298 -1.6239 -1.2697
 1496SOL    HW215951   0.969   3.188   4.668 -0.7745  2.1920  1.9001
 1497SOL     OW15952   4.709   0.208  11.220 -0.6110  0.1940  0.0259
 1497SOL    HW115953   4.709   0.301  11.242  1.6142  0.2955 -0.4440
 1497SOL    HW215954   4.626   0.184  11.261 -0.7254 -0.7699 -0.7604
 1498SOL     OW15955   3.565   0.762   2.058 -0.5467  0.1823 -0.3311
 1498SOL    HW115956   3.599   0.740   1.972 -1.0345  2.3902 -1.0957
 1498SOL    HW215957   3.593   0.853   2.058  1.4622 -0.4434 -1.3074
 1499SOL     OW15958   3.625   0.591   8.210  0.3613 -0.2508  0.1294
 1499SOL    HW115959   3.634   0.655   8.139  1.0850  0.4252  0.8232
 1499SOL    HW215960   3.708   0.543   8.200 -0.6402 -1.7460 -0.9794
 1500SOL     OW15961   1.735   4.207   9.256  0.5180 -0.2936  0.1526
 1500SOL    HW115962   1.686   4.127   9.275  0.3973 -0.5065 -1.0522
 1500SOL    HW215963   1.753   4.240   9.344 -0.1394  0.3955  0.0216
 1501SOL     OW15964   2.725   0.791   5.322  0.7949 -0.2040  0.0838
 1501SOL    HW115965   2.664   0.839   5.378  1.4235 -1.4594  1.8462
 1501SOL    HW215966   2.750   0.722   5.383  0.2712  0.7469  1.3601
 1502SOL     OW15967   1.949   1.612   9.935 -0.0728  0.3288 -0.5960
 1502SOL    HW115968   1.887   1.653   9.996 -0.6558  0.4076 -1.2417
 1502SOL    HW215969   1.949   1.523   9.971 -1.9587  0.2162 -0.8641
 1503SOL     OW15970   4.471   0.857   2.581  0.0301 -0.5182  0.2118
 1503SOL    HW115971   4.437   0.943   2.556  1.5156 -0.2535 -0.8732
 1503SOL    HW215972   4.393   0.803   2.575 -2.0042  2.2346  1.8467
 1504SOL     OW15973   2.836   3.074  16.258  0.3407 -0.3675  0.1583
 1504SOL    HW115974   2.918   3.122  16.270 -0.8660  1.5007  0.9869
 1504SOL    HW215975   2.878   2.988  16.257  0.2059 -0.4223 -0.6993
 1505SOL     OW15976   2.405   4.709   1.560 -0.2904  0.4751  0.1501
 1505SOL    HW115977   2.374   0.061   1.506 -3.0046 -0.3585  0.5932
 1505SOL    HW215978   2.488   0.021   1.596  1.3051  1.2312 -4.1641
 1506SOL     OW15979   4.650   4.494   0.798 -0.1889  0.3092 -0.6181
 1506SOL    HW115980   4.683   4.553   0.866 -0.2889 -1.2565  0.8094
 1506SOL    HW215981   4.698   4.528   0.723 -1.2134  0.0709 -1.3679
 1507SOL     OW15982   2.312   1.801   5.852 -0.2224 -0.3811 -0.3247
 1507SOL    HW115983   2.226   1.805   5.894 -1.6205  0.4240 -3.2527
 1507SOL    HW215984   2.340   1.710   5.859 -0.9617 -0.7198 -1.6328
 1508SOL     OW15985   2.992   1.887   1.507  0.7471 -0.1808 -0.3576
 1508SOL    HW115986   2.922   1.864   1.569  0.6034 -0.0525 -0.4702
 1508SOL    HW215987   3.043   1.806   1.513 -1.8759 -2.0668 -2.7711
 1509SOL     OW15988   0.670   4.260   2.716  0.2458 -0.2243 -0.1690
 1509SOL    HW115989   0.611   4.269   2.641 -0.0193 -0.9425 -0.0488
 1509SOL    HW215990   0.656   4.170   2.745 -1.6226  0.3998  0.9250
 1510SOL     OW15991   1.835   3.201  15.241  0.1313  0.1101  0.0690
 1510SOL    HW115992   1.801   3.282  15.277  1.3958  2.1177 -3.2740
 1510SOL    HW215993   1.807   3.200  15.149 -1.2850 -1.9118  0.5126
 1511SOL     OW15994   4.395   3.593   2.177  0.0528  0.1681  0.0262
 1511SOL    HW115995   4.433   3.590   2.090  2.0093  2.5020  0.8193
 1511SOL    HW215996   4.307   3.616   2.145 -0.7951 -2.7512  0.2701
 1512SOL     OW15997   3.529   0.159  15.605 -0.3466  0.1978  0.1512
 1512SOL    HW115998   3.514   0.077  15.558 -0.0986  0.1720  0.1119
 1512SOL    HW215999   3.624   0.172  15.610 -0.4440  1.0564 -0.2906
 1513SOL     OW16000   1.884   3.719  15.311  0.0170  0.3451 -0.1108
 1513SOL    HW116001   1.979   3.728  15.304  0.0374  1.7967  1.8898
 1513SOL    HW216002   1.846   3.736  15.224  0.5747  1.9555 -0.0438
 1514SOL     OW16003   3.138   1.367   9.317  0.8956  0.0645 -0.3343
 1514SOL    HW116004   3.119   1.275   9.336  0.1409  0.2191 -0.3303
 1514SOL    HW216005   3.206   1.387   9.381 -0.1630 -1.2721  1.2215
 1515SOL     OW16006   1.089   0.533   1.546 -0.0820  0.4240  0.0789
 1515SOL    HW116007   1.080   0.455   1.600  2.6179 -1.7324 -2.5710
 1515SOL    HW216008   1.140   0.506   1.470 -2.0475  1.1653 -1.5113
 1516SOL     OW16009   2.992   1.131   9.344  0.3423  0.0309  0.6204
 1516SOL    HW116010   2.934   1.087   9.282  0.1301 -0.3278  1.0770
 1516SOL    HW216011   2.926   1.172   9.400  0.1527 -0.5191  0.7970
 1517SOL     OW16012   1.040   1.486   5.016 -0.2318 -0.2640 -0.0454
 1517SOL    HW116013   0.954   1.526   5.026 -0.7553 -1.7840  1.5864
 1517SOL    HW216014   1.061   1.495   4.923  4.3540 -1.9729  0.8339
 1518SOL     OW16015   4.161   3.279  14.889  0.4966 -0.6797  0.4752
 1518SOL    HW116016   4.179   3.372  14.902  1.9477 -0.6546 -1.4979
 1518SOL    HW216017   4.170   3.264  14.983  2.2885 -0.0577  0.4084
 1519SOL     OW16018   4.320   0.476   7.167 -0.1009 -0.6632  0.6315
 1519SOL    HW116019   4.251   0.458   7.230 -0.2005  1.0123  1.0118
 1519SOL    HW216020   4.369   0.551   7.201  0.3084  0.8167 -3.2122
 1520SOL     OW16021   0.137   1.935   3.557  0.5178 -0.3126  0.1252
 1520SOL    HW116022   0.050   1.900   3.575 -0.6567  2.5564 -0.0599
 1520SOL    HW216023   0.170   1.859   3.508 -1.8281 -1.3519  0.1621
 1521SOL     OW16024   1.866   4.197   4.034 -0.1102 -0.1792  0.9593
 1521SOL    HW116025   1.825   4.119   4.071  0.3351 -1.3103 -0.9260
 1521SOL    HW216026   1.803   4.232   3.971  1.9874  1.4577 -0.2391
 1522SOL     OW16027   1.359   1.142   3.273  0.2759  0.2962  0.0270
 1522SOL    HW116028   1.383   1.214   3.215  1.0878 -0.5493 -0.6983
 1522SOL    HW216029   1.295   1.182   3.331 -1.7759 -1.5257 -0.9534
 1523SOL     OW16030   1.417   0.336   4.343  0.2212  0.3683  0.4168
 1523SOL    HW116031   1.446   0.323   4.433 -2.8585 -2.2604  1.0315
 1523SOL    HW216032   1.388   0.426   4.359 -0.4101  0.6203 -2.1475
 1524SOL     OW16033   2.198   2.936  10.325 -0.1586  0.3563 -0.4044
 1524SOL    HW116034   2.143   2.880  10.380  1.5943  0.7035  1.7066
 1524SOL    HW216035   2.214   3.006  10.389  1.3226  0.5220 -0.9576
 1525SOL     OW16036   0.397   3.018   8.734 -0.0130 -0.1481 -0.5662
 1525SOL    HW116037   0.390   2.959   8.809 -2.0054  0.4760 -0.2416
 1525SOL    HW216038   0.487   3.037   8.758 -0.1136  1.3132 -1.3829
 1526SOL     OW16039   0.684   3.987   7.066  0.1599  0.2319  0.0803
 1526SOL    HW116040   0.715   3.963   7.153  0.8128 -2.2421 -0.8392
 1526SOL    HW216041   0.630   3.912   7.041  2.1037 -1.0720 -0.1382
 1527SOL     OW16042   3.891   4.077   4.559 -0.1551 -0.0524 -0.0995
 1527SOL    HW116043   3.809   4.029   4.572  1.0145 -1.8533  0.5719
 1527SOL    HW216044   3.879   4.111   4.470  1.8546 -3.5993 -1.6999
 1528SOL     OW16045   0.087   1.117  13.968  0.3678 -0.2230 -0.1637
 1528SOL    HW116046   0.128   1.031  13.975  0.4592 -0.0981  0.8301
 1528SOL    HW216047   4.718   1.097  13.944  0.7486  0.7855 -2.5469
 1529SOL     OW16048   2.584   3.036   2.319  0.0524 -0.4571  0.6231
 1529SOL    HW116049   2.562   3.113   2.267 -0.2232 -1.6397 -1.0099
 1529SOL    HW216050   2.637   2.994   2.251 -1.2238 -0.9447 -0.0552
 1530SOL     OW16051   0.503   2.856  11.134 -0.5919  0.3205 -0.9891
 1530SOL    HW116052   0.460   2.935  11.102 -0.3817  0.0859 -1.8621
 1530SOL    HW216053   0.582   2.846  11.080  0.8820  2.0163  0.8343
 1531SOL     OW16054   0.728   1.545  14.449 -0.8081  0.2301  0.2308
 1531SOL    HW116055   0.820   1.532  14.470 -0.7546 -2.0139 -1.4274
 1531SOL    HW216056   0.714   1.585  14.535 -1.1457  2.6512 -0.9379
 1532SOL     OW16057   0.618   2.984   9.812 -0.5630 -0.0300 -0.1580
 1532SOL    HW116058   0.574   3.019   9.734 -1.3743 -1.9471 -0.5633
 1532SOL    HW216059   0.570   3.032   9.879 -1.4141 -0.9362 -0.1025
 1533SOL     OW16060   3.881   2.914   9.191  0.1864 -0.3446  0.4044
 1533SOL    HW116061   3.856   2.937   9.101  1.1701  1.2021  0.5324
 1533SOL    HW216062   3.859   2.998   9.230  0.5726  0.8290 -1.8873
 1534SOL     OW16063   1.807   2.075   9.868 -0.1435 -0.6340  0.3588
 1534SOL    HW116064   1.852   2.015   9.928  0.0936 -0.1112  0.7014
 1534SOL    HW216065   1.878   2.091   9.806 -2.4147  1.2318 -1.7368
 1535SOL     OW16066   1.662   3.858   7.080  0.1157  0.0565  0.2887
 1535SOL    HW116067   1.641   3.900   7.164  0.0788  0.0241  0.2957
 1535SOL    HW216068   1.749   3.895   7.066  0.2771 -0.5388 -0.2787
 1536SOL     OW16069   0.939   2.671   9.719 -0.1411 -0.1873 -0.2808
 1536SOL    HW116070   0.961   2.681   9.812 -0.2752  0.4755 -0.3262
 1536SOL    HW216071   0.895   2.752   9.695 -1.4363 -1.4917 -2.2969
 1537SOL     OW16072   4.321   1.037  11.257  0.6413 -0.4632  0.2560
 1537SOL    HW116073   4.241   1.048  11.308  1.0737  1.3151  0.5565
 1537SOL    HW216074   4.351   1.126  11.237  1.0659 -0.2467  1.8120
 1538SOL     OW16075   1.248   2.935  11.639 -0.4786  0.1599 -0.1541
 1538SOL    HW116076   1.323   2.964  11.587 -1.0609  1.4458 -0.2658
 1538SOL    HW216077   1.290   2.899  11.717  0.1149 -1.2599 -1.1185
 1539SOL     OW16078   3.393   3.519   4.905 -0.5501  0.5813  0.3684
 1539SOL    HW116079   3.471   3.464   4.895  0.9786  3.3911 -3.1505
 1539SOL    HW216080   3.385   3.547   4.814 -0.8291 -0.6031  0.0217
 1540SOL     OW16081   0.579   2.935   1.943  0.0505  0.0927  0.0319
 1540SOL    HW116082   0.669   2.944   1.912  0.5687 -0.0027  1.5072
 1540SOL    HW216083   0.535   2.963   1.862  0.5787  0.1493 -0.2362
 1541SOL     OW16084   4.257   0.224  14.094 -0.2413  0.1124  0.4891
 1541SOL    HW116085   4.240   0.234  14.188 -1.9551  0.4275  0.1471
 1541SOL    HW216086   4.337   0.172  14.089  0.1424  0.9099 -1.5938
 1542SOL     OW16087   2.536   0.359  12.396 -0.0690 -0.0143 -0.1265
 1542SOL    HW116088   2.549   0.382  12.304  0.0400  0.7199  0.0715
 1542SOL    HW216089   2.579   0.433  12.441 -0.2272 -0.5557  0.9107
 1543SOL     OW16090   2.311   0.848   4.219 -0.3637  0.3964 -0.1013
 1543SOL    HW116091   2.259   0.825   4.142 -0.1073  1.5856 -0.6352
 1543SOL    HW216092   2.303   0.943   4.211 -0.5416  0.4173  0.2995
 1544SOL     OW16093   1.765   0.060   9.898  0.1091 -0.2513 -0.1184
 1544SOL    HW116094   1.720   4.696   9.893 -0.0156 -0.1527 -0.6145
 1544SOL    HW216095   1.692   0.121   9.887 -0.3750 -0.3004  2.6799
 1545SOL     OW16096   2.964   4.171   1.773  0.0283  0.6050  0.6914
 1545SOL    HW116097   3.022   4.154   1.699 -2.6598 -0.0373 -1.2473
 1545SOL    HW216098   3.021   4.208   1.841  0.1792  0.4210  0.6664
 1546SOL     OW16099   3.892   3.810   7.332 -0.1955 -0.0104 -0.3211
 1546SOL    HW116100   3.812   3.857   7.359 -0.7849 -0.8126 -0.6841
 1546SOL    HW216101   3.932   3.781   7.414  1.7006 -0.5923 -1.4642
 1547SOL     OW16102   3.352   0.900   0.579  0.9025  0.0577 -0.1287
 1547SOL    HW116103   3.417   0.831   0.593  0.5214 -0.5944 -1.6215
 1547SOL    HW216104   3.360   0.958   0.655 -1.3438 -1.0520  0.9670
 1548SOL     OW16105   3.888   2.456   9.009 -0.1677 -0.2437 -0.3665
 1548SOL    HW116106   3.798   2.445   8.978 -0.4741  2.1563 -0.3278
 1548SOL    HW216107   3.881   2.530   9.069  0.9305 -0.2153 -0.2746
 1549SOL     OW16108   3.366   1.820   1.281 -0.0600 -0.2075  0.3868
 1549SOL    HW116109   3.440   1.879   1.267  0.1867 -0.7891 -0.7360
 1549SOL    HW216110   3.335   1.838   1.370  0.9179  2.1644  0.2481
 1550SOL     OW16111   1.359   0.434   3.193 -0.2419  0.4148 -0.2301
 1550SOL    HW116112   1.341   0.522   3.228  1.8214 -0.0422  1.9514
 1550SOL    HW216113   1.293   0.385   3.242 -0.0779  0.3506 -0.0756
 1551SOL     OW16114   1.220   4.129   3.289  0.3291  0.3500  0.1471
 1551SOL    HW116115   1.200   4.163   3.202 -1.2069  1.6572  1.0158
 1551SOL    HW216116   1.247   4.041   3.263  0.6653  0.4603  0.1151
 1552SOL     OW16117   0.425   2.410   8.584 -0.4019  0.5323  0.6591
 1552SOL    HW116118   0.420   2.378   8.675  1.6953 -2.4830 -0.2633
 1552SOL    HW216119   0.488   2.482   8.586 -1.6547  1.6393  0.1024
 1553SOL     OW16120   3.378   3.275   6.741 -0.3370  0.5554 -0.2819
 1553SOL    HW116121   3.468   3.244   6.743 -0.7396 -0.7837 -2.4182
 1553SOL    HW216122   3.326   3.195   6.749  0.6751 -0.1377 -0.6209
 1554SOL     OW16123   0.273   2.577  11.359 -0.3717  0.1447 -0.0940
 1554SOL    HW116124   0.218   2.574  11.436 -0.7857  3.3510 -0.2653
 1554SOL    HW216125   0.336   2.643  11.388 -0.3822  0.3894 -0.6270
 1555SOL     OW16126   3.363   0.195  14.435 -0.2508 -0.1746  0.3355
 1555SOL    HW116127   3.420   0.215  14.510  0.9592 -0.3430 -0.5436
 1555SOL    HW216128   3.410   0.247  14.370  0.8707  1.1089  2.1735
 1556SOL     OW16129   1.384   4.405   8.417  0.4007 -0.0021  0.2029
 1556SOL    HW116130   1.315   4.435   8.357 -1.4173 -0.5439  2.0409
 1556SOL    HW216131   1.454   4.464   8.387  0.1864  0.6360  0.9619
 1557SOL     OW16132   4.132   2.707   2.366  0.2970 -0.1332  0.0228
 1557SOL    HW116133   4.209   2.761   2.380 -0.7820  0.9519  1.7812
 1557SOL    HW216134   4.087   2.765   2.305  2.3712  0.5448 -0.8382
 1558SOL     OW16135   4.293   3.781   5.557  0.0133 -0.2858 -0.0150
 1558SOL    HW116136   4.348   3.736   5.621  1.0370 -2.6972 -2.5380
 1558SOL    HW216137   4.321   3.723   5.486  0.8722 -1.6525  1.4352
 1559SOL     OW16138   1.285   0.283   7.913  0.3021  0.3016 -0.2816
 1559SOL    HW116139   1.200   0.257   7.948 -0.7518  1.9415 -1.6175
 1559SOL    HW216140   1.260   0.357   7.857  2.5393 -0.1665 -1.9149
 1560SOL     OW16141   3.966   3.546   3.006 -0.3089 -0.6636  0.2147
 1560SOL    HW116142   4.012   3.571   2.925  0.6142 -1.7637  0.4118
 1560SOL    HW216143   3.984   3.621   3.063 -2.4291  0.7681 -0.9939
 1561SOL     OW16144   4.294   2.686   6.336  0.6411 -0.0671 -0.7117
 1561SOL    HW116145   4.248   2.661   6.256  0.0317  0.0257 -0.3950
 1561SOL    HW216146   4.283   2.611   6.394  2.5473 -0.5400 -0.9871
 1562SOL     OW16147   0.799   1.090   8.876  0.1723 -0.0887 -0.1607
 1562SOL    HW116148   0.857   1.015   8.888  0.5413  0.0627 -1.0060
 1562SOL    HW216149   0.861   1.153   8.840  0.2221 -0.7917 -1.3132
 1563SOL     OW16150   2.474   3.394   3.509  0.0206  0.4630 -0.3187
 1563SOL    HW116151   2.501   3.374   3.420  1.1241 -3.2492  0.8574
 1563SOL    HW216152   2.431   3.479   3.500  0.7607  0.6484 -1.9959
 1564SOL     OW16153   1.776   0.975   1.671  0.2863  0.0351  0.1410
 1564SOL    HW116154   1.751   1.024   1.749  0.5219 -0.0446  0.2659
 1564SOL    HW216155   1.755   1.035   1.599 -0.4585 -0.4229 -0.0248
 1565SOL     OW16156   4.438   0.951   2.251  0.0736  0.1558  0.5634
 1565SOL    HW116157   4.420   1.035   2.294 -1.8507  0.8916 -1.6289
 1565SOL    HW216158   4.354   0.908   2.266  0.8231 -1.3086  0.5429
 1566SOL     OW16159   1.129   3.960   5.887 -0.1432  0.8215 -0.4491
 1566SOL    HW116160   1.088   3.978   5.972 -2.0858  0.3369 -1.2914
 1566SOL    HW216161   1.061   3.924   5.830 -0.7232  0.6829  0.3264
 1567SOL     OW16162   0.590   1.406   3.248 -0.5933 -0.4916 -1.1351
 1567SOL    HW116163   0.502   1.429   3.278  0.4892  1.2780  0.6557
 1567SOL    HW216164   0.572   1.317   3.218  1.9078 -0.5107 -2.5846
 1568SOL     OW16165   0.259   3.355   4.707  0.3386 -0.0109 -0.9597
 1568SOL    HW116166   0.253   3.272   4.660  0.5232  0.4009 -1.7109
 1568SOL    HW216167   0.197   3.344   4.779 -0.0007  0.3820 -1.1875
 1569SOL     OW16168   1.179   3.903   6.313  0.2423 -0.2500  0.1453
 1569SOL    HW116169   1.244   3.964   6.278  0.0581  0.3457  0.8370
 1569SOL    HW216170   1.158   3.843   6.241  0.3543 -0.4073  0.2427
 1570SOL     OW16171   1.611   4.608   3.419  0.3342 -0.7082 -0.5223
 1570SOL    HW116172   1.627   4.670   3.348 -1.1020 -0.4658 -0.6391
 1570SOL    HW216173   1.580   4.668   3.486  0.0408  0.1845 -1.4515
 1571SOL     OW16174   2.081   1.353   4.388  0.2321 -0.4439  0.5042
 1571SOL    HW116175   2.082   1.271   4.436 -0.8140 -0.5288  0.3794
 1571SOL    HW216176   2.170   1.387   4.397  0.2365  0.0374 -1.3468
 1572SOL     OW16177   0.077   0.411   1.734  0.3716  0.1507 -0.2625
 1572SOL    HW116178   0.134   0.374   1.667 -1.2860 -1.9183 -0.5289
 1572SOL    HW216179   0.120   0.492   1.761  0.1716 -0.5870  2.3164
 1573SOL     OW16180   1.453   0.651   1.849  0.0032 -0.0606 -0.2032
 1573SOL    HW116181   1.459   0.737   1.806  0.9438  0.2698  0.5717
 1573SOL    HW216182   1.358   0.648   1.855  0.0125  0.2168  0.0695
 1574SOL     OW16183   4.078   1.562  13.457  0.4202 -0.1685 -0.3614
 1574SOL    HW116184   4.114   1.533  13.541  1.0440 -1.2402 -1.0085
 1574SOL    HW216185   4.163   1.591  13.425  1.6200 -3.0421  0.2562
 1575SOL     OW16186   4.094   1.524   2.338 -0.2376  0.7561  0.2394
 1575SOL    HW116187   4.129   1.509   2.426 -0.7083  1.6679  0.5876
 1575SOL    HW216188   4.171   1.506   2.285  0.3835 -1.0517  1.7857
 1576SOL     OW16189   2.422   0.814   0.207  0.0739  0.3877  0.2856
 1576SOL    HW116190   2.390   0.729   0.237  0.5905 -0.3524 -1.2467
 1576SOL    HW216191   2.467   0.841   0.287 -1.1471 -0.0071  1.1001
 1577SOL     OW16192   4.697   2.530   9.784  0.2487  0.6312 -0.0118
 1577SOL    HW116193   0.051   2.509   9.727 -0.4219 -0.2162 -0.5761
 1577SOL    HW216194   0.025   2.576   9.852  1.7975  0.4234 -0.9840
 1578SOL     OW16195   1.110   4.164  13.583 -0.7195 -0.2273 -0.1958
 1578SOL    HW116196   1.064   4.148  13.665 -1.3105  0.3436 -0.4170
 1578SOL    HW216197   1.089   4.081  13.540  4.0831  0.4081 -3.8222
 1579SOL     OW16198   3.033   2.575   1.623  0.1163  0.3222  0.1513
 1579SOL    HW116199   2.945   2.605   1.599 -0.3675  0.0858  1.6837
 1579SOL    HW216200   3.047   2.501   1.565 -2.9310 -0.6050  0.5934
 1580SOL     OW16201   1.267   1.101   4.331 -0.9612  0.0901 -0.0870
 1580SOL    HW116202   1.237   1.019   4.291  0.5035  0.3004 -1.6128
 1580SOL    HW216203   1.200   1.166   4.306 -1.3548 -0.7657 -1.2824
 1581SOL     OW16204   3.730   0.100   2.285 -0.2110  0.3184  0.4275
 1581SOL    HW116205   3.771   0.178   2.248  2.3786 -0.1598  2.2811
 1581SOL    HW216206   3.779   0.097   2.367 -0.4435 -1.1180  0.5189
 1582SOL     OW16207   1.122   4.446   5.551  0.3834  0.1688 -0.5024
 1582SOL    HW116208   1.091   4.377   5.609  0.4353  0.4523 -0.1425
 1582SOL    HW216209   1.199   4.402   5.515  0.5788 -0.2186  0.4010
 1583SOL     OW16210   1.973   2.113  13.945  0.1178 -0.4067 -0.4107
 1583SOL    HW116211   1.905   2.180  13.935 -1.0379 -1.3553  1.1921
 1583SOL    HW216212   1.957   2.055  13.870 -0.9658 -1.4755  0.6610
 1584SOL     OW16213   1.526   4.340  16.934 -0.0862  0.5394  0.8214
 1584SOL    HW116214   1.481   4.309  16.856  0.5228  1.7175 -0.0009
 1584SOL    HW216215   1.452   4.369  16.988  0.6538  2.6912  0.6942
 1585SOL     OW16216   3.440   3.961   8.154 -0.3384 -0.2958 -0.6647
 1585SOL    HW116217   3.388   3.895   8.199  1.2274 -0.1492  1.3807
 1585SOL    HW216218   3.381   4.001   8.090  2.2843  1.9758 -1.6631
 1586SOL     OW16219   3.487   2.421   3.116  0.0121  0.0908 -0.5142
 1586SOL    HW116220   3.464   2.330   3.138  0.4187 -0.4195 -2.2217
 1586SOL    HW216221   3.508   2.416   3.023  1.6869  1.4257 -0.1854
 1587SOL     OW16222   0.394   0.082   7.137 -0.0967  0.5634 -0.5381
 1587SOL    HW116223   0.379   0.059   7.045 -1.7114 -1.4907  0.2528
 1587SOL    HW216224   0.387   0.178   7.138 -0.8179  0.5179 -1.1769
 1588SOL     OW16225   3.433   1.238   3.257  0.7635 -0.1279  0.0682
 1588SOL    HW116226   3.406   1.231   3.349  0.4374  3.1620  0.2232
 1588SOL    HW216227   3.429   1.147   3.229 -0.1529  0.6489 -2.3221
 1589SOL     OW16228   2.571   1.842   8.349 -0.3800  0.3303  0.5344
 1589SOL    HW116229   2.635   1.913   8.355 -0.0318  0.2383 -1.8143
 1589SOL    HW216230   2.513   1.867   8.420 -0.0978  0.3915  0.7428
 1590SOL     OW16231   4.158   1.820  16.329  0.2517 -0.3394 -0.2142
 1590SOL    HW116232   4.073   1.796  16.366 -0.0053 -1.4300 -1.4868
 1590SOL    HW216233   4.212   1.835  16.406  1.0619 -2.5043 -0.3667
 1591SOL     OW16234   2.554   3.218   8.723 -0.1374 -0.2869  0.2106
 1591SOL    HW116235   2.583   3.308   8.708  0.1270 -0.2660  0.8699
 1591SOL    HW216236   2.540   3.214   8.817  3.6410  2.0733  0.8770
 1592SOL     OW16237   0.499   4.599   6.186 -0.4228  0.0505 -0.2688
 1592SOL    HW116238   0.413   4.634   6.210  0.0356 -0.1515  1.6428
 1592SOL    HW216239   0.495   4.624   6.093 -0.8040  1.9051  0.2523
 1593SOL     OW16240   3.038   2.227   1.240 -0.2127 -0.0393 -0.0706
 1593SOL    HW116241   3.115   2.267   1.200 -0.4529 -1.0131 -1.5326
 1593SOL    HW216242   3.001   2.299   1.290  0.8432  0.6762 -0.3246
 1594SOL     OW16243   3.139   3.709  15.001 -0.0500 -0.1239 -0.2467
 1594SOL    HW116244   3.176   3.680  14.918  2.0768 -0.1747  0.7010
 1594SOL    HW216245   3.181   3.794  15.009 -2.8402  1.1107  1.0849
 1595SOL     OW16246   3.088   3.041   0.993 -0.1114  0.3801  0.1992
 1595SOL    HW116247   3.036   3.022   0.915 -1.6537  1.3492  1.0136
 1595SOL    HW216248   3.017   3.062   1.054 -0.1149  0.2300  0.2485
 1596SOL     OW16249   3.122   2.874   5.263 -0.3940 -0.2242  0.2802
 1596SOL    HW116250   3.029   2.866   5.286  0.0380 -2.1978  1.2608
 1596SOL    HW216251   3.158   2.827   5.338  0.5075 -2.4420 -1.5383
 1597SOL     OW16252   2.522   0.192   3.734  0.3074 -0.5269  0.4117
 1597SOL    HW116253   2.502   0.275   3.778 -0.1867 -0.4478  0.0303
 1597SOL    HW216254   2.511   0.235   3.649  0.3535 -0.4686  0.4344
 1598SOL     OW16255   4.121   0.193   1.460  0.0923  0.2917 -0.6532
 1598SOL    HW116256   4.159   0.121   1.409 -0.8316 -0.2029 -0.6617
 1598SOL    HW216257   4.029   0.191   1.433 -0.6097  2.4429  1.6049
 1599SOL     OW16258   3.669   4.719   4.414 -0.4848  0.0186  0.3506
 1599SOL    HW116259   3.586   4.717   4.366 -1.4188  0.1744  1.9623
 1599SOL    HW216260   3.683   0.093   4.415  1.0120 -0.1634 -2.0415
 1600SOL     OW16261   3.917   3.495   1.606  0.2828 -0.6891  0.1812
 1600SOL    HW116262   3.969   3.506   1.526 -1.3607 -0.4791 -0.8770
 1600SOL    HW216263   3.972   3.533   1.674  1.7165 -2.5570  0.0437
 1601SOL     OW16264   3.702   0.273   3.317  0.0690 -1.0021 -0.2337
 1601SOL    HW116265   3.642   0.295   3.246  0.6041  1.3764  0.0370
 1601SOL    HW216266   3.736   0.194   3.276 -1.4685 -0.9765 -1.5406
 1602SOL     OW16267   0.614   1.442  12.769 -0.2655  0.5918  0.1397
 1602SOL    HW116268   0.657   1.366  12.809 -0.2289  0.8865  0.6748
 1602SOL    HW216269   0.692   1.498  12.770  0.0141  0.1923  2.0712
 1603SOL     OW16270   2.435   1.335  11.258 -0.3940  0.5277 -0.2739
 1603SOL    HW116271   2.493   1.402  11.295 -0.7474  0.1187  1.0262
 1603SOL    HW216272   2.485   1.259  11.287 -1.4772  0.0094  0.2066
 1604SOL     OW16273   2.625   1.906  10.357  0.4183  0.3138 -0.1082
 1604SOL    HW116274   2.699   1.846  10.359 -0.2534 -0.5610 -2.0587
 1604SOL    HW216275   2.554   1.860  10.402  0.5824  0.5786  0.4242
 1605SOL     OW16276   3.889   0.993   6.685  0.4799  0.2604 -0.3883
 1605SOL    HW116277   3.915   1.070   6.736 -1.5628  0.3374  0.5282
 1605SOL    HW216278   3.970   0.973   6.638  0.1745 -2.7579  0.3682
 1606SOL     OW16279   1.084   3.251   8.482 -0.0858 -0.2738  0.4089
 1606SOL    HW116280   0.990   3.263   8.465 -0.2326 -1.5173  0.3527
 1606SOL    HW216281   1.084   3.205   8.566  1.0226 -1.1721 -0.0862
 1607SOL     OW16282   2.189   4.285  10.836 -0.0047  0.4801 -0.0708
 1607SOL    HW116283   2.232   4.370  10.840  0.1661  0.3334  1.1265
 1607SOL    HW216284   2.095   4.302  10.833 -0.7228 -2.9185  2.8768
 1608SOL     OW16285   3.550   3.737   2.272  0.6740  0.6434  0.0744
 1608SOL    HW116286   3.477   3.690   2.231 -0.7164  4.9135 -2.4551
 1608SOL    HW216287   3.594   3.667   2.319  1.5830  0.7230 -0.6661
 1609SOL     OW16288   4.118   3.179  14.444 -0.3383 -0.4011 -0.2758
 1609SOL    HW116289   4.048   3.239  14.416  1.1611  1.2422 -0.4858
 1609SOL    HW216290   4.108   3.106  14.383 -3.4625 -1.1410  1.0897
 1610SOL     OW16291   2.150   1.499  10.644  0.2482 -0.3025  0.1725
 1610SOL    HW116292   2.106   1.414  10.646 -1.1688  0.4323  0.5652
 1610SOL    HW216293   2.117   1.531  10.728 -0.3796 -1.2441  0.2844
 1611SOL     OW16294   4.477   1.219   5.494  0.0115  0.0944  0.6323
 1611SOL    HW116295   4.428   1.296   5.522 -0.8378 -0.2550  0.1078
 1611SOL    HW216296   4.409   1.153   5.484 -0.7624  0.8823  0.6863
 1612SOL     OW16297   2.303   4.158   1.879  0.3237 -0.0189 -0.6537
 1612SOL    HW116298   2.293   4.203   1.795  0.6764  0.0799 -0.6428
 1612SOL    HW216299   2.293   4.236   1.934 -0.9058 -2.3659  2.4413
 1613SOL     OW16300   0.445   3.468   5.787  0.3252 -0.3051 -0.4517
 1613SOL    HW116301   0.459   3.560   5.810 -0.3739 -0.3899  0.3335
 1613SOL    HW216302   0.402   3.476   5.702 -0.3690  2.5980  0.1825
 1614SOL     OW16303   1.488   4.466   2.376  0.8968  0.2846  0.0530
 1614SOL    HW116304   1.502   4.560   2.379  1.9431  0.0959  1.0381
 1614SOL    HW216305   1.532   4.438   2.456  1.0641 -2.7541 -1.0942
 1615SOL     OW16306   2.826   1.593   1.472 -0.3343 -0.2791 -0.1059
 1615SOL    HW116307   2.816   1.660   1.540  1.6283  0.6654 -0.7145
 1615SOL    HW216308   2.846   1.524   1.535  3.5424  0.3585 -0.5906
 1616SOL     OW16309   1.451   2.224   9.742 -0.2761  0.0635 -0.1530
 1616SOL    HW116310   1.447   2.176   9.824  0.6038 -1.3520 -0.9273
 1616SOL    HW216311   1.488   2.156   9.686 -0.1361 -0.4251  0.5395
 1617SOL     OW16312   2.819   3.127   1.978 -0.0867  0.3348 -0.3341
 1617SOL    HW116313   2.765   3.179   2.038 -1.0566 -0.7393 -0.2807
 1617SOL    HW216314   2.762   3.116   1.902 -1.0959  0.9828  0.3316
 1618SOL     OW16315   2.762   2.086   5.376 -0.1116 -0.2969 -0.3997
 1618SOL    HW116316   2.731   2.160   5.429 -0.7660 -0.1335 -1.0131
 1618SOL    HW216317   2.727   2.012   5.425 -2.3227  1.6371  0.9601
 1619SOL     OW16318   0.359   1.216   7.744  0.4011 -0.4328 -0.0036
 1619SOL    HW116319   0.393   1.275   7.810  0.2912 -0.6103  0.2115
 1619SOL    HW216320   0.435   1.173   7.705  1.4863  2.2862 -0.8925
 1620SOL     OW16321   0.773   3.131   7.297  0.1199  0.7201 -0.3555
 1620SOL    HW116322   0.790   3.098   7.209  0.8364  0.3836 -0.0899
 1620SOL    HW216323   0.796   3.053   7.348 -1.8476 -1.2645 -2.5336
 1621SOL     OW16324   3.355   3.769   3.591  0.1156 -0.0315  0.7632
 1621SOL    HW116325   3.271   3.743   3.554 -0.0136  0.3312  0.7960
 1621SOL    HW216326   3.396   3.683   3.592  2.3424  1.0427  2.7025
 1622SOL     OW16327   2.683   2.305   5.499  0.6703  0.0487  0.0145
 1622SOL    HW116328   2.629   2.365   5.448 -0.8698  0.8592  2.5637
 1622SOL    HW216329   2.652   2.326   5.587 -0.8365  0.4064 -0.6020
 1623SOL     OW16330   2.524   4.533   1.754 -0.1494  0.0002  0.3163
 1623SOL    HW116331   2.479   4.575   1.681 -0.1825 -0.0938  0.2828
 1623SOL    HW216332   2.607   4.525   1.706 -0.0866  2.6925  0.0021
 1624SOL     OW16333   2.695   2.907   5.793 -0.5363  0.0900  0.7664
 1624SOL    HW116334   2.783   2.898   5.829  0.8322  2.1011 -2.0703
 1624SOL    HW216335   2.717   2.987   5.745  1.8762 -1.0627 -0.0547
 1625SOL     OW16336   2.922   3.715   4.708  0.1023 -0.3315 -0.0387
 1625SOL    HW116337   2.859   3.700   4.779  0.1012  2.5830  0.5824
 1625SOL    HW216338   2.942   3.626   4.678 -1.2328 -0.6248 -0.0665
 1626SOL     OW16339   0.526   4.699   5.458 -0.1295  0.0421  0.9001
 1626SOL    HW116340   0.464   4.641   5.500 -1.0554 -0.1652 -0.7433
 1626SOL    HW216341   0.564   0.027   5.532  0.3227 -0.1060  0.7677
 1627SOL     OW16342   1.302   3.263  13.980 -0.4844 -0.4434 -0.3614
 1627SOL    HW116343   1.329   3.193  13.920  0.9968 -0.1872  0.0313
 1627SOL    HW216344   1.272   3.208  14.052  1.7084 -0.6394  0.3845
 1628SOL     OW16345   2.373   2.214   5.478 -0.0874  0.0696  0.1579
 1628SOL    HW116346   2.467   2.200   5.492 -0.4102 -0.2419  2.0440
 1628SOL    HW216347   2.356   2.181   5.390  1.0923  0.1697 -0.1148
 1629SOL     OW16348   1.884   0.775   2.167  0.2098 -0.1360  0.1421
 1629SOL    HW116349   1.879   0.766   2.072 -1.7711  1.2792  0.0980
 1629SOL    HW216350   1.973   0.810   2.162 -0.1935  1.2891  2.7221
 1630SOL     OW16351   1.704   0.831   9.599 -0.0182  0.4546  0.3592
 1630SOL    HW116352   1.785   0.837   9.549  1.2025  0.7786  2.3579
 1630SOL    HW216353   1.664   0.907   9.558 -0.5299 -0.7299 -1.3616
 1631SOL     OW16354   1.093   1.337  10.155 -0.6358 -0.2107 -0.8063
 1631SOL    HW116355   1.115   1.423  10.120  1.1448  0.4028  1.8236
 1631SOL    HW216356   1.166   1.304  10.208 -0.4633  2.2965  0.4836
 1632SOL     OW16357   1.207   4.479   7.594  0.2504 -0.2750  0.1534
 1632SOL    HW116358   1.210   4.564   7.637 -0.1284 -0.1142 -0.1460
 1632SOL    HW216359   1.132   4.441   7.639  0.0545  1.7097  1.4710
 1633SOL     OW16360   3.296   0.928   1.186 -0.1488 -0.1665 -0.4937
 1633SOL    HW116361   3.334   0.967   1.264  2.2559 -1.6005 -0.9577
 1633SOL    HW216362   3.210   0.969   1.178  0.4231  0.9383 -0.9054
 1634SOL     OW16363   0.242   4.235  10.108  0.1728  0.0610 -0.4533
 1634SOL    HW116364   0.244   4.149  10.066  1.8438  0.5164 -1.3314
 1634SOL    HW216365   0.204   4.295  10.044  1.4987  0.7643 -0.6016
 1635SOL     OW16366   1.703   1.129   6.833 -0.0413 -0.5028 -0.4687
 1635SOL    HW116367   1.741   1.067   6.771 -1.0526 -1.7464  0.1525
 1635SOL    HW216368   1.734   1.095   6.917 -0.3710 -0.1582 -0.2065
 1636SOL     OW16369   3.997   4.378  13.273 -0.5911  0.4332 -0.2301
 1636SOL    HW116370   4.043   4.294  13.271 -0.6031  0.4554 -1.6524
 1636SOL    HW216371   4.058   4.433  13.322  0.6878  0.0023 -1.3391
 1637SOL     OW16372   0.643   3.195  11.173  0.1291 -0.3668  0.8400
 1637SOL    HW116373   0.548   3.206  11.171  0.3465  1.5779  0.8458
 1637SOL    HW216374   0.661   3.103  11.192 -2.2843 -0.8275  0.8970
 1638SOL     OW16375   3.203   2.678   2.433 -0.8650 -0.2874  0.3897
 1638SOL    HW116376   3.261   2.615   2.391  0.8561  1.3129  0.3655
 1638SOL    HW216377   3.177   2.627   2.510 -1.8397 -0.5463 -0.1024
 1639SOL     OW16378   0.524   4.649   7.347  0.8546 -0.0169  0.3154
 1639SOL    HW116379   0.471   4.683   7.275  1.3907 -1.2293 -0.6688
 1639SOL    HW216380   0.576   4.589   7.294  3.0731  1.3615  0.9378
 1640SOL     OW16381   4.149   1.427   3.201 -0.1227  0.4422  0.1078
 1640SOL    HW116382   4.169   1.506   3.251  1.5952  1.0905 -1.6092
 1640SOL    HW216383   4.070   1.459   3.157  1.1328  1.6138 -1.2783
 1641SOL     OW16384   0.691   3.472  14.865 -0.4350  0.5116  0.2050
 1641SOL    HW116385   0.762   3.528  14.897 -0.7313  0.6305  0.6520
 1641SOL    HW216386   0.699   3.460  14.771 -1.6198  0.9244  0.0562
 1642SOL     OW16387   1.637   1.954  11.237 -0.4985 -0.1085  0.4065
 1642SOL    HW116388   1.612   1.863  11.221  0.8929 -0.4846  0.3387
 1642SOL    HW216389   1.571   2.001  11.186 -2.1530 -2.4776  0.4105
 1643SOL     OW16390   1.250   4.492   3.359 -0.1377 -0.3091  0.0143
 1643SOL    HW116391   1.258   4.449   3.444 -2.9246 -0.9170 -0.0336
 1643SOL    HW216392   1.159   4.469   3.340 -0.0593 -0.0004 -0.7309
 1644SOL     OW16393   3.588   2.500   6.181  0.1572 -0.0990  0.4381
 1644SOL    HW116394   3.559   2.411   6.165 -0.8256  0.4329 -0.7325
 1644SOL    HW216395   3.518   2.547   6.225  0.3454  0.2772  0.3376
 1645SOL     OW16396   2.169   3.348   3.805  0.0007  0.2833 -0.2777
 1645SOL    HW116397   2.264   3.353   3.788  0.5400 -2.6955  1.9821
 1645SOL    HW216398   2.143   3.284   3.739  0.8686  0.6527 -0.9918
 1646SOL     OW16399   4.072   0.509   5.565  0.1668  0.2834  0.2999
 1646SOL    HW116400   4.081   0.442   5.633  3.1706 -0.3192 -0.6964
 1646SOL    HW216401   4.107   0.458   5.492  2.0558  2.8185 -0.5930
 1647SOL     OW16402   4.442   1.649   2.587 -0.5474 -0.3079 -0.0738
 1647SOL    HW116403   4.516   1.593   2.562  0.3882  0.6091  0.6508
 1647SOL    HW216404   4.484   1.702   2.654  1.3738 -3.2742  1.0903
 1648SOL     OW16405   2.116   0.078   3.792  0.0730 -0.1457  0.3541
 1648SOL    HW116406   2.048   0.141   3.769  1.4787  1.9364  1.9405
 1648SOL    HW216407   2.186   0.095   3.730  1.9944 -1.2710  2.2224
 1649SOL     OW16408   4.297   2.948   4.805 -0.3848 -0.3293 -0.1001
 1649SOL    HW116409   4.333   3.000   4.877 -0.7266  0.6730 -0.6506
 1649SOL    HW216410   4.203   2.966   4.811 -0.4242  0.0642 -1.7405
 1650SOL     OW16411   3.176   3.414   9.099  0.0486 -0.4244 -0.1489
 1650SOL    HW116412   3.241   3.464   9.050  1.0471  0.3306  1.9491
 1650SOL    HW216413   3.105   3.424   9.036  0.0026  0.1825 -0.0039
 1651SOL     OW16414   0.824   2.969  13.385  0.2108  0.7294  0.3088
 1651SOL    HW116415   0.810   2.887  13.339  0.6188  1.8687 -1.8669
 1651SOL    HW216416   0.909   2.948  13.424 -0.2190 -0.9213  0.3542
 1652SOL     OW16417   2.497   3.114  11.807 -0.5086 -0.4082  0.5975
 1652SOL    HW116418   2.435   3.145  11.873 -1.8516  0.0848 -0.9214
 1652SOL    HW216419   2.481   3.176  11.737 -0.9851 -2.4307 -1.0960
 1653SOL     OW16420   2.186   0.673   3.666  0.3063  0.1891 -0.6108
 1653SOL    HW116421   2.215   0.746   3.721 -0.0006  1.1376 -1.7060
 1653SOL    HW216422   2.096   0.702   3.652 -0.4330 -1.2929  0.9878
 1654SOL     OW16423   2.743   4.488   3.099 -0.2096 -0.2272 -0.2070
 1654SOL    HW116424   2.661   4.497   3.148 -0.1284  1.1683 -0.3173
 1654SOL    HW216425   2.790   4.419   3.147 -0.2261  0.7080  1.1661
 1655SOL     OW16426   3.333   3.780   3.028  0.0091 -0.4612 -0.9955
 1655SOL    HW116427   3.340   3.846   3.097 -1.0745 -2.4980  1.0248
 1655SOL    HW216428   3.423   3.748   3.026 -0.2320 -1.1090 -1.5397
 1656SOL     OW16429   3.956   4.563  14.420  1.0665  0.2489 -0.4610
 1656SOL    HW116430   4.015   4.495  14.387  0.2765 -0.5555 -0.2159
 1656SOL    HW216431   3.964   4.631  14.354  0.1986 -0.4109 -1.2386
 1657SOL     OW16432   2.557   3.578   4.609  0.3237  0.3478 -0.1088
 1657SOL    HW116433   2.604   3.596   4.690 -1.5991  0.8648  0.9019
 1657SOL    HW216434   2.484   3.640   4.614 -0.1412 -0.1800 -0.3028
 1658SOL     OW16435   4.274   4.103   6.929 -0.1718  0.0569 -0.0576
 1658SOL    HW116436   4.255   4.044   7.001 -0.1018 -0.8610 -0.7972
 1658SOL    HW216437   4.353   4.154   6.949 -1.5001  2.2287 -0.3000
 1659SOL     OW16438   4.448   3.811   2.917  0.7709 -0.2996 -0.1453
 1659SOL    HW116439   4.515   3.744   2.932 -2.1085 -3.0184  0.7018
 1659SOL    HW216440   4.392   3.766   2.854  0.0883 -2.0199  1.6689
 1660SOL     OW16441   3.142   3.131   6.409  0.2739  0.1380 -0.1153
 1660SOL    HW116442   3.052   3.140   6.441 -0.1928 -0.1042 -1.3859
 1660SOL    HW216443   3.186   3.212   6.437  0.4119 -0.0935  0.3469
 1661SOL     OW16444   0.401   0.944   5.189  0.4317 -0.0538  0.5083
 1661SOL    HW116445   0.315   0.913   5.218  1.0239 -1.1946  1.0280
 1661SOL    HW216446   0.427   1.009   5.255 -0.4323 -0.4726  1.2591
 1662SOL     OW16447   0.149   4.283  13.523 -0.1633 -0.2692 -0.4087
 1662SOL    HW116448   0.134   4.363  13.473  1.1606  0.6376  0.6357
 1662SOL    HW216449   0.244   4.282  13.534 -0.1723 -0.7351 -0.3964
 1663SOL     OW16450   0.111   0.994  16.998 -0.0570 -0.2520  0.6648
 1663SOL    HW116451   0.147   0.918  16.952 -2.2343 -0.8161 -0.0808
 1663SOL    HW216452   0.055   1.035  16.932  0.3377 -0.4380  0.2177
 1664SOL     OW16453   3.813   4.352   5.923  0.4827 -0.2527 -0.4803
 1664SOL    HW116454   3.740   4.297   5.894 -0.7022  0.4822  1.0808
 1664SOL    HW216455   3.778   4.440   5.934 -0.5532 -0.6413 -0.6650
 1665SOL     OW16456   2.467   0.970   6.345 -0.3641  0.2672  0.2212
 1665SOL    HW116457   2.552   0.931   6.362  0.3491  2.0185  0.7029
 1665SOL    HW216458   2.470   0.958   6.250  2.0593  1.6354  0.1241
 1666SOL     OW16459   3.342   2.638  10.727 -0.0522 -0.6416  0.3261
 1666SOL    HW116460   3.294   2.707  10.682 -0.0362 -0.0330  1.2437
 1666SOL    HW216461   3.381   2.585  10.657  0.7424  1.1290 -0.5563
 1667SOL     OW16462   1.388   4.365   8.836  0.2133 -0.2529 -0.2811
 1667SOL    HW116463   1.440   4.332   8.909  0.0529 -1.3212 -0.6470
 1667SOL    HW216464   1.436   4.316   8.769  1.5870  0.2639  0.3128
 1668SOL     OW16465   1.840   3.781   4.330  0.1410  0.2854  0.1190
 1668SOL    HW116466   1.860   3.690   4.352 -2.7256 -0.4528 -0.3020
 1668SOL    HW216467   1.830   3.821   4.417  0.0010  1.0325 -0.2419
 1669SOL     OW16468   1.000   3.277   2.196  0.3003  0.7442 -0.5721
 1669SOL    HW116469   0.906   3.264   2.200  0.2373  0.8017 -2.0595
 1669SOL    HW216470   1.036   3.190   2.214 -0.6740  1.0763  2.9021
 1670SOL     OW16471   1.379   4.452   0.287  0.0749 -0.2206  0.8387
 1670SOL    HW116472   1.322   4.524   0.259  1.1071  0.4640  0.5251
 1670SOL    HW216473   1.328   4.375   0.259  1.5520 -0.3231 -1.5996
 1671SOL     OW16474   1.334   1.373   0.020  0.2353  0.5939  0.7496
 1671SOL    HW116475   1.320   1.293   0.071  0.5345  0.0417 -0.0436
 1671SOL    HW216476   1.430   1.365   0.015  0.1805  0.1599  0.3979
 1672SOL     OW16477   0.614   0.854   5.778  0.0447  0.5884 -0.6236
 1672SOL    HW116478   0.544   0.824   5.836  2.3359 -2.8582  0.3831
 1672SOL    HW216479   0.619   0.948   5.795 -2.0941  0.7702 -1.1056
 1673SOL     OW16480   1.980   0.634   1.612 -0.3050  0.1368  0.1403
 1673SOL    HW116481   1.993   0.671   1.525  0.8695 -1.3006 -0.2999
 1673SOL    HW216482   2.069   0.642   1.648 -0.4467  2.6791 -0.0641
 1674SOL     OW16483   0.202   0.108   7.395  0.1514  0.7227  0.1396
 1674SOL    HW116484   0.281   0.119   7.341  0.8502 -0.6279  0.8944
 1674SOL    HW216485   0.133   0.116   7.329  0.9955  3.6764 -0.3788
 1675SOL     OW16486   2.032   0.400   1.894  0.0005  0.0345 -0.3553
 1675SOL    HW116487   2.107   0.453   1.865  1.0346 -1.4713 -0.4108
 1675SOL    HW216488   1.961   0.434   1.839 -2.1562 -2.5623  0.8477
 1676SOL     OW16489   3.812   1.768   6.585  0.5770  0.8263  0.4803
 1676SOL    HW116490   3.855   1.688   6.616 -0.4731 -0.2691 -0.8679
 1676SOL    HW216491   3.722   1.746   6.610  0.4446 -0.1659 -0.8370
 1677SOL     OW16492   3.243   3.678   0.201 -0.4769  0.2175 -0.7922
 1677SOL    HW116493   3.293   3.598   0.217  1.7452  2.1548  1.8470
 1677SOL    HW216494   3.281   3.699   0.116  0.1188 -2.8735 -1.2948
 1678SOL     OW16495   2.640   4.502  10.596  0.1334  0.0731 -0.2756
 1678SOL    HW116496   2.549   4.491  10.625  0.7714 -3.2349  0.5179
 1678SOL    HW216497   2.645   4.598  10.597 -1.1377  0.1379  0.0172
 1679SOL     OW16498   2.262   1.211   0.963  0.0883  0.4421 -0.5005
 1679SOL    HW116499   2.179   1.254   0.945 -1.6888 -3.0341 -0.5690
 1679SOL    HW216500   2.291   1.239   1.050 -0.8647 -1.1145  0.3023
 1680SOL     OW16501   1.531   4.606   2.789  0.3044  0.0092 -0.0902
 1680SOL    HW116502   1.589   4.644   2.723 -0.7110  0.1791 -0.8924
 1680SOL    HW216503   1.488   4.540   2.734  3.7233 -1.2646 -1.2328
 1681SOL     OW16504   4.655   2.043   8.118  0.4068 -0.1608 -0.0260
 1681SOL    HW116505   4.646   2.032   8.212  2.9703 -0.8492  0.1416
 1681SOL    HW216506   4.572   2.008   8.087  0.0640  1.1597 -0.6037
 1682SOL     OW16507   3.915   4.149   6.259 -0.0197 -0.1694  0.4765
 1682SOL    HW116508   3.946   4.173   6.346  0.0377 -0.9650  0.6719
 1682SOL    HW216509   3.959   4.211   6.201  0.8005 -1.5675 -0.3723
 1683SOL     OW16510   3.510   3.226   4.489  0.4417 -0.2225 -0.3212
 1683SOL    HW116511   3.498   3.211   4.395  0.5088 -0.2101 -0.3320
 1683SOL    HW216512   3.433   3.189   4.533  0.3414  1.0961  0.6299
 1684SOL     OW16513   2.191   2.389   6.223  0.0071 -0.3672  0.6059
 1684SOL    HW116514   2.277   2.354   6.197  1.0137  2.1353  0.5131
 1684SOL    HW216515   2.136   2.326   6.177  1.3825 -1.4531  0.4379
 1685SOL     OW16516   2.379   4.642   9.100  1.0117 -0.2408 -0.0671
 1685SOL    HW116517   2.290   4.607   9.094  0.4012  1.4246 -0.5774
 1685SOL    HW216518   2.364   0.014   9.086 -0.4231 -0.5193 -0.3891
 1686SOL     OW16519   3.039   0.433   8.343  0.6430 -0.1329 -0.0387
 1686SOL    HW116520   3.071   0.523   8.347  1.5888 -0.3875 -1.7933
 1686SOL    HW216521   2.985   0.433   8.264 -0.4004 -0.2514  0.6767
 1687SOL     OW16522   2.829   2.774   8.063  0.0429  0.5087 -0.3430
 1687SOL    HW116523   2.757   2.837   8.063 -0.4189 -0.0284  1.3336
 1687SOL    HW216524   2.812   2.718   8.138  0.8326 -0.5934 -0.9805
 1688SOL     OW16525   0.624   3.707   7.064  0.2121  0.0788 -0.7255
 1688SOL    HW116526   0.540   3.689   7.022  0.1567 -1.2316 -0.0634
 1688SOL    HW216527   0.665   3.621   7.075  0.1084  0.3027  1.4188
 1689SOL     OW16528   1.297   0.864   2.542  0.6634  0.1133 -0.3023
 1689SOL    HW116529   1.259   0.794   2.489 -0.7274  0.0088  0.8245
 1689SOL    HW216530   1.283   0.838   2.634  0.0231  0.2269 -0.3621
 1690SOL     OW16531   1.516   3.665  11.327  0.2175  0.5155 -0.1295
 1690SOL    HW116532   1.580   3.734  11.343  0.4264  0.8647 -2.5843
 1690SOL    HW216533   1.468   3.694  11.249 -0.9269  0.5270  0.5748
 1691SOL     OW16534   4.036   0.168  14.907  0.3684  0.6288 -0.5429
 1691SOL    HW116535   4.060   0.246  14.957  0.9662  0.7483 -1.0110
 1691SOL    HW216536   3.944   0.178  14.885 -0.5871 -2.3833  2.0491
 1692SOL     OW16537   2.079   4.469   9.260  0.2456  0.0653 -0.2466
 1692SOL    HW116538   2.081   4.554   9.215 -3.1592  1.1807  1.6280
 1692SOL    HW216539   2.135   4.475   9.338  0.8029  0.8877 -0.7155
 1693SOL     OW16540   2.008   3.963   5.328 -0.2480  0.7566 -0.1037
 1693SOL    HW116541   1.941   3.997   5.388  0.6752  2.2993  0.0632
 1693SOL    HW216542   2.053   3.902   5.386 -0.4001  1.9111  1.2338
 1694SOL     OW16543   1.029   2.793   3.391  0.0241  0.2363 -0.7127
 1694SOL    HW116544   1.006   2.832   3.475  0.1469  0.4772 -0.7884
 1694SOL    HW216545   0.948   2.794   3.339  0.1602  0.7946 -0.9204
 1695SOL     OW16546   1.040   0.070   8.584  0.2662 -0.3581  0.3164
 1695SOL    HW116547   1.010   0.154   8.618 -1.9763 -0.4449 -1.4485
 1695SOL    HW216548   1.080   0.090   8.499 -0.1579  3.0571  0.9101
 1696SOL     OW16549   3.785   0.001   3.268  0.1468 -0.1617  0.2961
 1696SOL    HW116550   3.792   4.629   3.290  0.9182 -0.2345 -0.2688
 1696SOL    HW216551   3.711   0.015   3.328  0.8621  1.0262  0.8937
 1697SOL     OW16552   0.972   3.536  14.523 -0.1991  0.7195  0.2558
 1697SOL    HW116553   0.883   3.501  14.523  0.4962 -1.0486  0.8978
 1697SOL    HW216554   0.990   3.499  14.610  1.8039 -3.3248 -1.8816
 1698SOL     OW16555   1.570   1.935   6.264 -0.4137  0.1454 -0.4298
 1698SOL    HW116556   1.598   1.916   6.353 -0.7758  1.6909  0.0043
 1698SOL    HW216557   1.599   1.862   6.209 -1.4678 -0.1950 -0.5427
 1699SOL     OW16558   0.733   4.486   5.241 -0.0537 -0.1043 -0.3470
 1699SOL    HW116559   0.659   4.439   5.278 -0.3881 -0.5207 -1.5854
 1699SOL    HW216560   0.764   4.548   5.308 -1.4358  0.7665 -0.4999
 1700SOL     OW16561   1.002   1.148  14.455 -0.2247 -0.0909  0.1024
 1700SOL    HW116562   0.955   1.140  14.538 -0.6919  0.9321 -0.0655
 1700SOL    HW216563   0.961   1.071  14.414 -1.2305  0.2282  0.5216
 1701SOL     OW16564   3.558   1.421   5.531 -0.8584 -0.1547 -0.1705
 1701SOL    HW116565   3.463   1.431   5.524 -0.9794 -0.1222  1.4050
 1701SOL    HW216566   3.568   1.356   5.600 -1.6011  0.4989  0.5584
 1702SOL     OW16567   2.172   0.156   6.988  0.2064  0.1766 -0.3851
 1702SOL    HW116568   2.210   0.187   6.905  0.8028  0.4362 -0.0120
 1702SOL    HW216569   2.088   0.198   7.006  0.7040  0.6986  0.6547
 1703SOL     OW16570   3.146   1.533   2.568 -0.5477 -0.2732 -0.1984
 1703SOL    HW116571   3.082   1.508   2.501 -1.6555 -1.1648  1.1776
 1703SOL    HW216572   3.228   1.499   2.534  1.0270  1.9158  1.4359
 1704SOL     OW16573   1.426   3.691   6.468  0.2626 -0.4441  0.1974
 1704SOL    HW116574   1.449   3.689   6.375 -0.2278 -1.9326  0.1167
 1704SOL    HW216575   1.431   3.784   6.491 -2.4899 -1.1104  3.4836
 1705SOL     OW16576   4.297   2.633  17.023 -0.6058 -0.7264 -0.0692
 1705SOL    HW116577   4.381   2.628  16.977 -1.5581 -1.2488 -1.7493
 1705SOL    HW216578   4.320   2.680  17.103 -0.8306 -2.9712  1.3266
 1706SOL     OW16579   2.085   0.492   6.300 -0.1964  0.0089  0.5141
 1706SOL    HW116580   2.167   0.503   6.348 -0.1464  0.5965  0.2974
 1706SOL    HW216581   2.077   0.397   6.298  1.8493 -0.1194 -1.4968
 1707SOL     OW16582   2.772   3.294  17.683 -0.3780  0.1742 -0.6493
 1707SOL    HW116583   2.699   3.271  17.625 -0.0570 -2.0348 -0.1967
 1707SOL    HW216584   2.803   3.377  17.647 -1.3922  1.1704  0.7774
 1708SOL     OW16585   3.234   0.658   2.856 -0.3807  0.1327  0.1198
 1708SOL    HW116586   3.296   0.643   2.927 -1.1060  0.8622  0.9119
 1708SOL    HW216587   3.293   0.638   2.784  0.5803 -1.6083  1.3940
 1709SOL     OW16588   3.759   0.302   7.601  0.0734  0.4226 -0.2352
 1709SOL    HW116589   3.781   0.214   7.571  0.6964 -0.4756  2.8688
 1709SOL    HW216590   3.774   0.296   7.695 -2.5749  2.0675  0.3067
 1710SOL     OW16591   0.913   4.268   6.544 -0.0438  0.0771 -0.5215
 1710SOL    HW116592   0.995   4.262   6.593 -0.7778  0.9638  0.7950
 1710SOL    HW216593   0.857   4.304   6.613  2.6316  2.4399  0.4266
 1711SOL     OW16594   0.184   1.450  13.958  0.3925 -0.1050 -0.1544
 1711SOL    HW116595   0.094   1.481  13.944  0.5132  0.3174  0.0271
 1711SOL    HW216596   0.225   1.536  13.964  1.5382 -0.7285  0.9709
 1712SOL     OW16597   1.752   1.726   5.739 -0.2881  0.0234  0.3260
 1712SOL    HW116598   1.826   1.777   5.708 -0.1052 -0.3588  0.1366
 1712SOL    HW216599   1.703   1.721   5.656  0.9923 -2.6354 -0.2679
 1713SOL     OW16600   0.474   3.808   9.808 -0.3549  0.0334 -0.4543
 1713SOL    HW116601   0.542   3.831   9.745  1.0024  2.0973  1.7253
 1713SOL    HW216602   0.451   3.721   9.777  0.3758 -0.9667  1.7873
 1714SOL     OW16603   1.967   4.356   1.569 -0.9276 -0.0673  0.2186
 1714SOL    HW116604   2.011   4.439   1.585  0.7412 -0.9526  0.3166
 1714SOL    HW216605   1.887   4.365   1.620 -1.2047  0.2175 -0.2716
 1715SOL     OW16606   3.316   1.480   1.851 -0.2034 -0.3063  0.1289
 1715SOL    HW116607   3.373   1.458   1.925  0.0268 -0.1322  0.0015
 1715SOL    HW216608   3.260   1.406   1.831 -0.0292 -0.5104  0.3996
 1716SOL     OW16609   2.957   3.787   6.651 -0.7226  0.4422  0.0969
 1716SOL    HW116610   2.938   3.693   6.644  2.5192 -0.1870 -0.3084
 1716SOL    HW216611   3.006   3.815   6.574  0.7008 -2.4662 -0.0669
 1717SOL     OW16612   2.824   3.884   1.733 -0.0439 -0.7038 -0.0659
 1717SOL    HW116613   2.809   3.799   1.775 -2.1290 -0.3136 -0.0092
 1717SOL    HW216614   2.919   3.888   1.723  0.0502 -1.9997  0.2870
 1718SOL     OW16615   1.997   0.913   9.215  0.1834  0.0106  0.0136
 1718SOL    HW116616   2.059   0.984   9.232 -0.6419  0.8028 -0.3174
 1718SOL    HW216617   2.032   0.885   9.131 -0.2339  0.2638 -0.2439
 1719SOL     OW16618   1.518   3.497   8.473 -0.3518 -0.0676 -0.2482
 1719SOL    HW116619   1.520   3.448   8.555 -0.5236 -1.3539 -1.0138
 1719SOL    HW216620   1.425   3.511   8.458 -0.2416 -0.5217 -1.3370
 1720SOL     OW16621   0.883   1.983   8.699  0.3154 -0.0302 -0.2803
 1720SOL    HW116622   0.855   2.051   8.760 -0.4756  0.9100 -1.6891
 1720SOL    HW216623   0.838   1.902   8.722 -2.2040  1.0358 -1.3352
 1721SOL     OW16624   4.204   3.492   2.410 -0.3241 -0.1814 -0.3932
 1721SOL    HW116625   4.223   3.471   2.319  0.1169 -0.0561 -0.3297
 1721SOL    HW216626   4.176   3.583   2.403  0.5868  0.0316 -1.2223
 1722SOL     OW16627   1.399   0.544  10.008 -0.1224 -0.3965  0.1859
 1722SOL    HW116628   1.456   0.611  10.045  0.3175 -0.1130 -1.0132
 1722SOL    HW216629   1.458   0.512   9.939  2.1772  1.5572  1.2625
 1723SOL     OW16630   2.032   0.257   9.200 -0.0200 -0.0462 -0.1489
 1723SOL    HW116631   1.989   0.210   9.271  3.0106  0.3685  1.9477
 1723SOL    HW216632   1.949   0.277   9.155 -0.6249  0.2515  1.0988
 1724SOL     OW16633   1.810   0.203   6.005 -0.4341  0.4785  0.5636
 1724SOL    HW116634   1.805   0.166   6.092 -0.7039 -2.3376 -0.6592
 1724SOL    HW216635   1.861   0.282   6.023  1.0503 -0.1659 -0.7919
 1725SOL     OW16636   3.910   0.945   1.595  0.3226  0.4029  0.4101
 1725SOL    HW116637   3.914   0.914   1.505  0.2200 -2.1770  1.3022
 1725SOL    HW216638   3.876   1.034   1.581 -1.4262 -0.1288  1.2341
 1726SOL     OW16639   2.291   3.655   3.532 -0.5122 -0.4362 -0.0853
 1726SOL    HW116640   2.260   3.694   3.614 -0.2527  1.2906 -0.8105
 1726SOL    HW216641   2.379   3.692   3.531 -0.7997  0.2500  0.0291
 1727SOL     OW16642   4.659   3.509   0.605 -0.6673  0.4428 -0.4019
 1727SOL    HW116643   4.700   3.436   0.652 -3.9021  1.9060  4.6462
 1727SOL    HW216644   4.709   3.577   0.649  0.7533 -0.8381 -0.0435
 1728SOL     OW16645   4.241   3.486  14.371 -0.1690  0.0904 -0.6024
 1728SOL    HW116646   4.276   3.435  14.298 -1.0132 -0.0105 -0.9354
 1728SOL    HW216647   4.326   3.518  14.403  0.4118 -0.4914 -1.5455
 1729SOL     OW16648   2.931   3.173   5.112  0.5067 -0.1597  0.0000
 1729SOL    HW116649   2.997   3.109   5.083 -0.2675 -0.4487 -1.0880
 1729SOL    HW216650   2.877   3.114   5.165 -1.7016  0.4174 -1.6232
 1730SOL     OW16651   3.588   3.314   4.045 -0.1384  0.4711 -0.3504
 1730SOL    HW116652   3.533   3.250   4.090  0.6678  0.5602  0.7626
 1730SOL    HW216653   3.636   3.360   4.113  0.1311  0.9819 -0.8876
 1731SOL     OW16654   4.338   2.465   5.284 -0.4461 -0.5613 -0.3954
 1731SOL    HW116655   4.410   2.416   5.243 -0.9951 -1.4835 -0.2514
 1731SOL    HW216656   4.383   2.521   5.347  0.6757 -3.0327  1.0152
 1732SOL     OW16657   4.185   0.997   6.559 -0.7527 -0.8708  0.3171
 1732SOL    HW116658   4.196   1.077   6.508 -0.2257 -0.6360  0.7957
 1732SOL    HW216659   4.257   1.005   6.623 -1.3239  0.8286  0.7526
 1733SOL     OW16660   2.778   4.005   8.224  0.5741  0.0738  0.2859
 1733SOL    HW116661   2.753   3.957   8.303 -2.8089  0.4410 -0.5806
 1733SOL    HW216662   2.754   3.947   8.152 -2.6952  1.6828  0.1064
 1734SOL     OW16663   1.380   0.441   6.718  0.2205 -0.1641  0.1815
 1734SOL    HW116664   1.434   0.363   6.721 -0.6069 -0.7760 -0.9667
 1734SOL    HW216665   1.340   0.445   6.805  3.7483 -0.0666  1.8044
 1735SOL     OW16666   1.308   2.770  13.057 -0.0810 -0.2518  0.0769
 1735SOL    HW116667   1.390   2.808  13.088 -1.7358  3.0767  0.3616
 1735SOL    HW216668   1.265   2.835  13.002  1.5843 -0.7001 -1.7446
 1736SOL     OW16669   0.932   3.635   4.802 -0.3253  0.6196  0.2305
 1736SOL    HW116670   0.929   3.721   4.760  0.2557  1.9437  2.8988
 1736SOL    HW216671   0.995   3.585   4.751  1.1647  2.6439  0.0746
 1737SOL     OW16672   4.490   0.343   8.164 -0.4681 -0.1342 -0.0363
 1737SOL    HW116673   4.448   0.324   8.248  1.8840 -0.1043  1.1288
 1737SOL    HW216674   4.470   0.270   8.104 -0.9369 -0.5435  0.6176
 1738SOL     OW16675   2.138   2.429   7.163 -0.4556  0.0137  0.0947
 1738SOL    HW116676   2.225   2.412   7.129 -0.4515  2.0029 -0.8803
 1738SOL    HW216677   2.122   2.363   7.230  0.4294 -0.5215 -0.2385
 1739SOL     OW16678   2.809   0.230   3.843 -0.2095 -0.5288 -0.6106
 1739SOL    HW116679   2.779   0.200   3.757  1.3848 -1.0255 -0.9959
 1739SOL    HW216680   2.767   0.174   3.908  1.4079  1.8772  2.5051
 1740SOL     OW16681   1.656   3.471   1.999  0.4252  0.5212 -0.2436
 1740SOL    HW116682   1.644   3.413   1.924  0.4884  0.2077 -0.0095
 1740SOL    HW216683   1.698   3.401   2.048  0.9997  0.1575 -1.2729
 1741SOL     OW16684   4.358   0.749   8.340 -0.4147 -0.3648 -0.2649
 1741SOL    HW116685   4.281   0.779   8.291 -0.3854  0.7107  0.3547
 1741SOL    HW216686   4.341   0.774   8.431  0.4093 -1.2355  0.1256
 1742SOL     OW16687   4.674   2.104   9.088 -0.6368  0.3227  0.4091
 1742SOL    HW116688   4.665   2.032   9.150 -1.7351 -0.4782 -0.6727
 1742SOL    HW216689   4.689   2.167   9.159  0.0519  1.9756 -1.2001
 1743SOL     OW16690   2.665   0.443  17.180  0.1270  0.4428  0.3962
 1743SOL    HW116691   2.638   0.534  17.189 -1.0125  0.2801 -1.3077
 1743SOL    HW216692   2.583   0.398  17.163  0.5340 -0.2716  0.3056
 1744SOL     OW16693   3.085   2.770  17.665 -0.3039 -0.1462  0.5418
 1744SOL    HW116694   3.084   2.692  17.610 -0.7650  1.0868 -1.1860
 1744SOL    HW216695   3.043   2.835  17.610 -1.6832 -1.7189 -0.2768
 1745SOL     OW16696   0.105   1.879  10.054 -0.0153  0.4203 -0.1770
 1745SOL    HW116697   0.018   1.916  10.040 -0.5080  0.0010  1.7293
 1745SOL    HW216698   0.097   1.810  10.120 -1.9006 -0.5711 -1.4445
 1746SOL     OW16699   0.237   1.474   5.181 -0.8359 -0.4699 -0.2069
 1746SOL    HW116700   0.172   1.536   5.150 -0.1121  0.9358  1.0529
 1746SOL    HW216701   0.312   1.534   5.186 -1.0448 -0.3281  1.3461
 1747SOL     OW16702   3.302   0.859   5.177  0.0681 -0.5056 -0.3383
 1747SOL    HW116703   3.364   0.860   5.251 -1.0033 -0.9601  0.5657
 1747SOL    HW216704   3.311   0.766   5.154  1.3907 -0.0271 -1.7733
 1748SOL     OW16705   1.746   2.935  16.179 -0.4597  0.0097  0.2563
 1748SOL    HW116706   1.694   3.002  16.135 -1.0945  0.0742  1.1131
 1748SOL    HW216707   1.719   2.874  16.110 -2.4913  0.2618  0.8257
 1749SOL     OW16708   1.866   4.396  16.697  0.0111  0.4094  0.0589
 1749SOL    HW116709   1.795   4.338  16.726 -0.1099  0.6529  0.2479
 1749SOL    HW216710   1.882   4.449  16.775 -1.1196  0.1086  0.5011
 1750SOL     OW16711   4.374   4.545   4.404 -0.1037 -0.1735  0.4468
 1750SOL    HW116712   4.328   4.513   4.325 -0.8631  0.2750  0.7089
 1750SOL    HW216713   4.447   4.589   4.360  0.1608  0.0602  1.1352
 1751SOL     OW16714   2.912   1.993   6.730 -0.8267  0.1781 -0.5747
 1751SOL    HW116715   2.867   1.926   6.679 -0.6410 -2.1610  2.2742
 1751SOL    HW216716   2.922   1.949   6.815  0.0582 -3.2714 -2.4585
 1752SOL     OW16717   4.366   3.211   6.835 -0.1449  0.9013 -0.0152
 1752SOL    HW116718   4.330   3.289   6.877  0.7533  0.5231  1.4657
 1752SOL    HW216719   4.337   3.149   6.902  2.4878  0.4348  0.7000
 1753SOL     OW16720   2.437   1.608   3.422 -0.3812  0.3356  0.3197
 1753SOL    HW116721   2.395   1.535   3.466 -1.4661  0.0710 -1.1508
 1753SOL    HW216722   2.421   1.593   3.328  0.5240 -1.6361  0.4764
 1754SOL     OW16723   0.036   1.564   9.915  0.4232  0.1103 -0.1729
 1754SOL    HW116724   0.016   1.645   9.961  1.7805 -0.0983  0.7968
 1754SOL    HW216725   0.100   1.602   9.855  0.7708  0.3326  0.3337
 1755SOL     OW16726   3.864   2.285   8.146 -0.3606  0.3207 -0.3276
 1755SOL    HW116727   3.907   2.351   8.201 -1.7555 -1.1747  2.5901
 1755SOL    HW216728   3.849   2.217   8.212 -0.2602 -1.3988 -2.0683
 1756SOL     OW16729   1.509   0.796  10.376  0.0303  0.4246  0.5588
 1756SOL    HW116730   1.597   0.764  10.396  0.6446  0.3160 -2.2747
 1756SOL    HW216731   1.451   0.736  10.424 -2.5056 -0.1315 -3.1208
 1757SOL     OW16732   3.217   1.023   9.479 -1.0080 -0.3677  0.1582
 1757SOL    HW116733   3.160   1.045   9.553 -1.2785 -1.5651  0.3158
 1757SOL    HW216734   3.146   1.023   9.415 -1.1989  2.2973  0.3841
 1758SOL     OW16735   0.794   3.735   3.830  0.0186  0.5248  0.1612
 1758SOL    HW116736   0.738   3.761   3.904 -1.9700 -1.4823 -0.6488
 1758SOL    HW216737   0.762   3.648   3.807  0.3287  0.2132  0.9121
 1759SOL     OW16738   3.011   1.099   6.041 -0.1039 -0.2041 -0.4972
 1759SOL    HW116739   3.018   1.131   5.951 -1.2779 -0.0768 -0.5398
 1759SOL    HW216740   3.102   1.105   6.071  0.0469  0.9431 -1.1827
 1760SOL     OW16741   2.002   1.938   5.367 -0.7048 -0.0919  0.1893
 1760SOL    HW116742   2.082   1.910   5.323 -0.0797  1.0096  0.6098
 1760SOL    HW216743   1.992   2.023   5.324 -1.4736 -0.8172 -1.0518
 1761SOL     OW16744   0.505   3.525  17.338 -0.0413 -0.1266  0.0371
 1761SOL    HW116745   0.435   3.588  17.316 -1.2496 -0.3059  3.3756
 1761SOL    HW216746   0.456   3.443  17.343  0.6455 -0.4698  1.0761
 1762SOL     OW16747   3.167   1.215   1.742  0.3321  0.7779 -0.3057
 1762SOL    HW116748   3.115   1.135   1.743 -0.1505  1.0938  0.0173
 1762SOL    HW216749   3.258   1.184   1.738 -0.4237 -1.5218  0.8922
 1763SOL     OW16750   4.571   1.754   1.295 -0.0187  0.1168  0.2083
 1763SOL    HW116751   4.629   1.751   1.220  1.5139 -0.4499  1.4100
 1763SOL    HW216752   4.643   1.738   1.357  0.9104  0.4222 -0.7955
 1764SOL     OW16753   0.636   1.469  14.189  0.2193  0.2758  0.1817
 1764SOL    HW116754   0.665   1.499  14.275 -1.7949  2.8588 -0.0038
 1764SOL    HW216755   0.724   1.442  14.164  0.3207  0.6111  0.1700
 1765SOL     OW16756   3.518   1.709   2.644  0.0801 -0.5118  0.4437
 1765SOL    HW116757   3.452   1.710   2.574 -0.4466  2.4318  0.9786
 1765SOL    HW216758   3.557   1.793   2.623  0.3303 -1.0095 -1.1248
 1766SOL     OW16759   2.637   1.727   8.077 -0.8880  0.4333  0.0748
 1766SOL    HW116760   2.648   1.798   8.141 -3.1874 -0.7839  1.8182
 1766SOL    HW216761   2.672   1.647   8.117  0.9015  0.1937 -1.9677
 1767SOL     OW16762   0.290   4.546  10.176  0.2519  0.1922  0.3060
 1767SOL    HW116763   0.285   4.526  10.270  0.4924  0.9016  0.4719
 1767SOL    HW216764   0.328   4.468  10.135  1.7570  0.7337  0.6711
 1768SOL     OW16765   2.763   0.711  13.425 -0.0586 -0.8071 -0.1481
 1768SOL    HW116766   2.684   0.663  13.403 -1.4573  1.7978 -0.8871
 1768SOL    HW216767   2.817   0.632  13.423  0.6392 -0.3864  2.0416
 1769SOL     OW16768   1.720   0.281   3.024 -0.1668  0.1412 -0.0164
 1769SOL    HW116769   1.763   0.347   3.078 -0.7112 -0.4559  1.1719
 1769SOL    HW216770   1.642   0.324   2.990 -2.4869 -2.0911  2.4485
 1770SOL     OW16771   0.046   0.773  17.570 -0.4998 -0.2122  0.4701
 1770SOL    HW116772   0.012   0.684  17.564  0.3782 -0.2857 -3.3299
 1770SOL    HW216773   0.074   0.776  17.661  1.8200 -0.6963 -0.2342
 1771SOL     OW16774   3.669   2.221   9.361 -0.0976 -0.9581 -0.1007
 1771SOL    HW116775   3.622   2.199   9.442  0.2307  0.1211  0.3839
 1771SOL    HW216776   3.627   2.303   9.337 -1.4476 -1.3829  0.8111
 1772SOL     OW16777   1.616   3.243   6.935  0.9562  0.1883  0.2395
 1772SOL    HW116778   1.557   3.286   6.997  0.6598 -0.6692  0.5399
 1772SOL    HW216779   1.571   3.160   6.918  2.7010 -0.5178 -0.9177
 1773SOL     OW16780   1.018   3.532   8.194 -0.7275  0.1583  0.0543
 1773SOL    HW116781   0.947   3.473   8.219 -1.9668  1.1920 -1.0588
 1773SOL    HW216782   1.006   3.603   8.259 -2.4949 -1.0877  1.0959
 1774SOL     OW16783   3.155   1.964   6.606  0.9232 -0.3275  0.2941
 1774SOL    HW116784   3.067   1.976   6.642  2.0338 -0.8118  3.1989
 1774SOL    HW216785   3.208   1.953   6.685  1.6055  2.2558  0.2058
 1775SOL     OW16786   1.063   4.516   9.112 -0.0753  0.4479 -0.1073
 1775SOL    HW116787   1.038   4.501   9.203  0.3684 -0.2885 -0.1099
 1775SOL    HW216788   1.156   4.529   9.125 -0.1681  0.9984 -0.0172
 1776SOL     OW16789   4.011   4.327   6.088  0.0250  0.1856 -0.4756
 1776SOL    HW116790   3.944   4.337   6.021  2.6337 -0.4393 -3.2097
 1776SOL    HW216791   4.027   4.420   6.104 -0.0521  0.2213 -0.6096
 1777SOL     OW16792   4.560   2.959   3.013  0.1914  0.8781  1.0181
 1777SOL    HW116793   4.603   3.044   3.014 -0.6374  1.3318 -0.8798
 1777SOL    HW216794   4.593   2.906   2.940 -0.6959  1.0596  0.4774
 1778SOL     OW16795   1.191   3.161  17.144  0.1477  0.3012 -0.4972
 1778SOL    HW116796   1.142   3.174  17.225  0.9174 -0.0872  0.0287
 1778SOL    HW216797   1.189   3.065  17.141 -1.7165  0.2856  1.0921
 1779SOL     OW16798   4.054   3.775   5.765 -0.4208  0.2970 -0.3590
 1779SOL    HW116799   4.088   3.743   5.849 -3.4242 -3.5664 -0.6295
 1779SOL    HW216800   4.131   3.808   5.720  0.8919  0.7119  2.1903
 1780SOL     OW16801   2.177   2.505   8.107  0.0038 -0.0805 -0.0113
 1780SOL    HW116802   2.224   2.447   8.167  0.2212 -0.2948 -0.3917
 1780SOL    HW216803   2.159   2.454   8.028  1.2280 -0.2162 -0.1930
 1781SOL     OW16804   1.071   0.667   9.298 -0.4640  0.2921  0.7293
 1781SOL    HW116805   1.077   0.732   9.368  0.0485  0.5403  0.4575
 1781SOL    HW216806   1.107   0.591   9.343 -0.7331  0.4517  1.2189
 1782SOL     OW16807   1.267   0.028   8.127  0.9901  0.1749  0.0665
 1782SOL    HW116808   1.362   0.034   8.131  1.0298  0.0543 -0.7662
 1782SOL    HW216809   1.263   0.027   8.031  1.3582 -0.7719  0.0531
 1783SOL     OW16810   0.388   4.650   4.045 -0.7360 -0.1053  0.0982
 1783SOL    HW116811   0.365   0.010   4.091 -1.9097  0.2421 -1.1077
 1783SOL    HW216812   0.318   4.650   3.980 -1.8186 -0.9849  1.2628
 1784SOL     OW16813   1.189   1.883   6.075 -0.1337  0.0274  0.3392
 1784SOL    HW116814   1.187   1.872   6.170  1.5321  4.0712  0.8227
 1784SOL    HW216815   1.185   1.978   6.068 -0.9975 -0.0018  0.4162
 1785SOL     OW16816   1.805   0.738  11.827  0.6695  0.3401 -0.0507
 1785SOL    HW116817   1.754   0.660  11.806 -2.3997  1.6047  2.6309
 1785SOL    HW216818   1.848   0.759  11.744  0.3991  0.0116 -0.2718
 1786SOL     OW16819   4.260   4.662  13.032  0.7389 -0.0036 -0.8692
 1786SOL    HW116820   4.282   4.646  13.123 -0.4164 -0.5093 -0.6745
 1786SOL    HW216821   4.317   4.595  12.993 -0.3748 -0.6724 -1.3497
 1787SOL     OW16822   3.071   4.170   4.976 -0.0173  0.0116  0.1248
 1787SOL    HW116823   3.018   4.247   4.953  0.5348  0.3288 -0.0964
 1787SOL    HW216824   3.100   4.209   5.059  0.7856 -2.3611  0.9540
 1788SOL     OW16825   2.678   3.030   2.833 -0.1724  0.0571  1.1093
 1788SOL    HW116826   2.591   2.990   2.824 -0.5881  1.1084  0.4114
 1788SOL    HW216827   2.716   2.987   2.909  0.1763  0.2540  1.0481
 1789SOL     OW16828   3.222   4.055   6.606  0.2253  0.2155 -1.0282
 1789SOL    HW116829   3.149   4.040   6.546 -0.0941 -0.7740 -0.3926
 1789SOL    HW216830   3.213   3.978   6.663 -2.2407  0.2372 -1.3926
 1790SOL     OW16831   2.725   0.805  12.228  0.7034 -0.3125  0.0852
 1790SOL    HW116832   2.818   0.798  12.208  0.3067 -0.9872 -1.5360
 1790SOL    HW216833   2.686   0.797  12.141 -1.7804  1.2557  1.0646
 1791SOL     OW16834   0.706   0.472   5.176  0.2905  0.3784 -0.3916
 1791SOL    HW116835   0.660   0.554   5.194  1.3361  0.8781  0.0296
 1791SOL    HW216836   0.633   0.414   5.197  0.5289  0.2392  0.0520
 1792SOL     OW16837   3.142   1.162  12.190  0.5101  0.3964  0.2815
 1792SOL    HW116838   3.162   1.180  12.282 -1.4006  0.5425  0.6507
 1792SOL    HW216839   3.083   1.235  12.171  0.1953  0.0569 -0.0366
 1793SOL     OW16840   1.116   4.103  14.966  0.2597  0.2293 -0.7726
 1793SOL    HW116841   1.114   4.194  14.995  2.0472  0.3597 -1.0942
 1793SOL    HW216842   1.139   4.062  15.049  1.5459  2.5415  0.0065
 1794SOL     OW16843   0.624   4.645   7.897  0.1878  0.2995 -0.0806
 1794SOL    HW116844   0.543   4.610   7.859 -0.6729  2.6019 -0.3231
 1794SOL    HW216845   0.685   4.640   7.823 -2.2838 -1.1516 -2.0275
 1795SOL     OW16846   0.189   2.792  12.966 -0.2184  0.4790 -0.6887
 1795SOL    HW116847   0.209   2.882  12.994 -1.0197  0.3683  0.2582
 1795SOL    HW216848   0.234   2.788  12.882  1.8980  0.5007  0.4436
 1796SOL     OW16849   2.180   2.230   0.271  0.2265 -0.6297 -0.1193
 1796SOL    HW116850   2.126   2.274   0.205  0.8041 -1.4230 -1.1203
 1796SOL    HW216851   2.239   2.187   0.209 -1.9802 -0.2393 -2.4721
 1797SOL     OW16852   0.034   4.443   8.640  0.2585 -0.3725 -0.1040
 1797SOL    HW116853   0.085   4.439   8.720 -3.5280 -0.5571  2.2684
 1797SOL    HW216854   4.712   4.528   8.649  0.4188 -0.2876 -0.1329
 1798SOL     OW16855   4.347   1.251   9.301  0.6428 -0.0187  0.4251
 1798SOL    HW116856   4.322   1.290   9.385  1.8107  1.4131  0.1125
 1798SOL    HW216857   4.438   1.281   9.300  0.9141 -0.8586  0.8873
 1799SOL     OW16858   2.899   0.510   7.841 -0.3295  0.5487  0.1978
 1799SOL    HW116859   2.931   0.573   7.776  2.1573 -1.6354 -0.6750
 1799SOL    HW216860   2.838   0.455   7.793 -1.2767  2.0267 -0.3102
 1800SOL     OW16861   1.943   3.184  14.609 -0.0959 -0.0532  0.4280
 1800SOL    HW116862   1.940   3.117  14.677  2.4460 -1.0971 -0.4870
 1800SOL    HW216863   2.035   3.175  14.584  0.2817  0.9748  1.4531
 1801SOL     OW16864   3.442   3.083  15.409 -0.4691 -0.0698  0.1304
 1801SOL    HW116865   3.357   3.069  15.368 -0.8857 -0.5458  1.1805
 1801SOL    HW216866   3.423   3.082  15.502  0.1392  1.4195  0.2725
 1802SOL     OW16867   3.370   2.757   8.042 -0.3022 -0.2009 -0.0283
 1802SOL    HW116868   3.426   2.831   8.064 -0.4201 -0.3152  0.6693
 1802SOL    HW216869   3.390   2.756   7.948  1.9526  3.5677  0.4215
 1803SOL     OW16870   2.248   4.330  17.668 -0.0681 -0.8289  1.0724
 1803SOL    HW116871   2.155   4.335  17.648  0.4891  0.5848 -1.2473
 1803SOL    HW216872   2.264   4.424  17.678  0.3906 -0.8333  0.3948
 1804SOL     OW16873   2.330   4.078   7.835 -0.1762  0.5716 -0.5647
 1804SOL    HW116874   2.292   3.998   7.870 -1.6759  1.2747 -0.5777
 1804SOL    HW216875   2.396   4.099   7.901  0.1616 -0.3713 -0.6006
 1805SOL     OW16876   3.542   2.311  13.692 -0.2857 -0.2519  0.0618
 1805SOL    HW116877   3.485   2.375  13.735  2.0686  3.3767 -2.2555
 1805SOL    HW216878   3.598   2.286  13.765 -2.0217 -2.2877  0.7077
 1806SOL     OW16879   3.201   3.651   7.929  0.4716  0.1193 -0.6912
 1806SOL    HW116880   3.293   3.672   7.911  0.3858  0.9741 -0.0738
 1806SOL    HW216881   3.168   3.738   7.950  0.3668 -0.5199  1.7869
 1807SOL     OW16882   0.464   3.160   2.967  0.0857  0.7698  0.3007
 1807SOL    HW116883   0.379   3.126   2.993  1.1406  0.2239  2.9468
 1807SOL    HW216884   0.419   3.223   2.910 -0.3461  0.6840  0.5495
 1808SOL     OW16885   3.474   4.173   3.320  0.0468  0.1021  0.3283
 1808SOL    HW116886   3.468   4.193   3.414 -0.1858  1.7678 -0.0383
 1808SOL    HW216887   3.432   4.246   3.275 -0.5336  0.8963  2.1484
 1809SOL     OW16888   2.399   4.079   7.036  0.1818 -0.5869  0.0943
 1809SOL    HW116889   2.384   4.163   7.079  0.0611  0.1684 -1.4161
 1809SOL    HW216890   2.315   4.072   6.991  0.2822 -0.0064 -0.1863
 1810SOL     OW16891   1.989   1.335   0.534 -0.1218  0.2761  0.5505
 1810SOL    HW116892   1.899   1.369   0.535  0.5395  2.0163 -0.0753
 1810SOL    HW216893   2.037   1.415   0.514 -0.3808  0.1657 -0.5177
 1811SOL     OW16894   0.136   0.640   4.282 -0.0891 -0.0057 -0.8415
 1811SOL    HW116895   0.204   0.681   4.229  1.4000 -0.1209  0.9647
 1811SOL    HW216896   0.112   0.715   4.337 -1.0855  1.4323 -3.2616
 1812SOL     OW16897   3.438   3.500   8.972 -0.7923  0.0639 -0.2441
 1812SOL    HW116898   3.532   3.495   8.993 -0.3849 -0.4525 -2.1534
 1812SOL    HW216899   3.430   3.586   8.931  0.2582 -0.9274 -2.5137
 1813SOL     OW16900   0.805   1.369   8.688  0.2307 -0.0086 -0.9051
 1813SOL    HW116901   0.730   1.334   8.640 -1.0401  0.7748  0.4999
 1813SOL    HW216902   0.760   1.424   8.752 -0.4841  0.6062 -1.9352
 1814SOL     OW16903   2.678   0.587   2.740 -0.0491 -0.1697 -0.3073
 1814SOL    HW116904   2.761   0.557   2.702  0.3096  2.4267 -1.5768
 1814SOL    HW216905   2.694   0.679   2.757  0.8033 -0.2764 -0.5399
 1815SOL     OW16906   2.452   2.819   0.411 -0.2476  0.6818 -0.4711
 1815SOL    HW116907   2.382   2.756   0.429 -2.4960  2.3138 -3.5339
 1815SOL    HW216908   2.513   2.762   0.365 -1.2074  0.2321 -1.1866
 1816SOL     OW16909   0.988   4.693   4.598 -0.2684  0.3013 -0.1778
 1816SOL    HW116910   0.977   0.015   4.683  0.9907  1.4092 -0.5624
 1816SOL    HW216911   0.982   0.054   4.547 -1.7437  0.6650  0.5691
 1817SOL     OW16912   3.894   3.121  11.398  0.5888  0.2911  0.0902
 1817SOL    HW116913   3.889   3.113  11.493 -0.1260 -0.1461  0.0082
 1817SOL    HW216914   3.862   3.038  11.363  0.4465  0.0265  0.8491
 1818SOL     OW16915   1.725   1.633   8.707 -0.5564 -0.4361  0.5422
 1818SOL    HW116916   1.745   1.725   8.718  0.3260 -0.7114  1.2575
 1818SOL    HW216917   1.737   1.641   8.612 -2.2211  0.5801  0.4259
 1819SOL     OW16918   2.142   3.746   9.989  0.4335  0.2011  0.1517
 1819SOL    HW116919   2.114   3.654   9.981  1.2348  0.0982 -1.4800
 1819SOL    HW216920   2.087   3.772  10.063  0.9906  1.2772  0.1809
 1820SOL     OW16921   0.179   0.069  10.879 -0.1072  0.3276 -0.3989
 1820SOL    HW116922   0.254   0.070  10.820  1.1852  2.2980  1.2994
 1820SOL    HW216923   0.162   4.698  10.858 -0.6876  0.4527 -0.4972
 1821SOL     OW16924   0.636   2.031   3.871  0.8600 -0.4994 -1.2205
 1821SOL    HW116925   0.597   1.963   3.816  0.1321  2.2325 -4.0465
 1821SOL    HW216926   0.655   1.977   3.948 -1.3531  4.1361  2.5760
 1822SOL     OW16927   2.496   0.671   3.814 -0.0806  0.3539 -0.0935
 1822SOL    HW116928   2.503   0.658   3.720  1.9815 -0.6706  0.1994
 1822SOL    HW216929   2.415   0.722   3.817  0.1117  0.6578  0.0378
 1823SOL     OW16930   0.216   2.008   2.833 -0.3709 -0.8216  0.4959
 1823SOL    HW116931   0.201   2.051   2.748  0.9545  0.1547  0.7558
 1823SOL    HW216932   0.176   1.925   2.809  0.5438 -0.9423 -0.6249
 1824SOL     OW16933   3.420   2.226   5.195 -0.2179 -0.1065  0.3451
 1824SOL    HW116934   3.349   2.164   5.179 -1.2870  1.1875  0.0011
 1824SOL    HW216935   3.494   2.180   5.235  0.2393  1.0062  0.7694
 1825SOL     OW16936   3.226   2.410   4.195 -0.5769 -0.4438 -0.8687
 1825SOL    HW116937   3.298   2.409   4.132  0.0633  0.2202 -0.1581
 1825SOL    HW216938   3.249   2.488   4.246  1.0088 -1.5152  0.0589
 1826SOL     OW16939   0.065   0.709   5.612  0.1215  0.1913  0.0296
 1826SOL    HW116940   0.071   0.751   5.698 -2.0217  1.6204 -0.5388
 1826SOL    HW216941   4.697   0.717   5.579  0.1759  1.4134  0.2013
 1827SOL     OW16942   1.341   4.179   5.836 -0.2932 -0.1012  0.8201
 1827SOL    HW116943   1.320   4.230   5.914  1.4444  1.3004  0.3880
 1827SOL    HW216944   1.283   4.103   5.837  0.3561 -0.6106  0.4094
 1828SOL     OW16945   1.127   0.829  13.951  0.0528 -0.1040  0.6539
 1828SOL    HW116946   1.164   0.879  14.024  0.9058  1.4770 -0.8329
 1828SOL    HW216947   1.179   0.871  13.881  0.2030 -3.0814 -0.9977
 1829SOL     OW16948   3.325   0.423   8.831 -0.0173 -0.2622 -0.2338
 1829SOL    HW116949   3.294   0.363   8.764 -0.7890  0.7382 -0.7774
 1829SOL    HW216950   3.261   0.393   8.894  0.1104  0.1457  0.0919
 1830SOL     OW16951   4.398   3.466   5.280 -0.0608  0.0076 -0.1299
 1830SOL    HW116952   4.326   3.439   5.337 -1.5585  0.6537 -1.7463
 1830SOL    HW216953   4.437   3.540   5.326 -0.5126  0.8035 -1.0482
 1831SOL     OW16954   0.297   2.439   7.834 -0.0865 -0.0800  0.0934
 1831SOL    HW116955   0.293   2.533   7.854  1.0245  0.0864 -0.4400
 1831SOL    HW216956   0.325   2.389   7.911 -0.8567 -1.2923 -0.4321
 1832SOL     OW16957   0.568   2.396   2.626  0.2889  0.2522 -0.2374
 1832SOL    HW116958   0.533   2.320   2.673 -0.6149  1.0474  0.3791
 1832SOL    HW216959   0.644   2.358   2.582 -0.3501 -1.3094 -0.0146
 1833SOL     OW16960   2.080   0.038   7.780 -0.0848  0.0367  0.1656
 1833SOL    HW116961   2.111   4.670   7.794  1.7276  1.0937  2.7902
 1833SOL    HW216962   2.056   0.054   7.872  1.3547  0.6859  0.4255
 1834SOL     OW16963   1.756   2.893   8.462 -0.2287  0.1686  0.4180
 1834SOL    HW116964   1.734   2.885   8.555 -0.8089  0.2882  0.2935
 1834SOL    HW216965   1.692   2.962   8.444 -1.6748 -0.3510  3.5878
 1835SOL     OW16966   3.439   0.694   0.786 -0.0403  0.0448  0.1001
 1835SOL    HW116967   3.522   0.689   0.833 -0.9437 -2.2591  1.4800
 1835SOL    HW216968   3.376   0.707   0.857 -0.1282 -0.2827  0.0829
 1836SOL     OW16969   1.972   1.236   7.464 -0.8725  0.3091  0.2180
 1836SOL    HW116970   2.003   1.148   7.441 -1.4359 -0.3439  1.9761
 1836SOL    HW216971   1.944   1.214   7.552 -1.3577  0.8569  0.2025
 1837SOL     OW16972   2.408   0.926   2.052 -0.2789 -0.4380  0.2136
 1837SOL    HW116973   2.465   0.871   2.106 -0.1810 -0.9017 -0.3645
 1837SOL    HW216974   2.455   1.008   2.037 -0.2510 -0.1236  1.9768
 1838SOL     OW16975   0.696   3.471   9.929 -0.1177 -0.0963  0.5070
 1838SOL    HW116976   0.727   3.447  10.016 -0.4934 -3.3814 -0.2762
 1838SOL    HW216977   0.746   3.549   9.906  0.1077 -0.5106 -0.4206
 1839SOL     OW16978   1.220   0.191  11.431 -0.4240  0.5708 -0.2223
 1839SOL    HW116979   1.160   0.140  11.377 -0.8458  0.8835 -0.0472
 1839SOL    HW216980   1.237   0.258  11.364  0.7069  0.0582 -0.4470
 1840SOL     OW16981   0.978   3.486   5.483  0.9410 -0.6156 -0.7556
 1840SOL    HW116982   1.060   3.451   5.447  0.0842 -3.5741  0.1414
 1840SOL    HW216983   1.002   3.552   5.548 -1.6933  0.1364 -0.5318
 1841SOL     OW16984   1.177   3.513   7.836 -0.2491  0.2271  0.7296
 1841SOL    HW116985   1.117   3.458   7.785  1.6142  2.3748 -3.7736
 1841SOL    HW216986   1.219   3.565   7.768  0.8760 -0.7019  0.7102
 1842SOL     OW16987   4.177   3.261   8.361  0.3406  0.1907 -0.4752
 1842SOL    HW116988   4.246   3.304   8.312  1.8240 -0.5202  0.9758
 1842SOL    HW216989   4.101   3.319   8.351  0.0573 -0.3662 -1.5623
 1843SOL     OW16990   0.961   3.051   3.565 -0.7337  0.3833  0.1908
 1843SOL    HW116991   0.897   2.983   3.586 -0.1890 -0.1916  0.0267
 1843SOL    HW216992   0.974   3.093   3.650  0.0449 -0.0866  0.3113
 1844SOL     OW16993   4.253   3.470   2.950 -0.3777  0.1391  0.0607
 1844SOL    HW116994   4.347   3.451   2.948 -0.3350  0.7300 -3.7672
 1844SOL    HW216995   4.236   3.479   3.044 -1.1600  0.8869 -0.1541
 1845SOL     OW16996   2.818   1.390   1.646  0.0804  0.6204 -1.1030
 1845SOL    HW116997   2.851   1.301   1.655  1.3848  1.3366  1.3950
 1845SOL    HW216998   2.726   1.365   1.653  0.5390 -0.7200  0.0352
 1846SOL     OW16999   4.504   2.698   0.053 -0.5217 -0.1500 -0.0388
 1846SOL    HW117000   4.524   2.784   0.088  0.0697  0.1318 -1.0695
 1846SOL    HW217001   4.414   2.712   0.023 -0.6864  1.8214  1.4338
 1847SOL     OW17002   2.302   3.726   6.294  0.5543  0.1757  0.3084
 1847SOL    HW117003   2.330   3.682   6.214 -0.2325 -0.8399  0.5821
 1847SOL    HW217004   2.339   3.668   6.361  0.4961  0.7915  0.8747
 1848SOL     OW17005   4.163   3.982   9.891  0.4297 -0.0507  0.2222
 1848SOL    HW117006   4.230   3.928   9.933  2.7221  3.4034  1.1073
 1848SOL    HW217007   4.088   3.924   9.903  0.6842  0.0886  2.4272
 1849SOL     OW17008   3.528   1.850  12.199  0.1014 -0.5781 -0.1337
 1849SOL    HW117009   3.478   1.882  12.274 -1.4468 -1.4688 -0.7904
 1849SOL    HW217010   3.546   1.761  12.231 -2.8756 -1.1260  0.0487
 1850SOL     OW17011   1.351   1.829  10.532  0.5022  0.0933 -0.4310
 1850SOL    HW117012   1.265   1.870  10.538  0.5640  0.5665 -2.5199
 1850SOL    HW217013   1.340   1.762  10.600  1.3561 -0.9806 -1.3455
 1851SOL     OW17014   2.465   0.412   3.871  0.2619  0.4839  0.3379
 1851SOL    HW117015   2.399   0.409   3.941 -1.6883  0.4689 -1.5273
 1851SOL    HW217016   2.479   0.507   3.872  0.7907  0.4279 -2.2112
 1852SOL     OW17017   0.176   4.138   5.184 -0.3078 -0.0448 -0.6157
 1852SOL    HW117018   0.184   4.047   5.156  1.8805 -0.7304  2.1995
 1852SOL    HW217019   0.179   4.184   5.101 -0.0124  1.6955  0.3650
 1853SOL     OW17020   3.402   2.827   9.357 -0.6831 -0.0938 -0.0323
 1853SOL    HW117021   3.406   2.906   9.411  0.2792  0.1834 -0.5136
 1853SOL    HW217022   3.326   2.847   9.303 -0.4347 -1.5102 -0.8957
 1854SOL     OW17023   1.981   3.409   5.777 -0.3002 -0.3131 -0.0979
 1854SOL    HW117024   1.898   3.402   5.730  0.3773  1.8700 -1.6342
 1854SOL    HW217025   1.945   3.439   5.861  0.7975 -1.6820  0.8641
 1855SOL     OW17026   2.497   2.057   4.465  0.5149 -0.0551 -0.7254
 1855SOL    HW117027   2.435   2.101   4.407  0.4542 -0.0151 -0.6307
 1855SOL    HW217028   2.454   2.068   4.550  1.7305  0.0295 -0.1254
 1856SOL     OW17029   1.052   1.407  14.736  0.3301 -0.5267 -0.0876
 1856SOL    HW117030   1.010   1.323  14.717  1.4261 -0.8203 -1.2240
 1856SOL    HW217031   1.023   1.420  14.826 -3.2583 -0.0036 -1.3175
 1857SOL     OW17032   2.750   1.920   9.335 -0.1668 -0.8265 -0.1278
 1857SOL    HW117033   2.693   1.981   9.288 -0.9663  0.6175  2.7322
 1857SOL    HW217034   2.820   1.977   9.365 -1.4639  0.2712  0.8399
 1858SOL     OW17035   3.394   1.476   3.152  0.2595  0.2428 -0.4308
 1858SOL    HW117036   3.433   1.395   3.186  2.5445  0.9378 -1.3639
 1858SOL    HW217037   3.351   1.501   3.234  3.1169 -0.7541  1.3965
 1859SOL     OW17038   0.103   1.215   0.897 -0.1153  0.0597  0.5785
 1859SOL    HW117039   0.040   1.159   0.851  0.7117  0.8029 -1.4353
 1859SOL    HW217040   0.190   1.188   0.867  0.4181 -0.5836  2.6813
 1860SOL     OW17041   2.468   4.114  12.373 -0.3503  0.7270 -0.5270
 1860SOL    HW117042   2.534   4.149  12.313 -0.9632  1.2186 -0.9114
 1860SOL    HW217043   2.392   4.110  12.314 -0.7662  1.1665 -0.0196
 1861SOL     OW17044   2.406   1.517   5.048 -0.0369 -0.7298  0.1789
 1861SOL    HW117045   2.321   1.487   5.017  0.2637 -0.5289 -0.8304
 1861SOL    HW217046   2.453   1.453   4.994 -0.0459 -1.1998  0.7347
 1862SOL     OW17047   2.178   1.704   4.799 -0.2013 -0.5152  0.1468
 1862SOL    HW117048   2.256   1.728   4.749 -0.4701  0.3448  0.1527
 1862SOL    HW217049   2.201   1.612   4.813  0.5509 -0.4561 -0.6645
 1863SOL     OW17050   4.547   2.808   5.669  0.8067  0.0183  0.1146
 1863SOL    HW117051   4.499   2.890   5.681  0.6204  0.1216 -1.3299
 1863SOL    HW217052   4.624   2.825   5.722  1.1228 -1.9669  0.3060
 1864SOL     OW17053   4.660   4.401   2.632 -0.3759 -0.2447  0.4279
 1864SOL    HW117054   4.669   4.324   2.689  0.8364  0.8304  1.6782
 1864SOL    HW217055   4.699   4.360   2.555  0.6327 -0.8639  1.2688
 1865SOL     OW17056   3.109   1.891   1.213 -0.1473  0.4462  0.3754
 1865SOL    HW117057   3.069   1.907   1.299 -0.2070  2.0011  0.0637
 1865SOL    HW217058   3.201   1.871   1.233  0.3796  0.8108 -1.7564
 1866SOL     OW17059   2.435   3.372   0.585  0.3017  0.0039 -0.4283
 1866SOL    HW117060   2.372   3.325   0.639 -0.1279  1.2738  0.1861
 1866SOL    HW217061   2.515   3.359   0.636  0.7627 -3.5372 -2.0491
 1867SOL     OW17062   4.216   2.041  12.649  0.0908 -0.2029 -0.2907
 1867SOL    HW117063   4.185   2.051  12.559 -0.0489  1.5260 -0.0577
 1867SOL    HW217064   4.132   2.051  12.694 -0.4886  0.5861 -1.5237
 1868SOL     OW17065   2.157   2.068   5.650  0.6276  0.3856 -0.2999
 1868SOL    HW117066   2.182   2.123   5.725 -0.7368  0.2574  0.2404
 1868SOL    HW217067   2.213   2.101   5.579  0.8463  0.3817 -0.1299
 1869SOL     OW17068   4.348   0.172   9.013 -0.3227 -0.5951  0.0607
 1869SOL    HW117069   4.404   0.171   8.936 -2.3776 -2.0110 -1.4177
 1869SOL    HW217070   4.329   0.079   9.020  0.2213 -0.6896  0.2561
 1870SOL     OW17071   4.335   3.724   2.657 -0.0643 -0.1756  0.1113
 1870SOL    HW117072   4.377   3.638   2.650  1.6692  0.7728 -1.1822
 1870SOL    HW217073   4.246   3.698   2.679  0.2836 -2.7172 -1.4341
 1871SOL     OW17074   1.469   0.004   1.024 -0.3975  0.0371 -0.2393
 1871SOL    HW117075   1.388   0.047   1.051 -0.7453 -1.7585  1.5917
 1871SOL    HW217076   1.418   4.651   0.993 -2.5737  0.8892  1.3235
 1872SOL     OW17077   1.332   0.447  17.476 -0.6861 -0.2891 -0.2065
 1872SOL    HW117078   1.419   0.410  17.462 -1.2486 -1.6955  0.0479
 1872SOL    HW217079   1.277   0.369  17.470  1.7713 -2.1651  1.5487
 1873SOL     OW17080   1.549   1.018   6.196 -0.1431 -0.5436 -0.6833
 1873SOL    HW117081   1.566   1.054   6.109 -0.0801  0.7102 -0.1576
 1873SOL    HW217082   1.639   1.003   6.225 -0.4059  0.4444  0.6275
 1874SOL     OW17083   3.460   3.116   6.311 -0.0101  0.0291  0.6211
 1874SOL    HW117084   3.533   3.164   6.273  0.2246  0.8506  2.0905
 1874SOL    HW217085   3.423   3.179   6.373  1.4284 -1.2652  2.8049
 1875SOL     OW17086   0.685   1.819  12.817  0.1452 -0.1628 -0.1317
 1875SOL    HW117087   0.606   1.808  12.764 -0.2136 -1.3046  0.6316
 1875SOL    HW217088   0.657   1.888  12.877 -3.0082  0.4352 -2.3129
 1876SOL     OW17089   0.758   3.678   8.276  0.2720 -0.0259 -0.7060
 1876SOL    HW117090   0.728   3.620   8.206  0.4282 -2.6626  1.4025
 1876SOL    HW217091   0.826   3.731   8.234  0.7630  0.3484  0.5705
 1877SOL     OW17092   2.503   3.227   9.012  0.5071 -0.0969 -0.0307
 1877SOL    HW117093   2.456   3.264   9.087  1.3867  0.0097  0.4667
 1877SOL    HW217094   2.537   3.148   9.053 -0.5672  0.7275  2.5093
 1878SOL     OW17095   1.748   3.274  11.955 -0.3056  0.1054  0.2703
 1878SOL    HW117096   1.698   3.195  11.932  0.6426 -0.4289  0.0466
 1878SOL    HW217097   1.815   3.269  11.887  0.4399  0.0098  1.0133
 1879SOL     OW17098   4.605   4.122   7.331 -0.7488 -0.2263  0.8733
 1879SOL    HW117099   4.543   4.155   7.396 -1.7402 -0.2693 -0.0613
 1879SOL    HW217100   4.684   4.174   7.340 -1.4019  0.8060  0.5612
 1880SOL     OW17101   1.047   3.776   7.073 -0.1149  0.0388 -0.5710
 1880SOL    HW117102   1.106   3.713   7.115 -0.5254  0.7562  1.0791
 1880SOL    HW217103   1.007   3.730   6.999 -3.0632  0.8552  0.5208
 1881SOL     OW17104   2.378   0.876  17.644  0.4931 -0.4606  0.0316
 1881SOL    HW117105   2.471   0.894  17.627  0.1832  0.2199 -0.9478
 1881SOL    HW217106   2.398   0.849   0.048  0.4641  0.9414  0.4656
 1882SOL     OW17107   1.136   2.028   6.726  0.0801 -0.6437  0.9731
 1882SOL    HW117108   1.182   2.106   6.759 -0.8585 -0.3547  1.6127
 1882SOL    HW217109   1.207   1.964   6.724 -1.4865 -2.3284 -0.4956
 1883SOL     OW17110   3.804   1.538   5.594 -0.3487  0.3084  0.1164
 1883SOL    HW117111   3.811   1.618   5.542 -0.0461  0.0082 -0.3187
 1883SOL    HW217112   3.715   1.518   5.566 -1.0496  1.6942  1.3868
 1884SOL     OW17113   0.705   2.651  16.244  0.4476  0.2967  0.3636
 1884SOL    HW117114   0.769   2.673  16.312  1.6281 -1.5172 -0.1467
 1884SOL    HW217115   0.732   2.563  16.216  2.0831  1.3030 -1.1637
 1885SOL     OW17116   0.732   1.889   3.027 -0.2668 -0.0287  0.6611
 1885SOL    HW117117   0.733   1.798   3.057 -0.5128 -0.8026 -1.7040
 1885SOL    HW217118   0.649   1.923   3.062 -0.4464  0.7468 -0.5223
 1886SOL     OW17119   0.721   0.747   4.183 -0.2344  0.6461 -0.0758
 1886SOL    HW117120   0.814   0.769   4.185  0.5059 -2.4873  0.9581
 1886SOL    HW217121   0.689   0.819   4.237 -2.9994 -0.7262  0.0822
 1887SOL     OW17122   2.273   2.023   0.673  0.0860  0.5424 -0.1382
 1887SOL    HW117123   2.243   1.984   0.591  0.6642 -1.6435  0.7025
 1887SOL    HW217124   2.368   2.021   0.661  0.2904  0.3248  1.5978
 1888SOL     OW17125   1.477   1.935   8.614 -0.3678  0.1489  0.2539
 1888SOL    HW117126   1.415   1.994   8.656 -0.6790  0.8855 -1.2361
 1888SOL    HW217127   1.417   1.874   8.571 -0.9356  1.6651 -1.1120
 1889SOL     OW17128   2.147   1.778   9.186  0.0526 -0.8002 -0.1707
 1889SOL    HW117129   2.096   1.811   9.260 -0.6169  0.7950 -1.3332
 1889SOL    HW217130   2.110   1.693   9.162 -0.1182 -0.8131  0.1440
 1890SOL     OW17131   0.821   1.436   3.410  0.0846 -0.6381  0.3195
 1890SOL    HW117132   0.747   1.439   3.348  0.8731  3.1548 -0.4414
 1890SOL    HW217133   0.821   1.345   3.438  1.0187 -0.4868  0.7942
 1891SOL     OW17134   0.556   3.281   3.373  0.2680 -0.0009 -0.7183
 1891SOL    HW117135   0.606   3.200   3.360 -0.0045 -0.0502 -1.4553
 1891SOL    HW217136   0.613   3.334   3.428  0.3523  0.2868 -1.0829
 1892SOL     OW17137   1.837   3.075  12.137 -0.4564  0.1635 -0.2953
 1892SOL    HW117138   1.755   3.034  12.109 -0.3031 -0.0901 -0.3700
 1892SOL    HW217139   1.798   3.158  12.108 -1.0194 -0.3764 -1.0953
 1893SOL     OW17140   1.782   3.426  16.421  0.2475 -0.3568 -0.0663
 1893SOL    HW117141   1.847   3.386  16.478 -0.4227  1.3349  1.8818
 1893SOL    HW217142   1.701   3.384  16.449  0.9216 -0.2553  2.0486
 1894SOL     OW17143   4.162   0.084   4.235 -0.0836  0.1009 -0.0130
 1894SOL    HW117144   4.128   0.109   4.149 -0.1299  0.9443  0.2507
 1894SOL    HW217145   4.254   0.103   4.218  0.1712 -2.0179 -0.9915
 1895SOL     OW17146   0.751   4.366  13.974  0.1775  0.1617  0.4729
 1895SOL    HW117147   0.770   4.459  13.988 -0.2631  0.2626  0.4016
 1895SOL    HW217148   0.735   4.339  14.064  2.6135 -0.1083  0.8387
 1896SOL     OW17149   1.814   2.911   9.116 -0.5234  0.2971 -0.6206
 1896SOL    HW117150   1.796   3.000   9.145  0.7804  0.9216 -1.7029
 1896SOL    HW217151   1.828   2.915   9.021  0.9704 -0.4715 -0.4239
 1897SOL     OW17152   1.871   3.077   3.078  0.1620  0.4760 -0.2052
 1897SOL    HW117153   1.885   3.171   3.066 -0.7941  0.3949 -1.8818
 1897SOL    HW217154   1.926   3.065   3.156 -3.4186 -0.5969  2.1785
 1898SOL     OW17155   3.070   2.746   5.766  0.2812  0.0151  0.0144
 1898SOL    HW117156   3.129   2.819   5.786  0.1423 -0.1627  1.0599
 1898SOL    HW217157   3.031   2.728   5.851 -0.2671  0.3130 -0.1767
 1899SOL     OW17158   4.079   2.414  16.466  0.3922 -0.0720 -0.2773
 1899SOL    HW117159   4.056   2.323  16.450  3.2162 -0.5222 -1.6602
 1899SOL    HW217160   3.993   2.449  16.491 -0.1841 -0.9549 -1.0408
 1900SOL     OW17161   1.799   1.034   5.547  0.5843  0.1676  0.1044
 1900SOL    HW117162   1.759   0.990   5.472 -3.8407  2.2769  1.2165
 1900SOL    HW217163   1.799   1.122   5.509 -2.1415  0.3983  0.6348
 1901SOL     OW17164   0.192   1.107   8.788 -0.5366 -0.0458  0.4366
 1901SOL    HW117165   0.253   1.062   8.729 -3.1296 -2.2596 -0.6227
 1901SOL    HW217166   0.191   1.055   8.868 -1.0414  1.7498  1.6024
 1902SOL     OW17167   2.440   3.608   3.048  0.5965 -0.4825  0.4385
 1902SOL    HW117168   2.395   3.603   2.964  2.2121  0.7478 -0.5131
 1902SOL    HW217169   2.382   3.667   3.098 -0.4181 -0.3470 -0.8995
 1903SOL     OW17170   3.236   0.884   3.880  0.0013 -0.8537 -0.1964
 1903SOL    HW117171   3.242   0.883   3.975  0.2969 -0.7055 -0.2137
 1903SOL    HW217172   3.142   0.900   3.877  0.2471  0.7878  1.0688
 1904SOL     OW17173   0.501   3.737   5.806  0.2513  0.0999 -0.5440
 1904SOL    HW117174   0.474   3.746   5.715  0.0377  1.0283 -0.3928
 1904SOL    HW217175   0.524   3.826   5.833 -0.2125 -0.1117  0.5738
 1905SOL     OW17176   2.239   3.016  16.859  0.2319 -0.3230  0.0352
 1905SOL    HW117177   2.261   2.924  16.873 -3.2332 -1.2506 -0.5416
 1905SOL    HW217178   2.144   3.012  16.853  0.3440 -0.2470 -1.7344
 1906SOL     OW17179   1.905   3.172   1.537 -0.3183  0.0797 -0.0331
 1906SOL    HW117180   1.958   3.211   1.468 -0.3565  0.4005  0.1176
 1906SOL    HW217181   1.904   3.244   1.600 -0.3192  0.7595 -0.8079
 1907SOL     OW17182   1.078   1.707   7.112 -0.1941  0.4142  0.1316
 1907SOL    HW117183   1.150   1.747   7.064  0.6075  0.3207  1.2393
 1907SOL    HW217184   1.048   1.780   7.167  3.1680  1.1333  1.0143
 1908SOL     OW17185   2.629   1.387   2.967 -0.0565  0.1176  0.3601
 1908SOL    HW117186   2.622   1.474   3.007  1.1892  0.5963 -0.4412
 1908SOL    HW217187   2.631   1.400   2.872  2.1292  0.0520  0.3864
 1909SOL     OW17188   2.015   2.614  15.593  0.0065 -0.4104  0.4226
 1909SOL    HW117189   2.063   2.540  15.629  1.2064 -0.2033 -0.7138
 1909SOL    HW217190   2.036   2.685  15.654 -1.2723 -0.6777  1.1638
 1910SOL     OW17191   4.682   3.993   6.898 -0.0667 -0.7510 -0.1818
 1910SOL    HW117192   4.625   3.936   6.949 -3.2477  1.4386 -1.3260
 1910SOL    HW217193   4.659   3.965   6.810 -1.3055 -0.1019 -0.0561
 1911SOL     OW17194   2.358   1.592  14.303  0.4489  0.4292 -0.7472
 1911SOL    HW117195   2.295   1.659  14.332  0.1350  0.4216 -1.4070
 1911SOL    HW217196   2.305   1.514  14.285 -1.3379  1.0566  1.9027
 1912SOL     OW17197   4.260   3.317   7.243  0.6012  0.0347 -0.9120
 1912SOL    HW117198   4.321   3.376   7.288  0.9843  0.4465 -1.9667
 1912SOL    HW217199   4.221   3.272   7.318  1.1661  1.7083  0.3742
 1913SOL     OW17200   0.143   4.240   3.300 -0.2626 -0.3049  0.6086
 1913SOL    HW117201   0.176   4.328   3.282  0.0722 -0.0331  2.5585
 1913SOL    HW217202   0.185   4.220   3.383  0.2306  0.2466  0.4916
 1914SOL     OW17203   1.067   0.218   6.389  0.7644  0.1747 -0.0961
 1914SOL    HW117204   1.019   0.148   6.433  0.1450  0.4667 -0.2955
 1914SOL    HW217205   1.081   0.282   6.459  1.1827  1.8409 -1.6938
 1915SOL     OW17206   3.038   3.923   4.877 -0.0816  0.3021  0.3082
 1915SOL    HW117207   3.028   3.967   4.793  0.6623 -0.3284 -0.1123
 1915SOL    HW217208   3.056   4.004   4.925 -2.6368  0.5220  0.8637
 1916SOL     OW17209   3.474   1.361  15.501 -0.2910 -0.4123  0.0565
 1916SOL    HW117210   3.485   1.450  15.467 -3.8424  0.6117  1.5901
 1916SOL    HW217211   3.533   1.322  15.436 -0.4355 -1.2320  0.4071
 1917SOL     OW17212   0.482   3.396  15.219 -0.1696  0.6416  0.2918
 1917SOL    HW117213   0.529   3.313  15.221 -0.1544  0.5707 -2.9295
 1917SOL    HW217214   0.419   3.390  15.290 -1.2301 -1.5914 -0.8212
 1918SOL     OW17215   3.476   3.025   2.207  0.1517 -0.0313  0.7348
 1918SOL    HW117216   3.474   2.933   2.230 -0.6205 -0.1658  0.1494
 1918SOL    HW217217   3.566   3.028   2.175 -0.8502  0.2381 -2.0566
 1919SOL     OW17218   3.300   0.159   2.950  0.0705  0.4395 -0.6275
 1919SOL    HW117219   3.215   0.131   2.984  0.6490 -0.3364  0.1909
 1919SOL    HW217220   3.278   0.174   2.858 -1.8584  1.0538 -0.0719
 1920SOL     OW17221   4.070   0.144  14.614  0.1747 -0.4665 -0.2203
 1920SOL    HW117222   4.091   0.154  14.707 -1.5940 -1.9150  0.3310
 1920SOL    HW217223   4.077   0.229  14.571 -0.2290 -0.3230 -0.0030
 1921SOL     OW17224   2.447   1.467  10.629 -0.3560 -0.3235  0.1619
 1921SOL    HW117225   2.358   1.502  10.634 -1.2607 -2.8636  1.8684
 1921SOL    HW217226   2.443   1.387  10.681 -0.3195  0.8829  2.0187
 1922SOL     OW17227   0.193   0.087   3.842  0.3560 -0.1358 -0.1515
 1922SOL    HW117228   0.245   0.159   3.876  2.4159  0.1823 -3.9328
 1922SOL    HW217229   0.204   0.104   3.749  1.3442 -0.7115 -0.1474
 1923SOL     OW17230   3.394   0.558   2.670 -0.1437 -0.0828  0.1420
 1923SOL    HW117231   3.436   0.590   2.590  0.3945  1.5986  1.0895
 1923SOL    HW217232   3.329   0.509   2.619  0.9280  1.2641 -2.4886
 1924SOL     OW17233   0.128   3.528   7.633 -0.5290  0.0002  0.6701
 1924SOL    HW117234   0.170   3.515   7.719  2.0809 -2.2948 -0.9340
 1924SOL    HW217235   0.062   3.594   7.656 -0.3771  0.6867 -0.8812
 1925SOL     OW17236   4.267   2.382   7.375  0.7837  0.1126  0.1858
 1925SOL    HW117237   4.345   2.335   7.345  2.5586  2.4923  0.9813
 1925SOL    HW217238   4.305   2.452   7.428  0.8762  0.4735 -0.3593
 1926SOL     OW17239   3.807   2.499   7.386 -0.1503  0.3467  0.0848
 1926SOL    HW117240   3.840   2.513   7.297  0.5455  0.8480  0.4226
 1926SOL    HW217241   3.736   2.435   7.376  1.4451 -1.3913 -0.0278
 1927SOL     OW17242   1.287   1.626  10.296 -0.1477  0.0851 -0.4013
 1927SOL    HW117243   1.307   1.557  10.360 -0.4274  0.3304 -0.0497
 1927SOL    HW217244   1.287   1.705  10.350  0.7625  1.5052 -2.4801
 1928SOL     OW17245   2.169   3.728  13.166 -0.4805 -0.2679 -0.0093
 1928SOL    HW117246   2.093   3.690  13.122  0.5905 -1.4845 -0.8104
 1928SOL    HW217247   2.153   3.822  13.158 -0.6829 -0.4049 -1.1739
 1929SOL     OW17248   4.636   2.470   6.906 -0.1158 -0.0542  0.4498
 1929SOL    HW117249   4.653   2.426   6.823  0.8675  1.3354 -0.0918
 1929SOL    HW217250   4.693   2.426   6.970 -0.4067 -2.1452 -0.7072
 1930SOL     OW17251   4.318   1.385   9.563  0.6319 -0.3159 -0.4415
 1930SOL    HW117252   4.254   1.426   9.622  1.6958  2.1101 -0.9711
 1930SOL    HW217253   4.318   1.295   9.595  2.4427 -0.5762 -1.1697
 1931SOL     OW17254   2.742   1.364   4.686  0.0164 -0.0765  0.0061
 1931SOL    HW117255   2.785   1.382   4.602  0.6404 -1.0067  0.1264
 1931SOL    HW217256   2.811   1.318   4.735  2.2777  2.6741 -0.6178
 1932SOL     OW17257   0.326   0.425   7.401 -0.3893 -0.6250 -0.3631
 1932SOL    HW117258   0.272   0.402   7.325  1.6244 -0.3985 -1.8554
 1932SOL    HW217259   0.387   0.352   7.396  0.4711  0.2087 -2.1050
 1933SOL     OW17260   4.238   0.604  15.562  0.6034  0.6276  0.0855
 1933SOL    HW117261   4.302   0.647  15.506  1.1034 -0.3935 -0.1269
 1933SOL    HW217262   4.171   0.671  15.572  0.6614  0.6585  0.2722
 1934SOL     OW17263   4.502   4.013   4.959 -0.1864  0.0181  0.1790
 1934SOL    HW117264   4.449   4.045   4.887 -0.4320  0.2641  0.4689
 1934SOL    HW217265   4.589   3.997   4.922  0.1480 -0.0736  0.9874
 1935SOL     OW17266   4.087   0.531  15.321  0.4346  0.5211  0.4956
 1935SOL    HW117267   4.158   0.563  15.377  1.4410 -1.7273  0.4980
 1935SOL    HW217268   4.105   0.437  15.322  1.7557  0.7670 -0.2713
 1936SOL     OW17269   1.174   0.532   2.872  0.8220 -0.1770 -0.0395
 1936SOL    HW117270   1.163   0.446   2.831 -0.4622 -0.1056  0.1541
 1936SOL    HW217271   1.127   0.507   2.952  1.4527 -1.0770  0.0496
 1937SOL     OW17272   2.155   3.725   1.267  0.0359  0.3578  0.1535
 1937SOL    HW117273   2.235   3.673   1.267  0.2396  0.6822  0.6999
 1937SOL    HW217274   2.153   3.774   1.185 -1.2540  1.6311  0.9546
 1938SOL     OW17275   2.012   4.465   8.202 -0.8204 -0.3248  0.3539
 1938SOL    HW117276   1.997   4.490   8.293 -0.2734 -1.6307  0.8058
 1938SOL    HW217277   2.106   4.446   8.204 -0.6440  0.4742 -0.4501
 1939SOL     OW17278   3.063   0.918   0.487 -0.4762 -0.1609 -0.1645
 1939SOL    HW117279   3.150   0.897   0.521  0.4900  2.2264 -1.2246
 1939SOL    HW217280   3.011   0.915   0.567 -1.7248 -0.4113 -0.9962
 1940SOL     OW17281   2.175   2.493   2.922  0.1492 -0.0982 -0.0581
 1940SOL    HW117282   2.109   2.538   2.974 -0.6490  0.1079 -1.2634
 1940SOL    HW217283   2.125   2.489   2.840 -1.7106  1.1246  1.0179
 1941SOL     OW17284   2.336   0.313   7.730  0.5699  0.2620 -0.5063
 1941SOL    HW117285   2.309   0.267   7.810 -1.4125 -0.9394 -1.8582
 1941SOL    HW217286   2.264   0.296   7.670 -0.7794  0.0249  1.1728
 1942SOL     OW17287   0.043   2.817   3.575 -0.0263 -0.4809 -0.3337
 1942SOL    HW117288   4.677   2.802   3.539 -0.5249 -0.4523  0.8324
 1942SOL    HW217289   0.054   2.745   3.638 -1.3872  0.2132  0.6875
 1943SOL     OW17290   3.576   1.539  14.644  0.5307 -0.3550  0.0948
 1943SOL    HW117291   3.670   1.558  14.650  1.0317 -2.3813 -1.3438
 1943SOL    HW217292   3.550   1.587  14.565 -1.9282 -2.6309 -0.4620
 1944SOL     OW17293   2.109   3.181   0.978 -0.1288  0.1310 -0.1383
 1944SOL    HW117294   2.157   3.220   1.051  0.2852 -1.4272  0.4089
 1944SOL    HW217295   2.077   3.104   1.025 -1.8226  0.1369 -1.2964
 1945SOL     OW17296   1.603   2.282   2.633 -0.1016  0.1296  0.0523
 1945SOL    HW117297   1.670   2.214   2.644 -0.7163 -0.5829 -0.6925
 1945SOL    HW217298   1.533   2.217   2.630  1.8287 -1.9539  0.0082
 1946SOL     OW17299   3.043   1.910   0.955  0.2631  0.6238  0.2679
 1946SOL    HW117300   3.078   1.889   1.042  0.2073 -0.2089  0.0874
 1946SOL    HW217301   2.998   1.993   0.974  1.6920  1.3729  0.3096
 1947SOL     OW17302   1.770   1.750  10.892 -0.1156  0.0038  0.0403
 1947SOL    HW117303   1.707   1.705  10.947 -1.2445  1.2406 -0.2383
 1947SOL    HW217304   1.708   1.816  10.861 -0.3495  0.3285  1.1844
 1948SOL     OW17305   0.168   0.047   5.501  0.7540  0.0217 -0.2030
 1948SOL    HW117306   0.196   4.677   5.497  0.5437 -0.1370  1.8109
 1948SOL    HW217307   0.213   0.072   5.582  2.0622 -0.5841 -0.7397
 1949SOL     OW17308   3.451   0.666   4.741  0.1667  0.4613  0.0281
 1949SOL    HW117309   3.440   0.736   4.806 -0.9510  1.0229 -0.7562
 1949SOL    HW217310   3.521   0.612   4.778 -0.0108 -0.5464 -1.1222
 1950SOL     OW17311   1.841   0.531   9.861  0.0029 -0.3666 -0.0309
 1950SOL    HW117312   1.843   0.626   9.872 -0.2582 -0.1688 -1.6784
 1950SOL    HW217313   1.932   0.508   9.882 -0.4476 -1.3930  0.7633
 1951SOL     OW17314   4.409   0.154   1.658 -0.6137 -0.0321 -0.0605
 1951SOL    HW117315   4.373   0.221   1.716  1.6658  1.6200 -0.5231
 1951SOL    HW217316   4.342   0.087   1.671  1.2748 -1.8029  0.5872
 1952SOL     OW17317   2.258   1.777   1.114 -0.2617 -0.5534 -0.6024
 1952SOL    HW117318   2.301   1.861   1.095 -0.5074 -0.5739 -1.2642
 1952SOL    HW217319   2.334   1.722   1.126 -0.3557 -0.0352  2.4002
 1953SOL     OW17320   4.687   0.571   3.037  0.1138 -0.3702 -0.1109
 1953SOL    HW117321   0.018   0.534   3.109 -0.8652  0.5736  1.0710
 1953SOL    HW217322   4.666   0.663   3.055  0.1792 -0.1154 -1.3473
 1954SOL     OW17323   0.722   2.690   0.610 -0.2384 -0.0814  0.1726
 1954SOL    HW117324   0.758   2.732   0.688 -1.3489 -0.1401  0.7215
 1954SOL    HW217325   0.680   2.617   0.655  0.7967 -2.0335 -2.0162
 1955SOL     OW17326   2.914   1.592   8.785 -0.0097  0.1047 -0.5279
 1955SOL    HW117327   2.869   1.526   8.838 -0.1897 -0.7903 -1.8072
 1955SOL    HW217328   2.936   1.657   8.852  1.2460 -3.4641  2.4827
 1956SOL     OW17329   3.727   4.482   7.327 -0.2768  0.2453  0.4240
 1956SOL    HW117330   3.698   4.439   7.246  2.2967 -0.2655 -0.2266
 1956SOL    HW217331   3.800   4.535   7.295 -0.1383  0.2358  0.7234
 1957SOL     OW17332   3.236   4.139   3.815 -0.0441  0.0056 -0.4074
 1957SOL    HW117333   3.224   4.078   3.888  0.4814  1.1579  0.6415
 1957SOL    HW217334   3.158   4.194   3.814  0.0236  0.1002 -0.6373
 1958SOL     OW17335   1.902   4.633   1.350 -0.0919 -0.2493 -0.4024
 1958SOL    HW117336   1.854   4.715   1.343  1.9131  0.9514 -0.3120
 1958SOL    HW217337   1.921   4.643   1.443  0.8162  0.8311 -0.7058
 1959SOL     OW17338   3.819   0.154   5.864 -0.1586 -0.6014  0.0567
 1959SOL    HW117339   3.813   0.144   5.959  0.3065  0.3939  0.1844
 1959SOL    HW217340   3.913   0.166   5.850 -0.2441 -0.6665 -0.5655
 1960SOL     OW17341   1.474   4.011  14.023 -0.0874  0.9180 -0.0469
 1960SOL    HW117342   1.400   3.978  14.074  0.3193  1.8961  1.1743
 1960SOL    HW217343   1.463   4.105  14.041 -1.9382  0.7754 -0.4681
 1961SOL     OW17344   3.105   4.344  12.517  0.4987 -0.6209  0.2015
 1961SOL    HW117345   3.120   4.325  12.425 -0.9080 -2.3555  0.3164
 1961SOL    HW217346   3.174   4.288  12.553  0.3574 -0.6094  0.4983
 1962SOL     OW17347   4.309   4.089   8.208  0.2436 -0.3717 -0.1469
 1962SOL    HW117348   4.279   4.039   8.284 -1.3063  0.0685 -0.4710
 1962SOL    HW217349   4.347   4.165   8.253  0.1744 -1.6590  2.0996
 1963SOL     OW17350   0.789   2.961  11.169  0.3153 -0.0804 -0.8442
 1963SOL    HW117351   0.850   3.016  11.120  2.1908 -0.4629  1.0361
 1963SOL    HW217352   0.854   2.897  11.197  0.9074  1.1390  0.5377
 1964SOL     OW17353   1.885   3.634   4.969  0.3212 -0.2851 -0.6144
 1964SOL    HW117354   1.888   3.640   5.065  1.3541  3.6272 -0.8790
 1964SOL    HW217355   1.943   3.561   4.945  1.1987 -0.0731  0.8407
 1965SOL     OW17356   4.133   3.633  13.501  0.6001  0.0346  0.5144
 1965SOL    HW117357   4.043   3.665  13.510 -0.1507 -1.1003 -2.8058
 1965SOL    HW217358   4.126   3.582  13.420  0.5465 -0.8322  1.0635
 1966SOL     OW17359   3.763   0.605   6.585  0.4204  0.7583  0.7512
 1966SOL    HW117360   3.698   0.675   6.576 -2.6017 -2.1793 -0.4453
 1966SOL    HW217361   3.817   0.632   6.659  1.9181  0.4157 -0.2089
 1967SOL     OW17362   2.170   1.110   9.291  0.2211 -0.3760  0.1296
 1967SOL    HW117363   2.253   1.065   9.282 -0.3922 -1.2054 -1.3363
 1967SOL    HW217364   2.200   1.199   9.273  1.7127 -1.1707 -1.3136
 1968SOL     OW17365   1.119   1.939   4.438  0.2962 -0.2085 -0.6298
 1968SOL    HW117366   1.139   1.852   4.403 -0.4130 -1.3674  1.8805
 1968SOL    HW217367   1.198   1.991   4.424  0.7502 -0.3401  1.4399
 1969SOL     OW17368   0.546   0.621   7.357  0.0170  0.5105  0.3956
 1969SOL    HW117369   0.582   0.570   7.284 -0.1020 -0.4388  1.0049
 1969SOL    HW217370   0.488   0.554   7.392  0.6232 -0.1572  0.1295
 1970SOL     OW17371   0.150   3.843   2.465  0.0396 -0.1237 -0.3361
 1970SOL    HW117372   0.054   3.851   2.462  0.1441  0.9079 -0.7810
 1970SOL    HW217373   0.154   3.771   2.528  0.8418  0.2862  0.0871
 1971SOL     OW17374   4.682   3.415   4.520  0.2241  0.2962 -0.5258
 1971SOL    HW117375   4.659   3.338   4.573 -1.4625  0.1024 -1.5381
 1971SOL    HW217376   4.670   3.370   4.436 -2.2808  0.6017 -0.3311
 1972SOL     OW17377   3.821   2.994  14.411 -0.6051  0.0796 -0.0203
 1972SOL    HW117378   3.728   2.980  14.430 -0.8170 -0.0009 -1.1274
 1972SOL    HW217379   3.820   3.082  14.374  2.1948  1.1595  2.4474
 1973SOL     OW17380   3.063   2.942   6.199  0.2157  0.7749  0.0561
 1973SOL    HW117381   3.081   3.030   6.231  0.9123  0.2072  1.2234
 1973SOL    HW217382   3.149   2.919   6.164 -0.9350 -0.1429 -2.1155
 1974SOL     OW17383   0.108   2.992   5.336  0.5309 -0.2799  0.0065
 1974SOL    HW117384   0.188   3.033   5.369  0.7378 -0.8049  0.1630
 1974SOL    HW217385   0.087   2.920   5.397  0.9121 -1.3282 -1.0979
 1975SOL     OW17386   0.374   1.636   3.639 -0.0283  0.3131 -0.5528
 1975SOL    HW117387   0.428   1.648   3.561 -0.6485 -2.1481 -1.3637
 1975SOL    HW217388   0.284   1.632   3.607  0.1686  0.2849 -1.0985
 1976SOL     OW17389   4.354   2.933   8.069  0.2339  0.2879  0.2998
 1976SOL    HW117390   4.401   2.880   8.005 -0.7107 -0.0326 -0.1335
 1976SOL    HW217391   4.380   2.890   8.150 -2.2683 -0.7136  0.5927
 1977SOL     OW17392   2.178   1.900  12.967  0.4479  0.0696 -0.4222
 1977SOL    HW117393   2.242   1.836  12.995 -0.1099 -0.5456 -0.5411
 1977SOL    HW217394   2.147   1.843  12.896  1.1219 -1.8655  0.8497
 1978SOL     OW17395   3.137   1.096   0.295 -0.1740 -0.2674 -0.1412
 1978SOL    HW117396   3.145   1.028   0.362  0.7673 -1.0520 -1.0688
 1978SOL    HW217397   3.228   1.124   0.287 -0.4113  0.2534 -1.0117
 1979SOL     OW17398   0.279   0.596   2.146 -0.4307  0.5750  0.1537
 1979SOL    HW117399   0.272   0.570   2.238  0.3136  2.4290  0.7358
 1979SOL    HW217400   0.192   0.567   2.120  0.2881 -0.8827 -0.6351
 1980SOL     OW17401   2.928   2.223   3.692 -0.0615 -0.0871 -0.3248
 1980SOL    HW117402   2.890   2.140   3.663  0.4019 -0.4191  0.0258
 1980SOL    HW217403   3.016   2.186   3.691  0.3895  0.9434  0.8840
 1981SOL     OW17404   4.102   3.741   2.367  0.4218 -0.3596 -0.1176
 1981SOL    HW117405   4.015   3.744   2.329  1.4931  0.8073 -2.4971
 1981SOL    HW217406   4.101   3.799   2.442  0.9039 -0.3491 -0.1144
 1982SOL     OW17407   1.850   1.170   3.070 -0.6727 -0.0529  0.3638
 1982SOL    HW117408   1.769   1.135   3.107 -1.4044 -0.6441 -1.7958
 1982SOL    HW217409   1.814   1.185   2.983 -1.0048 -2.1312  0.1475
 1983SOL     OW17410   1.776   0.721   2.628 -0.0747 -0.6041 -0.5468
 1983SOL    HW117411   1.710   0.767   2.576  0.6718 -1.4186 -2.2225
 1983SOL    HW217412   1.861   0.760   2.606  0.2966 -1.0063  0.1824
 1984SOL     OW17413   2.106   2.390  15.727  0.3246 -0.1265 -0.8484
 1984SOL    HW117414   2.094   2.305  15.685 -0.7196 -0.6886  0.5824
 1984SOL    HW217415   2.054   2.379  15.807  1.2285  2.2988  0.0815
 1985SOL     OW17416   0.927   0.773   2.476 -0.5839  0.2110  0.0241
 1985SOL    HW117417   0.933   0.736   2.564  1.0549  2.0424  0.6816
 1985SOL    HW217418   0.844   0.735   2.448  0.6206 -1.3635 -1.4568
 1986SOL     OW17419   2.736   0.782   0.377  0.1317 -0.0096  0.3589
 1986SOL    HW117420   2.750   0.849   0.311 -1.6158  1.3875  1.4329
 1986SOL    HW217421   2.701   0.711   0.323 -0.7822 -0.6232  1.7556
 1987SOL     OW17422   3.810   1.943   7.908 -0.5068 -0.4974  0.3892
 1987SOL    HW117423   3.864   2.021   7.914 -0.8393 -0.2000 -0.4469
 1987SOL    HW217424   3.812   1.903   7.995  1.8337 -0.5271  0.3105
 1988SOL     OW17425   1.759   3.458  15.265 -0.3191  0.8117 -0.3125
 1988SOL    HW117426   1.676   3.502  15.243  0.4810  1.6827 -1.5941
 1988SOL    HW217427   1.785   3.501  15.347 -1.3119 -0.1689  0.5168
 1989SOL     OW17428   2.312   4.651   7.408  0.2298  0.6931  0.2950
 1989SOL    HW117429   2.287   4.644   7.315 -2.3591  1.5656  0.9196
 1989SOL    HW217430   2.407   4.657   7.416  0.0261  1.3192  2.0898
 1990SOL     OW17431   1.097   3.143   8.739  0.8151  0.0270  0.3516
 1990SOL    HW117432   1.045   3.213   8.779  1.0146  1.3988 -1.7700
 1990SOL    HW217433   1.060   3.064   8.778  0.6843 -0.2762 -0.3877
 1991SOL     OW17434   0.081   4.601   4.706  0.0567  0.2622  0.0872
 1991SOL    HW117435   0.041   4.531   4.655  0.6372  0.4544 -0.6357
 1991SOL    HW217436   0.157   4.626   4.653 -0.8210 -1.8406 -2.1802
 1992SOL     OW17437   0.475   0.390   4.615 -0.0333 -0.0853 -0.0092
 1992SOL    HW117438   0.562   0.350   4.614  0.5613  1.1906  0.2530
 1992SOL    HW217439   0.440   0.361   4.531 -0.0282  0.5283 -0.2221
 1993SOL     OW17440   0.144   2.567  11.588  0.7622 -0.4607  0.0110
 1993SOL    HW117441   0.200   2.593  11.661  1.4342  0.4034 -0.8025
 1993SOL    HW217442   0.059   2.582  11.629  0.2580 -0.8317 -0.8951
 1994SOL     OW17443   1.670   3.421   2.323 -0.2362  0.2785  0.0208
 1994SOL    HW117444   1.642   3.343   2.274  1.8350 -0.5662  0.1898
 1994SOL    HW217445   1.615   3.416   2.401  0.6314 -0.0632  0.6093
 1995SOL     OW17446   1.470   2.952   3.482 -0.0716  0.5630  0.4426
 1995SOL    HW117447   1.430   2.970   3.567  0.1935  0.2143  0.6415
 1995SOL    HW217448   1.414   2.879   3.454 -0.3659  0.7347  0.5883
 1996SOL     OW17449   4.671   3.873   3.226  0.1692 -0.2444  0.0786
 1996SOL    HW117450   4.713   3.861   3.141 -2.0137 -1.7762 -0.7662
 1996SOL    HW217451   4.626   3.957   3.216  0.0983 -0.3292 -0.2918
 1997SOL     OW17452   0.728   0.275   4.684  0.2731 -0.6767  0.0685
 1997SOL    HW117453   0.785   0.252   4.611 -0.2637  0.4025 -0.6923
 1997SOL    HW217454   0.776   0.350   4.719 -0.8802 -0.1324  0.5121
 1998SOL     OW17455   1.154   0.393   7.128  0.1681 -0.5695  0.7203
 1998SOL    HW117456   1.142   0.305   7.094  1.2414  0.4168 -2.1793
 1998SOL    HW217457   1.165   0.367   7.220  1.0227 -3.3179 -0.1854
 1999SOL     OW17458   4.399   2.520   0.817  0.7104  0.1412  0.2811
 1999SOL    HW117459   4.441   2.587   0.763 -1.5390  0.1487 -1.4804
 1999SOL    HW217460   4.482   2.479   0.838 -0.8338 -3.7887 -1.2466
 2000SOL     OW17461   0.019   3.867   4.486 -0.4190  0.0318 -0.5524
 2000SOL    HW117462   0.036   3.800   4.552  1.0369  0.3016 -0.6401
 2000SOL    HW217463   0.047   3.829   4.403 -2.1784  0.2146 -1.2342
 2001SOL     OW17464   2.082   1.632   3.908  0.0916 -0.3463  0.0974
 2001SOL    HW117465   2.054   1.676   3.988 -0.1157 -1.0134  0.3952
 2001SOL    HW217466   2.119   1.553   3.948  0.8897  0.4057  0.8272
 2002SOL     OW17467   4.652   0.784   2.262 -0.3639 -0.1202 -0.3327
 2002SOL    HW117468   4.643   0.753   2.172  1.5781 -1.3522 -0.1061
 2002SOL    HW217469   4.578   0.844   2.268 -0.0180  0.0457  2.4383
 2003SOL     OW17470   0.759   1.311   2.719  0.1509  0.0375  0.0087
 2003SOL    HW117471   0.840   1.303   2.769  0.1099 -0.4094  0.0026
 2003SOL    HW217472   0.805   1.308   2.636  0.1245 -0.4057  0.0100
 2004SOL     OW17473   4.673   4.433   5.450  0.1914  0.1846 -0.0208
 2004SOL    HW117474   0.013   4.475   5.390 -1.5743  1.2568 -1.0563
 2004SOL    HW217475   4.698   4.341   5.443  1.0110  0.2789  1.6472
 2005SOL     OW17476   2.240   3.443   4.552 -0.4591 -0.0339 -0.2343
 2005SOL    HW117477   2.279   3.444   4.465  0.6643 -1.9401  0.2578
 2005SOL    HW217478   2.254   3.529   4.593 -2.9473 -0.1090  0.8346
 2006SOL     OW17479   2.540   1.890  11.954  0.1092  0.0851 -0.1746
 2006SOL    HW117480   2.445   1.903  11.955  0.3708  1.9913 -0.7508
 2006SOL    HW217481   2.551   1.867  12.046  1.6201  2.6679  0.3041
 2007SOL     OW17482   1.255   3.612   6.259  0.1861 -0.6304 -0.5479
 2007SOL    HW117483   1.301   3.625   6.343  0.2305  1.2259 -0.8500
 2007SOL    HW217484   1.314   3.662   6.203  0.4796 -0.1263  0.2051
 2008SOL     OW17485   0.288   0.853   1.699  0.1863  0.3317 -0.1662
 2008SOL    HW117486   0.284   0.764   1.733  0.3734  1.8098  3.6818
 2008SOL    HW217487   0.217   0.903   1.739  0.6307  0.7734  0.0684
 2009SOL     OW17488   2.131   0.582  16.753 -0.0914  0.0037  1.1158
 2009SOL    HW117489   2.207   0.565  16.697  0.6510  0.1873  2.0676
 2009SOL    HW217490   2.156   0.663  16.799 -2.3355  2.4993 -2.0277
 2010SOL     OW17491   3.045   0.920   1.782 -0.3069  0.1428 -0.0807
 2010SOL    HW117492   3.044   0.969   1.865  0.1203 -0.2457  0.1501
 2010SOL    HW217493   3.126   0.872   1.796  0.6629  1.4401 -1.2986
 2011SOL     OW17494   3.129   2.075  15.381  0.2367  0.1272 -0.1931
 2011SOL    HW117495   3.137   2.105  15.290  1.4439  0.9494  0.1918
 2011SOL    HW217496   3.220   2.056  15.402  0.5820  1.0845 -0.8142
 2012SOL     OW17497   0.489   1.681  16.206  0.2650 -0.2355  0.0659
 2012SOL    HW117498   0.491   1.585  16.212  1.7432 -0.1714  0.4675
 2012SOL    HW217499   0.410   1.707  16.158  2.3721  1.9542 -2.2612
 2013SOL     OW17500   2.872   3.707  14.930  0.3336  0.0886 -0.1955
 2013SOL    HW117501   2.857   3.630  14.876 -2.5946  0.4148  0.1098
 2013SOL    HW217502   2.966   3.711  14.944  0.5300 -2.2560 -0.9749
 2014SOL     OW17503   4.381   1.981   0.914 -0.4173 -0.4442 -0.2135
 2014SOL    HW117504   4.358   1.893   0.885 -1.6335  0.2390 -1.3540
 2014SOL    HW217505   4.379   1.969   1.009  1.5778 -1.5367 -0.3054
 2015SOL     OW17506   1.844   0.463   3.182  0.3095  0.6642  0.2163
 2015SOL    HW117507   1.823   0.538   3.238  0.9900  1.0539 -0.0526
 2015SOL    HW217508   1.923   0.428   3.223  0.2191  0.4930  0.2458
 2016SOL     OW17509   1.648   0.228   5.248 -0.5316  0.1236 -0.2423
 2016SOL    HW117510   1.673   0.225   5.340  0.2766 -0.2775 -0.4678
 2016SOL    HW217511   1.729   0.259   5.207  0.8069 -0.7807  1.7062
 2017SOL     OW17512   1.450   4.399  10.085  0.2315  0.2959 -0.1719
 2017SOL    HW117513   1.408   4.422  10.167 -0.5485  0.8712 -0.7298
 2017SOL    HW217514   1.372   4.404  10.029  0.4692 -0.6507 -0.5956
 2018SOL     OW17515   0.524   3.590   9.382 -0.4221  0.1955 -0.1549
 2018SOL    HW117516   0.497   3.672   9.422  1.1884 -0.3194  1.9734
 2018SOL    HW217517   0.451   3.541   9.419  0.0593 -1.5565 -1.4868
 2019SOL     OW17518   3.307   2.269   2.842  0.2747 -0.1467 -0.0384
 2019SOL    HW117519   3.304   2.183   2.884  2.2016 -0.2696 -0.1590
 2019SOL    HW217520   3.219   2.284   2.808 -0.0361  0.0780  0.8637
 2020SOL     OW17521   2.563   0.793  14.474  0.1026 -0.0644  0.1407
 2020SOL    HW117522   2.471   0.821  14.478  0.0232 -0.1877 -0.9490
 2020SOL    HW217523   2.601   0.871  14.515  0.8256 -0.5980  0.4740
 2021SOL     OW17524   2.131   0.621   8.028 -1.0756  0.7820 -0.6684
 2021SOL    HW117525   2.196   0.641   8.095 -2.4532 -2.2675  1.5727
 2021SOL    HW217526   2.094   0.547   8.077 -1.3460  1.1055 -0.3894
 2022SOL     OW17527   1.647   1.710  11.897 -0.0622  0.6153  0.1519
 2022SOL    HW117528   1.632   1.804  11.890 -0.7958  0.5091  0.3278
 2022SOL    HW217529   1.605   1.676  11.818  0.3511 -0.6392  0.4598
 2023SOL     OW17530   1.582   0.069   9.602 -1.0648  0.8309 -0.4749
 2023SOL    HW117531   1.624   0.154   9.585  0.6971 -0.2015 -1.2610
 2023SOL    HW217532   1.652   0.010   9.576 -1.5285  0.9476 -1.9672
 2024SOL     OW17533   1.187   2.972  12.947 -0.0070  0.4691 -0.5150
 2024SOL    HW117534   1.187   2.933  12.859 -0.2133 -0.0773 -0.2741
 2024SOL    HW217535   1.173   3.065  12.932 -1.3883  0.3837  0.1819
 2025SOL     OW17536   1.430   1.478  15.569  0.7277 -0.0075 -0.2450
 2025SOL    HW117537   1.375   1.428  15.509 -0.4478 -0.4658  1.1929
 2025SOL    HW217538   1.490   1.522  15.510 -0.1196  0.9130 -0.4302
 2026SOL     OW17539   4.300   1.853   3.359  0.3461  0.1863  0.1190
 2026SOL    HW117540   4.311   1.781   3.296  1.4084 -0.4881  1.0694
 2026SOL    HW217541   4.252   1.914   3.303 -0.7215 -0.2585  0.5628
 2027SOL     OW17542   3.765   1.173   7.759 -0.1210  0.3400 -0.4184
 2027SOL    HW117543   3.859   1.169   7.776  0.0736  2.1204 -1.1019
 2027SOL    HW217544   3.765   1.189   7.665  1.3350  2.5579 -0.0469
 2028SOL     OW17545   1.943   2.018  13.027  0.6412 -0.0341 -0.7631
 2028SOL    HW117546   1.882   1.944  13.025 -0.9216  1.2799 -0.7255
 2028SOL    HW217547   2.028   1.986  12.996  0.1064 -1.9198 -0.3227
 2029SOL     OW17548   3.780   1.796   3.318 -0.1556 -0.2316 -0.2395
 2029SOL    HW117549   3.818   1.836   3.396  1.1866 -0.6891 -0.6471
 2029SOL    HW217550   3.790   1.865   3.253  0.8515 -0.7139 -0.6042
 2030SOL     OW17551   4.276   3.678   8.713  0.1826 -0.2282  0.2749
 2030SOL    HW117552   4.311   3.679   8.623 -2.4726 -1.6366 -0.7825
 2030SOL    HW217553   4.204   3.616   8.703 -0.2309  0.2646  0.2044
 2031SOL     OW17554   0.285   3.316   8.799 -0.7132  0.2615  0.0148
 2031SOL    HW117555   0.329   3.382   8.852  0.9564  0.5681 -1.7510
 2031SOL    HW217556   0.363   3.296   8.747  0.5755  1.0965  1.6583
 2032SOL     OW17557   3.564   2.933   8.991 -0.5072 -0.2318  0.0206
 2032SOL    HW117558   3.594   2.959   9.078  1.5288  1.7266 -1.2728
 2032SOL    HW217559   3.545   3.015   8.944  1.3118 -0.6884 -1.5057
 2033SOL     OW17560   1.401   1.463   5.298 -0.2686  0.6606  0.1291
 2033SOL    HW117561   1.319   1.415   5.284  0.3811 -0.6321  0.7456
 2033SOL    HW217562   1.399   1.481   5.392 -1.4514  0.6731  0.1030
 2034SOL     OW17563   3.583   1.603   5.853 -0.2707  0.3813  0.4967
 2034SOL    HW117564   3.499   1.570   5.821 -1.0073  0.3981  2.3916
 2034SOL    HW217565   3.563   1.695   5.872  1.1689  0.9930 -1.0251
 2035SOL     OW17566   4.147   3.405  14.625  0.0713 -0.5117  0.1941
 2035SOL    HW117567   4.166   3.489  14.667 -0.2118 -0.4020  0.0960
 2035SOL    HW217568   4.199   3.417  14.545  0.0883  1.8626  0.5695
 2036SOL     OW17569   1.618   0.129   4.294  0.1163 -0.3395 -0.3946
 2036SOL    HW117570   1.550   0.196   4.288 -1.4560 -1.9873 -0.7105
 2036SOL    HW217571   1.572   0.050   4.321 -1.3838  0.9111  0.6678
 2037SOL     OW17572   2.452   3.087   0.368  0.1858 -0.4493  0.3684
 2037SOL    HW117573   2.528   3.087   0.310 -1.1209 -0.5531 -1.3694
 2037SOL    HW217574   2.432   2.997   0.393  3.0640 -1.0330  0.5417
 2038SOL     OW17575   3.317   0.906   4.903  0.5544  0.4302 -0.4705
 2038SOL    HW117576   3.319   0.887   4.997  0.5369 -0.2356 -0.6060
 2038SOL    HW217577   3.254   0.836   4.884 -0.1835  1.4193 -1.7356
 2039SOL     OW17578   0.238   4.593   1.908 -0.4714 -0.2295 -0.1258
 2039SOL    HW117579   0.227   4.526   1.840 -1.2748 -1.5794  1.3239
 2039SOL    HW217580   0.216   4.537   1.983 -1.9590 -0.1553 -0.5056
 2040SOL     OW17581   1.073   0.366   1.159 -0.2441  0.2196  0.3355
 2040SOL    HW117582   1.007   0.297   1.162  0.2765 -0.3144 -0.5075
 2040SOL    HW217583   1.097   0.373   1.067 -0.3546  1.6306  0.4263
 2041SOL     OW17584   3.133   3.778  16.357 -0.4239  0.3503  0.2943
 2041SOL    HW117585   3.145   3.708  16.421 -0.6911  1.0058  1.0749
 2041SOL    HW217586   3.106   3.853  16.410  2.2462  2.7103 -1.6883
 2042SOL     OW17587   0.585   3.430   7.421  0.1725 -0.1269 -0.0038
 2042SOL    HW117588   0.529   3.482   7.479  0.4020  0.2702 -0.1376
 2042SOL    HW217589   0.516   3.395   7.365 -0.5890 -1.0362  1.5065
 2043SOL     OW17590   3.940   0.219   5.432  0.1234  0.2940 -0.8506
 2043SOL    HW117591   3.909   0.173   5.354  0.2454  1.8827 -1.8347
 2043SOL    HW217592   3.969   0.151   5.493 -0.4216 -0.0861 -1.0144
 2044SOL     OW17593   1.448   4.612   1.652 -0.5250 -0.1876 -0.2604
 2044SOL    HW117594   1.436   4.592   1.744 -2.1244  0.4981 -0.3274
 2044SOL    HW217595   1.500   4.537   1.622 -0.1911  0.0100 -0.1713
 2045SOL     OW17596   0.096   2.785   8.399  0.6323 -0.2370 -0.0656
 2045SOL    HW117597   0.035   2.766   8.469 -0.4135  0.3605 -0.8153
 2045SOL    HW217598   0.173   2.729   8.413 -0.6117 -1.4922  1.7762
 2046SOL     OW17599   1.349   2.026   1.094 -0.4161  0.1952  0.2134
 2046SOL    HW117600   1.254   2.032   1.107 -0.3812  1.7781 -0.3102
 2046SOL    HW217601   1.360   2.114   1.058 -0.3855  0.0159 -0.2092
 2047SOL     OW17602   1.850   2.811   3.067  0.6316 -0.4455 -0.3342
 2047SOL    HW117603   1.757   2.798   3.085 -0.1299  3.1853 -1.4942
 2047SOL    HW217604   1.847   2.907   3.074 -1.1576 -0.3812 -1.8788
 2048SOL     OW17605   3.149   1.591   1.211  0.1392  0.0283 -0.6767
 2048SOL    HW117606   3.241   1.569   1.196  0.3925 -0.6500  1.9006
 2048SOL    HW217607   3.151   1.647   1.288  1.2068 -0.9530  0.0128
 2049SOL     OW17608   4.706   0.539  11.187  0.0589  0.0561  0.1144
 2049SOL    HW117609   0.019   0.547  11.276  1.4983  1.8630 -0.5966
 2049SOL    HW217610   0.059   0.507  11.134 -0.2354  1.2141 -0.9948
 2050SOL     OW17611   3.576   2.995  10.893  0.3883  0.5523  0.5788
 2050SOL    HW117612   3.575   2.950  10.808 -3.3267  3.4959 -0.9400
 2050SOL    HW217613   3.653   2.969  10.944  0.8598 -0.1175 -0.4687
 2051SOL     OW17614   3.284   3.619   7.390  0.0406  0.2271 -0.7062
 2051SOL    HW117615   3.306   3.643   7.300  0.6179  1.1713 -0.3047
 2051SOL    HW217616   3.357   3.658   7.437 -0.9773  1.1288  0.1464
 2052SOL     OW17617   0.012   3.730   6.149 -0.0086  0.2312 -0.2813
 2052SOL    HW117618   0.081   3.785   6.112  0.1038  0.3605  0.1213
 2052SOL    HW217619   0.043   3.639   6.142  1.4399  0.7136 -0.3056
 2053SOL     OW17620   4.643   3.360   0.087 -0.2580  0.6291  0.3074
 2053SOL    HW117621   4.633   3.442   0.040  1.0415 -0.1469 -1.2981
 2053SOL    HW217622   4.695   3.303   0.031  1.2107  2.4466 -0.1789
 2054SOL     OW17623   0.785   3.934   2.599  0.2472  0.2574  0.5196
 2054SOL    HW117624   0.722   3.875   2.640  0.2789 -1.0472 -1.2753
 2054SOL    HW217625   0.869   3.888   2.598  0.1978  0.2213 -3.6955
 2055SOL     OW17626   0.254   1.102   0.029  0.3300 -0.0580 -0.7600
 2055SOL    HW117627   0.272   1.042   0.101 -1.5841  0.1463 -0.1263
 2055SOL    HW217628   0.163   1.126   0.048  0.0208 -0.4901 -1.6602
 2056SOL     OW17629   0.427   2.501   6.525  0.0455  0.3847  0.1461
 2056SOL    HW117630   0.448   2.532   6.436 -0.5468 -0.5377 -0.3171
 2056SOL    HW217631   0.467   2.414   6.521  0.8256  0.6625  2.4784
 2057SOL     OW17632   2.930   2.680   6.718  0.5887  0.3020 -0.1243
 2057SOL    HW117633   2.950   2.771   6.697  0.9641  0.4858  1.0111
 2057SOL    HW217634   2.835   2.687   6.705  0.3197 -2.8562  0.2112
 2058SOL     OW17635   0.900   0.774   8.142 -0.7267  0.7846  0.3626
 2058SOL    HW117636   0.883   0.696   8.194 -3.2186  2.6214  2.3121
 2058SOL    HW217637   0.815   0.818   8.136 -0.3100  1.2969 -1.8851
 2059SOL     OW17638   1.751   4.668   5.753  0.2296 -0.0777 -0.0771
 2059SOL    HW117639   1.799   0.028   5.735 -1.9102  0.5603 -2.8786
 2059SOL    HW217640   1.662   4.699   5.736 -0.2313 -1.1999  0.3344
 2060SOL     OW17641   2.376   2.356   9.443  0.5760  0.1977  0.3524
 2060SOL    HW117642   2.350   2.265   9.458 -0.2609  0.5758  1.1896
 2060SOL    HW217643   2.435   2.356   9.367  1.8327 -2.0393  1.3213
 2061SOL     OW17644   3.179   0.009   7.422 -0.1650 -0.2587  0.6735
 2061SOL    HW117645   3.141   0.016   7.334 -0.2842 -2.2677  0.5711
 2061SOL    HW217646   3.221   0.094   7.430 -0.7426  0.0810  0.1364
 2062SOL     OW17647   4.562   0.802   6.357 -0.1638 -0.1371 -0.0386
 2062SOL    HW117648   4.582   0.717   6.318 -1.4911  0.0774 -1.2215
 2062SOL    HW217649   4.600   0.801   6.444 -0.8040 -1.2507  0.2303
 2063SOL     OW17650   0.848   1.495   6.612 -0.0021 -0.8844 -0.3478
 2063SOL    HW117651   0.837   1.485   6.707  2.0833  0.8445  0.0524
 2063SOL    HW217652   0.940   1.484   6.589  0.2877 -0.4768  0.6127
 2064SOL     OW17653   2.966   2.992   4.742 -0.0655 -0.6105  0.0387
 2064SOL    HW117654   2.899   3.030   4.798  1.4841 -0.8759  2.0916
 2064SOL    HW217655   2.922   2.996   4.657  0.6287 -1.8051 -0.3777
 2065SOL     OW17656   2.697   4.403   7.329  0.1622 -0.1547 -0.2346
 2065SOL    HW117657   2.688   4.340   7.400  0.7691 -1.2607 -1.1399
 2065SOL    HW217658   2.671   4.348   7.256 -1.2684 -0.3373  0.4204
 2066SOL     OW17659   0.069   0.559  12.330  0.4574  0.0307 -0.2518
 2066SOL    HW117660   4.705   0.513  12.329 -1.1373  3.0007  0.0389
 2066SOL    HW217661   0.099   0.538  12.242  0.3856  1.1679 -0.5359
 2067SOL     OW17662   4.505   1.619  13.192  0.5728 -0.0172  0.3893
 2067SOL    HW117663   4.571   1.688  13.203 -0.7739  1.6022 -1.6575
 2067SOL    HW217664   4.475   1.645  13.105 -0.7286 -3.9251 -0.3469
 2068SOL     OW17665   1.377   4.366   5.438 -0.0821 -0.8197  0.2180
 2068SOL    HW117666   1.387   4.356   5.344 -0.4084 -0.1642  0.1114
 2068SOL    HW217667   1.468   4.379   5.465 -0.8272  0.4749  2.1078
 2069SOL     OW17668   3.114   1.651  16.942  0.0493 -0.2823 -0.3480
 2069SOL    HW117669   3.062   1.601  16.879 -1.8276  2.9103 -1.3474
 2069SOL    HW217670   3.088   1.609  17.024 -0.8392  0.3880 -0.2820
 2070SOL     OW17671   2.365   2.309   7.381  0.2160  0.1753  0.3521
 2070SOL    HW117672   2.447   2.348   7.412 -1.0161  1.5785  1.7806
 2070SOL    HW217673   2.305   2.349   7.443  0.7938  1.2360  0.2261
 2071SOL     OW17674   0.723   3.677   6.109 -0.0338 -0.1252 -0.4926
 2071SOL    HW117675   0.632   3.705   6.097  0.6608  1.7629 -1.3182
 2071SOL    HW217676   0.731   3.593   6.063  1.1253  1.1471 -2.6349
 2072SOL     OW17677   0.363   2.995  10.349 -0.0583 -0.7919 -0.1222
 2072SOL    HW117678   0.370   2.924  10.413  1.3837  0.4279  1.1074
 2072SOL    HW217679   0.456   3.007  10.330 -0.5939  0.1839 -2.1084
 2073SOL     OW17680   3.535   4.078   8.767  0.0411  0.0162  0.2746
 2073SOL    HW117681   3.482   4.023   8.709  1.7664 -0.9298 -0.4036
 2073SOL    HW217682   3.535   4.169   8.738  0.6167  0.0664  0.4332
 2074SOL     OW17683   1.068   3.833   8.804 -0.3335  0.2480 -0.9835
 2074SOL    HW117684   1.118   3.865   8.729  0.5045  1.2640 -0.0006
 2074SOL    HW217685   1.102   3.891   8.873 -0.7720  1.5774 -1.8845
 2075SOL     OW17686   3.034   4.016  16.506 -0.6066 -0.0919  0.0653
 2075SOL    HW117687   3.016   4.071  16.430  1.1949  3.4886  2.2797
 2075SOL    HW217688   2.953   4.025  16.556 -0.3024  0.5966  0.4284
 2076SOL     OW17689   2.569   1.643   6.043  0.5291  0.2148 -0.1433
 2076SOL    HW117690   2.596   1.721   5.994  0.9620  0.3209  0.2561
 2076SOL    HW217691   2.506   1.611   5.979 -0.1673  2.5045 -0.5849
 2077SOL     OW17692   4.545   3.552   8.971 -0.1839 -0.2884  0.3450
 2077SOL    HW117693   4.456   3.535   9.001 -1.5587 -0.5231 -3.8790
 2077SOL    HW217694   4.550   3.493   8.896 -0.9080  1.6367 -1.2335
 2078SOL     OW17695   2.602   4.262   8.473 -0.0924  0.2252 -0.7377
 2078SOL    HW117696   2.682   4.230   8.515 -1.0294  1.1510  1.7643
 2078SOL    HW217697   2.642   4.338   8.431 -1.3329  2.3473  1.9158
 2079SOL     OW17698   2.570   2.299   3.003  0.4062  0.7097  0.3606
 2079SOL    HW117699   2.613   2.259   2.928 -1.2435  1.6585 -1.0736
 2079SOL    HW217700   2.479   2.284   2.981  1.4752 -1.3157 -2.6354
 2080SOL     OW17701   3.796   3.053   5.541 -0.2378  0.0832 -0.5260
 2080SOL    HW117702   3.723   3.006   5.581  0.1911 -1.0218 -1.0519
 2080SOL    HW217703   3.826   2.995   5.472 -1.2621 -0.2091 -0.7214
 2081SOL     OW17704   1.317   4.057   7.691  0.3108 -0.3464 -0.0702
 2081SOL    HW117705   1.236   4.053   7.743  0.2043 -0.9056 -0.2659
 2081SOL    HW217706   1.361   3.984   7.735 -0.0422 -0.1984  0.5302
 2082SOL     OW17707   2.165   4.536   4.191 -0.0210  0.4133 -0.3057
 2082SOL    HW117708   2.148   4.492   4.108 -1.6370  3.3431 -1.5489
 2082SOL    HW217709   2.077   4.535   4.228 -0.7432  0.2878 -2.0337
 2083SOL     OW17710   2.161   4.240  11.250  0.0195  0.0224 -0.0015
 2083SOL    HW117711   2.142   4.193  11.331  0.6101 -0.1213  0.0494
 2083SOL    HW217712   2.153   4.331  11.281 -0.5466 -0.5917  1.6542
 2084SOL     OW17713   0.342   2.388  14.648  0.2121  0.5539 -0.6285
 2084SOL    HW117714   0.273   2.452  14.668  0.4096  0.6339 -0.1947
 2084SOL    HW217715   0.388   2.377  14.731  0.7721  1.5962 -0.8019
 2085SOL     OW17716   3.298   3.326   9.334 -0.1302 -0.0379  0.5117
 2085SOL    HW117717   3.253   3.370   9.261  0.3692 -1.1125 -0.4471
 2085SOL    HW217718   3.358   3.397   9.360  2.5287 -0.1582 -5.1206
 2086SOL     OW17719   1.080   1.511   3.000 -0.0679  0.7345 -0.4125
 2086SOL    HW117720   1.100   1.496   3.092  0.7187  1.7195 -0.4256
 2086SOL    HW217721   1.092   1.605   3.011 -1.9112  1.1095 -1.5369
 2087SOL     OW17722   4.091   1.681   3.931  0.5021 -0.0130  0.0925
 2087SOL    HW117723   4.005   1.658   3.896 -0.0302 -1.7778  2.5795
 2087SOL    HW217724   4.124   1.752   3.875  0.3261  0.9836  1.2455
 2088SOL     OW17725   1.116   4.035   5.013  0.5012 -0.5495  0.2951
 2088SOL    HW117726   1.072   3.954   5.036  2.2189 -1.1744  1.4475
 2088SOL    HW217727   1.046   4.099   5.019  1.0384 -0.0493  1.2950
 2089SOL     OW17728   1.967   1.305   0.900 -0.0627  0.7464  0.3133
 2089SOL    HW117729   1.925   1.325   0.983 -1.7652  1.3344 -0.6910
 2089SOL    HW217730   1.946   1.380   0.843  0.2276  0.2325 -0.4735
 2090SOL     OW17731   1.727   4.106  13.150  0.8526  0.3579  0.0207
 2090SOL    HW117732   1.715   4.019  13.190 -0.2261  0.0663 -0.9259
 2090SOL    HW217733   1.797   4.147  13.201  2.0227  1.1784 -2.2508
 2091SOL     OW17734   3.224   4.636   2.695  0.1077  0.4339  0.2538
 2091SOL    HW117735   3.302   4.582   2.683  0.7388  1.5265 -0.5168
 2091SOL    HW217736   3.157   4.577   2.732 -1.2970  1.2828 -0.9309
 2092SOL     OW17737   4.066   3.309  10.694 -0.2808 -0.5268 -0.2996
 2092SOL    HW117738   4.040   3.229  10.738  2.3614 -1.4859 -0.5249
 2092SOL    HW217739   4.046   3.286  10.603  1.5755 -0.0995 -0.8160
 2093SOL     OW17740   3.066   3.918   6.422 -0.5954  0.2014 -0.1754
 2093SOL    HW117741   3.148   3.903   6.376 -0.5085  3.0438 -0.9645
 2093SOL    HW217742   2.998   3.913   6.356  0.8289 -0.0113 -1.6252
 2094SOL     OW17743   3.889   4.311  15.172 -0.1541 -0.1305  0.3778
 2094SOL    HW117744   3.950   4.361  15.226 -0.7371  1.5629 -0.5374
 2094SOL    HW217745   3.930   4.327  15.088  0.7238 -1.9446  0.4593
 2095SOL     OW17746   2.927   0.386   2.875  0.0230  0.0139 -0.0014
 2095SOL    HW117747   2.851   0.366   2.929  0.7435  0.3418  1.1293
 2095SOL    HW217748   2.931   0.309   2.819  2.8651 -0.2882  0.6125
 2096SOL     OW17749   1.704   0.564   6.189 -0.3927 -0.3250 -0.5123
 2096SOL    HW117750   1.634   0.598   6.133  0.1724 -0.5403 -1.3506
 2096SOL    HW217751   1.665   0.477   6.196 -2.0480  0.5204  0.7789
 2097SOL     OW17752   4.625   3.581   6.741 -0.4772 -0.1448 -0.3880
 2097SOL    HW117753   4.612   3.613   6.830  0.3819 -0.9073  0.0116
 2097SOL    HW217754   4.670   3.499   6.759 -0.0419 -0.1168 -1.3478
 2098SOL     OW17755   0.628   3.379   4.200  0.7400 -0.2841 -0.0747
 2098SOL    HW117756   0.678   3.298   4.187  1.3444 -0.3729  2.8231
 2098SOL    HW217757   0.573   3.374   4.122 -0.5973  1.2176  0.7898
 2099SOL     OW17758   0.153   3.087   9.298 -0.3195 -0.2937  0.1488
 2099SOL    HW117759   0.078   3.036   9.266  0.5352 -1.1215 -0.5337
 2099SOL    HW217760   0.118   3.133   9.374 -2.0377  0.3554 -1.0300
 2100SOL     OW17761   1.380   0.601  10.521 -0.6281 -0.3791 -0.4823
 2100SOL    HW117762   1.401   0.514  10.486 -0.6225 -1.3115  1.8786
 2100SOL    HW217763   1.316   0.575  10.587 -1.4473 -2.4662 -2.0853
 2101SOL     OW17764   1.015   0.057  13.014 -0.0173  0.1025 -0.3077
 2101SOL    HW117765   0.987   0.092  13.098  0.8050  1.5917 -0.6549
 2101SOL    HW217766   1.101   0.020  13.031  0.1168  1.0913  1.1849
 2102SOL     OW17767   0.283   0.305   8.279  0.6071 -0.0796  0.2276
 2102SOL    HW117768   0.244   0.338   8.198 -0.7683 -0.8693  0.5755
 2102SOL    HW217769   0.252   0.367   8.345 -1.3522 -0.2585 -0.5424
 2103SOL     OW17770   0.577   3.327   4.703 -0.8185  0.0127  0.1131
 2103SOL    HW117771   0.543   3.311   4.615 -2.9825 -1.7140  1.2692
 2103SOL    HW217772   0.552   3.418   4.717  0.6325  0.5211 -0.5816
 2104SOL     OW17773   4.652   0.372   3.621 -0.4983  0.1619  0.6401
 2104SOL    HW117774   4.613   0.284   3.624  0.3908 -0.1694  1.9984
 2104SOL    HW217775   4.583   0.427   3.658 -0.6461  1.1896 -1.1644
 2105SOL     OW17776   1.922   1.135  10.883  0.1601 -0.4145  0.8748
 2105SOL    HW117777   1.877   1.158  10.964 -0.3154 -3.3289  1.4137
 2105SOL    HW217778   1.963   1.050  10.893 -1.4251 -1.3446 -0.4225
 2106SOL     OW17779   1.061   1.207   7.038  0.0219  0.6121  0.2690
 2106SOL    HW117780   1.053   1.209   6.942  0.3902 -1.6107  0.1830
 2106SOL    HW217781   1.017   1.279   7.083 -1.2166  0.1344 -0.1789
 2107SOL     OW17782   1.672   1.217   5.323 -0.3147 -0.3680  0.3079
 2107SOL    HW117783   1.599   1.182   5.272 -0.3773  2.6805 -1.6630
 2107SOL    HW217784   1.747   1.172   5.284  0.5867  0.6081  0.9310
 2108SOL     OW17785   2.136   1.583   0.471  0.4818 -0.5334  0.2758
 2108SOL    HW117786   2.176   1.603   0.556  0.3764  0.3221  0.1311
 2108SOL    HW217787   2.204   1.541   0.419  0.8884  1.9456 -1.2181
 2109SOL     OW17788   0.614   0.382   2.199  0.3219  0.5940  0.1441
 2109SOL    HW117789   0.575   0.467   2.220  0.7818  0.7223  0.4673
 2109SOL    HW217790   0.533   0.336   2.177  0.0030  1.2353 -0.0063
 2110SOL     OW17791   1.737   0.397  10.982 -0.4478 -0.3519  0.1209
 2110SOL    HW117792   1.783   0.412  10.900 -0.7494  0.0125  0.0191
 2110SOL    HW217793   1.740   0.482  11.027 -0.5283  0.6709 -1.8302
 2111SOL     OW17794   3.684   2.212   6.887 -0.0508 -0.4271  0.2869
 2111SOL    HW117795   3.641   2.129   6.868 -3.9209  1.6229  0.1088
 2111SOL    HW217796   3.766   2.199   6.840  0.2034  1.5752  0.1501
 2112SOL     OW17797   0.002   1.549   6.881 -0.2521  0.0693  0.5150
 2112SOL    HW117798   0.005   1.455   6.897  2.0446  0.1535  0.4969
 2112SOL    HW217799   4.643   1.553   6.828 -2.5244 -2.2806  3.7679
 2113SOL     OW17800   3.679   4.166   6.130  0.4854 -0.1171 -0.2482
 2113SOL    HW117801   3.727   4.196   6.053  2.5476  1.1542  1.5567
 2113SOL    HW217802   3.750   4.131   6.184 -1.0562  2.2062  3.2272
 2114SOL     OW17803   2.169   2.003  11.471  0.1148 -0.7077  0.5094
 2114SOL    HW117804   2.253   1.983  11.429 -0.2899 -2.4155  0.5262
 2114SOL    HW217805   2.202   2.060  11.541 -1.9223 -0.4388  1.2528
 2115SOL     OW17806   1.790   1.573   8.987  0.2254 -0.6841 -0.1178
 2115SOL    HW117807   1.868   1.518   8.999  1.4179  0.9973 -0.2293
 2115SOL    HW217808   1.781   1.582   8.892 -1.7962  0.4180  0.1804
 2116SOL     OW17809   1.956   2.930   1.112 -0.2601 -0.7656  0.3803
 2116SOL    HW117810   2.023   2.895   1.054  1.4385  3.1423 -0.0475
 2116SOL    HW217811   1.895   2.857   1.101 -0.7366  0.4048 -4.7411
 2117SOL     OW17812   2.467   3.788  15.813  0.5183  0.0728 -0.3591
 2117SOL    HW117813   2.499   3.770  15.724 -1.4071 -0.5544 -0.9209
 2117SOL    HW217814   2.540   3.756  15.865  0.8321 -0.2569 -0.9960
 2118SOL     OW17815   3.941   1.801  16.529 -0.1521 -0.0922  0.2796
 2118SOL    HW117816   3.856   1.834  16.502  0.2551 -0.4046 -1.4039
 2118SOL    HW217817   3.985   1.872  16.576  2.2868 -1.1228 -0.4556
 2119SOL     OW17818   0.390   3.491  13.076  0.3215  0.7997 -0.2402
 2119SOL    HW117819   0.452   3.526  13.012  1.8408 -1.1016  0.2061
 2119SOL    HW217820   0.449   3.457  13.143 -0.7351  0.2170  0.3882
 2120SOL     OW17821   3.035   4.161   7.343  0.1506  0.2630  0.3352
 2120SOL    HW117822   3.103   4.110   7.299 -2.3249 -0.2170 -2.8963
 2120SOL    HW217823   2.953   4.117   7.320 -0.1172  1.3116 -0.7070
 2121SOL     OW17824   0.659   2.387  14.724 -0.1799 -0.1433 -0.0866
 2121SOL    HW117825   0.747   2.356  14.705  0.4593  1.7135 -0.2296
 2121SOL    HW217826   0.618   2.316  14.773  2.7684 -1.6516  0.1935
 2122SOL     OW17827   1.789   0.976   7.366  0.2120 -0.1746 -0.4235
 2122SOL    HW117828   1.883   0.983   7.351  0.5617 -1.5358  1.2123
 2122SOL    HW217829   1.773   0.886   7.394  1.3050  0.2638  1.6206
 2123SOL     OW17830   4.517   1.532  12.588  0.0661 -0.2185  0.2942
 2123SOL    HW117831   4.520   1.511  12.681  0.0797  0.2271  0.3950
 2123SOL    HW217832   4.427   1.564  12.591 -0.3689 -1.3219 -0.6747
 2124SOL     OW17833   4.490   1.923   7.571  0.1358 -0.1020 -0.2360
 2124SOL    HW117834   4.430   1.856   7.605  3.2199 -2.0425  1.3871
 2124SOL    HW217835   4.425   1.989   7.549  1.4378  0.3267 -2.7954
 2125SOL     OW17836   2.619   0.699  17.311  0.2113 -0.1177  0.4591
 2125SOL    HW117837   2.675   0.733  17.381  0.8799  1.5637 -0.9113
 2125SOL    HW217838   2.557   0.770  17.297  1.8127  1.1655 -0.0630
 2126SOL     OW17839   4.614   2.531   2.519 -0.8827  0.1619  0.0271
 2126SOL    HW117840   4.594   2.624   2.520  0.2109  0.4008 -0.9171
 2126SOL    HW217841   4.540   2.484   2.557 -0.7628 -1.3995 -1.6576
 2127SOL     OW17842   4.336   3.701  12.931 -0.1739  0.1229  0.3196
 2127SOL    HW117843   4.247   3.666  12.934 -0.4569  0.8543  0.4344
 2127SOL    HW217844   4.326   3.795  12.945  0.0895  0.2047 -0.0302
 2128SOL     OW17845   1.501   3.094   4.210 -0.4332 -0.4475  0.4543
 2128SOL    HW117846   1.514   3.065   4.119  0.0636  2.0598 -0.2725
 2128SOL    HW217847   1.426   3.045   4.241 -1.2723 -1.2543 -2.8318
 2129SOL     OW17848   4.394   0.803   6.713 -0.0121  0.2152  0.8490
 2129SOL    HW117849   4.365   0.735   6.653  0.1562  2.1439 -1.4097
 2129SOL    HW217850   4.418   0.747   6.787 -0.1378  1.3336  1.7464
 2130SOL     OW17851   0.197   0.344   4.753  0.5825 -0.4499  0.7951
 2130SOL    HW117852   0.221   0.436   4.758  2.0100 -0.8013  0.3978
 2130SOL    HW217853   0.130   0.340   4.684  0.3569  0.0660  0.9808
 2131SOL     OW17854   1.640   3.861   1.879 -0.3405 -0.5250  0.1200
 2131SOL    HW117855   1.690   3.892   1.955  0.6035 -1.6852 -0.0437
 2131SOL    HW217856   1.590   3.939   1.855  0.9752  0.6913  1.3349
 2132SOL     OW17857   3.814   3.860  14.591  0.1441  0.2600  0.1092
 2132SOL    HW117858   3.884   3.912  14.629  1.6343 -0.8268 -1.1190
 2132SOL    HW217859   3.844   3.829  14.505  0.5924 -0.7782  0.6461
 2133SOL     OW17860   3.062   2.493   3.510  0.3000 -0.2193 -0.5798
 2133SOL    HW117861   3.054   2.450   3.425 -0.8076 -1.4910  0.1710
 2133SOL    HW217862   3.056   2.413   3.562  2.2653 -0.0363 -0.0747
 2134SOL     OW17863   4.371   1.939   8.822 -1.1088 -0.2026 -0.4033
 2134SOL    HW117864   4.338   1.940   8.912 -0.0676  3.2685 -0.0805
 2134SOL    HW217865   4.463   1.963   8.832 -0.7104 -1.7500 -0.2369
 2135SOL     OW17866   0.517   4.481   3.106 -0.2584 -0.1724  0.2554
 2135SOL    HW117867   0.541   4.557   3.160  1.7044 -1.0862  0.6615
 2135SOL    HW217868   0.579   4.497   3.034  0.1126  2.5141  1.1560
 2136SOL     OW17869   0.520   0.045   4.432  0.4196 -0.3866  0.0467
 2136SOL    HW117870   0.581   0.003   4.492  1.2862 -1.6387 -1.7007
 2136SOL    HW217871   0.567   0.038   4.348  0.4531 -2.9593  0.3045
 2137SOL     OW17872   2.056   3.901   5.620 -0.2161 -0.1553 -0.4003
 2137SOL    HW117873   2.013   3.842   5.682  1.1392 -0.8249 -0.0932
 2137SOL    HW217874   2.074   3.984   5.665  0.5098 -0.1796 -0.6390
 2138SOL     OW17875   3.291   1.611  17.214 -0.2739  0.1925 -0.4984
 2138SOL    HW117876   3.379   1.643  17.196 -0.1386  0.6112  0.8688
 2138SOL    HW217877   3.259   1.686  17.263  1.7555 -0.6719  2.1681
 2139SOL     OW17878   1.463   2.617  12.465 -0.1954 -0.5096  0.2610
 2139SOL    HW117879   1.530   2.677  12.434 -1.6885  1.1826  0.2783
 2139SOL    HW217880   1.466   2.642  12.557 -0.9696 -1.4454  0.5495
 2140SOL     OW17881   0.980   3.080  13.895 -0.0950  0.5297  0.3617
 2140SOL    HW117882   0.919   3.152  13.910 -1.2527 -0.3746  0.0501
 2140SOL    HW217883   0.948   3.013  13.955 -2.1491  1.2010  0.0265
 2141SOL     OW17884   1.112   2.239   2.017 -0.6595  0.4385  0.2614
 2141SOL    HW117885   1.199   2.204   2.039 -0.7882  0.5031  0.8927
 2141SOL    HW217886   1.141   2.323   1.983 -1.7815  0.2748 -1.0709
 2142SOL     OW17887   1.226   2.621  11.683 -0.4502  0.1175  0.6145
 2142SOL    HW117888   1.296   2.566  11.718 -1.1422 -0.3062  1.3296
 2142SOL    HW217889   1.244   2.596  11.592  1.3811 -1.2332  1.3692
 2143SOL     OW17890   0.867   3.818   5.825  0.1642 -0.0149  0.1669
 2143SOL    HW117891   0.821   3.848   5.903  0.6764  1.0543  0.0569
 2143SOL    HW217892   0.915   3.740   5.853 -2.2627 -1.2978  0.7620
 2144SOL     OW17893   0.998   1.574   9.448  0.4243 -0.4112  0.1610
 2144SOL    HW117894   0.964   1.631   9.380  0.0968  0.7826  1.3200
 2144SOL    HW217895   0.944   1.499   9.424  1.0600 -1.1918  1.1912
 2145SOL     OW17896   1.872   0.225   2.052 -0.0332  0.1270 -0.7943
 2145SOL    HW117897   1.935   0.279   2.005 -0.2311  0.1633 -1.0184
 2145SOL    HW217898   1.823   0.296   2.095 -2.0842 -1.3303 -0.7161
 2146SOL     OW17899   1.596   3.428  13.757  0.1347 -0.7179 -0.7369
 2146SOL    HW117900   1.518   3.443  13.810  0.0431 -1.4345 -0.6669
 2146SOL    HW217901   1.562   3.427  13.668 -0.2555 -2.0405 -0.5735
 2147SOL     OW17902   1.290   2.620   5.089  0.2910 -0.5999  0.0202
 2147SOL    HW117903   1.261   2.622   4.998  1.0586 -3.4144 -0.2856
 2147SOL    HW217904   1.306   2.714   5.101  0.3820 -0.3237 -2.3576
 2148SOL     OW17905   2.430   0.945   6.067 -0.2371 -0.2389  0.4715
 2148SOL    HW117906   2.447   1.038   6.052  0.6464 -0.3311  0.9541
 2148SOL    HW217907   2.506   0.906   6.024 -0.6683 -1.4221  0.7654
 2149SOL     OW17908   1.106   1.803  11.755 -0.3698  0.4349 -0.0489
 2149SOL    HW117909   1.075   1.771  11.670  0.9346  0.5591 -0.5586
 2149SOL    HW217910   1.025   1.822  11.802  0.6095 -1.6586  2.5350
 2150SOL     OW17911   3.813   0.463  14.896 -0.2544 -0.1430 -0.1529
 2150SOL    HW117912   3.816   0.383  14.843  0.7921 -0.7189  0.7915
 2150SOL    HW217913   3.755   0.509  14.835  0.7584  1.7041  0.2927
 2151SOL     OW17914   3.839   0.668   7.125  0.3091 -0.8923 -0.0192
 2151SOL    HW117915   3.885   0.587   7.103  0.1989 -0.7957 -0.5933
 2151SOL    HW217916   3.827   0.654   7.219 -0.0796 -0.2909  0.0170
 2152SOL     OW17917   0.966   1.424   7.169 -0.0160 -0.1138  0.1005
 2152SOL    HW117918   0.950   1.472   7.249  0.0189  1.1694 -0.6670
 2152SOL    HW217919   0.987   1.492   7.105 -0.3652  0.6365  0.7939
 2153SOL     OW17920   3.748   0.765  14.160 -0.0091  0.2773 -0.9517
 2153SOL    HW117921   3.755   0.690  14.100  2.2024 -0.3498  0.1134
 2153SOL    HW217922   3.837   0.773  14.193 -0.9188 -0.2870  1.5842
 2154SOL     OW17923   3.313   1.369   9.108 -0.2769  0.6259  0.4762
 2154SOL    HW117924   3.265   1.378   9.190 -0.8273  4.6701 -0.2772
 2154SOL    HW217925   3.251   1.310   9.067  0.0166 -0.1044  1.0758
 2155SOL     OW17926   1.512   2.017   5.080  0.8344 -0.3017  0.1866
 2155SOL    HW117927   1.431   2.035   5.127  0.8344  0.6323 -0.1605
 2155SOL    HW217928   1.481   1.981   4.997  0.4035 -0.2386  0.3205
 2156SOL     OW17929   4.436   4.631  13.245 -0.0496 -0.3119  0.7732
 2156SOL    HW117930   4.444   4.570  13.318 -1.1617 -2.5642 -0.9849
 2156SOL    HW217931   4.519   4.622  13.199 -0.1671 -1.0265  0.6989
 2157SOL     OW17932   0.826   1.603  12.820 -0.1158 -0.2869 -0.2151
 2157SOL    HW117933   0.887   1.618  12.891 -1.7635 -0.6098  1.2829
 2157SOL    HW217934   0.771   1.681  12.824 -1.3992 -1.2213  0.6959
 2158SOL     OW17935   1.116   3.259  12.551 -0.2589  0.3175  0.1313
 2158SOL    HW117936   1.137   3.307  12.471  0.3889  0.3651  0.3276
 2158SOL    HW217937   1.035   3.216  12.525  0.4941  0.2429 -2.0774
 2159SOL     OW17938   0.725   0.302  10.503  0.6693  0.2236 -0.2872
 2159SOL    HW117939   0.764   0.389  10.495  0.1977  0.3600 -1.0861
 2159SOL    HW217940   0.803   0.246  10.497  0.3637 -0.0168 -1.9924
 2160SOL     OW17941   0.857   1.436   7.422  0.0596 -0.0302 -0.5393
 2160SOL    HW117942   0.883   1.392   7.503  0.9787 -1.1792 -1.4499
 2160SOL    HW217943   0.802   1.368   7.381 -0.7131  0.4517 -0.3032
 2161SOL     OW17944   2.192   0.258   2.136 -0.6577  0.1312  0.2771
 2161SOL    HW117945   2.196   0.198   2.062  0.8579  0.6450 -0.0511
 2161SOL    HW217946   2.182   0.342   2.092 -1.5917 -0.1767 -0.0872
 2162SOL     OW17947   3.411   1.835   1.899  0.7475 -0.0889 -0.4993
 2162SOL    HW117948   3.489   1.788   1.926  1.2072  1.3040  0.5834
 2162SOL    HW217949   3.412   1.909   1.959  1.9259  0.6235 -1.3975
 2163SOL     OW17950   0.483   1.339   5.914 -0.1249  0.0090  0.1874
 2163SOL    HW117951   0.392   1.314   5.931  0.0549 -0.3594  0.6168
 2163SOL    HW217952   0.484   1.433   5.929  0.5994  0.3815 -2.2722
 2164SOL     OW17953   0.469   4.046   4.432  0.5024  0.1284 -0.1633
 2164SOL    HW117954   0.441   4.023   4.521  1.7159 -0.7973 -0.0256
 2164SOL    HW217955   0.472   4.140   4.449 -0.1872  0.1021  0.1182
 2165SOL     OW17956   4.068   3.473   8.785 -0.0936 -0.1291 -0.0236
 2165SOL    HW117957   4.000   3.405   8.789  0.9046 -0.9755  3.1431
 2165SOL    HW217958   4.050   3.521   8.866  0.1837  0.1281 -0.1145
 2166SOL     OW17959   1.188   2.813  17.493 -0.1864 -0.3443 -0.7134
 2166SOL    HW117960   1.196   2.851  17.580  0.9837 -0.5974 -0.7047
 2166SOL    HW217961   1.128   2.741  17.513  0.0424 -0.2078  0.4254
 2167SOL     OW17962   3.595   2.501  16.383  0.2995 -0.3521  0.1206
 2167SOL    HW117963   3.513   2.463  16.415 -1.0523  3.1314  0.8427
 2167SOL    HW217964   3.584   2.596  16.388  1.5446 -0.2618  0.9612
 2168SOL     OW17965   3.895   1.037   4.475  0.5358  0.0363 -0.1800
 2168SOL    HW117966   3.886   0.945   4.502 -0.1163  0.0139 -0.4760
 2168SOL    HW217967   3.954   1.070   4.543 -1.8906 -2.1822  2.9886
 2169SOL     OW17968   3.925   1.898  15.093  0.5505  0.0235 -0.0257
 2169SOL    HW117969   3.964   1.845  15.162  0.9007  1.9215  1.2532
 2169SOL    HW217970   4.000   1.930  15.043  1.3890 -1.3856  0.3241
 2170SOL     OW17971   4.078   4.592   6.171  0.0463  0.0222 -0.1969
 2170SOL    HW117972   4.054   4.683   6.191  1.0223 -0.0425  1.2132
 2170SOL    HW217973   4.149   4.605   6.108 -0.3616 -0.1262 -0.6971
 2171SOL     OW17974   0.560   1.141   8.054  0.7296  0.2495  0.2771
 2171SOL    HW117975   0.585   1.228   8.086 -0.7872  0.8240 -0.0615
 2171SOL    HW217976   0.496   1.106   8.117 -1.5014  0.4155 -1.8771
 2172SOL     OW17977   0.969   1.561   2.641  0.2226  0.3642 -0.2063
 2172SOL    HW117978   1.037   1.561   2.574  0.3090  2.4018 -0.1211
 2172SOL    HW217979   0.994   1.488   2.698 -0.8520 -0.8741 -1.3340
 2173SOL     OW17980   3.215   1.088   7.544  0.2188  0.3642 -0.3366
 2173SOL    HW117981   3.235   1.003   7.582  1.2430  0.6595 -0.2237
 2173SOL    HW217982   3.220   1.143   7.622  1.0393  1.6271 -1.2639
 2174SOL     OW17983   3.215   4.308   5.207 -0.9010  0.1061  0.5094
 2174SOL    HW117984   3.181   4.394   5.183 -0.9997 -0.0856 -0.0404
 2174SOL    HW217985   3.159   4.293   5.284  2.4724  1.3994  3.2394
 2175SOL     OW17986   0.173   2.361   5.851 -0.1241 -0.3862  0.3469
 2175SOL    HW117987   0.080   2.360   5.831 -0.3303 -0.1537  1.2632
 2175SOL    HW217988   0.177   2.422   5.925 -0.0906 -1.6803  1.4137
 2176SOL     OW17989   1.513   0.872   8.673 -0.0361  0.3980 -0.5391
 2176SOL    HW117990   1.570   0.916   8.737 -2.2307  2.9434 -0.3413
 2176SOL    HW217991   1.448   0.941   8.661  0.3658  0.7584 -0.6710
 2177SOL     OW17992   3.433   4.143   5.347  0.1527 -0.1775  0.3897
 2177SOL    HW117993   3.338   4.147   5.343  0.0893 -0.0556  2.1029
 2177SOL    HW217994   3.453   4.067   5.292 -0.6257 -0.5313  0.5998
 2178SOL     OW17995   3.127   0.215  16.236  0.4928 -0.3231  0.1179
 2178SOL    HW117996   3.036   0.234  16.258  0.2288 -0.4557 -0.8554
 2178SOL    HW217997   3.156   0.141  16.289 -0.6950 -0.1305  1.0250
 2179SOL     OW17998   4.381   0.857  13.515 -0.3867 -0.6203 -0.1039
 2179SOL    HW117999   4.466   0.901  13.521 -0.9502  0.1184  2.2850
 2179SOL    HW218000   4.383   0.813  13.600 -1.7571 -1.2327 -0.3826
 2180SOL     OW18001   0.390   3.998   2.043 -0.7137 -0.1983  0.5274
 2180SOL    HW118002   0.333   3.939   2.090  1.1510 -1.3285  1.3743
 2180SOL    HW218003   0.334   4.019   1.968 -0.7777 -0.1172  0.5978
 2181SOL     OW18004   0.174   0.209  16.809 -0.5279  0.4422  0.2395
 2181SOL    HW118005   0.184   0.239  16.899  1.6054 -1.2095  0.5499
 2181SOL    HW218006   0.082   0.185  16.817  0.1828 -1.6241  2.2037
 2182SOL     OW18007   2.713   1.328   8.705 -0.1079  0.5123  0.0727
 2182SOL    HW118008   2.698   1.370   8.790  1.4008 -1.1461  1.1559
 2182SOL    HW218009   2.738   1.239   8.729  0.0559  1.0986  2.1152
 2183SOL     OW18010   1.486   4.051   9.424 -0.2312 -0.1640  0.6797
 2183SOL    HW118011   1.409   4.003   9.393  1.2069 -1.2841 -1.1324
 2183SOL    HW218012   1.471   4.138   9.387  0.9649 -0.6889 -1.0038
 2184SOL     OW18013   1.507   0.409   2.930 -0.1703 -0.3358  0.3838
 2184SOL    HW118014   1.461   0.408   3.015  0.5095  1.2987  0.7602
 2184SOL    HW218015   1.477   0.324   2.899  1.6625 -1.3781  1.4651
 2185SOL     OW18016   1.205   1.542   0.185  0.1498  0.3005  0.5978
 2185SOL    HW118017   1.291   1.577   0.209 -0.3995  1.0355  1.5100
 2185SOL    HW218018   1.215   1.468   0.125 -1.7093  0.0057  0.6263
 2186SOL     OW18019   1.045   0.297   2.201  0.7783 -0.2005  0.0404
 2186SOL    HW118020   0.961   0.262   2.233  1.0088 -0.6421  0.1646
 2186SOL    HW218021   1.110   0.249   2.253 -0.3110  1.6582  3.1268
 2187SOL     OW18022   0.595   3.076   6.291 -0.1283 -0.0762 -0.6207
 2187SOL    HW118023   0.554   3.061   6.206 -0.7574 -3.1329  0.2327
 2187SOL    HW218024   0.633   2.990   6.307  2.1171  0.5573 -2.5537
 2188SOL     OW18025   3.774   1.222   6.976 -0.1924  0.6540  0.1936
 2188SOL    HW118026   3.727   1.305   6.980  0.2534  0.8927  0.6219
 2188SOL    HW218027   3.816   1.219   7.062 -0.6977  0.7214  0.4422
 2189SOL     OW18028   1.452   3.587  17.079 -0.5195  0.2129  0.1758
 2189SOL    HW118029   1.372   3.552  17.119 -1.7068  1.1527 -1.4267
 2189SOL    HW218030   1.494   3.503  17.060  1.5533  1.0351  1.1193
 2190SOL     OW18031   0.819   0.763   6.665  0.2126  0.1385 -0.4717
 2190SOL    HW118032   0.781   0.827   6.605 -1.5499 -0.2924  0.1670
 2190SOL    HW218033   0.894   0.815   6.693  0.8277  0.2088 -2.2586
 2191SOL     OW18034   0.917   2.012   8.435 -0.1629 -0.1293 -0.2051
 2191SOL    HW118035   0.891   1.977   8.520  2.1774 -1.7031 -0.1356
 2191SOL    HW218036   0.918   2.107   8.446  0.2619 -0.1244 -0.2572
 2192SOL     OW18037   3.425   3.734   0.579 -0.7980  0.2796  0.2975
 2192SOL    HW118038   3.393   3.645   0.589  2.1337 -0.7316  0.9313
 2192SOL    HW218039   3.385   3.758   0.496  0.6843  0.4297 -0.3768
 2193SOL     OW18040   0.238   0.504   8.444  0.6573  0.1319 -0.3589
 2193SOL    HW118041   0.277   0.553   8.517 -0.8324  1.4119 -0.4388
 2193SOL    HW218042   0.233   0.572   8.377  1.9498 -0.0165 -0.6098
 2194SOL     OW18043   0.227   4.260   7.681 -0.0402  0.3248 -0.1747
 2194SOL    HW118044   0.311   4.305   7.691  0.4111 -0.9303  1.6543
 2194SOL    HW218045   0.246   4.177   7.637 -0.5952 -0.6210  1.3871
 2195SOL     OW18046   1.196   4.686   6.109  0.1680  0.0132  0.3777
 2195SOL    HW118047   1.278   4.690   6.157  0.0649 -2.0315  0.7295
 2195SOL    HW218048   1.147   4.636   6.174  0.6571 -1.4250 -0.3550
 2196SOL     OW18049   2.129   0.308   5.272 -0.5330  0.4037 -0.0107
 2196SOL    HW118050   2.041   0.281   5.245 -0.4206 -1.4677  1.5163
 2196SOL    HW218051   2.114   0.393   5.314 -0.4078 -0.0482  0.9458
 2197SOL     OW18052   1.805   0.446   1.181  0.5001 -0.0334 -0.3139
 2197SOL    HW118053   1.863   0.512   1.220 -0.1025  0.2178  0.1798
 2197SOL    HW218054   1.728   0.447   1.238 -0.7309 -1.8110 -1.9728
 2198SOL     OW18055   0.845   3.814   2.901  0.1290  0.0050 -0.0255
 2198SOL    HW118056   0.873   3.874   2.832  1.9031 -0.9323 -0.1078
 2198SOL    HW218057   0.835   3.734   2.850  1.5235  0.3224 -0.8074
 2199SOL     OW18058   4.577   2.048   4.220 -0.2690 -0.0585 -0.2151
 2199SOL    HW118059   4.639   1.976   4.211  0.8345  0.7789  0.6249
 2199SOL    HW218060   4.570   2.061   4.125  1.7973 -3.0341 -0.7791
 2200SOL     OW18061   1.776   3.655   2.533  0.4925 -0.0411 -1.0590
 2200SOL    HW118062   1.746   3.659   2.442 -1.4887 -1.7347 -0.4959
 2200SOL    HW218063   1.736   3.734   2.570  0.8137  0.1027 -1.0213
 2201SOL     OW18064   2.822   0.863  13.225 -0.0508  0.4445 -0.2038
 2201SOL    HW118065   2.797   0.810  13.301 -0.0767 -0.1030 -0.5930
 2201SOL    HW218066   2.914   0.837  13.218 -1.0552 -2.7713 -1.6311
 2202SOL     OW18067   4.156   1.407   7.270 -0.0734 -0.5768  0.0816
 2202SOL    HW118068   4.198   1.399   7.185 -0.5144  1.7116 -0.3530
 2202SOL    HW218069   4.237   1.421   7.318 -0.3622 -0.2226  0.4645
 2203SOL     OW18070   0.063   4.514   2.265 -0.1281 -0.0756  0.5274
 2203SOL    HW118071   0.122   4.475   2.329  2.0278  1.6383 -0.4152
 2203SOL    HW218072   0.030   4.434   2.223 -1.2340  0.0943  1.0683
 2204SOL     OW18073   4.135   3.073   5.965 -0.8830 -0.4899 -0.2917
 2204SOL    HW118074   4.089   2.989   5.957 -0.7078 -0.5199 -1.0519
 2204SOL    HW218075   4.118   3.072   6.059  2.2464 -0.4540  0.2653
 2205SOL     OW18076   3.867   2.447   5.098  0.0810 -0.0838  0.5555
 2205SOL    HW118077   3.892   2.361   5.132 -3.3681  0.1432  3.5744
 2205SOL    HW218078   3.943   2.499   5.125 -0.6916  1.6817 -0.7107
 2206SOL     OW18079   3.469   4.421   4.821  0.1223 -0.5801 -0.0787
 2206SOL    HW118080   3.503   4.374   4.745  0.2843 -1.4641  0.5450
 2206SOL    HW218081   3.538   4.488   4.822 -1.2892  0.8801 -0.8005
 2207SOL     OW18082   0.971   1.262   8.481 -0.2962  0.1258 -0.0499
 2207SOL    HW118083   0.921   1.271   8.562  0.9903 -0.7101  0.8271
 2207SOL    HW218084   0.890   1.258   8.430 -0.3888 -0.6664  0.1705
 2208SOL     OW18085   0.459   1.823   7.595  0.0544  0.2168 -0.5425
 2208SOL    HW118086   0.552   1.839   7.584 -0.0847  0.1866 -1.7919
 2208SOL    HW218087   0.449   1.804   7.688  0.4481 -1.1460 -0.7802
 2209SOL     OW18088   2.817   1.250   9.517 -0.1121  0.7412 -0.7623
 2209SOL    HW118089   2.732   1.262   9.473 -0.3823 -0.9006 -0.6875
 2209SOL    HW218090   2.829   1.329   9.569 -2.1871 -0.2360  1.1931
 2210SOL     OW18091   1.176   2.944   5.643 -0.6164  0.1670  0.4998
 2210SOL    HW118092   1.226   2.875   5.688  1.3237  1.2830  0.0578
 2210SOL    HW218093   1.086   2.926   5.669 -0.6203 -0.8546 -0.2281
 2211SOL     OW18094   1.475   3.156   4.552 -0.4567 -0.1417 -0.7239
 2211SOL    HW118095   1.402   3.157   4.490  0.3570  0.8243 -1.6585
 2211SOL    HW218096   1.549   3.188   4.501  0.6144 -0.2607  0.7621
 2212SOL     OW18097   4.679   4.150   2.460 -0.1455  0.8826 -0.3936
 2212SOL    HW118098   4.682   4.144   2.556 -0.9053  0.4686 -0.3867
 2212SOL    HW218099   4.594   4.114   2.433 -0.7333  0.6215  1.7925
 2213SOL     OW18100   0.321   2.919  10.073 -0.1298  0.1284  0.0924
 2213SOL    HW118101   0.376   2.845  10.048 -0.3810 -0.3377  0.9053
 2213SOL    HW218102   0.346   2.933  10.164  1.3042  2.8347 -0.7412
 2214SOL     OW18103   3.064   4.450   1.586 -0.8388  0.2524 -0.7360
 2214SOL    HW118104   3.108   4.478   1.505  0.3064  1.4714  0.3042
 2214SOL    HW218105   3.132   4.388   1.611  0.4968  1.8960 -0.3172
 2215SOL     OW18106   4.693   2.706   5.936  0.0444 -0.2117 -0.4694
 2215SOL    HW118107   0.024   2.643   5.985 -3.2534 -2.7734 -0.2924
 2215SOL    HW218108   4.690   2.783   5.993 -0.3645 -0.8075  0.3065
 2216SOL     OW18109   3.739   3.081   2.121 -0.4031 -0.2844 -0.3310
 2216SOL    HW118110   3.800   3.051   2.053  0.1733  0.7260 -0.2593
 2216SOL    HW218111   3.792   3.152   2.158 -2.2459  0.5615  0.7062
 2217SOL     OW18112   2.427   3.595   1.716  0.3528  0.0488 -0.4339
 2217SOL    HW118113   2.381   3.518   1.684 -1.4544  0.1121  2.0109
 2217SOL    HW218114   2.403   3.664   1.654 -2.3810 -0.5647 -0.0524
 2218SOL     OW18115   0.902   4.073  14.214 -0.4479  0.1875 -0.1524
 2218SOL    HW118116   0.960   4.068  14.138  0.7967  0.0682  0.8090
 2218SOL    HW218117   0.851   4.150  14.190  0.5790  1.6622  2.3914
 2219SOL     OW18118   0.069   0.584  16.795 -0.4873  0.5487  0.3996
 2219SOL    HW118119   0.105   0.673  16.792 -0.1868  0.3632 -1.4605
 2219SOL    HW218120   4.712   0.606  16.847 -2.0872 -2.1211 -0.8235
 2220SOL     OW18121   0.455   0.427  16.477  0.2978  0.2915  0.1273
 2220SOL    HW118122   0.405   0.429  16.559 -0.6488 -0.8160 -0.4200
 2220SOL    HW218123   0.391   0.461  16.415 -0.2840 -0.6780  0.1999
 2221SOL     OW18124   0.375   0.180   1.207  0.5158  0.4941 -0.2008
 2221SOL    HW118125   0.331   0.231   1.139 -0.1785  1.2901  0.8439
 2221SOL    HW218126   0.395   0.250   1.270 -1.6440  0.1403  0.8569
 2222SOL     OW18127   3.867   1.211   4.079 -0.0884  0.4042  0.4887
 2222SOL    HW118128   3.890   1.121   4.057 -2.6128 -0.1560  0.1943
 2222SOL    HW218129   3.864   1.250   3.992 -0.8192 -2.6600 -0.8598
 2223SOL     OW18130   4.119   3.085   5.500  0.1918 -0.1889  1.0142
 2223SOL    HW118131   4.211   3.070   5.477  0.0459 -0.7167  0.7784
 2223SOL    HW218132   4.090   3.152   5.439  1.4670 -0.7812 -0.2583
 2224SOL     OW18133   0.137   2.796  11.848 -0.2491  0.5403 -0.0129
 2224SOL    HW118134   0.042   2.784  11.855 -0.1908  0.5418  0.8136
 2224SOL    HW218135   0.140   2.889  11.824  0.1931  0.5602  0.1311
 2225SOL     OW18136   0.314   2.769   6.064 -0.2283 -0.2151  0.2696
 2225SOL    HW118137   0.270   2.734   6.142  0.2769 -0.8002  0.2885
 2225SOL    HW218138   0.265   2.850   6.050  0.8035  0.5233  0.9217
 2226SOL     OW18139   3.736   3.215  14.973  0.0605 -0.6904 -0.5417
 2226SOL    HW118140   3.747   3.296  14.924 -0.9790 -1.0351 -1.3383
 2226SOL    HW218141   3.773   3.236  15.059  0.1413 -1.0750 -0.4828
 2227SOL     OW18142   3.323   2.355   6.013 -0.4957 -0.3433  0.2568
 2227SOL    HW118143   3.293   2.356   6.104 -0.3904  1.0343  0.2814
 2227SOL    HW218144   3.252   2.405   5.972 -0.2995  1.3064  1.9449
 2228SOL     OW18145   0.020   2.903   1.040  0.0440 -0.0759  0.3892
 2228SOL    HW118146   0.020   2.809   1.053  0.3791 -0.1648 -0.2692
 2228SOL    HW218147   0.074   2.938   1.111 -1.8275 -1.9903  2.7524
 2229SOL     OW18148   1.493   4.328   2.978  0.2535  0.6655  0.0965
 2229SOL    HW118149   1.482   4.420   2.953  1.6569  0.7880 -0.0657
 2229SOL    HW218150   1.577   4.331   3.024  1.0226  0.4448 -1.3021
 2230SOL     OW18151   2.329   1.330   2.703  0.3549  0.2201  0.6864
 2230SOL    HW118152   2.301   1.388   2.632  2.2646 -0.2991 -0.4582
 2230SOL    HW218153   2.414   1.369   2.720  1.4888 -1.3618 -1.3209
 2231SOL     OW18154   2.509   1.883   1.682 -0.3317  0.3201  0.2009
 2231SOL    HW118155   2.431   1.861   1.734  0.5575 -1.4890  0.7861
 2231SOL    HW218156   2.475   1.956   1.630 -3.8589 -0.2573  1.6992
 2232SOL     OW18157   3.498   0.368   1.128 -0.3564 -0.3936 -0.0805
 2232SOL    HW118158   3.578   0.391   1.081  0.2490  0.8814  1.5773
 2232SOL    HW218159   3.449   0.450   1.119  0.4499  0.1319  0.2891
 2233SOL     OW18160   1.979   3.929   7.248 -0.1638  0.1577 -0.1137
 2233SOL    HW118161   1.898   3.945   7.297 -0.7188 -1.4595 -0.5028
 2233SOL    HW218162   1.943   3.907   7.162 -1.3806 -1.0778  0.7024
 2234SOL     OW18163   0.439   2.563   5.938  0.1838  0.0698  0.3213
 2234SOL    HW118164   0.401   2.633   5.991 -0.8600  0.8331 -1.4484
 2234SOL    HW218165   0.408   2.594   5.854  0.7076  0.7779  0.3906
 2235SOL     OW18166   0.761   4.068  15.691 -0.1280 -0.1703  0.6655
 2235SOL    HW118167   0.774   4.115  15.773 -0.1407  0.0688  0.5284
 2235SOL    HW218168   0.685   4.120  15.668  0.4336 -0.2770 -1.4378
 2236SOL     OW18169   2.046   3.477   9.962  0.1962  0.1181  0.5389
 2236SOL    HW118170   2.065   3.419  10.036  1.3056 -2.5914 -1.8714
 2236SOL    HW218171   1.951   3.471   9.956  0.0069  0.5022  3.0622
 2237SOL     OW18172   2.653   4.513   9.990  0.0515 -0.2432 -0.3313
 2237SOL    HW118173   2.602   4.591  10.014  1.6077  0.7165 -0.1282
 2237SOL    HW218174   2.660   4.459  10.069 -0.9864 -1.1795 -0.8810
 2238SOL     OW18175   2.692   4.108   7.896  0.2710 -0.2039  0.1121
 2238SOL    HW118176   2.712   4.023   7.934  2.4333 -1.3091 -3.5360
 2238SOL    HW218177   2.767   4.128   7.840  1.5458 -2.3147  1.0735
 2239SOL     OW18178   2.212   4.056   4.285  0.3433 -0.0956  0.6099
 2239SOL    HW118179   2.248   4.144   4.283 -0.1552  0.0676 -1.3347
 2239SOL    HW218180   2.126   4.076   4.324  0.1732  0.3903 -0.0212
 2240SOL     OW18181   3.267   1.608   3.393 -0.7665 -0.5284 -0.9451
 2240SOL    HW118182   3.218   1.661   3.457  2.0125  1.8660 -0.7877
 2240SOL    HW218183   3.338   1.671   3.381 -0.1038 -0.8672  1.2694
 2241SOL     OW18184   2.596   3.531   2.642  0.0146 -0.0660 -0.8302
 2241SOL    HW118185   2.514   3.559   2.682  0.6594  1.2502 -0.4461
 2241SOL    HW218186   2.658   3.539   2.715  1.8047 -0.4312 -2.2921
 2242SOL     OW18187   3.754   0.221   1.735  0.6967 -0.1026 -0.2872
 2242SOL    HW118188   3.808   0.154   1.777 -0.5472 -0.9053  0.0577
 2242SOL    HW218189   3.828   0.257   1.687  0.6695 -0.8177 -0.8699
 2243SOL     OW18190   1.273   2.812  14.507 -0.0622  0.9213 -0.2343
 2243SOL    HW118191   1.259   2.719  14.525 -2.8737  1.0712 -1.7181
 2243SOL    HW218192   1.181   2.834  14.494  0.0352  0.5713 -1.4444
 2244SOL     OW18193   2.173   3.813   7.073 -0.2653  0.2687 -0.1155
 2244SOL    HW118194   2.142   3.860   7.150  1.1681  1.6603 -0.4090
 2244SOL    HW218195   2.175   3.879   7.004  1.4641  0.3832  0.0579
 2245SOL     OW18196   0.531   3.329  11.906  1.0840 -0.2934  0.0186
 2245SOL    HW118197   0.443   3.295  11.894  0.7614  1.6821 -3.1387
 2245SOL    HW218198   0.581   3.255  11.870 -0.4568 -1.7189  0.8100
 2246SOL     OW18199   0.768   3.826   5.557 -0.1863  0.4345  0.3259
 2246SOL    HW118200   0.795   3.826   5.649  0.3645  1.0723  0.1607
 2246SOL    HW218201   0.847   3.860   5.516 -0.0212 -1.7200 -1.1418
 2247SOL     OW18202   3.073   2.760  16.656 -0.3348 -0.1754 -0.2192
 2247SOL    HW118203   3.153   2.810  16.672 -0.8656  1.0769 -1.4466
 2247SOL    HW218204   3.016   2.795  16.724 -0.4525  1.0595 -0.9569
 2248SOL     OW18205   1.556   0.434   1.318  0.4962  0.1584  0.1013
 2248SOL    HW118206   1.535   0.392   1.235 -1.3713  2.5319 -0.6343
 2248SOL    HW218207   1.466   0.450   1.344  0.5129  0.4037  0.0116
 2249SOL     OW18208   3.923   3.932  17.000  0.0532 -0.5154  0.1294
 2249SOL    HW118209   3.886   3.933  17.088 -0.8370 -0.1923 -0.2583
 2249SOL    HW218210   3.986   3.859  16.999  0.5908 -0.0237 -2.4736
 2250SOL     OW18211   4.635   1.479   8.839 -0.0505  0.2774  0.0817
 2250SOL    HW118212   4.604   1.502   8.927  1.5605  2.2607  0.1095
 2250SOL    HW218213   4.580   1.402   8.822  1.3700 -0.5361 -0.7980
 2251SOL     OW18214   0.207   3.433   9.921  0.1765  0.5998  0.2665
 2251SOL    HW118215   0.183   3.363   9.860  1.2273 -1.1321  1.7958
 2251SOL    HW218216   0.250   3.376   9.986  1.7417  2.0381  0.4812
 2252SOL     OW18217   1.599   3.042  11.934 -0.4080  0.0527 -0.1816
 2252SOL    HW118218   1.537   3.101  11.892 -1.6902 -0.9661  0.3144
 2252SOL    HW218219   1.546   2.965  11.916 -0.0309  0.2070 -1.9393
 2253SOL     OW18220   2.320   1.649  12.339  0.0269  0.1954 -0.2140
 2253SOL    HW118221   2.320   1.694  12.424 -0.0897 -2.1070  1.0093
 2253SOL    HW218222   2.368   1.712  12.286  0.0178 -1.2508 -1.9338
 2254SOL     OW18223   4.019   3.721   9.282  0.3386 -0.8061  0.0821
 2254SOL    HW118224   3.980   3.722   9.369 -0.1309  1.4795 -0.1565
 2254SOL    HW218225   4.014   3.815   9.266  0.8448 -0.3478  2.5888
 2255SOL     OW18226   0.238   4.526  12.401  0.3256  0.6082 -0.5949
 2255SOL    HW118227   0.293   4.570  12.466 -0.7261  1.3387 -0.1883
 2255SOL    HW218228   0.159   4.518  12.456  0.3827  0.0914 -0.5896
 2256SOL     OW18229   0.042   1.109   5.087 -0.2930 -0.3836  0.4688
 2256SOL    HW118230   0.006   1.106   5.175  0.3956  1.9889  0.8173
 2256SOL    HW218231   4.686   1.131   5.035  0.2931 -2.9090 -1.4681
 2257SOL     OW18232   4.045   2.534   8.218  0.3227 -0.3176 -0.1582
 2257SOL    HW118233   3.958   2.554   8.252  1.5117  0.9803  2.0948
 2257SOL    HW218234   4.102   2.554   8.292  1.6792 -2.0934 -0.7037
 2258SOL     OW18235   1.793   3.459   4.193 -0.2689  0.0824  0.5974
 2258SOL    HW118236   1.772   3.367   4.175 -0.5443  0.1601  0.5312
 2258SOL    HW218237   1.822   3.450   4.284 -1.6492  2.3172  1.2605
 2259SOL     OW18238   2.247   0.025   1.971 -0.0537  0.5954  0.1619
 2259SOL    HW118239   2.338   0.019   2.001  0.1215  2.0874 -0.0943
 2259SOL    HW218240   2.261   0.072   1.888  0.6933 -1.5221 -0.9171
 2260SOL     OW18241   2.895   3.865   6.221 -0.1413  0.2669 -0.5008
 2260SOL    HW118242   2.806   3.892   6.241  0.1739 -0.9896  2.5742
 2260SOL    HW218243   2.896   3.896   6.130 -0.1144  1.0336 -0.2431
 2261SOL     OW18244   4.444   0.530  11.318 -0.7284 -0.5477  0.3670
 2261SOL    HW118245   4.526   0.549  11.271 -0.6749 -2.5153 -0.3419
 2261SOL    HW218246   4.404   0.617  11.324  0.7144  0.3164 -1.9315
 2262SOL     OW18247   0.912   4.118   7.620 -0.3992 -0.1716  0.0215
 2262SOL    HW118248   0.946   4.043   7.570 -2.0054 -0.2443 -0.9535
 2262SOL    HW218249   0.855   4.153   7.551  0.7589 -0.5418 -1.1385
 2263SOL     OW18250   1.339   4.142   4.635 -0.4091 -0.0868  0.3169
 2263SOL    HW118251   1.394   4.074   4.598 -0.8537 -0.6063  0.6170
 2263SOL    HW218252   1.315   4.103   4.720 -0.7193  2.5930  1.4645
 2264SOL     OW18253   3.567   0.734   3.297 -0.2347  0.0612 -0.4651
 2264SOL    HW118254   3.553   0.640   3.289  0.3324  0.0140 -0.8779
 2264SOL    HW218255   3.568   0.730   3.393 -0.1047 -0.1680 -0.4767
 2265SOL     OW18256   3.719   1.434   9.159  0.0026 -0.1629  0.3539
 2265SOL    HW118257   3.669   1.499   9.208 -1.1404  0.9034 -2.2041
 2265SOL    HW218258   3.665   1.358   9.179  0.4009 -0.2010  1.2830
 2266SOL     OW18259   2.780   1.120  12.881 -0.5099 -0.3756 -0.6133
 2266SOL    HW118260   2.786   1.121  12.976  3.0148  1.6781 -0.8510
 2266SOL    HW218261   2.712   1.053  12.886 -1.8510  1.0657  0.2017
 2267SOL     OW18262   0.579   4.295   1.450 -0.0570  0.2661 -0.6222
 2267SOL    HW118263   0.515   4.366   1.441  0.9839  1.1493 -0.9465
 2267SOL    HW218264   0.575   4.295   1.546  2.4235 -1.9030 -0.5127
 2268SOL     OW18265   4.437   3.076   5.041 -0.5444 -0.0506 -0.3097
 2268SOL    HW118266   4.514   3.028   5.010 -1.9474 -0.8528 -2.5903
 2268SOL    HW218267   4.476   3.133   5.107 -1.3165 -0.5873  0.6044
 2269SOL     OW18268   1.543   2.017   5.937  0.0240  0.2579  0.4244
 2269SOL    HW118269   1.584   2.013   5.851  1.4950 -1.1164  1.1918
 2269SOL    HW218270   1.506   1.929   5.939 -1.1216  0.6989 -1.4272
 2270SOL     OW18271   3.861   3.494  10.575  0.1639 -0.4488  0.5543
 2270SOL    HW118272   3.850   3.430  10.505 -0.6008  2.4329 -1.9354
 2270SOL    HW218273   3.927   3.447  10.625  1.6468 -1.7104 -2.5905
 2271SOL     OW18274   3.978   3.706   3.815 -0.8362  0.3376  0.0261
 2271SOL    HW118275   4.027   3.781   3.847 -2.4171  0.6440  1.7679
 2271SOL    HW218276   3.964   3.655   3.895 -0.0072  0.3541  0.1792
 2272SOL     OW18277   2.236   0.316   2.987  0.4055  0.0478  0.1231
 2272SOL    HW118278   2.217   0.372   3.062 -0.5901 -0.8943  0.5716
 2272SOL    HW218279   2.148   0.310   2.951  0.7520  1.2592 -0.9121
 2273SOL     OW18280   4.161   1.111   2.120 -0.3983  0.3028 -0.5229
 2273SOL    HW118281   4.068   1.123   2.141 -0.3037 -1.9613  1.1873
 2273SOL    HW218282   4.173   1.023   2.154  3.5850  0.8020 -0.7097
 2274SOL     OW18283   4.365   0.200  10.723 -0.1940  0.1028 -0.7443
 2274SOL    HW118284   4.330   0.121  10.765  1.2191 -1.0129 -1.6463
 2274SOL    HW218285   4.419   0.241  10.791 -2.6040 -0.4663  1.5078
 2275SOL     OW18286   3.935   3.221  10.437 -0.2385 -0.1353  0.0100
 2275SOL    HW118287   3.886   3.168  10.374  2.9330 -2.9697 -0.0380
 2275SOL    HW218288   3.885   3.197  10.514 -0.7083 -0.7969 -0.5045
 2276SOL     OW18289   1.586   0.444   9.781 -0.3716 -0.9272  0.0445
 2276SOL    HW118290   1.679   0.461   9.791 -0.4956 -0.4523  0.4165
 2276SOL    HW218291   1.584   0.348   9.784 -0.0348 -0.9411 -0.2804
 2277SOL     OW18292   1.398   2.683  16.162 -0.4494 -0.2954  0.0988
 2277SOL    HW118293   1.494   2.684  16.161 -0.4687  1.6873  0.4438
 2277SOL    HW218294   1.376   2.609  16.105 -1.2597 -0.5635  0.7733
 2278SOL     OW18295   2.442   4.215   4.185 -0.6143 -0.4256  0.3189
 2278SOL    HW118296   2.450   4.203   4.090 -0.6343  0.2991  0.2241
 2278SOL    HW218297   2.488   4.297   4.203  0.2092 -0.6395 -0.8116
 2279SOL     OW18298   2.308   0.397   4.881 -0.1136  0.4707  0.3571
 2279SOL    HW118299   2.262   0.324   4.922  0.3785  0.5093  0.9735
 2279SOL    HW218300   2.266   0.406   4.796  2.3543  0.5366 -0.8523
 2280SOL     OW18301   3.553   4.398   9.045  0.0221  0.1905 -0.7982
 2280SOL    HW118302   3.643   4.427   9.055 -0.2183  0.7030 -0.1391
 2280SOL    HW218303   3.539   4.346   9.125 -0.6454  1.2024 -0.2671
 2281SOL     OW18304   1.508   1.060   2.634 -0.1344 -0.0074  0.1796
 2281SOL    HW118305   1.472   1.064   2.722  3.3846 -2.3737  1.7310
 2281SOL    HW218306   1.444   1.111   2.584  1.4796 -0.0087 -1.8964
 2282SOL     OW18307   1.967   0.035   4.299 -0.4291  0.0830  0.2500
 2282SOL    HW118308   2.060   0.058   4.298 -0.7439  1.3652 -0.0941
 2282SOL    HW218309   1.931   0.088   4.228  1.3455 -0.2734 -0.9058
 2283SOL     OW18310   1.218   3.835   4.243 -0.4261 -0.0741 -0.0625
 2283SOL    HW118311   1.138   3.832   4.296 -0.0397  1.8134  0.6470
 2283SOL    HW218312   1.198   3.914   4.192 -2.1757 -2.4754 -3.0969
 2284SOL     OW18313   3.560   0.831   4.181  0.1067  0.8503  0.1293
 2284SOL    HW118314   3.509   0.905   4.213 -1.2475  0.5574 -1.3172
 2284SOL    HW218315   3.569   0.794   4.268 -1.3760 -0.8939 -0.4716
 2285SOL     OW18316   0.969   4.399   3.068 -0.1663  0.7587 -0.1244
 2285SOL    HW118317   1.056   4.361   3.055 -0.2795  1.6636 -3.6009
 2285SOL    HW218318   0.918   4.331   3.111 -2.4163  0.4779 -3.1865
 2286SOL     OW18319   0.738   1.680   8.493 -0.4528 -0.2719  0.2330
 2286SOL    HW118320   0.757   1.690   8.587  2.6357 -0.7248 -0.3447
 2286SOL    HW218321   0.818   1.634   8.469  0.1150 -0.1419  1.8543
 2287SOL     OW18322   3.237   1.189   3.804 -0.2569 -0.0446  0.6978
 2287SOL    HW118323   3.264   1.104   3.768  0.4005  0.0749  0.9044
 2287SOL    HW218324   3.319   1.229   3.835  0.0991 -0.0123 -0.2890
 2288SOL     OW18325   0.576   4.244   3.237  0.8069  0.3605 -0.1079
 2288SOL    HW118326   0.525   4.314   3.197  0.2551  0.7168  1.1981
 2288SOL    HW218327   0.654   4.289   3.271  1.6748 -1.3669  0.2142
 2289SOL     OW18328   1.725   4.550  16.945  0.1606 -0.3089 -0.5006
 2289SOL    HW118329   1.663   4.477  16.948  2.4331 -2.3031 -1.7526
 2289SOL    HW218330   1.701   4.596  16.865  1.7590  0.3014 -0.6302
 2290SOL     OW18331   4.417   1.136   3.823 -0.1254  0.2385  0.3924
 2290SOL    HW118332   4.428   1.199   3.894 -1.0721  1.8489 -0.8712
 2290SOL    HW218333   4.366   1.193   3.765 -1.1848 -1.2075 -0.1094
 2291SOL     OW18334   3.570   3.317   7.046 -0.3101  0.2881  0.0731
 2291SOL    HW118335   3.554   3.381   6.977 -0.9613 -1.0448 -1.0108
 2291SOL    HW218336   3.504   3.334   7.113 -0.0491 -0.7049  0.5962
 2292SOL     OW18337   2.186   2.922   9.291 -0.1282  0.2752 -0.5983
 2292SOL    HW118338   2.194   2.985   9.363 -1.0360 -0.4514  0.1406
 2292SOL    HW218339   2.120   2.964   9.237 -0.2961  0.3449 -0.3412
 2293SOL     OW18340   3.850   4.693   8.400 -0.4338 -1.1076 -0.3896
 2293SOL    HW118341   3.864   0.015   8.315 -0.5491  3.7368  2.0244
 2293SOL    HW218342   3.755   4.681   8.388 -0.6553  1.0650 -0.8083
 2294SOL     OW18343   2.444   4.111   3.127 -0.1060  0.4090 -0.0001
 2294SOL    HW118344   2.450   4.016   3.124  1.9048  0.5940 -1.7737
 2294SOL    HW218345   2.478   4.122   3.216 -1.8198 -0.6047  0.7650
 2295SOL     OW18346   4.187   2.010   7.875  0.7917  0.6369  0.5850
 2295SOL    HW118347   4.103   2.044   7.906  0.3060  1.1576 -1.3324
 2295SOL    HW218348   4.222   1.977   7.958 -2.0590 -1.9751  0.7708
 2296SOL     OW18349   3.109   2.499  16.594 -0.1915 -0.1490  0.2086
 2296SOL    HW118350   3.056   2.459  16.662 -2.1785  1.8508 -0.1498
 2296SOL    HW218351   3.108   2.593  16.615 -0.4335 -0.4466  1.5608
 2297SOL     OW18352   1.585   2.243  15.971  0.4153 -0.4139  0.3372
 2297SOL    HW118353   1.562   2.150  15.984 -1.4070  0.2210  1.6996
 2297SOL    HW218354   1.661   2.231  16.027  0.8305  0.4616 -0.0546
 2298SOL     OW18355   4.028   0.913   4.786  0.0881  0.3874 -0.3124
 2298SOL    HW118356   4.105   0.888   4.837  0.1307 -0.9206 -0.9934
 2298SOL    HW218357   4.057   0.987   4.733  1.1876 -1.2309 -2.0090
 2299SOL     OW18358   3.670   0.209  10.672 -0.0323 -0.0726 -0.2392
 2299SOL    HW118359   3.583   0.174  10.653 -1.0346  1.4363  1.6091
 2299SOL    HW218360   3.685   0.275  10.605 -1.5794 -1.0914 -1.5690
 2300SOL     OW18361   0.622   0.567   3.616 -0.1017  0.3688  0.4147
 2300SOL    HW118362   0.596   0.544   3.527 -0.7172 -0.6657  0.8505
 2300SOL    HW218363   0.538   0.596   3.653 -0.3396 -0.3585  0.4506
 2301SOL     OW18364   0.873   0.668   3.479 -0.0828 -0.1397  0.1058
 2301SOL    HW118365   0.841   0.682   3.390 -1.6836 -1.9418  0.4007
 2301SOL    HW218366   0.795   0.643   3.528  0.1259 -1.0475 -0.0200
 2302SOL     OW18367   2.935   0.171  11.796 -0.8008 -0.5507 -0.5948
 2302SOL    HW118368   2.896   0.258  11.787  0.3471  0.0853  0.5412
 2302SOL    HW218369   2.873   0.132  11.857  1.1951  0.9253  2.3870
 2303SOL     OW18370   0.757   3.136   8.203  0.4707  0.4052 -1.0256
 2303SOL    HW118371   0.810   3.086   8.141  2.2796 -1.0044  1.6474
 2303SOL    HW218372   0.723   3.196   8.137 -1.0111  0.3818 -0.2938
 2304SOL     OW18373   0.377   2.615  10.887 -0.1688  0.9083  0.0610
 2304SOL    HW118374   0.294   2.655  10.860  0.0567  0.2507 -1.6236
 2304SOL    HW218375   0.345   2.559  10.958  1.5107 -0.5202 -0.3112
 2305SOL     OW18376   1.737   2.934   6.831  0.0693  0.2099 -0.3137
 2305SOL    HW118377   1.665   2.947   6.893  1.1522  1.6981  0.6315
 2305SOL    HW218378   1.816   2.922   6.883  0.0529 -0.0468 -0.3503
 2306SOL     OW18379   2.466   3.733   1.939  0.9015 -0.5083 -0.1033
 2306SOL    HW118380   2.413   3.671   1.888 -2.0104  1.5150  0.4696
 2306SOL    HW218381   2.536   3.675   1.968  0.1099 -1.3994  0.0562
 2307SOL     OW18382   1.043   3.954   9.797 -0.0134  0.1188  0.0084
 2307SOL    HW118383   1.011   4.031   9.750  0.3256 -1.5745 -3.0488
 2307SOL    HW218384   0.985   3.886   9.761 -1.5786  1.0569  0.7470
 2308SOL     OW18385   2.635   2.546   8.644  0.3629  0.0651  0.3286
 2308SOL    HW118386   2.657   2.582   8.731  0.5168 -0.0454  0.3354
 2308SOL    HW218387   2.688   2.603   8.588 -0.3167  1.0400  0.6739
 2309SOL     OW18388   2.946   2.462  13.113 -0.7179  0.0452  0.3896
 2309SOL    HW118389   3.014   2.457  13.046 -1.5127  1.4716 -0.5195
 2309SOL    HW218390   2.904   2.377  13.103  1.7553 -1.1707  0.3035
 2310SOL     OW18391   3.092   3.331  17.380  0.1772  0.3411  0.2419
 2310SOL    HW118392   3.165   3.354  17.323  0.2244  0.6202  0.4136
 2310SOL    HW218393   3.076   3.419  17.415 -0.7419  1.1090 -2.1398
 2311SOL     OW18394   2.053   3.298   7.536 -0.2642 -0.0266 -0.1430
 2311SOL    HW118395   2.123   3.359   7.559  0.8227 -1.2534 -0.1935
 2311SOL    HW218396   2.028   3.272   7.625 -0.0870  0.4296  0.0394
 2312SOL     OW18397   0.153   4.319   6.758 -0.3894 -0.4606 -0.4734
 2312SOL    HW118398   0.061   4.325   6.783  0.2543 -0.8973  2.0978
 2312SOL    HW218399   0.198   4.309   6.842 -0.6582 -0.9484 -0.3859
 2313SOL     OW18400   2.208   4.182   9.341 -0.1864  0.1576  0.3909
 2313SOL    HW118401   2.250   4.140   9.416 -2.3740  0.9180  2.0839
 2313SOL    HW218402   2.165   4.108   9.299 -2.3874  0.2353  2.4644
 2314SOL     OW18403   3.971   3.060  14.866  0.2485 -0.2824  0.5158
 2314SOL    HW118404   3.955   3.001  14.792  0.2286 -0.2940  0.5296
 2314SOL    HW218405   3.887   3.105  14.868  0.7823  0.8996 -2.5965
 2315SOL     OW18406   1.572   1.962   7.713  0.2562  0.3375  0.0590
 2315SOL    HW118407   1.640   1.911   7.756  0.7443  1.3447  0.4889
 2315SOL    HW218408   1.571   1.914   7.631 -1.4272 -0.9062  0.8001
 2316SOL     OW18409   3.028   0.738  15.023 -0.4915 -0.5177  0.2609
 2316SOL    HW118410   2.952   0.790  14.997  0.6175  0.0672 -1.7947
 2316SOL    HW218411   2.996   0.670  15.082  0.2977 -0.6728  0.5085
 2317SOL     OW18412   4.109   2.408   1.749  0.0461  0.0392 -0.3767
 2317SOL    HW118413   4.042   2.403   1.818  0.5022 -3.0102 -0.1905
 2317SOL    HW218414   4.099   2.503   1.737  2.3023  0.4885  1.3423
 2318SOL     OW18415   1.289   3.004   6.223 -0.2019  0.2728 -0.5946
 2318SOL    HW118416   1.247   3.088   6.244 -2.2288 -1.1478  0.9343
 2318SOL    HW218417   1.379   3.009   6.257 -0.6536 -0.7401  0.7584
 2319SOL     OW18418   1.483   4.049   1.126  0.3552  0.6333  0.5268
 2319SOL    HW118419   1.491   4.040   1.221 -2.7304  1.3588  0.8707
 2319SOL    HW218420   1.563   4.100   1.116  1.0772 -0.2994  1.4817
 2320SOL     OW18421   3.709   1.295   8.819 -0.3035  0.6426  0.4604
 2320SOL    HW118422   3.626   1.280   8.863  1.6174 -0.0194  3.8441
 2320SOL    HW218423   3.669   1.358   8.759  3.2890  0.4710 -2.1362
 2321SOL     OW18424   0.859   0.546   8.318 -0.0796  0.0847 -0.5954
 2321SOL    HW118425   0.955   0.539   8.323 -0.1972 -0.2845  1.0159
 2321SOL    HW218426   0.847   0.573   8.409  1.2999  1.3097 -0.7687
 2322SOL     OW18427   0.033   0.316  10.828  0.4166  0.2441  0.7543
 2322SOL    HW118428   0.014   0.331  10.736 -0.9773 -1.8350  0.7077
 2322SOL    HW218429   0.087   0.237  10.828  0.2668  0.1516 -0.9122
 2323SOL     OW18430   3.613   2.137   2.822  0.5364  0.0523 -0.0950
 2323SOL    HW118431   3.683   2.090   2.868  0.7787 -0.1208 -0.6452
 2323SOL    HW218432   3.534   2.109   2.869  1.8522 -1.7080  1.0676
 2324SOL     OW18433   0.223   3.170   3.841  0.5446  0.3768 -0.1414
 2324SOL    HW118434   0.209   3.264   3.855 -1.4638  0.5472 -3.3612
 2324SOL    HW218435   0.173   3.152   3.761 -1.6718 -0.3452  1.4177
 2325SOL     OW18436   1.577   4.169  10.009 -0.0225  0.1996 -0.6619
 2325SOL    HW118437   1.544   4.151   9.922  0.5629  2.6277 -1.3822
 2325SOL    HW218438   1.537   4.249  10.044  3.4304  1.4065  0.6117
 2326SOL     OW18439   2.860   1.855   2.521  0.2889 -0.0911  0.5881
 2326SOL    HW118440   2.859   1.940   2.478  1.8012 -0.3509  0.0266
 2326SOL    HW218441   2.786   1.869   2.579  0.3712 -1.2197  0.9821
 2327SOL     OW18442   1.427   1.795  16.612 -0.6764  0.1014  0.3023
 2327SOL    HW118443   1.378   1.769  16.534 -1.4241  2.3848  0.0172
 2327SOL    HW218444   1.367   1.858  16.652 -1.3658 -0.3486 -0.0148
 2328SOL     OW18445   0.917   0.560   7.452  0.1350  0.1368 -0.2395
 2328SOL    HW118446   0.919   0.605   7.368  1.2583 -0.4691 -0.5383
 2328SOL    HW218447   0.877   0.477   7.426  1.4745  0.5676 -3.6364
 2329SOL     OW18448   0.974   0.051   2.051  0.1200  0.3887  0.0439
 2329SOL    HW118449   0.896   0.029   2.102  0.1715  1.7170  0.6964
 2329SOL    HW218450   0.947   0.028   1.962  0.8468 -1.9317  0.4409
 2330SOL     OW18451   0.725   4.435   2.944  0.0202 -0.0759 -0.1930
 2330SOL    HW118452   0.814   4.413   2.970 -0.4421 -1.5112  0.1731
 2330SOL    HW218453   0.703   4.361   2.886 -2.2152 -0.0119  0.5573
 2331SOL     OW18454   0.497   0.297   5.026 -0.6378  0.0497 -0.5410
 2331SOL    HW118455   0.579   0.255   5.000 -0.0332  0.1939  1.1376
 2331SOL    HW218456   0.434   0.258   4.966 -2.3280  3.0962 -0.7433
 2332SOL     OW18457   4.489   0.451  10.040 -0.3981  0.4976  0.2377
 2332SOL    HW118458   4.441   0.422   9.963 -0.6744 -0.2435  0.6953
 2332SOL    HW218459   4.436   0.529  10.057 -0.5854 -0.0235  1.9948
 2333SOL     OW18460   1.757   2.123  14.996  0.4899 -0.5632  0.0161
 2333SOL    HW118461   1.789   2.130  14.906  1.2459  0.6190  0.3719
 2333SOL    HW218462   1.771   2.214  15.023 -0.6261 -0.5763  0.6045
 2334SOL     OW18463   4.455   0.680   4.274 -0.1449  0.5834 -0.8220
 2334SOL    HW118464   4.494   0.672   4.187  0.1613  0.2738 -0.6556
 2334SOL    HW218465   4.374   0.724   4.249 -1.3193 -0.8051  0.5121
 2335SOL     OW18466   1.292   3.895  13.336 -0.1916  0.0605  0.2281
 2335SOL    HW118467   1.278   3.807  13.301 -1.7593  1.4450 -2.6368
 2335SOL    HW218468   1.202   3.923  13.349 -0.0116 -0.1703  1.9701
 2336SOL     OW18469   3.475   0.705   5.348 -0.2541  0.4748 -0.1926
 2336SOL    HW118470   3.509   0.782   5.393  0.3008  0.3868 -0.4619
 2336SOL    HW218471   3.410   0.657   5.399  0.1604 -0.4424 -0.5266
 2337SOL     OW18472   3.573   4.558  10.434  0.1415 -0.0449  0.0039
 2337SOL    HW118473   3.614   4.489  10.382 -1.6485 -2.5398  1.8882
 2337SOL    HW218474   3.560   4.627  10.369 -0.8788 -1.7032 -1.5082
 2338SOL     OW18475   4.510   4.447   3.017 -0.0163 -0.6302 -0.3587
 2338SOL    HW118476   4.431   4.466   2.966  0.2906  0.6892 -0.3403
 2338SOL    HW218477   4.465   4.418   3.096  1.0631 -1.4405 -0.0332
 2339SOL     OW18478   1.455   4.338   1.877 -0.4335  0.6180 -0.5380
 2339SOL    HW118479   1.439   4.428   1.904 -0.0182  0.4715  0.2081
 2339SOL    HW218480   1.532   4.314   1.929 -0.4396 -0.8143 -1.1782
 2340SOL     OW18481   4.451   0.664  12.544  0.8492  0.0663 -0.1263
 2340SOL    HW118482   4.541   0.697  12.536  0.5885  0.2521 -2.2265
 2340SOL    HW218483   4.410   0.711  12.472  1.7949  1.7522  0.4379
 2341SOL     OW18484   2.573   4.376  11.959  0.2599  0.7614 -0.3091
 2341SOL    HW118485   2.480   4.397  11.954  0.2281  0.3932 -1.3264
 2341SOL    HW218486   2.577   4.333  11.874  1.0840  2.6352 -1.2341
 2342SOL     OW18487   2.924   1.080   6.322  0.1928 -0.2055  1.0536
 2342SOL    HW118488   2.948   1.171   6.340  0.4733 -0.0208 -0.2543
 2342SOL    HW218489   2.918   1.079   6.226  1.5509 -0.0054  0.9768
 2343SOL     OW18490   0.658   2.403   2.927 -0.4799 -0.7352 -0.6555
 2343SOL    HW118491   0.576   2.452   2.922  0.5507  0.9603 -1.1560
 2343SOL    HW218492   0.690   2.410   2.837 -1.7947  0.1789 -1.0502
 2344SOL     OW18493   3.400   0.557   1.850 -0.6950 -0.1083  0.2264
 2344SOL    HW118494   3.403   0.466   1.819 -1.5831 -1.2937  3.6460
 2344SOL    HW218495   3.491   0.585   1.848  0.0863 -2.6992 -0.7607
 2345SOL     OW18496   1.208   3.896  10.844 -0.9311 -0.2656  0.2379
 2345SOL    HW118497   1.189   3.827  10.907 -0.7571  0.4939  1.1294
 2345SOL    HW218498   1.122   3.916  10.809  1.0182  3.9497 -2.1535
 2346SOL     OW18499   0.170   3.042   7.138  0.1127  0.4246  0.4264
 2346SOL    HW118500   0.184   3.013   7.047 -2.0439 -0.2857  0.3192
 2346SOL    HW218501   0.251   3.009   7.176 -0.1806 -1.4470 -0.5720
 2347SOL     OW18502   2.812   1.473   4.392  0.5810  0.2134  0.1721
 2347SOL    HW118503   2.902   1.475   4.358 -1.2096  1.3065 -4.5512
 2347SOL    HW218504   2.760   1.511   4.322  0.2086 -0.9049 -0.1681
 2348SOL     OW18505   1.289   2.705   7.120 -0.0862  0.1057  0.5736
 2348SOL    HW118506   1.262   2.616   7.142  0.3694  0.1327  1.2156
 2348SOL    HW218507   1.273   2.708   7.025 -0.3189  0.1509  0.6127
 2349SOL     OW18508   3.076   3.595  15.239 -1.1074  0.1937  0.6045
 2349SOL    HW118509   3.085   3.510  15.196 -1.5672  0.0131  0.8655
 2349SOL    HW218510   3.093   3.645  15.160 -1.1774  0.0042  0.4692
 2350SOL     OW18511   0.282   3.359  14.978 -0.1995 -0.0148  0.3227
 2350SOL    HW118512   0.332   3.278  14.989 -0.5543 -0.3815 -0.7732
 2350SOL    HW218513   0.353   3.422  14.992  1.3753 -0.9571 -3.3547
 2351SOL     OW18514   0.406   3.226  14.730  0.2187 -0.1610 -0.3561
 2351SOL    HW118515   0.364   3.186  14.654 -0.9882 -0.1727  0.3143
 2351SOL    HW218516   0.483   3.262  14.686  0.0017  0.8640  0.0943
 2352SOL     OW18517   4.585   2.721  11.953 -0.1421 -0.1642  0.2137
 2352SOL    HW118518   4.634   2.739  12.034 -0.3399 -0.3895  0.3846
 2352SOL    HW218519   4.506   2.775  11.956  2.1094  3.1190  0.0116
 2353SOL     OW18520   3.257   4.308  14.009  0.0674 -0.0517  0.4247
 2353SOL    HW118521   3.217   4.389  14.041  0.4506  0.9668 -1.7065
 2353SOL    HW218522   3.313   4.339  13.938 -2.4418  0.6813 -1.2151
 2354SOL     OW18523   1.852   4.627   7.460 -0.0965 -0.0510 -0.6392
 2354SOL    HW118524   1.759   4.624   7.483 -0.0244  0.6858 -0.2368
 2354SOL    HW218525   1.866   4.532   7.464  0.7274  0.2183  2.5504
 2355SOL     OW18526   4.627   1.863   7.311 -0.6426  0.1868 -0.3222
 2355SOL    HW118527   4.627   1.897   7.400  2.8516 -0.3441 -0.1142
 2355SOL    HW218528   4.548   1.809   7.307 -0.5640 -0.0522  1.4022
 2356SOL     OW18529   4.367   3.650  12.104 -0.4966  0.0166 -0.2889
 2356SOL    HW118530   4.333   3.734  12.074 -0.4604  0.7901  1.8012
 2356SOL    HW218531   4.453   3.672  12.141  0.0826 -1.4077 -0.8093
 2357SOL     OW18532   4.076   2.367  14.622 -0.0634  0.0886  0.5200
 2357SOL    HW118533   4.132   2.414  14.684  1.7910  0.5176 -1.4284
 2357SOL    HW218534   4.121   2.283  14.615 -1.3436 -0.6447  1.3493
 2358SOL     OW18535   2.214   2.242  14.506 -0.1282  1.2653  0.0489
 2358SOL    HW118536   2.308   2.252  14.520  0.0962 -1.1328  0.1710
 2358SOL    HW218537   2.188   2.196  14.586  1.2533  1.8295  0.8192
 2359SOL     OW18538   4.644   1.116   4.424 -0.5213  0.2866  0.0351
 2359SOL    HW118539   4.639   1.210   4.407  2.9511  0.6512  0.9758
 2359SOL    HW218540   4.619   1.118   4.517  0.7336  0.4624  0.3742
 2360SOL     OW18541   2.245   4.358   6.725  0.2175 -0.1254  0.2522
 2360SOL    HW118542   2.272   4.449   6.740  0.7518 -0.5454  1.7660
 2360SOL    HW218543   2.214   4.349   6.815 -1.5287  0.3027 -0.3045
 2361SOL     OW18544   1.994   2.575  11.176 -0.1601 -0.1748  0.2821
 2361SOL    HW118545   2.010   2.603  11.086  0.6806  0.3762  0.6075
 2361SOL    HW218546   2.058   2.506  11.194  1.6371  1.4551  0.0993
 2362SOL     OW18547   1.913   4.280   3.302 -0.4670  0.2903 -0.0644
 2362SOL    HW118548   2.007   4.265   3.298 -0.8501 -1.5265 -2.1858
 2362SOL    HW218549   1.889   4.212   3.365  1.3159 -0.4175 -0.1520
 2363SOL     OW18550   2.823   4.628   9.137  0.7181 -0.0991  0.3221
 2363SOL    HW118551   2.850   4.582   9.216  0.6294 -1.9974 -0.7345
 2363SOL    HW218552   2.738   4.587   9.122  1.0918 -0.3880 -1.0485
 2364SOL     OW18553   2.994   1.830   7.160 -0.6866 -0.3866  0.0375
 2364SOL    HW118554   3.066   1.863   7.213 -1.4597 -1.1860  1.5776
 2364SOL    HW218555   2.990   1.901   7.096 -0.4897  1.2967  1.9329
 2365SOL     OW18556   0.823   3.139   9.445 -0.5420 -0.4375  0.0840
 2365SOL    HW118557   0.747   3.094   9.407 -0.2374 -0.1770 -0.8549
 2365SOL    HW218558   0.787   3.215   9.490  0.5070  0.7131 -1.0077
 2366SOL     OW18559   4.034   0.960   7.200  0.2741 -0.3755 -0.4892
 2366SOL    HW118560   4.114   0.918   7.232  0.2244  0.6862  1.0176
 2366SOL    HW218561   4.004   0.895   7.136 -1.0515 -0.8311  0.5855
 2367SOL     OW18562   4.360   0.634  10.188 -0.0255 -0.1859 -0.1619
 2367SOL    HW118563   4.397   0.633  10.276 -1.5257 -1.4096  0.4543
 2367SOL    HW218564   4.314   0.550  10.199  0.5873 -0.8832 -2.8976
 2368SOL     OW18565   4.445   2.558   7.538 -0.8542  0.2583  0.0959
 2368SOL    HW118566   4.525   2.518   7.504 -0.5067  1.8411 -0.9610
 2368SOL    HW218567   4.464   2.573   7.630  1.0419 -2.5321  0.1696
 2369SOL     OW18568   4.095   1.982  16.702  0.5839 -0.4622 -0.3432
 2369SOL    HW118569   4.066   2.063  16.659 -0.3340 -1.1952 -1.0725
 2369SOL    HW218570   4.163   2.023  16.756  0.7968  1.3617 -2.0123
 2370SOL     OW18571   0.565   4.077   1.266 -0.2616  0.3120  0.1056
 2370SOL    HW118572   0.494   4.027   1.307 -1.4329 -0.2781 -2.6033
 2370SOL    HW218573   0.580   4.145   1.331  1.6926  0.2065 -0.2247
 2371SOL     OW18574   1.322   2.420   4.841  0.5095 -0.0682 -0.2735
 2371SOL    HW118575   1.387   2.429   4.910  1.7790 -2.0254 -1.2024
 2371SOL    HW218576   1.292   2.510   4.831  1.3619  0.2935  0.4677
 2372SOL     OW18577   3.609   3.708   9.131  0.1026  0.3285  0.2871
 2372SOL    HW118578   3.637   3.616   9.135  2.6623  1.1845  2.0186
 2372SOL    HW218579   3.680   3.741   9.075 -0.2744  0.3128 -0.2063
 2373SOL     OW18580   4.684   2.363   3.910 -0.0050 -0.1310 -0.7886
 2373SOL    HW118581   4.704   2.300   3.841  2.5449 -0.6283  0.4007
 2373SOL    HW218582   4.589   2.353   3.913  0.0492 -0.2486  0.7637
 2374SOL     OW18583   2.888   1.965  15.473 -0.0768 -0.0459  0.0385
 2374SOL    HW118584   2.962   2.007  15.429 -0.3021  0.1114 -0.1889
 2374SOL    HW218585   2.909   1.994  15.562  1.5840  0.8198 -0.6347
 2375SOL     OW18586   0.764   0.690  16.335  0.5542  0.4870  0.0876
 2375SOL    HW118587   0.841   0.746  16.347  0.4959 -0.0340  2.8322
 2375SOL    HW218588   0.774   0.623  16.403  1.2463  0.5720  0.0781
 2376SOL     OW18589   4.170   3.048   8.624 -0.1829  0.1863  0.2793
 2376SOL    HW118590   4.092   3.103   8.631 -0.5711 -0.4027  0.5929
 2376SOL    HW218591   4.192   3.065   8.533 -1.2579 -1.0027 -0.1991
 2377SOL     OW18592   3.335   3.375  14.859 -0.1135 -0.3387  0.6915
 2377SOL    HW118593   3.365   3.369  14.768  1.1524  3.0633  0.9117
 2377SOL    HW218594   3.325   3.470  14.868 -2.7402 -0.6454  1.0303
 2378SOL     OW18595   1.211   0.166   8.938 -0.0262  0.8260  0.5324
 2378SOL    HW118596   1.133   0.153   8.885  1.1659 -0.2779 -0.9568
 2378SOL    HW218597   1.265   0.090   8.916 -2.0747 -0.7156  0.8945
 2379SOL     OW18598   3.595   1.197  15.304 -0.6217  0.2461 -0.0872
 2379SOL    HW118599   3.516   1.146  15.320 -2.0267  1.9043 -1.7739
 2379SOL    HW218600   3.603   1.189  15.209 -0.3156 -3.4578  0.2521
 2380SOL     OW18601   3.244   1.576  12.417  0.1435  0.0587  0.4555
 2380SOL    HW118602   3.336   1.580  12.390  0.2935  0.6175  1.0532
 2380SOL    HW218603   3.218   1.484  12.409 -1.5814  0.8127 -2.4229
 2381SOL     OW18604   2.705   1.314  14.000  0.6799 -0.7695 -0.3604
 2381SOL    HW118605   2.688   1.408  14.005 -1.4332 -1.1759  0.0399
 2381SOL    HW218606   2.726   1.289  14.090 -1.0056 -1.2551 -0.1161
 2382SOL     OW18607   0.083   0.598  12.032  0.7546  0.2757 -0.5123
 2382SOL    HW118608   0.007   0.555  12.073  0.5303 -1.6686 -2.9588
 2382SOL    HW218609   0.039   0.645  11.962 -2.2290  0.2461  1.3383
 2383SOL     OW18610   3.329   3.877   4.701 -0.1335  0.1132  0.5469
 2383SOL    HW118611   3.360   3.787   4.695  0.1650  0.2513 -0.0147
 2383SOL    HW218612   3.383   3.917   4.633  0.8229  1.0299  1.8332
 2384SOL     OW18613   0.083   1.570   3.141  0.4860  0.4061 -0.5109
 2384SOL    HW118614   0.062   1.566   3.048  0.0256 -0.9197 -0.3481
 2384SOL    HW218615   0.004   1.541   3.185  1.2092  0.0276  0.5569
 2385SOL     OW18616   3.657   1.395   6.440  0.1277 -0.4132  0.0903
 2385SOL    HW118617   3.621   1.396   6.529 -2.2766  1.0363 -0.9243
 2385SOL    HW218618   3.706   1.314   6.457  0.8262  0.5912  2.9822
 2386SOL     OW18619   1.289   4.614  11.870  0.0579  0.2050 -0.1491
 2386SOL    HW118620   1.321   4.662  11.793 -0.0743  1.2496  0.4457
 2386SOL    HW218621   1.275   4.695  11.919 -0.6273 -1.1315  1.8404
 2387SOL     OW18622   1.712   3.368   5.241  0.0312 -0.3862  0.1079
 2387SOL    HW118623   1.717   3.339   5.150  0.4852  0.1809 -0.0512
 2387SOL    HW218624   1.755   3.296   5.288  0.5669 -0.2968 -0.2489
 2388SOL     OW18625   1.127   4.118  15.340 -0.2430  0.0429 -0.3545
 2388SOL    HW118626   1.217   4.098  15.368 -0.7344 -1.3682  0.2561
 2388SOL    HW218627   1.150   4.206  15.312  2.6296 -0.7175 -0.4293
 2389SOL     OW18628   0.532   3.186  10.655 -0.2215 -0.0734  0.1461
 2389SOL    HW118629   0.533   3.159  10.747 -1.7519 -1.8987 -0.3634
 2389SOL    HW218630   0.611   3.142  10.624  0.1275 -0.1951  1.2207
 2390SOL     OW18631   3.599   2.185   5.413  0.1364  0.2116  0.8904
 2390SOL    HW118632   3.628   2.271   5.444 -0.5892  0.7294  0.1305
 2390SOL    HW218633   3.547   2.149   5.485 -0.2760 -0.4095  0.2809
 2391SOL     OW18634   4.022   2.278   2.632 -0.4261 -0.2613 -0.2839
 2391SOL    HW118635   4.025   2.373   2.622  1.2639 -0.6291 -3.1433
 2391SOL    HW218636   4.098   2.263   2.689 -1.2627  1.4074  1.2450
 2392SOL     OW18637   3.869   0.466   5.018 -0.1034 -0.2081 -0.3126
 2392SOL    HW118638   3.931   0.426   4.957 -2.6937 -1.2973 -2.2491
 2392SOL    HW218639   3.931   0.517   5.070  0.3413  1.6245 -2.6184
 2393SOL     OW18640   2.501   1.221   8.166  0.0962 -0.0806 -0.4342
 2393SOL    HW118641   2.524   1.269   8.087  2.0752  2.1427  1.5344
 2393SOL    HW218642   2.520   1.128   8.150  0.4529 -0.0347 -0.2611
 2394SOL     OW18643   1.445   0.711   2.137 -0.1460  0.2442 -0.1712
 2394SOL    HW118644   1.451   0.753   2.051  2.4575  1.1557  0.4736
 2394SOL    HW218645   1.463   0.624   2.101  1.0591  0.1245  0.7239
 2395SOL     OW18646   1.919   0.830  11.503  0.4073 -0.4537 -0.7382
 2395SOL    HW118647   1.901   0.857  11.413 -2.9345  2.2875  0.7690
 2395SOL    HW218648   1.899   0.736  11.508  0.8713 -0.3793  2.7539
 2396SOL     OW18649   2.528   2.082   3.749 -0.5640 -0.3970  0.2270
 2396SOL    HW118650   2.490   2.004   3.707  1.5002  0.1347 -2.6417
 2396SOL    HW218651   2.498   2.151   3.691 -0.5910 -1.2094 -0.7296
 2397SOL     OW18652   0.453   0.765   6.021 -0.3459  0.3311 -0.3154
 2397SOL    HW118653   0.430   0.858   6.027  2.5414  1.0516 -0.5614
 2397SOL    HW218654   0.496   0.744   6.104  2.2406 -2.3001 -2.3428
 2398SOL     OW18655   4.595   1.422   7.589 -0.5103  0.9416 -1.0234
 2398SOL    HW118656   4.636   1.501   7.624  0.9304  0.0288 -0.6287
 2398SOL    HW218657   4.672   1.371   7.561 -1.0873 -0.5358  0.0774
 2399SOL     OW18658   0.364   2.310   6.876 -0.1302  0.2964  1.0288
 2399SOL    HW118659   0.329   2.226   6.906 -2.1820  1.3323  1.5382
 2399SOL    HW218660   0.317   2.378   6.923  1.4312  1.2398  1.2267
 2400SOL     OW18661   0.304   1.196  13.837 -0.3303  0.1381 -0.5207
 2400SOL    HW118662   0.218   1.190  13.878  0.2289 -0.7651  0.5270
 2400SOL    HW218663   0.347   1.255  13.899 -1.9976  0.4686  0.3085
 2401SOL     OW18664   3.680   2.352   5.841 -0.1854 -0.0969 -0.7276
 2401SOL    HW118665   3.610   2.413   5.819 -0.8920 -0.2974  0.9631
 2401SOL    HW218666   3.640   2.294   5.905 -0.3735  0.4597 -0.3387
 2402SOL     OW18667   3.777   1.508   7.818  0.0758 -0.0216 -0.4119
 2402SOL    HW118668   3.742   1.454   7.747 -2.0395  0.8564 -0.0646
 2402SOL    HW218669   3.824   1.445   7.872 -0.5653 -1.4933 -1.5734
 2403SOL     OW18670   3.155   4.371   9.375 -0.5471 -0.0146  0.0885
 2403SOL    HW118671   3.158   4.331   9.288 -1.2752  0.7675 -0.2959
 2403SOL    HW218672   3.072   4.420   9.375 -0.7184 -0.2795  2.4045
 2404SOL     OW18673   4.460   4.003   5.674  0.2444 -0.2346  0.0706
 2404SOL    HW118674   4.379   3.988   5.625 -0.4596  0.4838  1.0201
 2404SOL    HW218675   4.425   3.985   5.761  0.6451  3.4062  0.9930
 2405SOL     OW18676   3.266   3.450  10.130 -0.4338  0.3797  0.5141
 2405SOL    HW118677   3.189   3.458  10.073  0.4774  0.2034 -0.7383
 2405SOL    HW218678   3.327   3.512  10.090  1.8229  0.2739  3.8077
 2406SOL     OW18679   3.590   2.471   3.691 -0.0493  0.5062 -0.4363
 2406SOL    HW118680   3.680   2.497   3.708 -0.0746  1.2121 -1.3839
 2406SOL    HW218681   3.569   2.531   3.620  1.3581  0.9283 -0.4881
 2407SOL     OW18682   0.497   3.377   6.039  0.1241  0.2942  0.2009
 2407SOL    HW118683   0.483   3.402   5.948 -2.4257 -2.0802 -0.0449
 2407SOL    HW218684   0.456   3.291   6.041  0.5350  0.0909 -0.1928
 2408SOL     OW18685   4.272   4.189   6.336 -0.1980 -0.2173  0.5745
 2408SOL    HW118686   4.243   4.109   6.380 -0.8269  1.3182  2.9635
 2408SOL    HW218687   4.285   4.241   6.415 -1.4582 -0.2641  0.8134
 2409SOL     OW18688   3.660   2.452   6.976  0.4069  0.3099 -0.0233
 2409SOL    HW118689   3.665   2.364   6.939 -0.7998  0.0040  0.5323
 2409SOL    HW218690   3.751   2.460   7.003  0.6936 -1.0693 -0.5699
 2410SOL     OW18691   4.512   0.271  10.960  0.0105 -0.3390 -1.0108
 2410SOL    HW118692   4.598   0.297  10.926 -0.3995  3.6565  1.0645
 2410SOL    HW218693   4.537   0.209  11.028  0.5525 -0.7010 -1.5379
 2411SOL     OW18694   0.456   2.788  16.166  0.4392 -0.2413  0.6088
 2411SOL    HW118695   0.395   2.750  16.229  1.3362  0.2662  1.7845
 2411SOL    HW218696   0.516   2.715  16.153 -2.6441 -2.5349 -0.7059
 2412SOL     OW18697   0.615   0.220   6.004 -0.0557 -0.3982 -0.9635
 2412SOL    HW118698   0.607   0.315   5.993  0.7947 -0.5699 -3.0856
 2412SOL    HW218699   0.681   0.196   5.939 -0.4342 -1.1381 -1.0787
 2413SOL     OW18700   1.720   0.515   9.253 -0.0681 -0.1825 -0.3401
 2413SOL    HW118701   1.636   0.559   9.240 -0.1488 -0.4998 -0.8712
 2413SOL    HW218702   1.750   0.567   9.328  0.2803 -0.2496 -0.4319
 2414SOL     OW18703   1.476   1.021   2.300  0.9865  0.0835 -0.0724
 2414SOL    HW118704   1.440   1.044   2.214  1.5531 -2.6030 -1.0436
 2414SOL    HW218705   1.527   1.099   2.323  1.0477 -0.1029  0.4317
 2415SOL     OW18706   1.659   1.718   4.816 -0.2653  0.1824 -0.0643
 2415SOL    HW118707   1.739   1.765   4.792 -1.3412  1.7387 -0.5718
 2415SOL    HW218708   1.594   1.788   4.808  0.0867  0.4263 -0.7732
 2416SOL     OW18709   3.165   2.315   8.896  0.4562  0.0420  0.2934
 2416SOL    HW118710   3.091   2.279   8.945  0.4094  2.9666  2.3557
 2416SOL    HW218711   3.217   2.239   8.868  1.1322  0.0212  1.6386
 2417SOL     OW18712   1.751   0.631   8.145 -0.0667 -0.1236 -0.0413
 2417SOL    HW118713   1.752   0.714   8.097 -1.1302  0.1930  0.4911
 2417SOL    HW218714   1.668   0.590   8.119  0.8698 -1.4830 -0.8713
 2418SOL     OW18715   1.663   3.812  14.110 -0.7497 -0.7515  0.4981
 2418SOL    HW118716   1.715   3.881  14.151  0.2571 -0.7975 -0.6789
 2418SOL    HW218717   1.610   3.855  14.042  0.2184 -1.8322 -0.9534
 2419SOL     OW18718   0.414   3.930   3.766  0.3929 -0.4228  0.0068
 2419SOL    HW118719   0.342   3.982   3.728  0.0303 -0.6637  0.3673
 2419SOL    HW218720   0.446   3.992   3.831 -0.3743 -1.3505  1.2550
 2420SOL     OW18721   3.107   1.507   8.223 -0.1455 -0.4572 -0.0379
 2420SOL    HW118722   3.130   1.439   8.286  1.2793 -0.4181 -0.5257
 2420SOL    HW218723   3.183   1.512   8.166  0.0645  0.4149  0.3099
 2421SOL     OW18724   2.018   0.818   7.640  0.2308  0.2259 -0.1207
 2421SOL    HW118725   1.948   0.774   7.591  0.9617  0.2441 -1.1957
 2421SOL    HW218726   2.066   0.751   7.689  1.6847  1.2349 -0.1499
 2422SOL     OW18727   1.449   1.560  14.053 -0.2657  0.4130  0.4306
 2422SOL    HW118728   1.454   1.593  14.143  0.5530  0.5725  0.3200
 2422SOL    HW218729   1.505   1.628  14.017  0.5180 -0.3207  0.2803
 2423SOL     OW18730   2.231   0.642   3.386  0.4111 -0.0910  0.5655
 2423SOL    HW118731   2.222   0.655   3.480 -0.3351  2.1023  0.1871
 2423SOL    HW218732   2.318   0.678   3.371  1.7348 -2.4929  2.3735
 2424SOL     OW18733   2.792   2.318  17.153  0.3848  0.6005  0.0219
 2424SOL    HW118734   2.825   2.228  17.157 -1.2395  0.0566  1.2554
 2424SOL    HW218735   2.871   2.349  17.108 -1.0014  1.6187 -1.7528
 2425SOL     OW18736   0.932   4.667   3.021 -0.2306 -0.0068  0.3448
 2425SOL    HW118737   0.927   4.581   3.064  1.0863 -0.5646 -0.6470
 2425SOL    HW218738   1.004   4.648   2.962  1.0992 -1.5829  2.4732
 2426SOL     OW18739   0.189   1.741   7.918  0.1779  0.4014  0.4879
 2426SOL    HW118740   0.155   1.829   7.935  0.0207  0.4550 -0.0907
 2426SOL    HW218741   0.281   1.764   7.907 -0.1688  1.6655  0.1771
 2427SOL     OW18742   2.153   1.555   7.953  0.0695  0.1926 -0.3458
 2427SOL    HW118743   2.089   1.485   7.948 -1.3746  1.5190 -0.5995
 2427SOL    HW218744   2.225   1.513   7.906 -1.3942 -2.7267  0.0718
 2428SOL     OW18745   3.152   4.569   2.421  0.3506 -0.2506 -0.1730
 2428SOL    HW118746   3.192   4.595   2.504  2.0705 -1.4914 -0.6070
 2428SOL    HW218747   3.060   4.576   2.445  0.4643  2.3000 -0.5351
 2429SOL     OW18748   3.222   4.668  12.205  0.0197  0.0482 -0.3794
 2429SOL    HW118749   3.220   0.034  12.164 -0.5084  0.4877  0.5642
 2429SOL    HW218750   3.217   4.694  12.297 -2.3889  0.0170 -0.5042
 2430SOL     OW18751   3.532   2.607   8.354 -0.5710  0.3102  0.6261
 2430SOL    HW118752   3.552   2.698   8.375  1.3339 -0.5406  2.5208
 2430SOL    HW218753   3.485   2.572   8.430 -2.1609  0.1953 -0.4076
 2431SOL     OW18754   3.671   3.463   3.705  0.3413 -0.1952  0.5016
 2431SOL    HW118755   3.661   3.531   3.772  1.2869  1.2537 -0.8298
 2431SOL    HW218756   3.717   3.397   3.758 -0.8161  0.8207  2.7632
 2432SOL     OW18757   3.235   2.710  11.152 -0.2923 -0.7046  0.5278
 2432SOL    HW118758   3.320   2.726  11.112 -0.6084  0.6074  0.3903
 2432SOL    HW218759   3.243   2.616  11.138 -1.2813 -0.5778 -0.8724
 2433SOL     OW18760   4.475   0.128  11.328  0.0949 -0.0528 -0.0889
 2433SOL    HW118761   4.420   0.201  11.355 -0.4951 -0.8265  0.7959
 2433SOL    HW218762   4.413   0.060  11.302 -1.4472  0.3646  2.5298
 2434SOL     OW18763   3.850   3.021  10.263  0.0101  0.0119 -0.4889
 2434SOL    HW118764   3.832   2.932  10.291  2.5651  0.4149  2.4702
 2434SOL    HW218765   3.896   3.000  10.182  2.1593  2.6699  0.0253
 2435SOL     OW18766   0.044   3.171   9.538 -0.3472  0.1130  0.5654
 2435SOL    HW118767   0.086   3.192   9.622  0.8451 -0.8507  0.2134
 2435SOL    HW218768   4.720   3.089   9.560  1.8545 -1.9418 -2.6615
 2436SOL     OW18769   0.893   3.012   0.099 -0.5935  0.1500  0.4279
 2436SOL    HW118770   0.950   3.086   0.122  1.7882 -1.5023 -0.1925
 2436SOL    HW218771   0.908   2.951   0.171  1.6211  2.5016  1.9427
 2437SOL     OW18772   1.269   3.453   8.102  0.3610  0.1093  0.6167
 2437SOL    HW118773   1.254   3.475   8.010  0.6407  0.3337  0.6269
 2437SOL    HW218774   1.182   3.476   8.135 -0.7072 -1.5781 -0.9451
 2438SOL     OW18775   3.667   3.175   3.173 -0.8162 -0.1323  0.6453
 2438SOL    HW118776   3.602   3.219   3.119  0.2094 -0.9744 -1.2437
 2438SOL    HW218777   3.752   3.211   3.147 -0.9206 -0.0988  0.3503
 2439SOL     OW18778   1.728   0.425   1.516 -0.0305  0.4933  0.7259
 2439SOL    HW118779   1.798   0.363   1.496 -0.8369 -0.1503 -0.0721
 2439SOL    HW218780   1.679   0.430   1.434 -0.2930  1.8100  0.9578
 2440SOL     OW18781   0.124   4.368   1.749 -0.9488  0.3586  0.3137
 2440SOL    HW118782   0.031   4.349   1.738 -0.4509 -2.5132  1.1274
 2440SOL    HW218783   0.149   4.384   1.658 -0.2074 -0.3425  0.3922
 2441SOL     OW18784   1.555   3.653  15.143  0.0460  0.2645 -0.5367
 2441SOL    HW118785   1.590   3.620  15.060  2.6655  0.9246  0.3100
 2441SOL    HW218786   1.488   3.717  15.116  1.0194  1.9589  1.1174
 2442SOL     OW18787   1.284   1.508   2.512  0.1921  0.0920 -0.0540
 2442SOL    HW118788   1.332   1.590   2.513  0.5112 -0.0777 -1.4393
 2442SOL    HW218789   1.329   1.455   2.578  2.0696  0.3770 -1.1056
 2443SOL     OW18790   3.472   1.678   2.255 -0.1778  0.3459  0.1545
 2443SOL    HW118791   3.565   1.681   2.234 -0.0774 -0.3647  0.5063
 2443SOL    HW218792   3.450   1.770   2.268  0.8556  0.6493 -0.2180
 2444SOL     OW18793   0.433   1.656   5.465 -0.3291 -0.0901 -0.0974
 2444SOL    HW118794   0.428   1.573   5.417  0.9894 -1.5593  2.2649
 2444SOL    HW218795   0.418   1.629   5.556 -1.0129  1.0367  0.1228
 2445SOL     OW18796   1.867   0.391   0.935  0.1708  0.4668 -0.0944
 2445SOL    HW118797   1.950   0.344   0.934  0.5988  1.1915  1.3439
 2445SOL    HW218798   1.866   0.414   1.028  1.4900 -0.0722  0.0568
 2446SOL     OW18799   1.020   3.697   7.661  0.0899 -0.0790 -0.3975
 2446SOL    HW118800   1.018   3.619   7.716  2.6764 -1.6649 -2.5488
 2446SOL    HW218801   0.961   3.753   7.712 -0.6900 -0.5765 -0.7669
 2447SOL     OW18802   2.603   2.827  13.115 -0.3896  0.3737 -0.1032
 2447SOL    HW118803   2.518   2.848  13.155  1.2804  1.6092  2.7786
 2447SOL    HW218804   2.603   2.890  13.042  0.3887 -0.7354 -1.0614
 2448SOL     OW18805   4.516   1.591   6.723 -0.3746  0.5170 -0.1734
 2448SOL    HW118806   4.427   1.577   6.757  0.7094  1.8504  3.2318
 2448SOL    HW218807   4.486   1.616   6.636 -0.3574 -1.7382 -0.8178
 2449SOL     OW18808   3.140   3.571   3.048  0.0133  0.5206  0.0135
 2449SOL    HW118809   3.196   3.643   3.020  0.1562  0.8119  1.0355
 2449SOL    HW218810   3.160   3.500   2.987  1.4313  1.3880 -0.5234
 2450SOL     OW18811   1.093   2.094  13.845 -0.5118 -0.1181 -0.3958
 2450SOL    HW118812   1.000   2.071  13.847 -0.3791 -0.3718  3.2243
 2450SOL    HW218813   1.131   2.027  13.789 -1.4511 -0.5595 -0.5098
 2451SOL     OW18814   3.030   0.395  10.985 -0.0906  0.5124 -0.4303
 2451SOL    HW118815   3.018   0.484  11.016  0.7784 -0.0557  1.5025
 2451SOL    HW218816   3.038   0.340  11.063  1.1856 -0.2192 -1.0669
 2452SOL     OW18817   1.936   2.447  14.757  0.2983  0.8326 -0.5013
 2452SOL    HW118818   1.935   2.409  14.668 -0.8732 -1.5350  0.5073
 2452SOL    HW218819   1.933   2.361  14.799 -0.3903  0.9553 -0.2944
 2453SOL     OW18820   2.842   3.575   5.501 -0.1460  0.4679 -0.2753
 2453SOL    HW118821   2.906   3.582   5.572  0.5713 -2.9467 -0.5494
 2453SOL    HW218822   2.882   3.502   5.454  0.9961  0.6466  0.3999
 2454SOL     OW18823   0.797   1.749   4.724 -0.3570 -0.0956  0.4432
 2454SOL    HW118824   0.838   1.830   4.754  1.2504 -0.6906 -0.2062
 2454SOL    HW218825   0.825   1.691   4.794  1.2203  0.0294 -0.0967
 2455SOL     OW18826   0.408   4.349   1.991  0.2506 -0.1785  0.1120
 2455SOL    HW118827   0.326   4.330   2.036  0.6998  0.8340  1.3325
 2455SOL    HW218828   0.472   4.313   2.052 -0.4826  0.2749  1.1485
 2456SOL     OW18829   0.760   2.126   5.935 -0.1671  0.2562 -0.2125
 2456SOL    HW118830   0.692   2.189   5.958 -0.9516 -1.1594  1.3150
 2456SOL    HW218831   0.799   2.120   6.023  0.4197 -0.0007 -0.4901
 2457SOL     OW18832   0.336   1.624   4.562 -0.3285 -0.0082  0.2290
 2457SOL    HW118833   0.397   1.687   4.601  0.5273 -0.0909 -0.9580
 2457SOL    HW218834   0.257   1.678   4.562  0.5843  1.3586 -0.2382
 2458SOL     OW18835   3.551   4.715   9.215 -0.6275 -0.1483  0.1807
 2458SOL    HW118836   3.465   4.680   9.239 -0.9313 -0.1423 -0.8759
 2458SOL    HW218837   3.618   4.667   9.262  0.0219  0.9516  0.3758
 2459SOL     OW18838   1.557   3.528   8.893  0.2140  0.0224  0.0347
 2459SOL    HW118839   1.540   3.477   8.814 -0.5616  0.3101  0.0111
 2459SOL    HW218840   1.565   3.467   8.965  1.6078 -1.8272 -1.6964
 2460SOL     OW18841   2.131   1.398   2.356 -0.1224 -0.0587 -0.2857
 2460SOL    HW118842   2.088   1.345   2.424  0.3532 -1.8978 -1.4067
 2460SOL    HW218843   2.191   1.450   2.409 -0.7059 -0.6168  0.9397
 2461SOL     OW18844   0.450   3.768   1.666  0.2041  0.0593  0.2021
 2461SOL    HW118845   0.475   3.843   1.720  0.8036 -0.6811  0.9599
 2461SOL    HW218846   0.379   3.726   1.715  1.6484  0.4062  2.5853
 2462SOL     OW18847   0.178   3.333   2.786  0.7193 -0.4867  0.1303
 2462SOL    HW118848   0.254   3.378   2.821 -0.2623  1.4865 -0.2763
 2462SOL    HW218849   0.190   3.351   2.692  0.1024 -0.7678 -0.0043
 2463SOL     OW18850   1.076   4.278   6.972 -0.6587 -0.1212 -0.2728
 2463SOL    HW118851   1.073   4.211   7.040 -2.6165 -1.6362 -1.8575
 2463SOL    HW218852   1.051   4.354   7.025  0.1255  0.5038 -0.7826
 2464SOL     OW18853   4.159   0.983   2.456 -0.6184  0.6234 -0.6407
 2464SOL    HW118854   4.166   0.949   2.367 -0.9898  1.9709 -1.1889
 2464SOL    HW218855   4.129   1.073   2.445  0.8451  0.9331 -2.0055
 2465SOL     OW18856   1.715   1.701   0.341  0.8716  0.3294  0.4217
 2465SOL    HW118857   1.729   1.785   0.386  0.1287  0.7122 -0.0609
 2465SOL    HW218858   1.621   1.689   0.348  0.8883  0.0633  0.1743
 2466SOL     OW18859   1.425   2.270   2.990  0.6594  0.6802  0.1133
 2466SOL    HW118860   1.426   2.182   2.953 -0.0203  1.1269 -0.9692
 2466SOL    HW218861   1.357   2.261   3.056 -0.7298  0.8849 -1.2759
 2467SOL     OW18862   1.942   2.844   4.846  0.4559 -0.7567  0.6347
 2467SOL    HW118863   1.964   2.751   4.854  1.4290 -0.6270 -0.5583
 2467SOL    HW218864   1.926   2.869   4.755  1.6608  1.8843  1.1550
 2468SOL     OW18865   0.697   0.712  12.433 -0.1946 -0.4433  0.6710
 2468SOL    HW118866   0.647   0.639  12.397  2.0524 -1.1657 -0.9909
 2468SOL    HW218867   0.775   0.661  12.453 -0.6789 -0.5541  2.2682
 2469SOL     OW18868   1.911   3.349  16.178  0.5753  0.3712 -0.0741
 2469SOL    HW118869   1.936   3.280  16.239 -1.4174  0.2062  0.5289
 2469SOL    HW218870   1.859   3.403  16.237 -0.4426  1.2077 -1.7455
 2470SOL     OW18871   3.551   1.760   7.411  0.3671 -0.7784 -0.6609
 2470SOL    HW118872   3.534   1.792   7.322 -0.3606  2.3007  0.5931
 2470SOL    HW218873   3.551   1.665   7.396 -1.6705 -0.8345 -0.3778
 2471SOL     OW18874   0.994   0.957  13.348 -0.3881 -0.5034  0.1871
 2471SOL    HW118875   1.080   0.957  13.389  0.3899 -0.7025 -1.4294
 2471SOL    HW218876   1.024   0.932  13.260 -1.0341 -3.3493  0.7569
 2472SOL     OW18877   3.548   0.192   8.063  0.0203  0.6872 -0.1759
 2472SOL    HW118878   3.626   0.219   8.014 -1.2442  2.4110 -1.2180
 2472SOL    HW218879   3.477   0.208   8.000  0.7633  0.3875 -1.0987
 2473SOL     OW18880   0.842   2.316   5.365  0.1603  0.0730 -0.6910
 2473SOL    HW118881   0.832   2.411   5.351  0.6124 -0.0013 -1.5407
 2473SOL    HW218882   0.819   2.309   5.458  0.5519 -1.9969 -0.7470
 2474SOL     OW18883   3.875   2.342  14.261  0.2502  0.0225 -0.4252
 2474SOL    HW118884   3.826   2.351  14.179 -0.4298 -0.0322 -0.0211
 2474SOL    HW218885   3.905   2.432  14.274 -0.0176 -0.1819  1.5814
 2475SOL     OW18886   2.366   1.063   3.996 -0.4805 -0.0963  0.4731
 2475SOL    HW118887   2.323   1.087   4.077  0.2852 -0.1724  0.9004
 2475SOL    HW218888   2.351   1.140   3.942  1.7962  0.1632  0.2064
 2476SOL     OW18889   2.567   4.702   3.566  0.0362  0.1954 -0.5029
 2476SOL    HW118890   2.651   4.680   3.606 -0.4111 -0.4085  0.0979
 2476SOL    HW218891   2.531   0.032   3.639 -1.3952  0.0368 -1.0885
 2477SOL     OW18892   1.777   2.146   9.338  0.5624 -0.4608  0.1043
 2477SOL    HW118893   1.813   2.086   9.404 -1.7491  0.1912  1.9613
 2477SOL    HW218894   1.845   2.143   9.270 -0.0328 -2.1217 -0.4271
 2478SOL     OW18895   0.228   3.442   3.851  0.3477  0.3044 -0.1305
 2478SOL    HW118896   0.184   3.494   3.919  1.7627  1.2616  0.0546
 2478SOL    HW218897   0.231   3.511   3.785 -1.6791  3.0155  2.5844
 2479SOL     OW18898   1.706   1.034   1.926 -0.1765  0.0439  0.0188
 2479SOL    HW118899   1.638   1.101   1.912 -0.1794 -0.0791 -0.5551
 2479SOL    HW218900   1.740   1.066   2.010 -0.9313  0.2491  0.2433
 2480SOL     OW18901   0.088   2.067   3.104 -0.0132 -0.1971 -0.1375
 2480SOL    HW118902   0.173   2.069   3.146  1.3486  0.6905 -2.9239
 2480SOL    HW218903   0.110   2.023   3.022 -1.0037 -2.6355  0.8896
 2481SOL     OW18904   4.612   1.921  15.279  0.5085 -0.0435 -0.2852
 2481SOL    HW118905   4.637   1.853  15.216  2.8700  0.5099  0.0528
 2481SOL    HW218906   4.538   1.958  15.231  1.0140  0.1550 -0.9118
 2482SOL     OW18907   1.804   4.553   4.514 -0.0136 -0.1658  0.7361
 2482SOL    HW118908   1.713   4.533   4.492  0.4705 -1.8925  0.2998
 2482SOL    HW218909   1.829   4.611   4.442 -1.4624  0.7410  0.9440
 2483SOL     OW18910   3.056   2.561   5.253 -0.5248  0.2907 -0.1975
 2483SOL    HW118911   3.087   2.470   5.255 -0.3216  0.3275 -1.2116
 2483SOL    HW218912   3.129   2.611   5.217 -1.9388  2.3509 -0.1822
 2484SOL     OW18913   1.249   4.386  13.166 -0.3794  0.3861 -0.0543
 2484SOL    HW118914   1.246   4.417  13.257  1.7897  0.1772  0.0844
 2484SOL    HW218915   1.211   4.300  13.187 -0.8513  0.8018  0.8351
 2485SOL     OW18916   2.808   3.573   7.788 -0.0823  0.2437  0.4481
 2485SOL    HW118917   2.825   3.557   7.695  2.4687  1.2554  0.7144
 2485SOL    HW218918   2.749   3.647   7.781 -1.1746 -0.5714  1.1706
 2486SOL     OW18919   2.808   2.142   0.123  0.2720 -0.3532  0.1150
 2486SOL    HW118920   2.757   2.209   0.077 -1.2848 -0.3164  1.9050
 2486SOL    HW218921   2.767   2.139   0.209 -1.8959 -0.4711 -0.9235
 2487SOL     OW18922   4.213   4.508   4.150  0.8511 -0.6668  0.3985
 2487SOL    HW118923   4.146   4.509   4.082  0.6047 -1.6607  0.6282
 2487SOL    HW218924   4.275   4.562   4.102  0.6508  2.0641  3.1853
 2488SOL     OW18925   1.685   0.320   0.251  0.4702  0.3655  0.4222
 2488SOL    HW118926   1.685   0.256   0.180  0.2489 -1.7730  2.3547
 2488SOL    HW218927   1.601   0.299   0.291 -0.2753  0.8359 -0.8869
 2489SOL     OW18928   1.922   1.834   4.805  0.2131 -0.3674  0.1617
 2489SOL    HW118929   1.922   1.864   4.896  2.6641 -0.9495  0.3500
 2489SOL    HW218930   1.995   1.772   4.811 -0.7429 -1.4616  0.5770
 2490SOL     OW18931   4.111   4.420   5.413  0.5088  0.7118  0.2471
 2490SOL    HW118932   4.123   4.460   5.327 -2.4799 -0.1836 -0.6080
 2490SOL    HW218933   4.015   4.412   5.408  0.3771  1.4769  1.8112
 2491SOL     OW18934   1.424   4.131  17.576  0.5106  0.5151 -0.5377
 2491SOL    HW118935   1.343   4.180  17.568  0.3327  0.5984  1.9921
 2491SOL    HW218936   1.472   4.177  17.645  1.0182 -0.0536 -0.5085
 2492SOL     OW18937   4.590   0.801  17.041 -0.6574 -0.2426  0.4449
 2492SOL    HW118938   4.652   0.789  17.113  1.3445 -0.8198 -1.3758
 2492SOL    HW218939   4.512   0.776  17.091 -2.1794  1.6025 -1.0456
 2493SOL     OW18940   0.300   0.081   8.751  0.0167 -0.0858  0.0915
 2493SOL    HW118941   0.382   0.038   8.774  0.3529  0.3436 -0.3065
 2493SOL    HW218942   0.307   0.072   8.656 -3.0089  2.5338 -0.3873
 2494SOL     OW18943   1.939   0.759   8.512  0.0075  0.3344 -0.3702
 2494SOL    HW118944   1.870   0.744   8.447 -1.4295 -2.1982  1.7789
 2494SOL    HW218945   1.933   0.854   8.504  3.5387  0.6180  0.3557
 2495SOL     OW18946   3.549   4.148   7.221 -0.2033  0.1889  0.1971
 2495SOL    HW118947   3.554   4.181   7.132 -1.1103  0.2815  0.1742
 2495SOL    HW218948   3.641   4.146   7.245 -0.2430  1.7363  0.4830
 2496SOL     OW18949   0.272   3.731   8.732 -0.1043  0.0034 -0.1139
 2496SOL    HW118950   0.267   3.768   8.644  0.1519 -0.1563 -0.1960
 2496SOL    HW218951   0.184   3.720   8.767 -0.5530  0.2466 -1.1944
 2497SOL     OW18952   0.802   4.320   1.867  0.1331 -0.3420  0.0563
 2497SOL    HW118953   0.895   4.324   1.846 -0.0353 -1.0741 -0.8148
 2497SOL    HW218954   0.752   4.375   1.808 -0.4257 -0.5212  0.3619
 2498SOL     OW18955   3.278   0.644   7.976  0.5145 -0.7801  0.3870
 2498SOL    HW118956   3.257   0.554   8.002 -0.8935 -0.6590 -0.3247
 2498SOL    HW218957   3.227   0.701   8.033 -1.1036 -0.3194 -1.5227
 2499SOL     OW18958   1.171   2.433   5.220 -0.2249  0.1393 -0.4530
 2499SOL    HW118959   1.188   2.476   5.304  0.6360  1.3395 -1.2487
 2499SOL    HW218960   1.225   2.498   5.176  1.0489 -0.2183  0.5362
 2500SOL     OW18961   1.161   0.369  13.165  0.0332 -0.2824  0.2753
 2500SOL    HW118962   1.193   0.455  13.193  2.0136 -1.2555  0.9584
 2500SOL    HW218963   1.072   0.369  13.199  0.7697 -3.3668  2.1778
 2501SOL     OW18964   2.355   2.905   2.934  0.7133  0.2694  0.2089
 2501SOL    HW118965   2.285   2.886   2.996  2.3786 -2.9331  1.1119
 2501SOL    HW218966   2.408   2.825   2.933  0.5230  0.1845 -1.7316
 2502SOL     OW18967   3.877   2.182  11.170 -0.0159 -0.1034 -0.3995
 2502SOL    HW118968   3.963   2.152  11.200 -0.8292 -2.6209 -0.5486
 2502SOL    HW218969   3.891   2.204  11.078 -0.0429 -1.9128 -0.8312
 2503SOL     OW18970   1.407   2.119   6.708 -0.1118  0.3575 -0.0204
 2503SOL    HW118971   1.400   2.210   6.678  3.2729  0.5767 -0.0821
 2503SOL    HW218972   1.391   2.078   6.623  2.3514  0.7126 -0.6637
 2504SOL     OW18973   4.260   1.572   6.799 -0.0954  0.4815  0.0232
 2504SOL    HW118974   4.165   1.562   6.805 -0.2994  1.9023 -0.7678
 2504SOL    HW218975   4.262   1.604   6.890  1.7880  0.9735 -0.2048
 2505SOL     OW18976   3.778   3.742   3.637  0.2288  0.4176 -0.1447
 2505SOL    HW118977   3.691   3.747   3.678  0.6880  1.1537  0.7375
 2505SOL    HW218978   3.839   3.731   3.710 -0.8932 -1.5353  0.5010
 2506SOL     OW18979   3.222   1.063  11.936  0.0668 -0.4900 -1.6275
 2506SOL    HW118980   3.195   0.971  11.927  1.5215 -1.2227  1.6860
 2506SOL    HW218981   3.147   1.096  11.986  0.0132 -0.4498 -1.7340
 2507SOL     OW18982   2.642   3.545   9.082 -0.0554  0.2763 -0.4097
 2507SOL    HW118983   2.602   3.578   9.163  2.5076 -0.7915  1.3130
 2507SOL    HW218984   2.571   3.534   9.020  0.8879  0.2236 -1.4748
 2508SOL     OW18985   4.051   3.757   7.555  0.2545  0.0985  0.1291
 2508SOL    HW118986   4.108   3.829   7.528 -0.8368  0.9171 -0.0027
 2508SOL    HW218987   4.119   3.695   7.582  1.3923  0.4358 -1.9219
 2509SOL     OW18988   1.770   0.545   4.214  0.0279 -0.2584  0.1310
 2509SOL    HW118989   1.712   0.622   4.217 -1.1947 -1.0351 -3.4113
 2509SOL    HW218990   1.860   0.578   4.211 -0.3219  0.7352  0.7378
 2510SOL     OW18991   2.438   0.499  10.349 -0.0304 -0.1166  0.1958
 2510SOL    HW118992   2.345   0.520  10.351 -0.4381 -1.8089 -0.9329
 2510SOL    HW218993   2.443   0.404  10.337 -1.6828 -0.4434  1.9717
 2511SOL     OW18994   3.952   2.689   7.979  0.1798  0.0884 -0.2395
 2511SOL    HW118995   3.982   2.621   8.039 -0.2197  0.6379  0.5688
 2511SOL    HW218996   3.861   2.660   7.964  0.2356  0.3206 -1.0321
 2512SOL     OW18997   2.883   3.223   8.927  0.6069 -0.3359 -0.2024
 2512SOL    HW118998   2.938   3.295   8.898  1.3345 -1.1258 -0.7995
 2512SOL    HW218999   2.866   3.263   9.012 -3.1396  1.1331 -1.6301
 2513SOL     OW19000   3.044   3.342  15.089 -0.0117  0.2343  0.1562
 2513SOL    HW119001   2.969   3.308  15.138  1.1980 -0.7132  1.3630
 2513SOL    HW219002   3.110   3.273  15.099 -0.7930 -0.5647 -0.1132
 2514SOL     OW19003   1.353   2.066   4.442 -0.3881  0.8956 -0.5587
 2514SOL    HW119004   1.427   2.006   4.454 -0.4701  0.5896 -1.6473
 2514SOL    HW219005   1.382   2.093   4.356  0.5539  0.7676 -0.2846
 2515SOL     OW19006   1.668   1.760   9.949  0.0193 -0.4822 -0.1851
 2515SOL    HW119007   1.658   1.837  10.004 -0.4091 -0.7220  0.0681
 2515SOL    HW219008   1.586   1.768   9.900 -0.1689  2.3922  0.6259
 2516SOL     OW19009   0.514   3.051   9.221 -0.0695 -0.6325 -0.0850
 2516SOL    HW119010   0.464   3.120   9.264 -2.0807 -2.8249  1.1004
 2516SOL    HW219011   0.571   3.093   9.157 -0.3942  1.5636  1.0822
 2517SOL     OW19012   3.544   2.844  17.053  0.1307 -0.1137 -0.2203
 2517SOL    HW119013   3.550   2.756  17.091 -2.2993  0.1270  0.7042
 2517SOL    HW219014   3.633   2.837  17.020  0.2342 -0.3824  0.1074
 2518SOL     OW19015   1.601   0.600   6.736  0.6189  0.1107 -0.2554
 2518SOL    HW119016   1.516   0.570   6.702 -0.0224 -0.1897  1.6119
 2518SOL    HW219017   1.574   0.691   6.750  0.2015 -0.2953  1.5479
 2519SOL     OW19018   3.518   3.351  17.472 -0.0157 -0.3360  0.1115
 2519SOL    HW119019   3.605   3.388  17.453  0.1253 -0.1297  1.1747
 2519SOL    HW219020   3.471   3.433  17.485  0.4147  0.3280 -2.4783
 2520SOL     OW19021   3.610   2.518   4.552  0.4590  0.5299  0.3952
 2520SOL    HW119022   3.635   2.610   4.544  0.9317  0.0409 -3.4110
 2520SOL    HW219023   3.639   2.481   4.469  0.4693 -0.9604  1.0709
 2521SOL     OW19024   2.922   1.170   8.380  0.2069  0.0649  0.3553
 2521SOL    HW119025   2.896   1.249   8.427  2.5814  1.7963 -1.3001
 2521SOL    HW219026   2.937   1.207   8.294  2.0624  0.8870  1.0464
 2522SOL     OW19027   0.185   3.336   6.392 -0.0586  0.0218 -0.2603
 2522SOL    HW119028   0.117   3.274   6.418  0.0779 -0.0518 -0.0822
 2522SOL    HW219029   0.266   3.288   6.409  0.1172  0.1062 -0.8351
 2523SOL     OW19030   2.651   4.623   5.002  0.0584 -0.6211  0.1922
 2523SOL    HW119031   2.692   4.708   4.992  0.7717 -1.3643 -3.1447
 2523SOL    HW219032   2.625   4.637   5.093 -0.1995 -1.3488  0.2390
 2524SOL     OW19033   3.156   1.072   6.696  0.1199  0.3580 -0.1451
 2524SOL    HW119034   3.160   1.059   6.601 -0.6859  0.3678 -0.1734
 2524SOL    HW219035   3.062   1.070   6.712 -0.0012 -0.9560 -1.0291
 2525SOL     OW19036   0.232   2.515  10.099 -0.2363 -0.1446  0.2848
 2525SOL    HW119037   0.139   2.536  10.104  0.0536  0.4360  3.4235
 2525SOL    HW219038   0.249   2.451  10.168  0.4008 -0.0241  0.2421
 2526SOL     OW19039   1.614   1.789   3.288 -0.0254 -0.2637 -0.2242
 2526SOL    HW119040   1.632   1.709   3.237  0.7043 -0.2822  0.0633
 2526SOL    HW219041   1.653   1.768   3.373 -0.1131 -1.2541 -0.4186
 2527SOL     OW19042   4.618   4.639  12.576  0.1702 -0.0416  0.8187
 2527SOL    HW119043   4.608   4.670  12.666 -1.7428  1.7557 -0.0077
 2527SOL    HW219044   4.655   4.551  12.586 -3.0151 -1.6986 -1.7241
 2528SOL     OW19045   4.263   4.666   5.059  0.4980 -0.3008 -1.1442
 2528SOL    HW119046   4.243   0.038   5.053 -0.4243 -0.3860  0.5349
 2528SOL    HW219047   4.326   4.652   4.988  1.8173  0.4640 -0.1353
 2529SOL     OW19048   1.828   4.521  17.194  0.4208  0.0445  0.2760
 2529SOL    HW119049   1.835   4.521  17.099 -0.7238  1.5909  0.1997
 2529SOL    HW219050   1.747   4.571  17.197 -0.3783 -1.1198 -2.1468
 2530SOL     OW19051   2.624   4.626  10.323 -0.2001  0.4460  0.5273
 2530SOL    HW119052   2.607   4.683  10.398  1.4063  1.5516  0.0518
 2530SOL    HW219053   2.560   4.659  10.260  0.0009 -0.9624 -0.3924
 2531SOL     OW19054   2.171   2.911  13.454  0.3160  0.2178  0.3644
 2531SOL    HW119055   2.153   2.852  13.526  0.3371  0.5583  0.6473
 2531SOL    HW219056   2.225   2.985  13.483  1.9026 -0.4764 -0.8242
 2532SOL     OW19057   2.566   1.849  12.231  0.6195  0.1761 -0.1115
 2532SOL    HW119058   2.561   1.919  12.297 -1.2512 -1.2637  1.2788
 2532SOL    HW219059   2.635   1.799  12.275  0.8366  0.2737 -0.3457
 2533SOL     OW19060   3.882   2.995  12.097  0.7381  0.4648 -0.5262
 2533SOL    HW119061   3.900   2.967  12.187 -0.7490  0.7171 -0.1350
 2533SOL    HW219062   3.843   2.912  12.069 -0.0330  0.4461  0.5715
 2534SOL     OW19063   4.350   4.388   3.870  0.2085  0.2708 -0.2598
 2534SOL    HW119064   4.328   4.300   3.900  1.0662  0.6596  1.4985
 2534SOL    HW219065   4.301   4.403   3.789 -0.1150 -2.3646 -0.5560
 2535SOL     OW19066   2.129   2.842   1.321  0.0658 -0.1145  0.0195
 2535SOL    HW119067   2.074   2.779   1.368 -0.4248 -1.3578 -2.2468
 2535SOL    HW219068   2.080   2.853   1.240 -1.0742 -3.1276  0.3122
 2536SOL     OW19069   0.057   2.872  13.358  0.4285 -0.1911  0.0853
 2536SOL    HW119070   0.046   2.950  13.411 -0.3235  0.0184 -0.3858
 2536SOL    HW219071   0.152   2.876  13.349  0.2703  0.0311 -1.5703
 2537SOL     OW19072   0.629   3.670   3.170  0.4060  0.1693  0.3178
 2537SOL    HW119073   0.551   3.621   3.144  1.7318 -1.3177 -0.8831
 2537SOL    HW219074   0.693   3.613   3.127  0.8352  3.0328 -2.8894
 2538SOL     OW19075   0.082   4.543   5.202  0.8649 -0.8547  0.3410
 2538SOL    HW119076   0.024   4.530   5.127 -1.3501 -0.6954  2.0635
 2538SOL    HW219077   0.126   4.624   5.175  0.3669 -0.8869 -0.5713
 2539SOL     OW19078   4.202   1.453   1.788  0.3871 -0.5835 -0.1538
 2539SOL    HW119079   4.200   1.465   1.883 -0.2253 -1.3494 -0.0686
 2539SOL    HW219080   4.291   1.419   1.789  0.0786 -1.4103 -0.4506
 2540SOL     OW19081   0.402   1.888   6.137  0.4381 -0.2877  0.3023
 2540SOL    HW119082   0.482   1.929   6.170  0.5707 -0.9862  0.8493
 2540SOL    HW219083   0.350   1.902   6.216  2.0951 -1.5090  1.6126
 2541SOL     OW19084   2.732   4.031   7.305 -0.4517 -0.1840  0.0122
 2541SOL    HW119085   2.682   4.047   7.225  1.1838  3.3876 -0.3039
 2541SOL    HW219086   2.697   4.093   7.368 -2.2336  0.9012 -2.0466
 2542SOL     OW19087   2.507   1.568  17.652 -0.6564 -0.4457 -0.0323
 2542SOL    HW119088   2.511   1.662  17.631  1.7105  0.2003  3.4081
 2542SOL    HW219089   2.452   1.576   0.043 -1.9409  1.3807 -1.1227
 2543SOL     OW19090   1.445   1.369   2.717 -0.4091 -0.2643  0.0271
 2543SOL    HW119091   1.512   1.310   2.753 -2.6235 -0.4101  3.9187
 2543SOL    HW219092   1.409   1.408   2.796  0.9199  1.6174 -0.3102
 2544SOL     OW19093   2.851   4.452  12.363 -0.5105 -0.2165 -0.5546
 2544SOL    HW119094   2.928   4.455  12.306  1.1481  2.3396  1.8497
 2544SOL    HW219095   2.900   4.461  12.444  0.2019 -0.1996 -0.9871
 2545SOL     OW19096   0.282   2.441  11.123  0.1792 -0.5690 -0.2745
 2545SOL    HW119097   0.274   2.485  11.208 -3.0973  3.2146 -2.5731
 2545SOL    HW219098   0.376   2.419  11.120 -0.1501 -1.5120 -3.3326
 2546SOL     OW19099   2.127   1.618  10.351 -0.7564  0.4508 -0.1344
 2546SOL    HW119100   2.168   1.548  10.402 -0.0332 -0.0288 -1.3862
 2546SOL    HW219101   2.079   1.667  10.418  1.1403 -0.7294  2.0795
 2547SOL     OW19102   0.804   0.353   6.446  0.1123 -0.1890  0.7428
 2547SOL    HW119103   0.889   0.331   6.407  0.6814 -1.2285  2.5763
 2547SOL    HW219104   0.739   0.325   6.381  1.0149  2.5360 -1.3437
 2548SOL     OW19105   3.778   3.805  17.446  0.3715  0.4474 -0.1822
 2548SOL    HW119106   3.790   3.710  17.436  0.5217  0.3936  0.5072
 2548SOL    HW219107   3.741   3.835  17.363 -1.5283  1.4163  1.0168
 2549SOL     OW19108   4.641   3.389  17.160  0.5002 -0.0365  0.2785
 2549SOL    HW119109   4.560   3.432  17.135 -0.7847 -1.8581  1.3475
 2549SOL    HW219110   4.669   3.366  17.072  1.6662  0.6960  0.4589
 2550SOL     OW19111   1.958   0.805   3.619 -0.4107  0.6306  0.1749
 2550SOL    HW119112   1.879   0.750   3.623  0.3771 -0.5026  0.3122
 2550SOL    HW219113   1.938   0.873   3.555 -0.5512  1.8883  1.5455
 2551SOL     OW19114   2.751   1.680  11.599 -0.4485  0.0875  0.3807
 2551SOL    HW119115   2.711   1.729  11.527 -0.0357  0.5768  0.4887
 2551SOL    HW219116   2.701   1.599  11.611 -1.1406  0.8146  2.3164
 2552SOL     OW19117   2.254   0.660   6.973 -0.1598 -0.1236  0.5441
 2552SOL    HW119118   2.181   0.599   6.981  0.5886 -0.8371  1.9444
 2552SOL    HW219119   2.203   0.734   6.940  1.2163 -1.3219 -4.3655
 2553SOL     OW19120   2.722   3.505   8.310  0.0575  0.0940 -0.2450
 2553SOL    HW119121   2.715   3.559   8.389 -2.1917 -0.1575 -0.2799
 2553SOL    HW219122   2.663   3.547   8.247 -0.1513  0.0027 -0.1074
 2554SOL     OW19123   3.419   1.766   6.258 -0.1111  0.8288  0.5134
 2554SOL    HW119124   3.436   1.672   6.257 -0.3468  0.7744  1.3588
 2554SOL    HW219125   3.357   1.761   6.331  1.0751 -1.7811  1.3626
 2555SOL     OW19126   0.071   2.623   3.750  0.3829  0.6232  0.4467
 2555SOL    HW119127   0.089   2.560   3.680  0.3055 -0.8235  1.7308
 2555SOL    HW219128   4.696   2.627   3.760  0.3014  2.2470 -1.0140
 2556SOL     OW19129   3.221   3.697   4.037  0.6371 -0.1314  0.5912
 2556SOL    HW119130   3.253   3.616   3.996  2.0379  0.7642 -0.0939
 2556SOL    HW219131   3.174   3.672   4.116 -0.5925  0.3213  0.0020
 2557SOL     OW19132   3.577   1.662   9.257  0.1708 -0.0864 -0.1502
 2557SOL    HW119133   3.485   1.684   9.248 -0.1447 -1.4313 -0.2590
 2557SOL    HW219134   3.599   1.686   9.347 -2.1923 -2.2910  1.0083
 2558SOL     OW19135   2.256   0.683   9.244  0.1562 -0.0466  0.1431
 2558SOL    HW119136   2.198   0.640   9.307 -0.3881  0.8048  0.2285
 2558SOL    HW219137   2.193   0.721   9.182  0.3032  1.0571  0.6631
 2559SOL     OW19138   0.866   0.130  13.538 -0.0201  0.0695  0.0677
 2559SOL    HW119139   0.794   0.076  13.569  0.7438 -0.9092  0.1302
 2559SOL    HW219140   0.919   0.132  13.618  0.7985 -1.1397 -0.4449
 2560SOL     OW19141   2.716   1.656  16.599  0.4900 -0.3538  0.1827
 2560SOL    HW119142   2.673   1.595  16.660 -2.4671  0.7915 -0.7406
 2560SOL    HW219143   2.717   1.731  16.658  0.1816 -0.3837  0.2289
 2561SOL     OW19144   1.084   2.664   4.035  0.3865 -0.1437  0.1245
 2561SOL    HW119145   0.993   2.637   4.040  0.1770  0.5794  0.3010
 2561SOL    HW219146   1.117   2.655   4.124 -0.0586  1.4964  0.4573
 2562SOL     OW19147   1.912   0.863   8.826 -0.4188  0.0907 -0.2624
 2562SOL    HW119148   1.981   0.879   8.761 -0.4268  1.4538  0.0780
 2562SOL    HW219149   1.842   0.920   8.796 -0.3486  0.8693  1.0646
 2563SOL     OW19150   2.272   3.130   6.739  0.2304  0.1588  0.4350
 2563SOL    HW119151   2.336   3.075   6.784 -2.0508 -1.4423  1.7190
 2563SOL    HW219152   2.299   3.122   6.648 -0.4593 -1.9817  0.4153
 2564SOL     OW19153   4.483   1.455  10.039 -0.2958  0.4293 -0.3050
 2564SOL    HW119154   4.404   1.443   9.985  0.1054 -1.2725 -0.5057
 2564SOL    HW219155   4.531   1.523   9.991  0.0547  1.3615  1.3659
 2565SOL     OW19156   4.053   3.445   7.105  0.0366  0.5426 -0.0480
 2565SOL    HW119157   4.147   3.428   7.108 -0.1390 -0.4562 -0.0873
 2565SOL    HW219158   4.037   3.452   7.199  2.4312  2.1150  0.2461
 2566SOL     OW19159   1.679   1.169   8.133  0.4971 -0.2562  0.0531
 2566SOL    HW119160   1.649   1.178   8.223  0.3212 -0.2722 -0.0051
 2566SOL    HW219161   1.613   1.217   8.084  1.1326 -1.3808 -1.8948
 2567SOL     OW19162   1.116   0.075   5.840  0.0294 -0.5023  0.0396
 2567SOL    HW119163   1.112   0.031   5.925 -0.6489 -0.7546 -0.1184
 2567SOL    HW219164   1.134   0.166   5.864  0.7055 -1.5146  3.2323
 2568SOL     OW19165   1.019   2.672   5.571  0.1304  0.8238 -0.0707
 2568SOL    HW119166   0.931   2.651   5.539  1.5708 -1.9179 -2.2150
 2568SOL    HW219167   1.082   2.670   5.499 -0.3486  0.9906 -0.4881
 2569SOL     OW19168   1.332   1.035   5.018  0.5370  0.9056  0.2976
 2569SOL    HW119169   1.369   0.975   4.953  0.8237  1.1181  0.2647
 2569SOL    HW219170   1.281   0.978   5.075  3.5971 -1.2121  0.8865
 2570SOL     OW19171   1.830   3.702   0.380 -0.1754 -0.3194  0.2009
 2570SOL    HW119172   1.901   3.638   0.383 -0.5291 -0.6832  0.9193
 2570SOL    HW219173   1.752   3.646   0.371 -0.7216  0.2298  1.4577
 2571SOL     OW19174   1.058   1.086  12.893 -0.1134  0.2457  0.3577
 2571SOL    HW119175   1.100   1.015  12.942  1.4234  2.4226  2.2506
 2571SOL    HW219176   1.038   1.041  12.811 -2.9979 -1.4787  2.0384
 2572SOL     OW19177   0.368   2.350  11.649  0.2774 -0.3722  0.0814
 2572SOL    HW119178   0.274   2.362  11.634  0.3555  0.8038  0.5523
 2572SOL    HW219179   0.364   2.267  11.698  0.7796  0.3268  1.2938
 2573SOL     OW19180   0.279   1.132   2.630 -0.5815  0.3263 -0.0668
 2573SOL    HW119181   0.311   1.199   2.570  2.0071  0.6723  1.6991
 2573SOL    HW219182   0.195   1.174   2.646 -0.9495 -0.3576 -0.2109
 2574SOL     OW19183   0.494   1.729   3.420 -0.2203  0.1281  0.0899
 2574SOL    HW119184   0.521   1.715   3.329  0.9039  0.3765  0.3959
 2574SOL    HW219185   0.408   1.762   3.393 -1.1924 -1.6076  1.0367
 2575SOL     OW19186   1.238   1.840   6.376 -0.3441  0.1748  0.1644
 2575SOL    HW119187   1.163   1.783   6.361 -1.0375  1.0949  0.1732
 2575SOL    HW219188   1.309   1.780   6.402  0.5324  1.8289  1.5770
 2576SOL     OW19189   1.958   1.645   3.230  0.1608  0.0513 -0.4057
 2576SOL    HW119190   2.031   1.704   3.244  0.5814 -0.0777 -2.0899
 2576SOL    HW219191   2.004   1.567   3.198 -2.9330 -2.6694  1.7095
 2577SOL     OW19192   2.933   0.890   7.063  0.2170  0.7556  0.2379
 2577SOL    HW119193   2.848   0.852   7.085  0.1085  1.3843  0.9245
 2577SOL    HW219194   2.904   0.977   7.093  2.2722  1.5931 -0.2140
 2578SOL     OW19195   4.055   0.956   3.097  0.6243 -0.4304 -0.0345
 2578SOL    HW119196   4.091   0.970   3.185  1.6748 -0.9881 -0.3797
 2578SOL    HW219197   4.110   1.020   3.052  0.3585  0.6857  1.1967
 2579SOL     OW19198   1.112   3.705  11.833  0.1660  0.0057 -0.0199
 2579SOL    HW119199   1.087   3.631  11.778 -0.3422  2.0306 -2.4976
 2579SOL    HW219200   1.030   3.711  11.882  0.7730 -0.2666  1.0357
 2580SOL     OW19201   0.646   2.304  15.455 -0.8628  0.1877  0.8386
 2580SOL    HW119202   0.590   2.379  15.472 -0.4532  0.6801  0.0036
 2580SOL    HW219203   0.595   2.227  15.480 -0.7060 -0.9669 -2.4698
 2581SOL     OW19204   3.515   2.795  13.169 -0.0191  0.0412 -0.6143
 2581SOL    HW119205   3.552   2.709  13.187 -1.8554 -0.8799 -1.2498
 2581SOL    HW219206   3.431   2.800  13.214 -0.2215  3.3100 -1.3620
 2582SOL     OW19207   4.067   2.959   6.787  0.3789  0.9681  0.1090
 2582SOL    HW119208   4.089   3.035   6.841  2.3325 -0.3138  1.1115
 2582SOL    HW219209   3.995   2.932   6.845  0.7984  2.4842  1.3511
 2583SOL     OW19210   2.511   2.013   6.480  0.0964 -0.4300  0.3064
 2583SOL    HW119211   2.567   2.047   6.411  0.5030 -1.0775  0.3165
 2583SOL    HW219212   2.449   1.956   6.434 -2.5654  1.8950  0.9947
 2584SOL     OW19213   0.752   3.839  17.530 -0.5217  0.1620  0.0998
 2584SOL    HW119214   0.795   3.908  17.480  0.7997 -1.0102 -0.3909
 2584SOL    HW219215   0.681   3.817  17.469 -0.7680  1.3645 -0.0526
 2585SOL     OW19216   2.304   3.729   1.522  0.3847 -0.1118 -0.1252
 2585SOL    HW119217   2.344   3.680   1.450  1.5001  1.3599 -0.5168
 2585SOL    HW219218   2.286   3.813   1.479  0.6307  0.1239  0.2289
 2586SOL     OW19219   1.014   3.815   3.635  0.2448  0.2281 -0.0732
 2586SOL    HW119220   0.987   3.883   3.573  0.9756  0.9334  0.3917
 2586SOL    HW219221   0.930   3.815   3.680 -0.4805  1.2917 -1.4175
 2587SOL     OW19222   3.028   4.370   4.692  0.0522  0.1496 -0.0354
 2587SOL    HW119223   3.082   4.291   4.694  0.4778  0.4577  0.9873
 2587SOL    HW219224   3.097   4.436   4.696  1.1311 -0.9099 -1.4024
 2588SOL     OW19225   3.625   0.421   7.191  0.5465  0.1604 -0.3465
 2588SOL    HW119226   3.633   0.502   7.140  0.0850  0.5955  0.2772
 2588SOL    HW219227   3.530   0.417   7.188  0.5701 -0.6857 -0.1321
 2589SOL     OW19228   2.373   1.576   9.359  0.6229 -0.4371  1.0434
 2589SOL    HW119229   2.360   1.663   9.397 -1.0266  0.9966 -2.7922
 2589SOL    HW219230   2.464   1.552   9.374  0.8472  0.9546  1.8602
 2590SOL     OW19231   1.296   2.500   5.451  0.2699  0.5035  0.1678
 2590SOL    HW119232   1.357   2.525   5.521 -2.1617  2.0399  1.7327
 2590SOL    HW219233   1.357   2.468   5.385 -1.2408 -0.3172 -0.8093
 2591SOL     OW19234   2.530   3.090  17.363 -0.2254  0.0893  0.1687
 2591SOL    HW119235   2.438   3.074  17.340  0.1237  0.3921 -1.4636
 2591SOL    HW219236   2.552   3.174  17.322 -0.9316  0.6370  0.9308
 2592SOL     OW19237   0.248   2.677   3.965 -0.0279 -0.1673  0.6510
 2592SOL    HW119238   0.255   2.770   3.945  2.2394 -0.3243  0.6444
 2592SOL    HW219239   0.208   2.649   3.884 -1.1420  3.7456 -0.1490
 2593SOL     OW19240   4.593   1.072   5.304 -0.1034  0.0553  0.1873
 2593SOL    HW119241   4.566   1.141   5.363  2.7310  0.0630  1.4796
 2593SOL    HW219242   4.532   1.003   5.332 -0.2544  0.1101 -0.0077
 2594SOL     OW19243   1.679   2.532   3.641 -0.6632 -0.0133 -0.5150
 2594SOL    HW119244   1.671   2.483   3.560 -2.5175 -1.5219  0.5850
 2594SOL    HW219245   1.593   2.515   3.680 -0.5792  1.0558  0.1453
 2595SOL     OW19246   1.913   3.934   0.216 -0.4732 -0.2383 -0.2302
 2595SOL    HW119247   1.820   3.933   0.191 -0.4752 -0.2005 -0.2237
 2595SOL    HW219248   1.910   3.859   0.275 -1.3502  0.5391  0.7114
 2596SOL     OW19249   4.531   2.325   2.717  0.0743 -0.0448  0.0331
 2596SOL    HW119250   4.469   2.257   2.745  2.4651 -1.8523  0.9572
 2596SOL    HW219251   4.612   2.278   2.739  0.7931  0.4972 -1.4815
 2597SOL     OW19252   3.861   0.085   3.614  0.0088 -0.1413 -0.0607
 2597SOL    HW119253   3.931   0.148   3.633 -0.1440 -0.3105  1.0520
 2597SOL    HW219254   3.832   0.056   3.701  1.5406 -0.2097  0.4249
 2598SOL     OW19255   2.422   1.678   6.427  0.1173  0.2419  0.1268
 2598SOL    HW119256   2.483   1.740   6.386  0.6634  0.1488  0.7954
 2598SOL    HW219257   2.372   1.647   6.351  1.6772 -0.3955 -0.6382
 2599SOL     OW19258   0.907   4.511  15.593  0.6213 -0.4786  0.1077
 2599SOL    HW119259   0.890   4.454  15.518  0.3470 -0.0389 -0.1600
 2599SOL    HW219260   1.000   4.530  15.585  1.2499 -3.0985  0.9923
 2600SOL     OW19261   0.237   0.081  17.281  0.6876  0.3009  0.2508
 2600SOL    HW119262   0.234   0.143  17.208  0.1505 -1.1715 -0.9755
 2600SOL    HW219263   0.150   0.042  17.279 -0.0342  2.0153 -1.4611
 2601SOL     OW19264   1.796   0.817   4.935  1.2510  0.3006  0.2797
 2601SOL    HW119265   1.710   0.857   4.919  1.6890  1.1588  0.1164
 2601SOL    HW219266   1.850   0.896   4.931  1.4047  0.1390 -1.0424
 2602SOL     OW19267   4.214   1.504   0.447 -0.2674 -0.1789 -0.2628
 2602SOL    HW119268   4.294   1.453   0.435  1.5615  2.1974  1.9567
 2602SOL    HW219269   4.237   1.559   0.522  2.6615 -1.0995 -0.4896
 2603SOL     OW19270   2.839   3.772   8.992 -0.0621  0.7827 -0.4578
 2603SOL    HW119271   2.922   3.773   8.944  0.0552 -0.5278 -0.2675
 2603SOL    HW219272   2.827   3.680   9.012 -0.7950  0.9763 -0.0192
 2604SOL     OW19273   0.451   3.556  15.003 -1.0851  0.1805  0.0082
 2604SOL    HW119274   0.523   3.543  14.942 -1.6139  1.3409 -0.8640
 2604SOL    HW219275   0.478   3.503  15.078  1.6829  1.0382 -0.3665
 2605SOL     OW19276   1.670   3.597   3.839 -0.1716  0.0929  0.0857
 2605SOL    HW119277   1.761   3.618   3.863  0.0224 -0.4374 -0.1853
 2605SOL    HW219278   1.637   3.553   3.917  0.8975 -0.4655  0.2285
 2606SOL     OW19279   4.599   2.313   3.057  0.0544  0.5859 -0.6261
 2606SOL    HW119280   4.666   2.302   2.989  0.6759  1.0134 -0.0787
 2606SOL    HW219281   4.588   2.408   3.059  0.7655  0.6537 -0.1981
 2607SOL     OW19282   2.557   1.833   6.248  0.4626 -0.1098  0.1975
 2607SOL    HW119283   2.615   1.906   6.226 -0.4897  0.0857 -1.5878
 2607SOL    HW219284   2.593   1.756   6.203  2.6413  1.0087  0.0105
 2608SOL     OW19285   0.305   2.956   2.020 -0.4136  0.3074  0.8122
 2608SOL    HW119286   0.396   2.930   2.029 -0.5029 -0.0691  0.6213
 2608SOL    HW219287   0.258   2.876   1.998 -2.0188  1.5281 -0.2764
 2609SOL     OW19288   3.148   0.009   4.119  0.1499 -0.4222  0.1422
 2609SOL    HW119289   3.219   4.713   4.181 -0.3269  2.9599  1.5907
 2609SOL    HW219290   3.074   4.689   4.165  0.7551 -0.3840  1.1541
 2610SOL     OW19291   1.029   4.376  10.938 -0.3626  0.0611  0.0457
 2610SOL    HW119292   1.049   4.399  10.848  0.3325  0.3477  0.2706
 2610SOL    HW219293   1.107   4.324  10.957 -0.7900 -0.1069  1.3571
 2611SOL     OW19294   2.248   3.084   7.110 -0.0209  0.7175  0.2037
 2611SOL    HW119295   2.171   3.038   7.078  1.9662 -2.2964 -0.2301
 2611SOL    HW219296   2.305   3.008   7.123  1.1989  1.5890 -0.0326
 2612SOL     OW19297   0.119   2.909   0.469 -0.0118 -0.1970 -0.5370
 2612SOL    HW119298   0.036   2.887   0.427  0.0213  0.7176 -1.0714
 2612SOL    HW219299   0.112   2.841   0.536  1.0503  0.7708  0.5588
 2613SOL     OW19300   0.481   2.622   6.799 -0.7328 -0.3387  0.5389
 2613SOL    HW119301   0.388   2.601   6.797 -0.1115 -2.8707 -1.3658
 2613SOL    HW219302   0.521   2.540   6.770  1.4845  0.1134  2.3286
 2614SOL     OW19303   4.495   0.688   7.230 -0.1258  0.5870 -0.6158
 2614SOL    HW119304   4.587   0.698   7.205 -0.2052  2.5539 -0.1448
 2614SOL    HW219305   4.494   0.760   7.293  0.5242 -1.4427  1.6800
 2615SOL     OW19306   0.578   1.094   2.441 -0.2139  0.0646 -0.3132
 2615SOL    HW119307   0.561   1.188   2.435 -1.2078 -0.1994 -1.7655
 2615SOL    HW219308   0.659   1.085   2.391  1.8491  3.7823  2.4250
 2616SOL     OW19309   0.468   0.804   2.285  0.5694 -0.4022 -0.1731
 2616SOL    HW119310   0.415   0.725   2.279 -0.4766  0.1815  1.4916
 2616SOL    HW219311   0.413   0.840   2.355 -0.8241 -1.6229 -0.6466
 2617SOL     OW19312   1.892   3.235   2.466  0.3301 -0.0944  0.1201
 2617SOL    HW119313   1.920   3.252   2.376 -2.0288 -2.7777 -1.0921
 2617SOL    HW219314   1.799   3.217   2.456  0.3335  0.8561 -1.5350
 2618SOL     OW19315   3.894   4.199  14.256  0.0909  0.6289 -0.0702
 2618SOL    HW119316   3.840   4.276  14.237  0.6841  1.6090  2.2839
 2618SOL    HW219317   3.820   4.139  14.260  1.0816 -0.4171  2.3228
 2619SOL     OW19318   0.711   0.115   3.076 -0.6046 -0.1092 -0.6593
 2619SOL    HW119319   0.748   0.047   3.019 -1.0369  2.0102 -3.4762
 2619SOL    HW219320   0.668   0.165   3.006  0.8043  2.0811  0.0641
 2620SOL     OW19321   4.591   2.268   1.177  0.0949 -1.2084  0.4658
 2620SOL    HW119322   4.616   2.176   1.168  0.0314 -1.1585 -0.1699
 2620SOL    HW219323   4.542   2.259   1.259  0.4243  0.5389  0.8337
 2621SOL     OW19324   1.150   2.760  11.917 -0.2476 -0.3987 -0.2170
 2621SOL    HW119325   1.123   2.679  11.960  0.3148  0.3201  1.5014
 2621SOL    HW219326   1.182   2.733  11.831  1.1393 -3.4829  1.2690
 2622SOL     OW19327   0.292   1.102   7.035 -0.7807  0.2453 -0.1507
 2622SOL    HW119328   0.226   1.151   7.084 -1.1439  1.1024 -1.4959
 2622SOL    HW219329   0.339   1.171   6.989 -1.6026  0.8821 -0.0359
 2623SOL     OW19330   1.984   2.767   2.553  0.4573 -0.5837  0.1739
 2623SOL    HW119331   1.931   2.783   2.631  1.0468  0.0378  0.4515
 2623SOL    HW219332   1.927   2.793   2.480  0.0146  0.3249  0.8493
 2624SOL     OW19333   4.468   2.303   0.584 -0.4095 -0.3582 -0.3892
 2624SOL    HW119334   4.401   2.346   0.637  0.9600 -0.6320  1.5644
 2624SOL    HW219335   4.511   2.264   0.660 -2.9993  0.1816  1.3290
 2625SOL     OW19336   4.165   2.169   8.720 -0.1620  0.0951  0.0913
 2625SOL    HW119337   4.241   2.110   8.726  0.9426  1.2939 -1.9737
 2625SOL    HW219338   4.153   2.192   8.812  1.3854  2.9102 -0.4043
 2626SOL     OW19339   0.907   1.896  12.181  0.1304 -0.0134  0.4862
 2626SOL    HW119340   0.858   1.833  12.234 -1.2048  0.2358 -0.4586
 2626SOL    HW219341   0.995   1.860  12.192 -0.2810 -0.2726  2.8590
 2627SOL     OW19342   4.369   2.544   2.719 -0.2116 -0.0491 -0.2400
 2627SOL    HW119343   4.333   2.484   2.654  1.1173 -2.6245  1.4238
 2627SOL    HW219344   4.442   2.485   2.735 -0.1582  0.1828  0.3507
 2628SOL     OW19345   2.885   4.374   9.763  0.2968  1.0225  0.5521
 2628SOL    HW119346   2.899   4.282   9.787 -1.5083  0.5794 -0.0665
 2628SOL    HW219347   2.823   4.363   9.691  1.3104  1.4218 -0.3927
 2629SOL     OW19348   3.633   3.441   3.023  0.1297 -0.0657 -0.9551
 2629SOL    HW119349   3.587   3.388   2.957 -0.3463 -0.2357 -0.4887
 2629SOL    HW219350   3.716   3.396   3.036 -1.1032 -1.9964  0.2126
 2630SOL     OW19351   4.136   3.958   4.092 -0.0457  0.3444  0.0050
 2630SOL    HW119352   4.162   3.956   4.184  1.9952 -0.3953 -0.5956
 2630SOL    HW219353   4.155   4.047   4.061 -0.9475  0.2231 -0.8837
 2631SOL     OW19354   1.375   4.004   4.926  0.1134  0.1320  0.0014
 2631SOL    HW119355   1.371   3.915   4.892 -0.2747  0.4035 -0.6908
 2631SOL    HW219356   1.281   4.018   4.939  0.4445 -0.6238  3.0492
 2632SOL     OW19357   3.078   3.278   3.968 -0.1552  0.8214 -0.1463
 2632SOL    HW119358   3.052   3.320   4.050 -0.5026  0.6171 -0.1496
 2632SOL    HW219359   3.099   3.189   3.994  1.5457  0.5306 -2.5156
 2633SOL     OW19360   1.910   0.530  11.255 -0.1362 -0.0832  0.2274
 2633SOL    HW119361   1.867   0.590  11.193 -1.4252 -1.9216 -0.6430
 2633SOL    HW219362   1.993   0.519  11.209 -0.9244  1.7081 -1.6364
 2634SOL     OW19363   0.936   1.836   6.806  0.2453 -0.2431 -0.0363
 2634SOL    HW119364   0.941   1.906   6.871 -2.6499  1.2006 -1.4103
 2634SOL    HW219365   1.017   1.840   6.756  0.5715 -0.4988  0.4605
 2635SOL     OW19366   1.205   2.661   4.296 -0.4614  0.2867 -0.1623
 2635SOL    HW119367   1.289   2.616   4.299  0.5217  2.1736  0.9761
 2635SOL    HW219368   1.192   2.650   4.390 -3.3834  2.0244 -0.3629
 2636SOL     OW19369   3.217   1.585   5.218  0.0648 -0.3055  0.0023
 2636SOL    HW119370   3.281   1.546   5.159 -0.5856  3.3331 -3.0805
 2636SOL    HW219371   3.188   1.655   5.160  0.1551 -1.3631 -1.3078
 2637SOL     OW19372   3.368   4.290   6.329 -0.0489  0.6630  0.3046
 2637SOL    HW119373   3.423   4.302   6.251 -1.6309 -2.7600 -1.3149
 2637SOL    HW219374   3.387   4.204   6.364  0.3602  0.0215 -1.4925
 2638SOL     OW19375   0.883   4.434   8.064  0.0158  0.3197 -0.3929
 2638SOL    HW119376   0.884   4.476   8.149  0.4031  0.7944 -0.6310
 2638SOL    HW219377   0.928   4.500   8.012 -1.9314  1.3354 -0.7928
 2639SOL     OW19378   2.355   4.299   7.191 -0.2402  0.3152 -0.0010
 2639SOL    HW119379   2.377   4.353   7.267  1.7154 -1.9694  1.0616
 2639SOL    HW219380   2.277   4.258   7.228  0.6486 -2.9142 -1.6329
 2640SOL     OW19381   2.110   4.049   1.347 -0.6089 -0.5093 -0.0235
 2640SOL    HW119382   2.035   3.990   1.358 -0.3659 -1.0138 -1.0793
 2640SOL    HW219383   2.125   4.059   1.253 -0.4048  0.7305  0.1408
 2641SOL     OW19384   1.664   1.653   9.480  0.4311  0.0461  0.5334
 2641SOL    HW119385   1.734   1.595   9.449 -0.3740 -0.9428  0.5310
 2641SOL    HW219386   1.626   1.689   9.400  1.3275 -0.7347 -0.2576
 2642SOL     OW19387   3.418   1.209   3.540  0.1787  0.7244 -0.2262
 2642SOL    HW119388   3.461   1.230   3.624 -2.9950 -0.4342  1.6753
 2642SOL    HW219389   3.380   1.123   3.559 -0.4082  0.9402 -0.4527
 2643SOL     OW19390   4.062   0.630   5.126 -0.5428  0.3406 -0.1462
 2643SOL    HW119391   4.065   0.629   5.222 -1.4119 -1.2152 -0.1379
 2643SOL    HW219392   4.125   0.701   5.111 -1.4453  0.6022 -2.6910
 2644SOL     OW19393   3.421   1.948   0.192  0.3985  0.3944 -0.4546
 2644SOL    HW119394   3.490   2.006   0.160  1.0615  0.8292  1.7668
 2644SOL    HW219395   3.481   1.877   0.216 -0.6482 -0.0244  0.9019
 2645SOL     OW19396   4.513   3.514  12.897 -0.8267  0.3819  0.2284
 2645SOL    HW119397   4.589   3.552  12.941 -0.5052  0.8397 -0.7117
 2645SOL    HW219398   4.448   3.578  12.927  2.0907  2.5003  2.0077
 2646SOL     OW19399   2.010   2.630   8.861 -0.1512 -0.2190  0.4768
 2646SOL    HW119400   2.064   2.709   8.860 -1.2999  0.5750  0.8454
 2646SOL    HW219401   2.042   2.587   8.782 -0.7501  1.3420 -0.6281
 2647SOL     OW19402   2.737   4.370   5.235  0.5439  0.0071  0.0939
 2647SOL    HW119403   2.668   4.437   5.240  0.0325 -0.4149 -1.4541
 2647SOL    HW219404   2.761   4.343   5.324  0.2015  0.9468  0.4720
 2648SOL     OW19405   4.651   0.740   4.682  0.1637 -0.3891 -0.2462
 2648SOL    HW119406   4.646   0.670   4.618  1.8649 -1.9211  1.2965
 2648SOL    HW219407   4.566   0.746   4.726 -1.0051 -0.6172 -2.4600
 2649SOL     OW19408   4.001   1.529   3.631 -0.3109  0.2525  0.0404
 2649SOL    HW119409   3.916   1.557   3.598 -0.8632 -1.1219  0.2626
 2649SOL    HW219410   4.022   1.451   3.579 -1.1581 -0.2510  0.4397
 2650SOL     OW19411   0.216   2.911   6.753 -0.0098  0.1855  0.4109
 2650SOL    HW119412   0.158   2.844   6.718 -1.8980  2.4472 -0.7762
 2650SOL    HW219413   0.268   2.938   6.677  0.1093 -2.7745 -0.5505
 2651SOL     OW19414   0.733   1.853   4.059 -0.5187  0.1892  0.3464
 2651SOL    HW119415   0.718   1.777   4.115  1.1241 -0.0158  0.5236
 2651SOL    HW219416   0.829   1.851   4.057 -0.4781  1.5595  1.2509
 2652SOL     OW19417   2.748   3.001  11.614  0.2465  0.1975  0.3578
 2652SOL    HW119418   2.752   2.906  11.605 -1.1522  0.2545 -0.8682
 2652SOL    HW219419   2.742   3.018  11.708  2.7698  1.6108  0.2599
 2653SOL     OW19420   2.730   4.091   9.319 -0.0964  0.1240  0.0294
 2653SOL    HW119421   2.703   4.034   9.248  1.2914  0.6723 -0.9357
 2653SOL    HW219422   2.777   4.159   9.270 -1.6298 -0.0384 -1.6429
 2654SOL     OW19423   0.688   0.079   6.875 -0.0311  0.2480  0.0952
 2654SOL    HW119424   0.666   0.015   6.807  0.8626 -2.5308  2.4172
 2654SOL    HW219425   0.653   0.163   6.844 -0.3231 -0.0121 -0.2840
 2655SOL     OW19426   2.893   1.747   0.589  1.0392 -0.9883  0.2017
 2655SOL    HW119427   2.803   1.719   0.602 -0.3294  2.7919 -1.1636
 2655SOL    HW219428   2.901   1.747   0.494  1.1445  0.7805  0.1971
 2656SOL     OW19429   2.880   0.164  12.877  0.1355 -0.6850 -0.0802
 2656SOL    HW119430   2.951   0.154  12.813  0.2199 -0.9060  0.0498
 2656SOL    HW219431   2.905   0.112  12.953 -1.6455  1.2577  1.8219
 2657SOL     OW19432   4.583   4.077  11.391 -0.0516 -0.0513 -0.1958
 2657SOL    HW119433   4.505   4.027  11.366  1.5682 -1.9306 -1.4832
 2657SOL    HW219434   4.619   4.092  11.304 -0.9922 -3.0827 -1.1112
 2658SOL     OW19435   2.657   3.846   5.572 -0.3473 -0.4171 -0.6126
 2658SOL    HW119436   2.622   3.913   5.513  0.2700  0.9718  0.5969
 2658SOL    HW219437   2.750   3.839   5.548 -0.5877 -1.2906 -1.3076
 2659SOL     OW19438   0.308   2.753  15.888  0.1737 -0.4475 -0.0552
 2659SOL    HW119439   0.287   2.781  15.977  0.5277 -2.4275  0.6468
 2659SOL    HW219440   0.224   2.755  15.843 -1.1280 -2.7652  2.2905
 2660SOL     OW19441   0.088   2.411   4.847 -0.1304  0.1782  0.0190
 2660SOL    HW119442   0.046   2.375   4.769 -2.2812  2.6843  0.0280
 2660SOL    HW219443   0.053   2.355   4.915 -1.2543 -1.3169 -1.7919
 2661SOL     OW19444   2.136   4.429   5.314  0.1378  0.1923  0.3836
 2661SOL    HW119445   2.182   4.354   5.352  1.1943 -0.2213 -1.7236
 2661SOL    HW219446   2.045   4.413   5.339 -0.3447  0.9735 -0.8607
 2662SOL     OW19447   1.391   1.001   9.359  0.5160  0.8051 -0.0268
 2662SOL    HW119448   1.473   1.025   9.317  1.2075 -0.0758  0.7980
 2662SOL    HW219449   1.324   1.039   9.303  0.9830 -0.2372 -1.2920
 2663SOL     OW19450   4.639   2.361   0.922  0.3027 -0.2453  0.1233
 2663SOL    HW119451   4.611   2.318   1.003  1.3412  0.3525  0.7899
 2663SOL    HW219452   4.609   2.293   0.861 -2.8786  0.0202  1.3547
 2664SOL     OW19453   2.183   4.333   6.988 -0.2644  0.1673 -0.0770
 2664SOL    HW119454   2.110   4.335   7.050 -0.4791 -0.4440 -0.3130
 2664SOL    HW219455   2.257   4.346   7.048  0.1265  1.9475 -0.9318
 2665SOL     OW19456   0.075   4.517   2.952 -0.1917 -0.3036 -0.2179
 2665SOL    HW119457   4.715   4.494   2.998 -1.3438  2.7203 -0.7418
 2665SOL    HW219458   0.034   4.547   2.871  0.9535 -0.1125 -0.7202
 2666SOL     OW19459   3.202   3.916  13.235  0.4369  0.2488  0.4856
 2666SOL    HW119460   3.147   3.964  13.173  2.0295  2.0328  0.4839
 2666SOL    HW219461   3.270   3.982  13.244  1.5023 -0.7336 -0.2501
 2667SOL     OW19462   3.774   2.938  10.649 -0.2923 -0.0218 -0.1425
 2667SOL    HW119463   3.800   2.899  10.566 -0.0853  1.5438 -0.8023
 2667SOL    HW219464   3.752   2.861  10.702  0.1137  0.1128  0.2210
 2668SOL     OW19465   2.865   1.616  15.825 -0.3087 -0.0823 -0.0826
 2668SOL    HW119466   2.898   1.631  15.914  0.6958  1.2267 -0.6730
 2668SOL    HW219467   2.936   1.655  15.774 -0.8998  0.2260 -0.6569
 2669SOL     OW19468   0.198   4.102  14.463 -0.1710  0.0828  0.1321
 2669SOL    HW119469   0.280   4.151  14.476  0.6412 -1.1954 -0.1905
 2669SOL    HW219470   0.139   4.174  14.486 -0.5968  0.1001 -1.0166
 2670SOL     OW19471   3.281   4.265   8.241  0.4515  0.1356 -0.3929
 2670SOL    HW119472   3.369   4.257   8.205  0.7388  0.3291  0.2682
 2670SOL    HW219473   3.245   4.330   8.181 -0.4838 -0.2805 -0.2748
 2671SOL     OW19474   3.611   1.039  13.744  0.1735 -0.3016 -0.3448
 2671SOL    HW119475   3.623   0.947  13.766  1.3193 -0.4930 -1.8420
 2671SOL    HW219476   3.616   1.084  13.828 -0.3784 -0.4303 -0.2424
 2672SOL     OW19477   0.631   2.469   7.289 -0.3197 -0.2237 -0.7034
 2672SOL    HW119478   0.700   2.405   7.306  1.5378  2.0942  0.4731
 2672SOL    HW219479   0.656   2.502   7.203 -0.5108 -0.6417 -0.9164
 2673SOL     OW19480   1.828   2.732   2.782  0.2117 -0.5561  0.6620
 2673SOL    HW119481   1.812   2.734   2.877 -0.3702 -1.4014  0.5819
 2673SOL    HW219482   1.780   2.649   2.775 -1.3067  0.4841 -1.1294
 2674SOL     OW19483   1.042   4.451   1.720 -0.5688 -0.2385 -0.4712
 2674SOL    HW119484   1.090   4.370   1.701  0.9546  0.5207  0.1668
 2674SOL    HW219485   1.060   4.479   1.809  2.8774 -2.5495 -0.3952
 2675SOL     OW19486   2.198   0.045  13.192  0.5656  0.2273  0.8888
 2675SOL    HW119487   2.195   0.050  13.096  1.1463 -3.0825  0.7019
 2675SOL    HW219488   2.105   0.026  13.192  0.4903  0.5414 -0.5322
 2676SOL     OW19489   1.417   1.624  10.056  0.2705 -0.1415  0.2556
 2676SOL    HW119490   1.353   1.615  10.127  1.2290 -0.2555  1.1136
 2676SOL    HW219491   1.380   1.683   9.991  1.1294 -0.9699 -0.9743
 2677SOL     OW19492   4.288   3.913   8.452  0.3332  0.7677  0.4049
 2677SOL    HW119493   4.301   3.818   8.444  1.2542  0.9022  0.3063
 2677SOL    HW219494   4.373   3.935   8.488 -0.9654  3.1570  2.0051
 2678SOL     OW19495   4.259   0.779   4.129  0.0919  0.2127 -0.3471
 2678SOL    HW119496   4.197   0.711   4.156  0.2119  0.5363  0.7502
 2678SOL    HW219497   4.206   0.858   4.133  2.4260  1.7242  0.4517
 2679SOL     OW19498   0.343   0.525  15.756  0.4165  0.4145 -0.0388
 2679SOL    HW119499   0.324   0.601  15.701 -2.9564  0.2714  0.9789
 2679SOL    HW219500   0.283   0.457  15.727  2.3709 -1.7504  0.9522
 2680SOL     OW19501   1.313   1.998  16.743 -0.5173 -0.0746  0.4345
 2680SOL    HW119502   1.226   2.024  16.712 -1.1713 -0.7958  1.6659
 2680SOL    HW219503   1.291   1.971  16.832 -0.7697  1.0083  0.7039
 2681SOL     OW19504   0.662   4.192   5.124  0.2963 -0.0526  0.6382
 2681SOL    HW119505   0.741   4.220   5.168  0.8483 -1.4887  0.5614
 2681SOL    HW219506   0.598   4.232   5.183 -0.8196 -0.3069 -0.3730
 2682SOL     OW19507   0.297   3.545   5.434 -0.3367 -0.3518 -0.2919
 2682SOL    HW119508   0.331   3.517   5.349  0.3527 -1.1785  0.2434
 2682SOL    HW219509   0.348   3.625   5.445  0.0445 -0.3193 -2.2755
 2683SOL     OW19510   0.278   3.475   3.354 -0.0937  0.0547  0.2700
 2683SOL    HW119511   0.184   3.459   3.350  0.2331 -1.5231 -1.0248
 2683SOL    HW219512   0.286   3.501   3.446  1.2782  2.6727 -0.6065
 2684SOL     OW19513   3.589   4.016  13.000 -0.6128  0.1233  0.3341
 2684SOL    HW119514   3.541   4.095  13.024 -2.1478  0.1666 -2.9715
 2684SOL    HW219515   3.582   3.971  13.084 -3.0656  0.3619  0.2569
 2685SOL     OW19516   4.593   3.691   8.705 -0.5481 -0.1473 -0.5309
 2685SOL    HW119517   4.516   3.740   8.674 -0.7085 -0.0985 -0.0512
 2685SOL    HW219518   4.586   3.695   8.800  0.6783 -1.4523 -0.3857
 2686SOL     OW19519   4.339   4.474   3.576 -0.2103  0.3490  0.5571
 2686SOL    HW119520   4.384   4.526   3.510 -3.2282  1.1125 -0.9388
 2686SOL    HW219521   4.253   4.487   3.534  0.4257 -0.1505 -0.9162
 2687SOL     OW19522   4.208   0.038   3.710  0.7301  0.5006  0.2162
 2687SOL    HW119523   4.184   4.687   3.653  0.5058 -0.5208  1.5912
 2687SOL    HW219524   4.167   0.101   3.651  1.0597  0.2791 -0.2434
 2688SOL     OW19525   4.607   0.395  14.018 -0.2853  0.0778  0.2467
 2688SOL    HW119526   4.570   0.402  13.929 -1.2766  1.2821  0.7520
 2688SOL    HW219527   4.557   0.318  14.045  2.1524 -1.2044  1.0771
 2689SOL     OW19528   4.641   4.029  14.816  0.0202 -0.2820  0.2130
 2689SOL    HW119529   4.704   4.102  14.822  0.8116 -0.9505  0.0129
 2689SOL    HW219530   4.645   4.012  14.722 -1.4902  1.0638 -0.0972
 2690SOL     OW19531   2.421   1.724   4.708  0.0065  0.3696 -0.1731
 2690SOL    HW119532   2.480   1.690   4.640  0.2772  3.4316 -1.4579
 2690SOL    HW219533   2.467   1.721   4.792 -1.6388 -2.0271  0.6418
 2691SOL     OW19534   0.439   0.497   9.191  0.4885 -0.3877  0.0391
 2691SOL    HW119535   0.344   0.509   9.188  0.4728 -0.5845 -0.2438
 2691SOL    HW219536   0.466   0.570   9.248  1.8461 -0.2307 -0.8014
 2692SOL     OW19537   2.426   4.030   5.764 -0.2185 -0.5392 -1.0583
 2692SOL    HW119538   2.452   4.107   5.714 -1.2276  0.4601 -0.0304
 2692SOL    HW219539   2.384   3.980   5.694 -0.8753  1.6511 -2.2130
 2693SOL     OW19540   2.319   0.826   1.840 -0.2166  0.2211 -0.1755
 2693SOL    HW119541   2.285   0.760   1.900 -1.3622  0.5106 -0.4963
 2693SOL    HW219542   2.353   0.885   1.907 -0.5504 -0.7636  0.8477
 2694SOL     OW19543   2.172   4.231   3.329  0.6437 -0.3567 -0.8192
 2694SOL    HW119544   2.231   4.295   3.291  1.5221 -0.8309 -0.2530
 2694SOL    HW219545   2.210   4.149   3.297  1.1008 -1.1363  1.6871
 2695SOL     OW19546   1.355   0.818  10.689  0.1747 -0.1326 -0.5219
 2695SOL    HW119547   1.304   0.885  10.643 -0.0467  0.0965  0.0510
 2695SOL    HW219548   1.374   0.759  10.616  1.0871 -1.1528  0.5458
 2696SOL     OW19549   0.414   3.886   9.089  0.5316 -0.5693  0.1973
 2696SOL    HW119550   0.487   3.882   9.027 -0.3899  1.1395 -0.9994
 2696SOL    HW219551   0.417   3.794   9.115  0.8074 -1.0288 -1.4716
 2697SOL     OW19552   0.668   2.988   4.709  0.1899 -0.6362 -0.3538
 2697SOL    HW119553   0.622   2.992   4.625  0.4807  1.3564 -0.4089
 2697SOL    HW219554   0.739   3.050   4.694  0.0645  0.2932  2.9992
 2698SOL     OW19555   0.946   1.380  12.673 -0.6122  0.0346 -0.0474
 2698SOL    HW119556   0.924   1.470  12.697  1.2581  0.0914  1.4515
 2698SOL    HW219557   0.876   1.336  12.722 -0.2974 -1.2696 -0.7501
 2699SOL     OW19558   4.548   2.137   0.785  0.1860  0.2110 -0.2393
 2699SOL    HW119559   4.475   2.086   0.821 -0.0939  1.3821  0.8508
 2699SOL    HW219560   4.623   2.078   0.793  2.4301  2.8206 -2.2874
 2700SOL     OW19561   0.501   1.275   0.448  0.1750  0.4160  0.7847
 2700SOL    HW119562   0.588   1.236   0.454  0.0578 -0.2266 -1.5769
 2700SOL    HW219563   0.474   1.270   0.356  0.2569 -1.0211  0.8386
 2701SOL     OW19564   4.676   1.030   7.047 -0.2302  0.2772 -0.8015
 2701SOL    HW119565   0.002   1.104   7.086  0.6087 -0.3750 -0.5726
 2701SOL    HW219566   4.583   1.043   7.066 -0.0376  0.6417 -0.0806
 2702SOL     OW19567   4.378   2.036   2.641 -0.3713 -0.1313 -0.5040
 2702SOL    HW119568   4.330   2.049   2.559  0.4916 -1.6366 -1.2455
 2702SOL    HW219569   4.460   2.085   2.628 -0.1900 -0.2523  0.1891
 2703SOL     OW19570   2.092   4.322   6.032 -0.7712  0.4232 -0.1793
 2703SOL    HW119571   2.131   4.242   6.067 -0.0768  0.9845  0.3522
 2703SOL    HW219572   2.147   4.359   5.964 -2.3702  1.6556 -0.8008
 2704SOL     OW19573   0.359   2.893   5.045  0.6806  0.2700 -0.1461
 2704SOL    HW119574   0.440   2.903   4.994  1.2459 -1.0894  0.4860
 2704SOL    HW219575   0.312   2.964   5.002  0.5691  0.0786 -0.3378
 2705SOL     OW19576   3.161   1.381   6.194  0.3083 -0.5614  0.1387
 2705SOL    HW119577   3.215   1.460   6.192  1.5854 -1.4456 -0.8987
 2705SOL    HW219578   3.072   1.416   6.194  0.3493 -0.4365 -1.3730
 2706SOL     OW19579   1.547   1.145   7.306  0.0531 -0.2952 -0.0253
 2706SOL    HW119580   1.536   1.187   7.391 -0.3644 -0.1224 -0.1628
 2706SOL    HW219581   1.580   1.061   7.338 -0.0554 -0.1144  0.5621
 2707SOL     OW19582   0.462   1.398   2.602  0.4191 -0.0802  0.1892
 2707SOL    HW119583   0.524   1.372   2.670  1.2139  0.0045 -0.5023
 2707SOL    HW219584   0.511   1.439   2.532 -0.4598 -0.8099 -0.8571
 2708SOL     OW19585   2.796   1.879   3.076  0.2911  0.0109 -0.4402
 2708SOL    HW119586   2.754   1.941   3.017  1.2278  0.5795 -0.4930
 2708SOL    HW219587   2.881   1.897   3.036  0.7476 -0.0337  0.5225
 2709SOL     OW19588   3.894   1.450  14.654  0.0481  0.4535  0.0568
 2709SOL    HW119589   3.919   1.415  14.569 -0.9326 -0.9867  0.3505
 2709SOL    HW219590   3.915   1.543  14.645  1.1583  0.2888  0.9076
 2710SOL     OW19591   0.359   2.153   7.796 -0.3127  0.2242 -0.3175
 2710SOL    HW119592   0.315   2.115   7.720 -2.6948  0.3274  1.0063
 2710SOL    HW219593   0.289   2.149   7.860  0.9093 -2.7764  0.8641
 2711SOL     OW19594   2.448   4.104   6.054  0.0564 -0.0563 -0.6087
 2711SOL    HW119595   2.478   4.083   5.966  2.2004  2.3377 -0.4480
 2711SOL    HW219596   2.486   4.192   6.061 -0.9837  0.4754 -1.6316
 2712SOL     OW19597   0.017   0.383  17.596  0.3805 -0.0727  0.5613
 2712SOL    HW119598   4.677   0.455  17.579  3.5630  2.3028 -0.7155
 2712SOL    HW219599   4.714   0.322  17.526  1.3132 -0.0806  0.2540
 2713SOL     OW19600   1.870   4.612   5.048 -0.2603 -0.6941  0.5043
 2713SOL    HW119601   1.910   4.570   4.972 -3.3695  0.2395 -1.6408
 2713SOL    HW219602   1.852   4.539   5.108 -0.5139 -1.4175 -0.4521
 2714SOL     OW19603   0.414   4.031   7.817  0.0289 -0.2833 -0.2650
 2714SOL    HW119604   0.461   4.103   7.774  0.4895  0.1030  0.8697
 2714SOL    HW219605   0.452   4.038   7.905 -0.6022  0.9964 -0.0856
 2715SOL     OW19606   3.360   2.536   8.844  0.6011  0.6435 -0.1926
 2715SOL    HW119607   3.340   2.586   8.923 -1.1969  1.1158 -0.9644
 2715SOL    HW219608   3.313   2.456   8.868  0.4630  0.0016 -2.6190
 2716SOL     OW19609   0.855   1.672   5.814  0.0650  0.0323 -0.4302
 2716SOL    HW119610   0.912   1.598   5.794  1.5006  1.0965 -0.3602
 2716SOL    HW219611   0.783   1.654   5.754  0.6805 -1.7181 -0.6367
 2717SOL     OW19612   1.504   4.262   8.619 -0.3381  0.0356 -0.1970
 2717SOL    HW119613   1.450   4.303   8.552 -1.6368  0.3969  1.0667
 2717SOL    HW219614   1.590   4.287   8.585  0.2710 -1.1873  0.4493
 2718SOL     OW19615   4.253   0.011   4.570 -0.1570  0.3214  0.1203
 2718SOL    HW119616   4.272   4.667   4.638  1.8506 -0.6561 -1.3608
 2718SOL    HW219617   4.274   4.680   4.492  2.2555  0.1981  0.8367
 2719SOL     OW19618   2.673   4.199   1.993 -0.6934 -0.3170  0.1115
 2719SOL    HW119619   2.762   4.191   2.028 -1.3282 -0.9110  1.5714
 2719SOL    HW219620   2.645   4.269   2.052  0.3986  0.6897 -0.5571
 2720SOL     OW19621   3.761   2.745   9.520  0.0416  0.6558 -0.3688
 2720SOL    HW119622   3.743   2.685   9.592 -0.7035  1.4130  0.0678
 2720SOL    HW219623   3.730   2.685   9.451  0.1276 -1.2321  1.2245
 2721SOL     OW19624   3.425   2.643  16.680  1.0269  0.2916  1.0201
 2721SOL    HW119625   3.462   2.556  16.671 -0.9089 -0.4567  0.3755
 2721SOL    HW219626   3.427   2.666  16.587 -1.8791 -2.5787  0.2699
 2722SOL     OW19627   4.110   1.474   5.708  0.6320 -0.6432  0.7405
 2722SOL    HW119628   4.105   1.462   5.803  2.0442 -0.5081  0.8294
 2722SOL    HW219629   4.046   1.545   5.700  1.4400 -0.0697 -0.7171
 2723SOL     OW19630   2.257   0.353   5.607 -0.2627  0.2874 -0.1583
 2723SOL    HW119631   2.178   0.333   5.558  1.4126  1.5519 -3.4538
 2723SOL    HW219632   2.243   0.436   5.652  0.4576  1.1462 -1.4848
 2724SOL     OW19633   0.473   1.603   9.121 -0.3603 -0.2526 -0.1081
 2724SOL    HW119634   0.509   1.579   9.206 -0.5803  2.1815  0.6564
 2724SOL    HW219635   0.379   1.597   9.139 -0.5428  0.6146 -0.7859
 2725SOL     OW19636   1.242   0.785   2.794 -0.2728  0.0550  0.4261
 2725SOL    HW119637   1.297   0.791   2.872 -1.1409 -0.0961  1.0437
 2725SOL    HW219638   1.208   0.698   2.815 -0.8862  0.1298 -0.2743
 2726SOL     OW19639   2.986   0.131   5.816  0.6873  0.3381 -0.0740
 2726SOL    HW119640   2.998   0.186   5.893 -0.8823  1.5562 -0.6909
 2726SOL    HW219641   2.893   0.109   5.807  0.0752  2.2932  1.5636
 2727SOL     OW19642   0.961   4.199   4.427 -0.2871  0.3777  0.3313
 2727SOL    HW119643   0.943   4.273   4.485  0.4658  1.1314 -0.3919
 2727SOL    HW219644   0.878   4.184   4.382  1.3488  0.8914 -2.8680
 2728SOL     OW19645   3.089   0.948   9.067  0.5817  0.0492 -0.4321
 2728SOL    HW119646   3.065   0.935   8.976  1.0724 -0.9544 -0.4141
 2728SOL    HW219647   3.185   0.951   9.068  0.6012 -1.0184  1.3690
 2729SOL     OW19648   2.404   2.202   8.574  0.6495  0.2223 -0.3383
 2729SOL    HW119649   2.405   2.116   8.616 -1.3626  0.0223 -0.6773
 2729SOL    HW219650   2.329   2.239   8.620  1.6202 -2.1315  3.0926
 2730SOL     OW19651   3.511   2.479   4.795  0.2717  0.3592  0.1752
 2730SOL    HW119652   3.585   2.526   4.834 -0.1415  0.8011  0.4187
 2730SOL    HW219653   3.542   2.476   4.705  0.1374  0.0507  0.1381
 2731SOL     OW19654   1.999   1.816  11.852  0.0406 -0.1493  0.1784
 2731SOL    HW119655   1.958   1.902  11.862 -0.3982 -0.6215  2.4301
 2731SOL    HW219656   1.979   1.814  11.759  1.6516  1.3301 -0.1980
 2732SOL     OW19657   3.420   3.747   8.868 -0.2327 -0.5992  0.1593
 2732SOL    HW119658   3.504   3.771   8.909  1.4690 -0.1533 -3.5651
 2732SOL    HW219659   3.413   3.808   8.795  2.3228  1.5906  1.7431
 2733SOL     OW19660   2.235   0.106   9.758 -0.5764 -0.1836 -0.3394
 2733SOL    HW119661   2.178   0.034   9.729  0.0369 -0.3710 -1.0904
 2733SOL    HW219662   2.185   0.147   9.828 -0.9051  0.1940 -0.7983
 2734SOL     OW19663   0.173   4.406   9.236  0.0044 -0.2832 -0.2277
 2734SOL    HW119664   0.138   4.468   9.171 -0.4747  3.0472  3.2527
 2734SOL    HW219665   0.108   4.336   9.230  0.4455 -0.6313 -0.9280
 2735SOL     OW19666   1.269   1.827   7.910  0.2212 -0.1787 -0.3305
 2735SOL    HW119667   1.343   1.792   7.861  0.9228  0.8209  0.0139
 2735SOL    HW219668   1.203   1.811   7.843 -0.5256 -0.8380  0.5545
 2736SOL     OW19669   0.630   2.135  14.855  0.3901  0.4571  0.3969
 2736SOL    HW119670   0.687   2.156  14.930  1.9197  0.1643 -0.6793
 2736SOL    HW219671   0.690   2.088  14.798  0.5101  1.0246  0.0545
 2737SOL     OW19672   3.232   2.964   0.404 -0.2480 -0.3437 -0.4081
 2737SOL    HW119673   3.324   2.947   0.424 -1.1339 -3.9787  0.5192
 2737SOL    HW219674   3.223   2.905   0.330 -1.7360 -1.3395  0.5708
 2738SOL     OW19675   0.867   3.981   5.365 -0.1108  0.3811 -0.2451
 2738SOL    HW119676   0.856   4.073   5.339 -0.2996  0.9892  1.9915
 2738SOL    HW219677   0.804   3.937   5.308  0.6303 -0.9514 -0.0260
 2739SOL     OW19678   2.420   2.317   7.112 -0.0688  0.0172  0.3686
 2739SOL    HW119679   2.515   2.323   7.101 -0.0675 -0.6060  0.0235
 2739SOL    HW219680   2.419   2.314   7.208 -0.9115 -0.3803  0.3506
 2740SOL     OW19681   1.525   4.017   2.324  0.2307  0.1271 -0.1172
 2740SOL    HW119682   1.496   4.085   2.264  3.6896  2.9792  1.4588
 2740SOL    HW219683   1.488   3.941   2.280  2.1950 -0.9732  0.1343
 2741SOL     OW19684   3.255   1.377   0.112 -0.2314 -0.0100  0.0967
 2741SOL    HW119685   3.343   1.388   0.074 -1.6969 -0.0476 -3.3177
 2741SOL    HW219686   3.269   1.308   0.176 -0.2981  0.4696  0.6280
 2742SOL     OW19687   1.269   2.496   9.087 -0.0477  0.2319  0.6060
 2742SOL    HW119688   1.234   2.473   9.172 -0.3608 -0.5392  0.2689
 2742SOL    HW219689   1.355   2.453   9.089 -0.1443 -0.1445 -2.0396
 2743SOL     OW19690   3.736   0.149   7.184 -0.3540  0.3345  0.2744
 2743SOL    HW119691   3.769   0.157   7.094  2.2452  1.1518  1.3111
 2743SOL    HW219692   3.693   0.234   7.190 -0.4626  0.1861  1.5629
 2744SOL     OW19693   3.231   0.403   4.922  0.1712  0.3909  0.2683
 2744SOL    HW119694   3.140   0.401   4.951  0.3723  3.6138  1.0540
 2744SOL    HW219695   3.216   0.424   4.830  1.4853 -2.6241 -0.6367
 2745SOL     OW19696   3.962   0.908  12.857 -0.0126 -0.2042 -0.8089
 2745SOL    HW119697   3.906   0.985  12.842 -0.4125 -0.8041 -2.3985
 2745SOL    HW219698   4.041   0.955  12.883 -0.8196  0.5374  0.3126
 2746SOL     OW19699   4.101   0.063  12.246 -0.0940  0.4448 -0.1529
 2746SOL    HW119700   4.170   0.093  12.305  1.6363 -2.8567 -0.5341
 2746SOL    HW219701   4.062   4.711  12.293  0.2840  0.0693 -0.4250
 2747SOL     OW19702   0.081   3.699   1.689  0.1217 -0.2532  0.7220
 2747SOL    HW119703   4.707   3.692   1.703 -0.7404  2.2410 -3.7767
 2747SOL    HW219704   0.083   3.794   1.681  1.4391 -0.2706  0.8958
 2748SOL     OW19705   3.579   2.500   0.034  0.3172  0.0619  0.4476
 2748SOL    HW119706   3.658   2.476   0.082 -0.2355 -3.0618 -0.1859
 2748SOL    HW219707   3.525   2.428   0.066  2.9543 -2.5500 -0.9808
 2749SOL     OW19708   3.190   0.783   2.315  0.0818 -1.0526 -0.0944
 2749SOL    HW119709   3.174   0.804   2.407  2.3337 -0.5479  0.1895
 2749SOL    HW219710   3.256   0.715   2.325 -2.3839 -3.5776 -1.0523
 2750SOL     OW19711   1.512   0.583   0.744  0.1399 -0.2074 -0.0751
 2750SOL    HW119712   1.494   0.554   0.655 -1.2638 -1.7111  0.6873
 2750SOL    HW219713   1.450   0.535   0.801  0.5994  0.0748  0.6616
 2751SOL     OW19714   4.587   3.594   7.871 -0.8017  0.1045 -0.1231
 2751SOL    HW119715   4.663   3.581   7.927 -0.2183 -1.9619 -1.4103
 2751SOL    HW219716   4.538   3.645   7.936 -0.6321  1.7722 -1.3108
 2752SOL     OW19717   0.236   2.354   9.862 -0.6468 -1.2010  0.0705
 2752SOL    HW119718   0.211   2.408   9.937 -1.6030  0.5616 -1.5252
 2752SOL    HW219719   0.332   2.362   9.859 -0.9565  1.7602 -1.1819
 2753SOL     OW19720   4.238   4.088   6.090 -0.5556  0.0050 -0.2284
 2753SOL    HW119721   4.250   4.096   6.184  2.1691  0.8829 -0.6196
 2753SOL    HW219722   4.161   4.144   6.080 -0.1060  0.4613 -1.2282
 2754SOL     OW19723   3.874   2.381  13.066 -0.2744  0.5046 -0.2493
 2754SOL    HW119724   3.814   2.363  12.994  0.4851  0.7022 -0.9321
 2754SOL    HW219725   3.842   2.324  13.136 -1.0990  2.5934  1.0555
 2755SOL     OW19726   2.949   0.456   7.421  0.2011 -0.4105 -0.5696
 2755SOL    HW119727   2.980   0.546   7.419 -0.8637 -0.0201  1.0837
 2755SOL    HW219728   2.928   0.457   7.328 -0.1228 -3.1256 -0.5355
 2756SOL     OW19729   4.460   2.863   3.636 -0.1881  0.1603 -0.0825
 2756SOL    HW119730   4.367   2.847   3.616 -0.3053 -1.9963  2.1862
 2756SOL    HW219731   4.465   2.950   3.597 -0.1190  0.6411  1.0204
 2757SOL     OW19732   4.252   3.226   1.402 -0.1729  0.9061 -0.2483
 2757SOL    HW119733   4.299   3.242   1.320  0.2828 -3.5908 -0.8638
 2757SOL    HW219734   4.226   3.317   1.420 -1.1968  0.8833 -1.5901
 2758SOL     OW19735   1.611   3.857   2.541  0.2620  0.1890  0.2188
 2758SOL    HW119736   1.609   3.897   2.454 -2.9411  0.7266  0.5118
 2758SOL    HW219737   1.520   3.826   2.545 -0.0789  1.1793  0.2635
 2759SOL     OW19738   1.295   3.691   7.636 -0.2154 -0.8159 -0.6969
 2759SOL    HW119739   1.314   3.761   7.574  1.2933 -1.4697 -0.9672
 2759SOL    HW219740   1.209   3.669   7.601 -1.2539  1.6610  0.2467
 2760SOL     OW19741   0.551   1.665   3.163  0.2145  0.1986 -0.0651
 2760SOL    HW119742   0.528   1.645   3.072  1.2985  1.1074 -0.5360
 2760SOL    HW219743   0.577   1.579   3.196 -0.8854 -0.1350 -0.0418
 2761SOL     OW19744   1.751   1.491   2.941 -0.0022 -0.3021 -0.4690
 2761SOL    HW119745   1.822   1.459   2.884  0.6272  0.1002  0.0860
 2761SOL    HW219746   1.742   1.581   2.909  0.6702 -0.0619  0.0292
 2762SOL     OW19747   3.741   1.448   7.100  0.3969 -0.2185 -0.4982
 2762SOL    HW119748   3.710   1.442   7.191  1.6369 -1.3887 -0.1483
 2762SOL    HW219749   3.793   1.528   7.094 -0.3058  0.2986  0.2700
 2763SOL     OW19750   0.087   1.719   5.335  0.1279  0.4742  0.4380
 2763SOL    HW119751   0.136   1.704   5.416  2.2877  0.6669 -0.8281
 2763SOL    HW219752   0.146   1.758   5.271  0.7472  0.6705  1.1282
 2764SOL     OW19753   1.327   3.008   7.984  0.0062  0.6884 -0.1781
 2764SOL    HW119754   1.337   2.978   8.075  0.6626 -0.0713 -0.5057
 2764SOL    HW219755   1.266   2.938   7.960  0.3114  0.6234 -0.7613
 2765SOL     OW19756   3.617   4.483   2.215 -0.0033  0.1640  0.1432
 2765SOL    HW119757   3.620   4.569   2.257 -0.5233  0.8689 -1.2604
 2765SOL    HW219758   3.677   4.433   2.270 -1.7366 -0.8289  1.1031
 2766SOL     OW19759   2.678   3.369   8.016 -0.3937  0.1496 -0.3572
 2766SOL    HW119760   2.674   3.434   7.945 -2.4108 -0.0278 -0.4115
 2766SOL    HW219761   2.660   3.287   7.971  1.3633  0.4377 -1.6104
 2767SOL     OW19762   0.132   4.229   4.674 -0.0103 -0.3329  0.5494
 2767SOL    HW119763   0.074   4.187   4.610  0.3910  0.2170 -0.1716
 2767SOL    HW219764   0.191   4.269   4.610 -0.9860  0.3263  0.0551
 2768SOL     OW19765   1.609   3.569   7.642 -0.1235  0.3181 -0.0195
 2768SOL    HW119766   1.679   3.609   7.693  0.2588 -2.8630  1.9706
 2768SOL    HW219767   1.593   3.640   7.580 -0.6751  1.1402  1.0619
 2769SOL     OW19768   1.838   3.159   5.391  0.3484 -0.1842  0.8348
 2769SOL    HW119769   1.764   3.162   5.452  1.8239  3.6074  2.4741
 2769SOL    HW219770   1.835   3.066   5.368  0.4669 -0.5217  2.1399
 2770SOL     OW19771   2.309   4.405   2.015  0.0717  0.3221 -0.9435
 2770SOL    HW119772   2.270   4.491   2.027 -2.3041 -0.8941  0.0687
 2770SOL    HW219773   2.404   4.416   2.023 -0.3108  2.4384  0.4712
 2771SOL     OW19774   3.890   0.062   7.890  0.0350  0.3076  0.2811
 2771SOL    HW119775   3.982   0.052   7.869  0.1279  1.5424  0.0732
 2771SOL    HW219776   3.900   0.022   7.976 -2.0202  1.0895  0.8884
 2772SOL     OW19777   0.358   4.090   9.250  0.2256  0.3033 -0.1945
 2772SOL    HW119778   0.386   4.013   9.201 -1.7463  0.1738 -1.1255
 2772SOL    HW219779   0.265   4.067   9.255  0.6601 -0.9466  1.8601
 2773SOL     OW19780   3.425   0.626   6.781  0.1618 -0.1192 -0.0091
 2773SOL    HW119781   3.452   0.535   6.772 -3.7078 -1.5010  2.6069
 2773SOL    HW219782   3.467   0.651   6.863 -0.6144  0.7012  0.1391
 2774SOL     OW19783   0.498   3.674   3.737 -0.5923  0.1413  0.5859
 2774SOL    HW119784   0.465   3.764   3.736  2.2310  1.1446 -1.1292
 2774SOL    HW219785   0.489   3.645   3.828  0.7383 -1.8598  0.0973
 2775SOL     OW19786   2.469   3.568   8.206  0.0184 -0.0913 -0.1058
 2775SOL    HW119787   2.438   3.655   8.230 -1.0936 -0.1977 -1.1682
 2775SOL    HW219788   2.403   3.515   8.250 -1.7759  0.3025 -2.3199
 2776SOL     OW19789   2.890   4.325  10.064  0.5240 -0.0051  0.6126
 2776SOL    HW119790   2.802   4.328  10.103  0.2957  0.6188  0.0633
 2776SOL    HW219791   2.907   4.236  10.034 -0.0786 -0.1220  0.6046
 2777SOL     OW19792   0.999   2.647   7.462 -0.0252  0.2674 -0.5277
 2777SOL    HW119793   0.996   2.554   7.440  3.9838 -0.2013  0.9128
 2777SOL    HW219794   0.913   2.664   7.501 -0.3950 -0.0595 -1.2057
 2778SOL     OW19795   1.749   3.181   1.113 -0.4701  0.6267 -0.5881
 2778SOL    HW119796   1.757   3.217   1.024  0.5417  1.4556 -0.1562
 2778SOL    HW219797   1.839   3.173   1.143 -0.6140  0.6651 -0.1381
 2779SOL     OW19798   4.082   1.986   8.197  0.1214 -0.2131 -0.1580
 2779SOL    HW119799   4.041   1.904   8.171  2.2755 -1.4127  0.2607
 2779SOL    HW219800   4.016   2.028   8.253 -0.4260 -1.7479  0.3462
 2780SOL     OW19801   1.226   4.586   7.012  0.3566  0.0686 -0.4449
 2780SOL    HW119802   1.275   4.505   6.998  1.2764  1.0233 -2.7126
 2780SOL    HW219803   1.300   4.644   7.029  0.1145 -0.1093  1.2831
 2781SOL     OW19804   0.539   1.095  13.696 -0.7958 -0.6655 -0.7236
 2781SOL    HW119805   0.609   1.059  13.749 -1.5377 -1.2059 -0.1136
 2781SOL    HW219806   0.492   1.149  13.760  0.7911 -1.2798  0.9325
 2782SOL     OW19807   3.280   2.754   9.015  0.6454  0.4988  0.1858
 2782SOL    HW119808   3.256   2.793   8.931 -1.8200  2.4664  1.8094
 2782SOL    HW219809   3.363   2.798   9.035  1.5632 -0.5246 -1.2761
 2783SOL     OW19810   0.981   2.039   3.532 -0.1725  0.4115  0.1773
 2783SOL    HW119811   0.982   2.050   3.437  0.2383 -0.6191  0.0665
 2783SOL    HW219812   0.933   2.116   3.563  1.4237  1.5758 -0.2347
 2784SOL     OW19813   2.569   0.168   5.003  0.4299  0.1314  0.2296
 2784SOL    HW119814   2.485   0.208   5.027  0.6185  0.1738  0.8247
 2784SOL    HW219815   2.615   0.217   5.071  1.2214 -0.1038 -0.1400
 2785SOL     OW19816   2.644   1.600   0.991 -0.1295 -0.5056  0.6764
 2785SOL    HW119817   2.700   1.642   0.925  0.0717 -1.5785  0.1602
 2785SOL    HW219818   2.697   1.615   1.069  1.1299 -2.7930  0.2664
 2786SOL     OW19819   1.311   1.580   9.106 -0.1364  0.1017 -0.2905
 2786SOL    HW119820   1.243   1.647   9.098 -0.8720 -0.6346 -0.1412
 2786SOL    HW219821   1.307   1.540   9.193  0.2535  2.0996  0.6459
 2787SOL     OW19822   2.517   1.286   5.816 -0.1132  0.3836 -0.3184
 2787SOL    HW119823   2.520   1.272   5.721  1.3028  2.4903 -0.5889
 2787SOL    HW219824   2.609   1.308   5.830 -0.1359  1.1630 -1.4401
 2788SOL     OW19825   4.235   4.571  17.089  0.1902  0.1209 -0.8537
 2788SOL    HW119826   4.255   4.658  17.055  1.2241  0.1360 -0.1935
 2788SOL    HW219827   4.320   4.529  17.074 -1.2506 -2.5005 -1.8245
 2789SOL     OW19828   0.707   0.242   1.918  0.0477  0.2600 -0.1856
 2789SOL    HW119829   0.618   0.207   1.912  0.2022 -0.0705 -0.5914
 2789SOL    HW219830   0.744   0.204   1.838  1.3894 -2.4387  1.6872
 2790SOL     OW19831   2.004   4.706   2.389  0.7350  0.1311 -0.9089
 2790SOL    HW119832   1.985   4.714   2.295 -0.3314 -2.7947 -0.9395
 2790SOL    HW219833   2.066   4.633   2.383 -0.3650 -0.8508 -0.3267
 2791SOL     OW19834   4.422   1.446   5.819  0.1174 -0.3295  0.1561
 2791SOL    HW119835   4.401   1.532   5.781  1.8542 -0.3679 -0.8787
 2791SOL    HW219836   4.428   1.471   5.911 -3.3927  0.2523  0.2312
 2792SOL     OW19837   3.043   1.053   1.158  0.6518 -0.5246 -0.3046
 2792SOL    HW119838   3.011   1.143   1.161  1.9303 -0.0922  0.7464
 2792SOL    HW219839   2.958   1.008   1.160 -0.6703  2.0701  1.4387
 2793SOL     OW19840   4.248   3.435   6.407 -0.1835 -0.3006  0.3481
 2793SOL    HW119841   4.241   3.390   6.322 -1.5506 -0.3196  0.4623
 2793SOL    HW219842   4.271   3.525   6.386 -0.2944 -0.2498  0.4441
 2794SOL     OW19843   3.610   1.893  17.428  0.3905 -0.2606 -0.6264
 2794SOL    HW119844   3.635   1.823  17.367 -0.6991 -0.9183 -0.3220
 2794SOL    HW219845   3.569   1.843  17.498  0.0847 -0.9844 -1.3174
 2795SOL     OW19846   0.580   2.505   9.294  0.5620 -0.1261 -0.1002
 2795SOL    HW119847   0.604   2.568   9.363 -2.4599  1.7128 -0.7204
 2795SOL    HW219848   0.490   2.536   9.282 -0.0845 -1.8773  0.2246
 2796SOL     OW19849   1.679   3.225   4.410  0.2831  0.1002 -0.3044
 2796SOL    HW119850   1.618   3.217   4.336  0.8383  0.0328 -0.7592
 2796SOL    HW219851   1.758   3.203   4.360  0.8150  1.7478 -0.1959
 2797SOL     OW19852   2.814   4.334   2.646  0.0360 -0.2609 -0.0906
 2797SOL    HW119853   2.764   4.304   2.722  0.2304 -0.5217 -0.0660
 2797SOL    HW219854   2.776   4.280   2.576 -3.1629 -0.9533  2.1718
 2798SOL     OW19855   3.063   3.304   3.707 -0.1045 -0.5099 -0.7564
 2798SOL    HW119856   3.072   3.271   3.796 -0.1619  1.5133  0.0144
 2798SOL    HW219857   3.058   3.398   3.727  0.9816 -0.4019 -1.0113
 2799SOL     OW19858   4.414   2.412   3.922 -0.5733  0.1122  0.5202
 2799SOL    HW119859   4.441   2.484   3.865  1.8291 -1.7318 -0.6718
 2799SOL    HW219860   4.352   2.369   3.864 -0.5253 -0.4757  0.9043
 2800SOL     OW19861   1.841   4.030   6.585 -0.1639 -0.1211 -0.5345
 2800SOL    HW119862   1.888   4.093   6.640 -0.3834  1.4803 -2.1948
 2800SOL    HW219863   1.884   4.050   6.502  0.1032  2.3783  0.2006
 2801SOL     OW19864   3.856   0.508   2.802 -0.1286 -1.0504 -0.3387
 2801SOL    HW119865   3.824   0.485   2.714  1.0986 -0.1941 -0.9994
 2801SOL    HW219866   3.925   0.572   2.787 -1.1804 -0.0501 -0.9611
 2802SOL     OW19867   2.606   0.907  12.899  0.3778 -0.2315 -0.4930
 2802SOL    HW119868   2.644   0.832  12.944 -1.1984  0.0586  1.3270
 2802SOL    HW219869   2.558   0.866  12.827 -2.3584  0.7186  0.8041
 2803SOL     OW19870   0.047   3.369   6.842  0.0264  0.2742 -0.7281
 2803SOL    HW119871   0.087   3.320   6.913  0.2281 -1.9241 -2.3676
 2803SOL    HW219872   0.122   3.378   6.782  1.4369 -1.0822  0.8416
 2804SOL     OW19873   0.376   0.265   6.221  0.0281 -0.1510  0.0595
 2804SOL    HW119874   0.406   0.345   6.177 -0.0436 -0.1971 -0.0741
 2804SOL    HW219875   0.311   0.232   6.159 -0.0523  0.2634 -0.0787
 2805SOL     OW19876   4.175   1.634  13.729  0.5361  0.0036  0.0921
 2805SOL    HW119877   4.247   1.657  13.787  0.9396 -1.0959  0.0314
 2805SOL    HW219878   4.148   1.710  13.678  0.0316  0.1839  0.6255
 2806SOL     OW19879   0.521   1.585   1.340 -1.0480 -0.0427 -0.1746
 2806SOL    HW119880   0.534   1.631   1.257  0.8752 -0.4056 -0.0764
 2806SOL    HW219881   0.442   1.538   1.315 -0.9363 -1.4768  2.1971
 2807SOL     OW19882   3.153   4.696  13.818 -0.5592  0.1083 -0.4761
 2807SOL    HW119883   3.214   4.647  13.764 -0.5843 -0.4840  0.0349
 2807SOL    HW219884   3.156   4.650  13.902 -0.5577  0.0675 -0.4982
 2808SOL     OW19885   0.786   2.250   2.540  0.5233 -0.6620  0.4659
 2808SOL    HW119886   0.857   2.241   2.604  0.4226  0.1190  0.6911
 2808SOL    HW219887   0.842   2.256   2.463 -0.4942  2.4261 -0.0297
 2809SOL     OW19888   1.177   2.393  12.738  0.5288 -0.1446  0.6055
 2809SOL    HW119889   1.195   2.485  12.721 -3.1321  0.0629 -2.1393
 2809SOL    HW219890   1.202   2.366  12.650  0.6004  0.9076  0.3040
 2810SOL     OW19891   1.277   2.388   9.338  0.3732  0.0915 -0.2741
 2810SOL    HW119892   1.365   2.383   9.302 -0.3402 -0.5985 -1.9226
 2810SOL    HW219893   1.288   2.434   9.421 -0.8949 -0.1537  0.0373
 2811SOL     OW19894   1.755   2.245   8.532  0.4579 -0.3835 -0.0937
 2811SOL    HW119895   1.787   2.200   8.610  0.0353 -0.0191  0.2861
 2811SOL    HW219896   1.711   2.322   8.567  0.2803 -0.6708  0.3059
 2812SOL     OW19897   0.158   0.777   0.771  0.2445 -0.6451  0.7915
 2812SOL    HW119898   0.126   0.791   0.682  1.7303  0.1399  0.3729
 2812SOL    HW219899   0.208   0.858   0.782 -0.1567 -0.3820  0.6890
 2813SOL     OW19900   4.328   2.732   8.920 -0.8224 -0.2193 -0.0588
 2813SOL    HW119901   4.415   2.723   8.880 -0.0129 -0.7479  1.8071
 2813SOL    HW219902   4.345   2.798   8.987 -0.1108  0.6725 -1.1181
 2814SOL     OW19903   1.580   2.343   9.387  0.5646 -0.2071 -0.5713
 2814SOL    HW119904   1.642   2.269   9.383  1.2807  0.3333  0.6294
 2814SOL    HW219905   1.632   2.403   9.333 -0.0549  1.2496  0.4627
 2815SOL     OW19906   3.290   4.045   7.234 -0.0191  0.2243  0.1418
 2815SOL    HW119907   3.383   4.054   7.255 -0.0334 -1.5005  0.9218
 2815SOL    HW219908   3.274   4.079   7.146  1.3849 -1.3921 -0.7121
 2816SOL     OW19909   2.470   3.052   4.331 -0.0411 -0.2940  0.1738
 2816SOL    HW119910   2.409   2.982   4.354  0.3308 -1.1179 -1.3273
 2816SOL    HW219911   2.438   3.056   4.241 -1.5674 -0.4929  0.7115
 2817SOL     OW19912   4.298   0.812   2.864 -0.2390  0.1931  0.3012
 2817SOL    HW119913   4.316   0.753   2.937 -0.8851  0.1576  0.4282
 2817SOL    HW219914   4.304   0.741   2.800  0.2337 -1.3001  2.0149
 2818SOL     OW19915   0.477   2.905   5.406  0.8291 -0.0079  0.6850
 2818SOL    HW119916   0.557   2.942   5.368 -0.1413  1.6637  0.2620
 2818SOL    HW219917   0.449   2.857   5.328 -0.3460  2.1441 -0.2021
 2819SOL     OW19918   1.909   3.028   5.739 -0.9580  0.6635 -0.6800
 2819SOL    HW119919   1.979   3.023   5.805 -1.1438 -1.9901 -0.6780
 2819SOL    HW219920   1.962   2.994   5.667  1.1850  0.3178  1.0446
 2820SOL     OW19921   1.698   2.537   4.645  0.0498  0.0642 -0.1206
 2820SOL    HW119922   1.759   2.464   4.658  0.4097  0.2725 -0.6249
 2820SOL    HW219923   1.671   2.561   4.734 -0.8374  0.1438 -0.4135
 2821SOL     OW19924   0.724   1.190  16.961  0.2259  0.5343  0.0026
 2821SOL    HW119925   0.680   1.183  16.877 -1.6262 -2.4142  1.2352
 2821SOL    HW219926   0.804   1.240  16.942  1.0569  0.0196  2.1122
 2822SOL     OW19927   3.262   3.354   6.499  0.2432  0.2038 -0.5917
 2822SOL    HW119928   3.310   3.322   6.575 -2.1064  0.0333  0.8162
 2822SOL    HW219929   3.329   3.421   6.481  1.4763 -0.9484 -0.2878
 2823SOL     OW19930   2.333   2.551  15.161 -0.4768 -0.0239  0.1067
 2823SOL    HW119931   2.387   2.479  15.194 -2.6530 -1.2244  1.0511
 2823SOL    HW219932   2.301   2.591  15.241  2.7294  1.7249  0.5127
 2824SOL     OW19933   3.741   0.340   6.102  0.7200  0.5638 -0.2919
 2824SOL    HW119934   3.812   0.402   6.082  0.6009  1.9579  3.4463
 2824SOL    HW219935   3.765   0.321   6.193  0.8128 -0.8258 -0.6074
 2825SOL     OW19936   3.088   2.083   9.419 -0.5847  0.6081 -0.2684
 2825SOL    HW119937   3.120   2.164   9.460  0.7815  0.5653 -1.2304
 2825SOL    HW219938   3.057   2.035   9.496  1.3769  2.1850  1.4934
 2826SOL     OW19939   2.863   4.083   9.894  0.1132 -0.0892  0.0477
 2826SOL    HW119940   2.781   4.054   9.936 -0.1740  2.5579  1.3240
 2826SOL    HW219941   2.903   3.997   9.882 -0.1353 -0.2295  0.2174
 2827SOL     OW19942   0.797   2.537  11.107 -0.8638 -0.0024  0.2852
 2827SOL    HW119943   0.844   2.596  11.166  0.3758 -0.1266 -0.5906
 2827SOL    HW219944   0.765   2.595  11.038 -0.2511 -0.1675 -0.1358
 2828SOL     OW19945   3.251   1.686   0.274 -0.3636  0.0645  0.2453
 2828SOL    HW119946   3.335   1.707   0.233 -0.8613 -2.6321 -2.1139
 2828SOL    HW219947   3.263   1.703   0.367  0.3091  0.5416  0.0666
 2829SOL     OW19948   1.776   1.027  17.024 -0.0116  0.3254 -0.1229
 2829SOL    HW119949   1.783   1.114  17.064  0.6517  0.8674 -1.3999
 2829SOL    HW219950   1.751   1.061  16.938  2.6453 -0.5604 -1.2320
 2830SOL     OW19951   0.295   1.260   6.449  0.1176 -0.1443  0.0927
 2830SOL    HW119952   0.231   1.219   6.390 -0.0317 -1.6059  1.2722
 2830SOL    HW219953   0.337   1.311   6.380 -1.6511  1.3865  0.1384
 2831SOL     OW19954   2.012   2.849   7.745  0.0912 -0.3162 -0.0656
 2831SOL    HW119955   1.945   2.786   7.774  0.0779 -0.2469  0.0565
 2831SOL    HW219956   1.958   2.928   7.747  1.0929  0.3323  1.3086
 2832SOL     OW19957   3.811   2.736  13.721  0.4376  0.2247  0.3932
 2832SOL    HW119958   3.845   2.720  13.633 -1.0514  2.0496 -0.4984
 2832SOL    HW219959   3.816   2.831  13.724 -1.5285  0.3349  0.1587
 2833SOL     OW19960   1.930   1.708  14.961 -0.7769  0.6211 -0.0271
 2833SOL    HW119961   1.989   1.783  14.963 -1.1983  0.9799 -1.8496
 2833SOL    HW219962   1.893   1.725  14.875 -2.6198  1.5339  0.9267
 2834SOL     OW19963   3.745   3.670  15.871 -0.6375  0.3417  0.1798
 2834SOL    HW119964   3.741   3.574  15.865  0.7736  0.4380 -2.5134
 2834SOL    HW219965   3.773   3.687  15.961  1.4953  0.9699 -0.5948
 2835SOL     OW19966   4.307   2.258   2.273 -0.0081  0.0883 -0.0254
 2835SOL    HW119967   4.291   2.241   2.180 -1.5736  1.9180 -0.0807
 2835SOL    HW219968   4.239   2.207   2.318 -1.0551  1.4962 -0.0252
 2836SOL     OW19969   0.232   0.322   7.710 -0.0939 -0.3265  0.0488
 2836SOL    HW119970   0.246   0.416   7.698  1.9773 -0.5238  0.8194
 2836SOL    HW219971   0.307   0.287   7.662  2.3329  1.0649  2.8605
 2837SOL     OW19972   3.485   1.908   7.140  0.0162  0.4462  0.6827
 2837SOL    HW119973   3.540   1.967   7.090 -1.9395  0.5262 -1.3659
 2837SOL    HW219974   3.505   1.829   7.091  0.4941 -0.8555  2.9487
 2838SOL     OW19975   3.795   2.411   5.491 -0.0170 -0.3025 -0.8010
 2838SOL    HW119976   3.889   2.424   5.473  0.1415  0.6825  0.7440
 2838SOL    HW219977   3.765   2.482   5.548 -0.4515 -0.6610 -0.5884
 2839SOL     OW19978   3.089   3.175   2.395  0.6200 -0.3470 -0.6515
 2839SOL    HW119979   3.138   3.093   2.398 -1.9558 -1.8741 -0.4049
 2839SOL    HW219980   3.001   3.148   2.420  0.1123  0.0372 -2.0212
 2840SOL     OW19981   4.287   4.633   5.995 -0.5466 -0.3767  0.2404
 2840SOL    HW119982   4.243   4.596   5.919 -0.0678 -0.6144  0.0801
 2840SOL    HW219983   4.319   4.714   5.954 -4.0370  1.5130  1.2554
 2841SOL     OW19984   0.422   4.034   3.075 -0.1404 -0.1699 -0.3803
 2841SOL    HW119985   0.439   4.128   3.083  0.2392 -0.1883 -0.9046
 2841SOL    HW219986   0.475   4.001   3.147 -2.0086 -1.8744  0.2184
 2842SOL     OW19987   2.433   2.530   7.718  0.6397 -0.0154 -0.6074
 2842SOL    HW119988   2.345   2.499   7.697  0.4585 -0.0829  0.2444
 2842SOL    HW219989   2.410   2.574   7.800 -0.0261 -0.1069 -0.7409
 2843SOL     OW19990   4.642   3.832  15.422 -0.3989  0.4293 -0.8218
 2843SOL    HW119991   0.007   3.808  15.457 -1.1827  0.2919  1.0586
 2843SOL    HW219992   4.647   3.927  15.411  1.1862  0.4663  0.1453
 2844SOL     OW19993   0.619   0.146   6.259  0.1526 -0.3408 -0.5141
 2844SOL    HW119994   0.527   0.173   6.261 -0.5377 -2.7515  0.4130
 2844SOL    HW219995   0.625   0.153   6.163  0.9430  1.0787 -0.3705
 2845SOL     OW19996   3.275   1.213   8.643  0.6145 -0.6342 -0.2586
 2845SOL    HW119997   3.300   1.131   8.684 -1.1066 -1.2878 -0.5090
 2845SOL    HW219998   3.192   1.236   8.685  0.1707  0.5800 -1.7987
 2846SOL     OW19999   0.270   3.495  13.533 -0.2776  0.3981  0.2112
 2846SOL    HW120000   0.204   3.559  13.560 -0.1058  0.4455  0.5121
 2846SOL    HW220001   0.293   3.526  13.445  0.2718 -0.2321  0.1317
 2847SOL     OW20002   2.081   0.325   9.589 -0.1698 -0.0057  0.8603
 2847SOL    HW120003   2.059   0.247   9.539 -1.9936  1.6249 -0.9102
 2847SOL    HW220004   2.064   0.296   9.679  3.1614 -2.6976  0.6096
 2848SOL     OW20005   4.576   2.613   8.122 -0.3852  0.0272  0.2837
 2848SOL    HW120006   4.655   2.561   8.129  0.9378  1.9709 -0.0583
 2848SOL    HW220007   4.585   2.674   8.049 -1.0810  1.7442  1.6237
 2849SOL     OW20008   0.258   2.346   3.853  0.0360 -0.6098 -0.3703
 2849SOL    HW120009   0.193   2.385   3.912  0.4703  0.6138 -0.7117
 2849SOL    HW220010   0.212   2.264   3.831 -0.6320 -0.5587  0.8162
 2850SOL     OW20011   2.806   0.766   7.475 -0.1797 -0.3861 -0.0576
 2850SOL    HW120012   2.884   0.750   7.422 -1.6526 -0.1530 -2.3081
 2850SOL    HW220013   2.850   0.825   7.535  0.2993 -0.3527 -0.4388
 2851SOL     OW20014   1.439   0.044  10.194  0.2906 -0.7630 -0.1185
 2851SOL    HW120015   1.450   0.130  10.154 -1.4319 -0.2072  0.5865
 2851SOL    HW220016   1.375   0.007  10.133 -0.7474 -0.2557  0.6511
 2852SOL     OW20017   4.308   4.581   7.641 -0.1654  0.0095  0.1844
 2852SOL    HW120018   4.362   4.636   7.584 -1.0458  0.8385  0.1422
 2852SOL    HW220019   4.359   4.501   7.651 -0.4442 -0.0910  0.7854
 2853SOL     OW20020   0.973   0.800   4.272 -0.1072  0.2633  0.4963
 2853SOL    HW120021   0.961   0.874   4.332 -0.7735 -0.4628  1.2735
 2853SOL    HW220022   0.970   0.733   4.341 -1.9563  0.3596  0.5312
 2854SOL     OW20023   3.876   1.775   6.324  0.0636  0.3869  0.1882
 2854SOL    HW120024   3.848   1.784   6.415 -1.1192  1.1569 -0.2480
 2854SOL    HW220025   3.922   1.858   6.318  1.9972 -0.9096 -3.0164
 2855SOL     OW20026   2.667   3.850   9.182  0.0644 -0.0278  0.0446
 2855SOL    HW120027   2.727   3.814   9.118  2.0683  1.2754  1.2038
 2855SOL    HW220028   2.623   3.773   9.220 -0.4518 -0.0568 -0.6240
 2856SOL     OW20029   2.603   0.802   4.251  0.0000  0.0013 -0.6074
 2856SOL    HW120030   2.512   0.825   4.233 -0.3489 -0.5009  0.5057
 2856SOL    HW220031   2.615   0.729   4.189 -2.9835 -0.6843 -0.4275
 2857SOL     OW20032   2.342   2.954  10.589 -0.1785  0.5346  0.1733
 2857SOL    HW120033   2.263   2.986  10.634 -0.3554  1.5277 -0.8325
 2857SOL    HW220034   2.367   3.038  10.551 -1.3771  2.1025  2.8449
 2858SOL     OW20035   1.434   1.801   5.293  0.2909  0.2300  0.6084
 2858SOL    HW120036   1.345   1.830   5.276  0.2069 -1.5214 -1.9631
 2858SOL    HW220037   1.469   1.889   5.304 -0.7645  0.8456 -1.0385
 2859SOL     OW20038   3.228   3.377   5.938  0.1133  0.3805  0.2676
 2859SOL    HW120039   3.230   3.433   6.016  0.0809  2.0133 -0.9169
 2859SOL    HW220040   3.312   3.395   5.896  1.1157 -0.3064  1.9886
 2860SOL     OW20041   2.123   3.369   6.430 -0.2086  0.1143 -0.0269
 2860SOL    HW120042   2.207   3.337   6.463  0.3015  2.2657  0.7496
 2860SOL    HW220043   2.068   3.312   6.484  0.2776 -0.4850 -0.1637
 2861SOL     OW20044   4.183   3.179   5.156  0.6083 -0.0596 -0.3996
 2861SOL    HW120045   4.199   3.272   5.139  0.0174 -0.1450 -1.4483
 2861SOL    HW220046   4.268   3.147   5.125  1.3268 -0.6098  2.1948
 2862SOL     OW20047   4.065   2.164  11.737 -0.2649 -0.3203  0.1513
 2862SOL    HW120048   4.125   2.175  11.663  0.0280 -0.5317  0.3571
 2862SOL    HW220049   4.093   2.230  11.801  1.1922 -1.0129  0.2192
 2863SOL     OW20050   4.306   0.833   6.297  0.2472 -0.2718 -0.0260
 2863SOL    HW120051   4.271   0.895   6.361 -0.0967 -0.9619  0.4561
 2863SOL    HW220052   4.394   0.821   6.333  0.2423 -0.6384 -0.1365
 2864SOL     OW20053   2.163   4.009   8.378 -0.4652 -0.1237  1.0073
 2864SOL    HW120054   2.182   4.086   8.431 -2.6212  1.9132 -1.1858
 2864SOL    HW220055   2.163   4.041   8.288 -0.4052 -0.8557  0.7442
 2865SOL     OW20056   0.393   0.564   4.044  0.1291 -0.0067  0.0769
 2865SOL    HW120057   0.377   0.632   4.109 -2.7095  0.5034 -1.1862
 2865SOL    HW220058   0.477   0.522   4.064 -1.1827 -2.7224 -0.0795
 2866SOL     OW20059   2.186   0.642   8.495 -0.3158  0.1124 -0.3256
 2866SOL    HW120060   2.096   0.673   8.484 -0.7051 -0.8928  0.0281
 2866SOL    HW220061   2.188   0.568   8.556 -0.4136  0.1194 -0.3140
 2867SOL     OW20062   0.623   2.873   0.397  0.4169 -0.2274 -0.1475
 2867SOL    HW120063   0.693   2.876   0.331  2.3487  0.7446  1.9624
 2867SOL    HW220064   0.675   2.845   0.472  0.9851  2.1390  0.3206
 2868SOL     OW20065   3.993   4.592   7.513 -0.1497  0.2595 -0.1109
 2868SOL    HW120066   4.086   4.611   7.528  0.6216 -3.5554  0.0372
 2868SOL    HW220067   3.994   4.612   7.420  1.2859  0.9056  0.0403
 2869SOL     OW20068   2.254   3.828   2.126  0.6074  0.7586  0.4410
 2869SOL    HW120069   2.311   3.794   2.057 -2.0744  1.4381 -2.1458
 2869SOL    HW220070   2.316   3.847   2.195  0.4670 -1.0853  1.0664
 2870SOL     OW20071   2.207   2.764   9.658 -0.5986  0.0364 -0.2376
 2870SOL    HW120072   2.215   2.859   9.649  0.3461 -0.2693 -2.6623
 2870SOL    HW220073   2.118   2.748   9.626 -0.1207 -1.0411 -1.0094
 2871SOL     OW20074   4.088   0.278  13.904 -0.2722 -0.6712 -0.1375
 2871SOL    HW120075   4.178   0.256  13.930  0.1649 -0.0417 -1.1170
 2871SOL    HW220076   4.030   0.249  13.975 -0.1566  0.4489  0.4087
 2872SOL     OW20077   4.698   1.629   7.749 -0.3005  0.0563  0.5901
 2872SOL    HW120078   4.628   1.642   7.813  0.0474  1.2292  0.7239
 2872SOL    HW220079   0.050   1.670   7.794  0.9965 -0.7206 -0.8086
 2873SOL     OW20080   1.885   0.177   7.605  1.0133 -0.5838 -0.0045
 2873SOL    HW120081   1.811   0.138   7.652  3.8269 -3.4451  2.0937
 2873SOL    HW220082   1.957   0.122   7.636  0.2533 -0.9874  1.0408
 2874SOL     OW20083   0.155   3.791   8.087  0.5574  0.0188  0.7962
 2874SOL    HW120084   0.104   3.748   8.156 -1.2390  2.4360  0.9836
 2874SOL    HW220085   0.221   3.829   8.146  0.0294 -0.7870  1.9054
 2875SOL     OW20086   1.536   1.222   5.069  0.1439 -0.0503  0.4089
 2875SOL    HW120087   1.481   1.290   5.030 -0.3458 -0.4372  0.4351
 2875SOL    HW220088   1.480   1.146   5.079  0.1790 -0.0090  0.9051
 2876SOL     OW20089   1.815   2.973   3.783 -0.4030 -0.8303 -0.3676
 2876SOL    HW120090   1.731   2.932   3.763 -0.3295  0.2573 -2.9666
 2876SOL    HW220091   1.794   3.066   3.772 -1.4827 -0.9887  0.3776
 2877SOL     OW20092   4.509   3.842   3.865  0.3383  0.0714  0.5709
 2877SOL    HW120093   4.585   3.851   3.808  0.4591  1.6662  0.9899
 2877SOL    HW220094   4.549   3.804   3.944 -0.1879 -0.5784  0.5263
 2878SOL     OW20095   0.525   2.404   6.241  0.2354 -0.1661 -0.4393
 2878SOL    HW120096   0.563   2.353   6.169  0.9155 -0.7346  0.3179
 2878SOL    HW220097   0.558   2.492   6.226 -0.7129  0.1593 -0.6121
 2879SOL     OW20098   0.721   0.490  11.602 -0.1634  0.6411  0.3245
 2879SOL    HW120099   0.765   0.574  11.593  0.6726 -0.1101 -2.4787
 2879SOL    HW220100   0.698   0.475  11.510  2.0161  2.4977 -0.4990
 2880SOL     OW20101   4.079   0.164   6.091 -0.8013  0.2556  0.4173
 2880SOL    HW120102   4.051   0.255   6.101 -0.2448  0.6361 -1.4844
 2880SOL    HW220103   4.076   0.149   5.996  0.9280  0.6246  0.2961
 2881SOL     OW20104   3.004   0.072   5.066 -0.5299  0.3637 -0.0956
 2881SOL    HW120105   3.067   0.120   5.012 -0.0279  0.3962  0.5098
 2881SOL    HW220106   2.986   0.140   5.130  1.5585  0.5036  0.3385
 2882SOL     OW20107   3.728   3.225  13.217  0.0743 -0.2949  0.2447
 2882SOL    HW120108   3.682   3.262  13.293 -2.7867 -2.5293 -0.3835
 2882SOL    HW220109   3.644   3.233  13.172  0.5480 -1.2516 -0.8280
 2883SOL     OW20110   3.031   2.984   1.889 -0.0749  0.1902 -0.2013
 2883SOL    HW120111   3.051   3.036   1.812 -0.4213 -1.6503 -1.5415
 2883SOL    HW220112   2.986   3.048   1.944 -1.0945 -0.7655  0.0781
 2884SOL     OW20113   3.207   2.088   4.216 -0.2127 -0.1819  0.0294
 2884SOL    HW120114   3.159   2.047   4.143 -1.9398  0.6752  0.6793
 2884SOL    HW220115   3.185   2.181   4.208  1.6649  0.0261 -2.7191
 2885SOL     OW20116   3.178   2.160   4.671 -0.0586 -0.6236  0.1396
 2885SOL    HW120117   3.219   2.215   4.604  1.2928 -0.7914  0.8367
 2885SOL    HW220118   3.241   2.172   4.742 -1.1479 -1.4296  1.2355
 2886SOL     OW20119   2.070   2.718   4.149  0.7645  0.1048 -0.5020
 2886SOL    HW120120   2.056   2.813   4.152 -1.1194 -0.1713 -0.3410
 2886SOL    HW220121   2.040   2.695   4.061  2.1716 -0.9547 -0.6911
 2887SOL     OW20122   1.398   1.265   7.955  0.2226  0.1336  0.6756
 2887SOL    HW120123   1.321   1.295   7.907 -0.2439  0.6633  1.7569
 2887SOL    HW220124   1.364   1.289   8.041 -0.4971  1.0690  0.1329
 2888SOL     OW20125   3.672   2.755  16.717 -0.4491  0.1824  0.2108
 2888SOL    HW120126   3.580   2.726  16.720 -0.1739 -0.7876 -0.7429
 2888SOL    HW220127   3.666   2.850  16.719  0.4851  0.2290  0.4902
 2889SOL     OW20128   1.976   4.063   4.425 -0.2291  0.2014 -0.0246
 2889SOL    HW120129   1.918   4.002   4.471  3.6551 -2.3631  1.4752
 2889SOL    HW220130   1.924   4.143   4.431  1.5409  1.2344  1.4575
 2890SOL     OW20131   3.865   2.521   3.728 -0.3800 -0.4093 -0.0072
 2890SOL    HW120132   3.878   2.573   3.649  1.7121 -2.2399 -0.8795
 2890SOL    HW220133   3.941   2.557   3.776 -0.4383 -1.4604  0.8864
 2891SOL     OW20134   4.260   2.614   3.599  0.0645 -0.5402  0.8877
 2891SOL    HW120135   4.213   2.600   3.681 -2.2497 -1.3472 -0.5602
 2891SOL    HW220136   4.222   2.699   3.578 -0.2480 -0.5105  1.5838
 2892SOL     OW20137   3.879   0.400   3.487  0.1573 -0.3064 -0.0051
 2892SOL    HW120138   3.854   0.492   3.482  1.9874  0.1496 -0.9171
 2892SOL    HW220139   3.829   0.369   3.411 -1.0006  0.5805  0.4077
 2893SOL     OW20140   4.173   3.228   5.740 -0.0306 -0.3338 -0.4470
 2893SOL    HW120141   4.202   3.152   5.690  1.0050  0.1691 -0.6054
 2893SOL    HW220142   4.176   3.190   5.828  1.5540 -0.2646 -0.4617
 2894SOL     OW20143   4.685   0.622  10.858  0.1971  0.8819  0.3328
 2894SOL    HW120144   4.593   0.635  10.835  0.1220 -2.4240 -1.2221
 2894SOL    HW220145   4.677   0.583  10.945 -1.2970 -1.0448 -0.6722
 2895SOL     OW20146   1.717   4.470   8.740 -0.4501 -0.4735 -0.2533
 2895SOL    HW120147   1.642   4.530   8.745 -0.9028 -0.7135 -3.5162
 2895SOL    HW220148   1.718   4.423   8.822  3.7815  0.9406  0.4635
 2896SOL     OW20149   0.312   1.403   3.219  0.3062 -0.4955  0.0895
 2896SOL    HW120150   0.259   1.480   3.200  1.2584  0.3823  1.0130
 2896SOL    HW220151   0.298   1.347   3.142  0.0738  1.1944 -1.0972
 2897SOL     OW20152   1.155   4.039   2.921 -1.1223  0.0069  0.3760
 2897SOL    HW120153   1.064   4.069   2.915 -1.4869 -1.6063 -2.5299
 2897SOL    HW220154   1.149   3.945   2.905  1.4704 -0.6270  3.2359
 2898SOL     OW20155   2.778   1.453   3.360  0.3461  0.1522  0.2296
 2898SOL    HW120156   2.829   1.487   3.434  2.1246 -0.9897 -0.4764
 2898SOL    HW220157   2.699   1.503   3.380 -0.3819 -0.7615 -0.3408
 2899SOL     OW20158   2.221   4.232  17.354 -0.1928 -0.1731  0.6593
 2899SOL    HW120159   2.295   4.194  17.307 -0.5614 -0.8222  0.5998
 2899SOL    HW220160   2.197   4.304  17.296  0.1124 -0.7441 -0.1688
 2900SOL     OW20161   2.451   4.205   2.255  0.4604 -0.1443 -0.3005
 2900SOL    HW120162   2.388   4.153   2.205  0.4359 -0.5471  0.1510
 2900SOL    HW220163   2.445   4.163   2.341  1.5334 -2.5363 -1.4154
 2901SOL     OW20164   2.288   3.954   3.348  1.1823  0.0508  0.2163
 2901SOL    HW120165   2.363   3.907   3.384  0.5128 -1.9185 -0.9843
 2901SOL    HW220166   2.219   3.952   3.414  2.2888  3.0084  1.4669
 2902SOL     OW20167   4.073   0.264   3.619  0.4151 -0.5531  0.1395
 2902SOL    HW120168   4.154   0.303   3.650 -0.6368  0.6088  1.4161
 2902SOL    HW220169   4.017   0.335   3.585  1.1662 -0.4967 -0.9717
 2903SOL     OW20170   0.122   4.240   7.379 -0.4467 -0.0628  0.0435
 2903SOL    HW120171   0.177   4.311   7.346 -0.3724 -0.0649  0.1620
 2903SOL    HW220172   0.186   4.173   7.403 -1.1388 -1.5430 -2.2730
 2904SOL     OW20173   3.033   0.639   8.959 -0.3236  0.7565  0.4117
 2904SOL    HW120174   2.950   0.679   8.934 -1.0251  0.5341  2.3904
 2904SOL    HW220175   3.084   0.692   8.897 -1.1292 -0.0300 -0.9117
 2905SOL     OW20176   3.785   2.537   8.329  0.5889 -0.1158 -0.1701
 2905SOL    HW120177   3.705   2.587   8.340  0.5321  0.1906 -1.8696
 2905SOL    HW220178   3.793   2.481   8.406  1.1579  0.1473 -0.0367
 2906SOL     OW20179   3.457   2.779   5.351  0.2542 -0.3482 -0.2192
 2906SOL    HW120180   3.382   2.740   5.397 -0.2037  0.2318 -0.4808
 2906SOL    HW220181   3.514   2.703   5.341 -1.5794 -1.4703 -2.1514
 2907SOL     OW20182   2.184   2.121   6.723  0.7168  0.7002 -0.6562
 2907SOL    HW120183   2.242   2.053   6.689  2.6159  0.8384  2.3606
 2907SOL    HW220184   2.193   2.193   6.661  2.5595  0.9710 -0.0635
 2908SOL     OW20185   0.307   0.068   3.291 -0.4692  1.0525  0.3053
 2908SOL    HW120186   0.269   0.035   3.210  3.8350  0.8914 -1.6012
 2908SOL    HW220187   0.388   0.017   3.298 -1.2148 -0.0187  1.0928
 2909SOL     OW20188   3.137   1.217   5.073  0.1445 -0.2214 -0.1630
 2909SOL    HW120189   3.082   1.216   5.152  1.7371 -0.5573  0.9302
 2909SOL    HW220190   3.126   1.308   5.045 -1.2425 -0.5593 -0.7155
 2910SOL     OW20191   0.935   0.723   7.244  1.3588 -0.6967  0.3952
 2910SOL    HW120192   0.921   0.818   7.237  0.8473 -0.7775  0.2811
 2910SOL    HW220193   0.970   0.712   7.156 -1.2403 -2.2842 -0.4357
 2911SOL     OW20194   0.764   1.797   6.337  0.3333 -0.3101 -0.5722
 2911SOL    HW120195   0.687   1.852   6.328 -0.1513 -0.4605  2.7424
 2911SOL    HW220196   0.738   1.736   6.406  3.4690 -2.0989 -0.9496
 2912SOL     OW20197   0.757   1.616  16.956 -0.9030  0.2171 -0.2352
 2912SOL    HW120198   0.720   1.670  17.026 -1.2261 -0.3842  0.0618
 2912SOL    HW220199   0.683   1.556  16.954 -1.9445  1.5026  0.3419
 2913SOL     OW20200   0.027   4.180   5.423  0.1933  0.0445  0.4653
 2913SOL    HW120201   0.092   4.138   5.367  1.0874  0.1388  1.4449
 2913SOL    HW220202   4.668   4.132   5.399 -0.9850  1.9751  0.4474
 2914SOL     OW20203   3.980   2.693   2.820 -0.0217  0.3126 -0.3043
 2914SOL    HW120204   3.894   2.659   2.844 -0.0061  1.9570  1.9898
 2914SOL    HW220205   3.977   2.732   2.732  2.7755 -1.5203 -1.2534
 2915SOL     OW20206   1.583   2.731  15.440 -0.2705  0.2580  0.3058
 2915SOL    HW120207   1.588   2.802  15.504 -0.0767  0.2489  0.2980
 2915SOL    HW220208   1.641   2.670  15.484 -0.6655 -2.0797 -2.3963
 2916SOL     OW20209   3.694   0.632   0.943 -0.5277 -0.4069 -0.5541
 2916SOL    HW120210   3.764   0.648   0.880  0.3523  1.4943  0.9033
 2916SOL    HW220211   3.696   0.538   0.962 -2.3224 -0.2920  0.2460
 2917SOL     OW20212   2.417   3.599   7.118 -0.2577  0.2930 -0.1305
 2917SOL    HW120213   2.417   3.519   7.170 -0.7575  0.5343  0.2376
 2917SOL    HW220214   2.512   3.590   7.107 -0.1293  0.0878  1.1746
 2918SOL     OW20215   4.629   2.040   8.841 -0.2372  0.0429 -0.1563
 2918SOL    HW120216   4.708   1.987   8.848  0.0660  0.5677  0.4374
 2918SOL    HW220217   4.623   2.065   8.933  0.0478 -0.8484  0.0967
 2919SOL     OW20218   0.386   1.955   8.524  0.4316 -0.2657 -0.0466
 2919SOL    HW120219   0.462   1.935   8.470  0.8873  0.1582  0.4431
 2919SOL    HW220220   0.403   1.903   8.603  1.6288 -0.0649 -0.1732
 2920SOL     OW20221   1.232   0.128   4.200  0.5674 -0.0880 -0.5602
 2920SOL    HW120222   1.260   0.211   4.237  0.2016 -0.5852  0.8510
 2920SOL    HW220223   1.309   0.108   4.147  1.4938 -1.0306  1.1466
 2921SOL     OW20224   3.756   1.473  11.401 -0.1320  0.8458  1.0137
 2921SOL    HW120225   3.665   1.464  11.372  0.9780 -2.5140 -1.4329
 2921SOL    HW220226   3.755   1.386  11.441 -0.6541  0.7460  0.7916
 2922SOL     OW20227   0.971   2.004   3.241 -0.4175 -0.0536  0.4376
 2922SOL    HW120228   0.876   1.996   3.230 -0.5438 -0.1084  1.5600
 2922SOL    HW220229   0.984   1.947   3.166  0.0583  1.3126 -0.5123
 2923SOL     OW20230   3.668   2.029   8.904 -0.2136  0.4769 -0.0794
 2923SOL    HW120231   3.745   2.061   8.951 -1.0583 -1.7719  2.7854
 2923SOL    HW220232   3.668   1.950   8.957  1.1415  0.6115  0.1078
 2924SOL     OW20233   0.072   3.847  11.344 -0.1290 -0.3986  0.0702
 2924SOL    HW120234   4.718   3.821  11.290 -2.7268  1.1808  2.9546
 2924SOL    HW220235   0.033   3.910  11.405 -0.5456  0.3383 -0.9533
 2925SOL     OW20236   1.756   3.881   1.187  0.3469  0.1462  0.0260
 2925SOL    HW120237   1.797   3.896   1.272  1.3207  0.5070 -0.5099
 2925SOL    HW220238   1.751   3.972   1.158  1.5005 -0.4215 -1.9197
 2926SOL     OW20239   3.103   1.946   8.857  0.5020 -0.5759 -0.3436
 2926SOL    HW120240   3.010   1.947   8.881  0.5267  1.1143 -0.3618
 2926SOL    HW220241   3.136   1.918   8.943  0.2435 -1.8944 -0.6673
 2927SOL     OW20242   2.243   3.887   9.251  0.0772  0.3266  0.2441
 2927SOL    HW120243   2.157   3.893   9.209 -0.3427  0.8167  1.1705
 2927SOL    HW220244   2.283   3.810   9.210  0.0673 -0.0025  0.8554
 2928SOL     OW20245   1.961   3.551   6.938 -0.0833  0.0058  0.2755
 2928SOL    HW120246   1.947   3.621   6.874  1.5485  3.0854  3.2998
 2928SOL    HW220247   1.921   3.483   6.883 -0.7531  0.3399  0.3554
 2929SOL     OW20248   2.040   3.648   2.610  0.1603 -0.3646 -0.7812
 2929SOL    HW120249   1.949   3.646   2.581 -0.1013 -0.8729  0.0937
 2929SOL    HW220250   2.067   3.556   2.606 -0.3678 -0.5514  0.0372
 2930SOL     OW20251   4.589   0.045  11.900  0.3603 -0.9404 -0.6526
 2930SOL    HW120252   4.657   0.021  11.837  0.2760 -0.5322 -0.9007
 2930SOL    HW220253   4.555   0.118  11.849  1.4268  0.7440  1.0471
 2931SOL     OW20254   1.004   0.923  12.302 -0.6142  0.3440 -0.7903
 2931SOL    HW120255   0.921   0.965  12.279 -1.2514 -1.0176 -0.9290
 2931SOL    HW220256   0.978   0.833  12.284  3.1303 -0.5876 -1.5371
 2932SOL     OW20257   1.179   2.808   8.287  0.7215  0.0699 -0.1414
 2932SOL    HW120258   1.159   2.714   8.288  1.8191 -0.1408  1.7827
 2932SOL    HW220259   1.261   2.802   8.238  1.5398  1.7494  1.0389
 2933SOL     OW20260   3.683   1.230   1.228 -0.3402  0.3039 -0.5630
 2933SOL    HW120261   3.734   1.238   1.309 -1.4266 -0.4599  0.1849
 2933SOL    HW220262   3.681   1.322   1.200  2.5437  0.3045 -0.8562
 2934SOL     OW20263   2.135   1.181   6.583  0.1693 -0.0760  0.7090
 2934SOL    HW120264   2.190   1.192   6.506  0.4375  0.3835  0.9667
 2934SOL    HW220265   2.059   1.146   6.536  0.2932 -1.4726  1.5343
 2935SOL     OW20266   3.501   2.843   6.398 -0.0106  0.0558 -0.2040
 2935SOL    HW120267   3.592   2.826   6.423  0.9171  1.0314 -2.9063
 2935SOL    HW220268   3.507   2.933   6.365 -3.5037  0.4654  0.2551
 2936SOL     OW20269   0.363   0.779   4.209  0.1524  0.3131  0.4104
 2936SOL    HW120270   0.441   0.802   4.260 -2.2912  3.2785  2.8404
 2936SOL    HW220271   0.336   0.866   4.181  0.9203 -0.4206 -2.6258
 2937SOL     OW20272   4.200   0.916   1.420 -0.4975 -0.1766  0.7427
 2937SOL    HW120273   4.109   0.897   1.442 -0.6062  0.3345  0.7243
 2937SOL    HW220274   4.191   0.907   1.325 -0.0824  0.8491  0.6046
 2938SOL     OW20275   1.467   1.690   7.794  0.3039  0.3852  0.0496
 2938SOL    HW120276   1.438   1.620   7.736 -0.2894 -1.4547  2.5624
 2938SOL    HW220277   1.540   1.721   7.740 -0.3854 -0.7155 -1.5104
 2939SOL     OW20278   3.871   0.633   8.844 -0.2415  0.1038 -0.6262
 2939SOL    HW120279   3.859   0.566   8.778  0.3798 -1.2080  0.5834
 2939SOL    HW220280   3.779   0.651   8.865  0.1365 -0.7598  1.7852
 2940SOL     OW20281   3.427   1.581   1.142  0.7338  0.0958 -0.4434
 2940SOL    HW120282   3.519   1.604   1.135  0.7161  0.5511  0.8095
 2940SOL    HW220283   3.392   1.659   1.185  0.4439 -0.9781  1.2894
 2941SOL     OW20284   0.347   1.290   0.674 -0.0057  0.2627  0.2900
 2941SOL    HW120285   0.380   1.328   0.593 -0.3024  1.6519  0.8235
 2941SOL    HW220286   0.252   1.296   0.660  0.3717  3.6534 -0.9353
 2942SOL     OW20287   2.393   2.020   4.693 -0.0952 -0.3300 -0.1775
 2942SOL    HW120288   2.357   1.932   4.701 -1.4962  0.2857  0.3184
 2942SOL    HW220289   2.481   2.010   4.728 -0.0948  1.1813  0.2894
 2943SOL     OW20290   2.688   4.241   1.627 -0.1669 -0.3631  0.3053
 2943SOL    HW120291   2.626   4.224   1.556  1.4957 -0.6659 -1.0904
 2943SOL    HW220292   2.679   4.336   1.641 -0.6693 -0.1981 -1.0488
 2944SOL     OW20293   0.038   3.321   0.797  0.0004 -0.6916  0.2437
 2944SOL    HW120294   0.043   3.226   0.808 -2.5762 -0.8295  0.1740
 2944SOL    HW220295   0.089   3.351   0.872 -1.8070 -1.7881  1.9085
 2945SOL     OW20296   1.197   1.239   9.118 -0.4821  0.0555  0.2585
 2945SOL    HW120297   1.127   1.286   9.072 -1.0897 -1.4594 -0.3796
 2945SOL    HW220298   1.177   1.279   9.202 -0.1060  1.5154 -0.3455
 2946SOL     OW20299   3.269   2.218   3.654 -0.1626 -0.3718 -0.4584
 2946SOL    HW120300   3.266   2.217   3.750  0.9555 -1.8585 -0.4534
 2946SOL    HW220301   3.235   2.131   3.636 -1.8113  0.1519  0.1266
 2947SOL     OW20302   3.914   4.136  15.465  0.5149 -0.2235 -0.0681
 2947SOL    HW120303   3.824   4.125  15.436 -0.6590  1.8043  2.8516
 2947SOL    HW220304   3.974   4.083  15.411 -0.0793 -0.6398 -0.3221
 2948SOL     OW20305   2.695   0.641   4.022  0.9150 -0.2211 -0.1018
 2948SOL    HW120306   2.787   0.642   3.994  1.3888 -0.0389  1.4927
 2948SOL    HW220307   2.644   0.668   3.946  0.5238  0.8873  0.5612
 2949SOL     OW20308   0.216   4.411   8.907  0.2024 -0.2656 -0.6799
 2949SOL    HW120309   0.288   4.436   8.849  0.4692  0.5964  0.0109
 2949SOL    HW220310   0.205   4.500   8.942  0.8479  0.0269 -1.2173
 2950SOL     OW20311   0.319   1.618   7.472  0.6764 -0.2143 -0.1027
 2950SOL    HW120312   0.296   1.575   7.555  1.2315  0.0967  0.2067
 2950SOL    HW220313   0.345   1.697   7.519  0.6542 -0.7473  0.8110
 2951SOL     OW20314   1.468   4.361   7.921 -0.5387  0.2828 -0.3577
 2951SOL    HW120315   1.529   4.362   7.995  2.0507  1.3783 -2.5376
 2951SOL    HW220316   1.511   4.299   7.861 -2.1353 -0.5878 -0.6105
 2952SOL     OW20317   2.701   0.352   5.183  0.5285 -0.0038  0.7844
 2952SOL    HW120318   2.639   0.308   5.241 -1.7580  1.7262 -0.3220
 2952SOL    HW220319   2.650   0.425   5.146  2.3748  1.5463  1.2816
 2953SOL     OW20320   2.191   2.644   9.342  0.7672 -0.5737  0.4215
 2953SOL    HW120321   2.100   2.657   9.313  0.6269  1.0779  1.5553
 2953SOL    HW220322   2.226   2.730   9.318  2.2136 -1.8667 -2.0757
 2954SOL     OW20323   3.819   1.238   2.055 -0.7457 -0.0195 -0.1746
 2954SOL    HW120324   3.875   1.316   2.055  1.2987 -1.4959 -1.3970
 2954SOL    HW220325   3.829   1.212   2.147  1.4333  0.2339 -0.3279
 2955SOL     OW20326   3.635   3.979   3.875 -0.2616 -0.3093 -0.1350
 2955SOL    HW120327   3.565   3.984   3.810 -0.1457  0.8398 -0.1706
 2955SOL    HW220328   3.700   4.042   3.845 -0.4327  0.0098  0.1621
 2956SOL     OW20329   2.911   0.699   0.959 -0.1444 -0.5481  0.4637
 2956SOL    HW120330   2.964   0.674   0.883  2.3225 -0.4853  2.1530
 2956SOL    HW220331   2.851   0.625   0.952 -0.1575 -0.3911 -1.1019
 2957SOL     OW20332   4.284   4.592  14.907 -0.0219  0.0891 -0.2288
 2957SOL    HW120333   4.338   4.567  14.982  0.4207  0.7103 -0.3400
 2957SOL    HW220334   4.340   4.662  14.872  0.7124  0.6554  2.0922
 2958SOL     OW20335   4.657   1.122  17.168 -0.1419  0.5127  0.1000
 2958SOL    HW120336   4.712   1.086  17.098 -0.3028 -0.0915  0.2868
 2958SOL    HW220337   4.590   1.055  17.184 -0.2125  0.2187 -1.4014
 2959SOL     OW20338   0.812   0.003  16.108  0.8803  0.5780 -0.0129
 2959SOL    HW120339   0.744   0.051  16.060  1.3137  1.5981  0.3835
 2959SOL    HW220340   0.802   0.046  16.193  0.4761 -0.1401  0.3023
 2960SOL     OW20341   3.187   1.390   1.493 -0.0087 -0.2767  0.0489
 2960SOL    HW120342   3.196   1.323   1.560 -0.2317 -0.6871 -0.3390
 2960SOL    HW220343   3.280   1.388   1.470  0.3166  0.5760  1.2518
 2961SOL     OW20344   0.749   2.724   0.977  0.4389 -0.0336 -0.1134
 2961SOL    HW120345   0.725   2.643   0.933 -1.2413  2.3680 -3.6324
 2961SOL    HW220346   0.822   2.754   0.922  0.3173 -0.3345 -0.4351
 2962SOL     OW20347   3.762   0.859   7.740 -0.2812  0.1960 -0.8718
 2962SOL    HW120348   3.818   0.920   7.788  0.5704 -0.5045 -0.9657
 2962SOL    HW220349   3.822   0.788   7.764 -1.7706 -0.7580  0.0199
 2963SOL     OW20350   3.357   0.696   5.824  0.3668 -0.6581  0.2307
 2963SOL    HW120351   3.335   0.642   5.900  1.5685 -0.6844  0.5466
 2963SOL    HW220352   3.449   0.670   5.824  0.7173  0.5840  0.7199
 2964SOL     OW20353   4.463   3.315   8.485 -0.0469  0.2419  0.3120
 2964SOL    HW120354   4.504   3.231   8.464 -1.2363 -0.1734 -0.3627
 2964SOL    HW220355   4.442   3.348   8.398 -0.3413 -2.6082 -0.7122
 2965SOL     OW20356   3.168   3.143  14.249  0.6511  0.3205 -0.3712
 2965SOL    HW120357   3.260   3.120  14.262  0.2771 -1.0286 -0.1042
 2965SOL    HW220358   3.137   3.081  14.182 -1.4532  2.4716 -1.3666
 2966SOL     OW20359   1.819   4.009   5.982  0.5321  0.4716 -0.0171
 2966SOL    HW120360   1.723   4.011   5.977  0.4631 -0.4200  1.1368
 2966SOL    HW220361   1.844   3.927   6.024  4.6422  0.9262 -1.6532
 2967SOL     OW20362   3.284   1.757  11.527 -0.3733  0.0736  0.2423
 2967SOL    HW120363   3.260   1.850  11.524 -0.9330 -0.0250  1.5632
 2967SOL    HW220364   3.263   1.746  11.620  1.0268  0.5957  0.6119
 2968SOL     OW20365   1.850   0.682  12.970  0.2628 -0.2894  0.3328
 2968SOL    HW120366   1.859   0.774  12.946  0.3480 -1.2044 -3.2267
 2968SOL    HW220367   1.863   0.696  13.063 -1.5624  1.2165  0.3702
 2969SOL     OW20368   4.343   2.152   9.340 -0.0412 -0.0166 -0.5417
 2969SOL    HW120369   4.249   2.169   9.352  0.1302 -1.3087  2.5113
 2969SOL    HW220370   4.348   2.062   9.372 -0.2090 -0.4276 -1.6873
 2970SOL     OW20371   2.915   2.731   9.062  0.6613 -0.1684 -0.0233
 2970SOL    HW120372   2.824   2.701   9.065  0.0628  1.4301 -2.4617
 2970SOL    HW220373   2.907   2.825   9.048 -0.2218 -0.0231  1.4512
 2971SOL     OW20374   2.943   4.064   6.769  0.0688  0.5247 -0.2241
 2971SOL    HW120375   2.945   3.969   6.778  1.1227  0.4658 -1.1143
 2971SOL    HW220376   2.886   4.083   6.695 -2.2152 -1.2029  1.1041
 2972SOL     OW20377   3.973   4.534   8.896  0.1730 -0.2294 -0.5256
 2972SOL    HW120378   4.017   4.465   8.847  0.2947 -0.1894 -0.4738
 2972SOL    HW220379   3.882   4.532   8.866 -0.2824  0.4031  0.7691
 2973SOL     OW20380   3.935   4.057  12.438 -0.1847 -0.3182 -0.3667
 2973SOL    HW120381   4.017   4.019  12.468 -0.7243 -1.8935 -0.9079
 2973SOL    HW220382   3.888   4.075  12.520  0.7814  0.7800 -0.0618
 2974SOL     OW20383   1.950   3.943   2.672 -0.4280 -0.4065  0.2889
 2974SOL    HW120384   1.933   3.953   2.579 -0.3843 -0.2405  0.2988
 2974SOL    HW220385   2.015   3.873   2.666  1.1689  1.0070  1.0956
 2975SOL     OW20386   1.318   2.958  17.293  0.1181  0.5551 -0.1261
 2975SOL    HW120387   1.251   2.916  17.347 -1.6431  0.1237 -2.6339
 2975SOL    HW220388   1.360   3.019  17.353 -2.8842 -0.8447  3.4065
 2976SOL     OW20389   0.047   1.594  17.043 -0.4870 -0.0498  0.2851
 2976SOL    HW120390   0.007   1.532  16.982  0.4109 -0.2013 -0.1515
 2976SOL    HW220391   0.129   1.550  17.066 -1.5479 -2.5243 -0.6283
 2977SOL     OW20392   2.551   3.657   6.762  0.3112  0.1108  0.5017
 2977SOL    HW120393   2.610   3.592   6.800  1.4324  0.0544 -1.3689
 2977SOL    HW220394   2.589   3.736   6.799 -0.2818 -0.2631  1.9060
 2978SOL     OW20395   2.857   1.756   6.298  0.0249  0.1837  0.0142
 2978SOL    HW120396   2.904   1.693   6.244 -0.2668  1.1687 -1.3756
 2978SOL    HW220397   2.789   1.696   6.329  0.0522 -0.2277 -0.7300
 2979SOL     OW20398   0.143   3.177   9.801  0.8122  1.0118  0.0938
 2979SOL    HW120399   0.069   3.221   9.843 -1.1084 -2.4288  0.3002
 2979SOL    HW220400   0.114   3.086   9.809 -0.0496  1.3095  0.3384
 2980SOL     OW20401   2.904   2.126   5.147  0.0156  0.1591 -0.3776
 2980SOL    HW120402   2.843   2.116   5.221  1.1437 -1.4537  0.3130
 2980SOL    HW220403   2.859   2.066   5.088 -0.8775  2.2721 -1.8591
 2981SOL     OW20404   0.386   2.622   5.672  0.9127 -0.5851  0.4040
 2981SOL    HW120405   0.345   2.558   5.613  0.9739  1.3541 -1.7434
 2981SOL    HW220406   0.466   2.642   5.623  0.7855  0.2249  0.5406
 2982SOL     OW20407   0.050   2.245   2.822  0.2628 -0.4577 -0.3366
 2982SOL    HW120408   0.080   2.168   2.870  0.0406 -0.0294  0.4908
 2982SOL    HW220409   0.075   2.220   2.733  0.4683  0.2755 -0.4820
 2983SOL     OW20410   1.735   0.662   0.982  0.1327 -0.1916 -0.2996
 2983SOL    HW120411   1.761   0.572   0.962  2.4159  0.7561 -1.6777
 2983SOL    HW220412   1.705   0.696   0.898  0.2415  0.1838 -0.1844
 2984SOL     OW20413   1.937   2.682   6.586 -0.5953  0.6096  0.0809
 2984SOL    HW120414   1.979   2.648   6.665 -0.4040 -0.3861 -0.4491
 2984SOL    HW220415   2.003   2.672   6.518  1.6777  1.6229  2.0965
 2985SOL     OW20416   1.576   3.848  14.842  0.3721 -0.5097 -0.3566
 2985SOL    HW120417   1.509   3.882  14.902  1.7019 -3.0322  2.5577
 2985SOL    HW220418   1.582   3.912  14.771  0.3971 -0.0929  0.0199
 2986SOL     OW20419   2.550   2.711  15.347 -0.1487  0.3834 -0.1245
 2986SOL    HW120420   2.461   2.678  15.349 -0.0315  0.1601  1.0142
 2986SOL    HW220421   2.539   2.799  15.383 -1.2737  0.2855 -0.2430
 2987SOL     OW20422   2.886   4.579   3.997  0.4093 -0.1282  0.5019
 2987SOL    HW120423   2.792   4.567   4.008  0.9543 -2.4055  2.7645
 2987SOL    HW220424   2.895   4.620   4.083  0.1443  1.9532 -0.4677
 2988SOL     OW20425   3.766   0.566   7.882  0.7938 -0.4873  0.3493
 2988SOL    HW120426   3.788   0.474   7.875 -0.0425 -0.4180 -3.0725
 2988SOL    HW220427   3.672   0.573   7.866  0.5666 -1.4476  1.2970
 2989SOL     OW20428   4.245   2.062   7.572 -0.1462  0.3302 -0.0814
 2989SOL    HW120429   4.181   2.055   7.501 -2.0956  0.2728  1.6914
 2989SOL    HW220430   4.204   2.029   7.652  1.1131 -3.2118 -0.8970
 2990SOL     OW20431   0.365   4.359  14.453 -0.2396 -0.3424  0.5569
 2990SOL    HW120432   0.329   4.447  14.466  2.1799  0.9771 -1.3960
 2990SOL    HW220433   0.459   4.365  14.469  0.1816  1.5477 -2.5496
 2991SOL     OW20434   1.860   1.907   8.969 -0.2317 -0.6123 -0.4188
 2991SOL    HW120435   1.855   1.825   9.017 -0.3907  0.7202  1.8308
 2991SOL    HW220436   1.769   1.923   8.944  0.2604  2.4879 -0.2069
 2992SOL     OW20437   0.687   4.235   4.325  1.1810 -0.1272 -0.5939
 2992SOL    HW120438   0.614   4.205   4.271  0.1865 -0.5318  0.9890
 2992SOL    HW220439   0.709   4.321   4.287 -0.6876  0.2728 -0.7602
 2993SOL     OW20440   0.452   2.915   0.799  0.0638 -0.3194  0.1176
 2993SOL    HW120441   0.449   2.819   0.794  1.8275 -0.2870 -1.9951
 2993SOL    HW220442   0.362   2.940   0.777  1.0610  2.2468 -1.0187
 2994SOL     OW20443   3.687   1.840   0.556 -0.4471  0.1028 -0.0705
 2994SOL    HW120444   3.629   1.913   0.538  0.0203  0.7426  1.0192
 2994SOL    HW220445   3.673   1.830   0.650 -1.6275  0.4868 -0.2073
 2995SOL     OW20446   0.897   4.491   2.180  0.3182 -0.1607 -0.6286
 2995SOL    HW120447   0.822   4.478   2.239  0.1667 -1.9991 -1.2139
 2995SOL    HW220448   0.974   4.494   2.237  0.4883 -0.1529 -0.8589
 2996SOL     OW20449   2.246   1.785   4.383 -0.3615 -0.6979 -0.1869
 2996SOL    HW120450   2.183   1.844   4.342 -0.3591 -1.8989 -1.9444
 2996SOL    HW220451   2.330   1.828   4.363 -0.3754 -0.7948 -0.4538
 2997SOL     OW20452   4.248   2.559   5.621 -0.2261  0.0342  0.2277
 2997SOL    HW120453   4.212   2.647   5.609  0.9602  0.3664 -0.9063
 2997SOL    HW220454   4.340   2.584   5.617  0.3277 -2.0470 -0.2100
 2998SOL     OW20455   0.179   1.441  10.779 -0.3097 -0.2071  0.1544
 2998SOL    HW120456   0.121   1.496  10.831 -0.3775 -0.7243  0.6249
 2998SOL    HW220457   0.257   1.497  10.779 -0.5762  0.1799 -1.4910
 2999SOL     OW20458   2.619   0.138   4.014 -1.4049 -0.0824 -0.0546
 2999SOL    HW120459   2.574   0.184   3.943  0.4589  1.4206 -0.2788
 2999SOL    HW220460   2.609   0.211   4.076  0.8355  0.0873  0.1015
 3000SOL     OW20461   2.621   4.166   4.923  0.4411 -0.5550  0.1858
 3000SOL    HW120462   2.663   4.251   4.937 -0.1468 -0.0572 -1.1199
 3000SOL    HW220463   2.609   4.154   4.829  2.1986  0.5827 -0.1663
 3001SOL     OW20464   4.210   3.830  15.705 -0.1499  0.0692  0.0472
 3001SOL    HW120465   4.214   3.776  15.626  0.1830  0.1023  0.0406
 3001SOL    HW220466   4.299   3.865  15.708 -0.0658 -0.1034 -0.4434
 3002SOL     OW20467   0.957   4.037   9.432  0.5185  0.3093  0.4043
 3002SOL    HW120468   0.999   3.956   9.463  2.1624  1.0352  0.0633
 3002SOL    HW220469   0.989   4.085   9.508  0.0527  2.0651 -0.5190
 3003SOL     OW20470   1.072   0.867   8.904  0.1721  0.1332 -0.2235
 3003SOL    HW120471   1.082   0.888   8.812 -0.8780  1.0048 -0.1364
 3003SOL    HW220472   1.144   0.806   8.920 -0.3241 -0.5154 -0.4822
 3004SOL     OW20473   2.227   4.680  13.658  0.1115 -0.0192  0.6441
 3004SOL    HW120474   2.310   4.649  13.621 -0.0924  0.3023 -0.0874
 3004SOL    HW220475   2.168   4.608  13.638  0.9000 -1.2177  2.6269
 3005SOL     OW20476   1.641   4.430   1.583 -0.4686  0.3695 -0.2750
 3005SOL    HW120477   1.684   4.447   1.667 -0.2283  2.7012 -0.8587
 3005SOL    HW220478   1.652   4.336   1.569 -0.0041  0.1642  1.5129
 3006SOL     OW20479   3.426   4.605   8.873 -0.3842  0.0076  0.1721
 3006SOL    HW120480   3.460   4.538   8.934  0.4416  0.1269 -0.1649
 3006SOL    HW220481   3.393   4.675   8.930  2.1176  0.8707  0.5595
 3007SOL     OW20482   0.130   4.572   0.604  0.7002 -0.5544 -0.5688
 3007SOL    HW120483   0.224   4.568   0.622  0.5843  1.0472  0.3462
 3007SOL    HW220484   0.124   4.605   0.514  1.7145 -1.9562 -1.1542
 3008SOL     OW20485   3.609   3.001  13.023 -0.4888  0.3337  0.3613
 3008SOL    HW120486   3.562   2.927  13.062  0.6305 -0.9236 -0.6803
 3008SOL    HW220487   3.550   3.073  13.044 -1.2000  0.4862 -2.1838
 3009SOL     OW20488   3.710   2.524   2.583  0.1784 -0.3581  0.1901
 3009SOL    HW120489   3.804   2.523   2.602 -0.0411  0.0742  1.2986
 3009SOL    HW220490   3.694   2.448   2.528  2.6544  1.8259 -3.5939
 3010SOL     OW20491   2.197   2.600  16.154 -0.8757  0.5743  0.0057
 3010SOL    HW120492   2.203   2.535  16.224  1.7568  0.5763 -0.2164
 3010SOL    HW220493   2.114   2.583  16.109 -1.6507 -0.9953  2.0379
 3011SOL     OW20494   2.865   0.321   8.554  0.1282 -0.2778  0.2814
 3011SOL    HW120495   2.929   0.361   8.495 -1.2490  1.9162  0.2837
 3011SOL    HW220496   2.789   0.379   8.550 -0.7105 -1.4918 -1.5548
 3012SOL     OW20497   3.726   3.929  12.209 -0.5521  0.0825 -0.0767
 3012SOL    HW120498   3.697   3.876  12.135 -1.3098  1.9215 -1.0864
 3012SOL    HW220499   3.761   4.000  12.155 -0.2279  0.2265  0.3206
 3013SOL     OW20500   1.736   3.246   9.497 -0.7848  0.0994 -0.5351
 3013SOL    HW120501   1.761   3.331   9.534 -1.2025 -0.8097  1.8226
 3013SOL    HW220502   1.722   3.194   9.576 -0.6374 -0.3963 -0.8357
 3014SOL     OW20503   1.936   3.049   8.306  0.1081  0.1021 -0.4550
 3014SOL    HW120504   1.887   3.105   8.246 -0.4089  1.0477  0.8295
 3014SOL    HW220505   1.865   3.002   8.349 -0.4735  1.6082  0.2543
 3015SOL     OW20506   4.647   4.309   1.000 -0.2386 -0.3314  0.2508
 3015SOL    HW120507   4.649   4.347   0.912  1.6053 -0.6596  0.1409
 3015SOL    HW220508   4.699   4.372   1.049  0.6558 -0.3840 -0.6125
 3016SOL     OW20509   2.539   4.125   0.394 -0.0116 -0.1029  0.1893
 3016SOL    HW120510   2.465   4.130   0.334  0.0587  1.0215  0.2030
 3016SOL    HW220511   2.512   4.179   0.468 -0.2757  0.8614 -0.6171
 3017SOL     OW20512   3.759   1.577   3.524 -0.0415 -0.0359 -0.0467
 3017SOL    HW120513   3.699   1.514   3.483  0.2702  1.2034 -2.4340
 3017SOL    HW220514   3.772   1.632   3.447  0.9754  0.4815  0.4907
 3018SOL     OW20515   1.244   1.777   6.805  0.0351 -0.1220  0.1083
 3018SOL    HW120516   1.282   1.689   6.809  1.9057  0.7471  1.2987
 3018SOL    HW220517   1.264   1.809   6.892 -1.9614 -2.3369  1.3872
 3019SOL     OW20518   2.452   1.198   5.301 -0.2121 -0.3546  0.2009
 3019SOL    HW120519   2.359   1.207   5.319 -0.0438  0.6919  0.5430
 3019SOL    HW220520   2.483   1.172   5.387  2.6965  2.3397 -0.0121
 3020SOL     OW20521   0.024   3.231   6.059 -0.5713 -0.8035 -0.6854
 3020SOL    HW120522   0.061   3.284   5.989 -0.1592 -0.0621  0.1037
 3020SOL    HW220523   4.673   3.284   6.094 -0.1008 -2.6243  3.1219
 3021SOL     OW20524   1.274   2.534   2.751 -0.3878  0.0694 -0.0583
 3021SOL    HW120525   1.354   2.548   2.802 -1.4280 -1.9449  2.1411
 3021SOL    HW220526   1.209   2.577   2.807  0.8946  0.7571  0.8990
 3022SOL     OW20527   1.401   1.991   2.943 -0.2161 -0.1463 -0.2667
 3022SOL    HW120528   1.309   1.972   2.960 -0.4687  1.4270  0.1176
 3022SOL    HW220529   1.442   1.997   3.030 -0.9267 -0.3644  0.0778
 3023SOL     OW20530   2.992   0.690   3.288 -0.2386 -0.0866 -0.0972
 3023SOL    HW120531   3.009   0.646   3.372 -0.4944 -2.7693 -1.4573
 3023SOL    HW220532   3.041   0.637   3.225  2.7821  1.8774  0.5853
 3024SOL     OW20533   0.695   1.431   1.065  0.1765 -0.8088 -0.6956
 3024SOL    HW120534   0.675   1.360   1.003 -1.0632  0.9927 -2.3600
 3024SOL    HW220535   0.790   1.425   1.075  0.1744 -0.4363 -0.4660
 3025SOL     OW20536   2.266   1.679   8.191 -0.7605  0.2886  0.2653
 3025SOL    HW120537   2.356   1.651   8.209 -0.4843  0.3465 -1.0440
 3025SOL    HW220538   2.247   1.643   8.104  0.8168 -1.3053  0.5837
 3026SOL     OW20539   2.943   1.602  16.082  0.7123  0.0507  0.4558
 3026SOL    HW120540   2.936   1.506  16.088 -1.0140  0.1013 -0.7329
 3026SOL    HW220541   2.873   1.627  16.142  0.8876  1.5590  0.0180
 3027SOL     OW20542   1.294   2.117   8.418  0.2738  0.1673 -0.1772
 3027SOL    HW120543   1.344   2.165   8.352 -0.2175 -0.3048 -0.8920
 3027SOL    HW220544   1.234   2.061   8.368 -0.3857  2.1150 -1.5723
 3028SOL     OW20545   2.899   2.004  13.970 -0.1637 -0.1587  0.1480
 3028SOL    HW120546   2.811   1.990  14.004  0.0554 -0.7711  0.4552
 3028SOL    HW220547   2.944   1.930  14.012  0.2391  0.4641  0.8061
 3029SOL     OW20548   0.507   2.357  10.319 -0.0061  0.4692  0.0578
 3029SOL    HW120549   0.502   2.448  10.346  3.6829  0.0854  1.9804
 3029SOL    HW220550   0.594   2.323  10.342  0.4822  1.6395 -0.0838
 3030SOL     OW20551   0.002   4.594   7.371  0.0848 -0.6428  0.3611
 3030SOL    HW120552   0.020   4.567   7.281  1.2937 -0.9630  0.6971
 3030SOL    HW220553   4.710   4.689   7.364 -1.5329 -0.7267  2.2328
 3031SOL     OW20554   2.907   0.055   3.307  0.6924  0.6138  0.7101
 3031SOL    HW120555   2.813   0.063   3.291  0.4823 -1.3703  0.9709
 3031SOL    HW220556   2.931   0.108   3.383 -1.6659  0.7981  1.3267
 3032SOL     OW20557   0.457   1.409  16.147 -0.0236 -0.0489 -0.0056
 3032SOL    HW120558   0.405   1.395  16.068 -1.0339 -0.7891  0.7889
 3032SOL    HW220559   0.416   1.351  16.211  1.1971  0.6842  1.4512
 3033SOL     OW20560   0.557   1.500  16.515 -0.6978 -0.0931  0.3460
 3033SOL    HW120561   0.536   1.448  16.438 -1.9597  1.8359 -0.6033
 3033SOL    HW220562   0.505   1.468  16.590 -1.1323 -1.3157 -0.4860
 3034SOL     OW20563   3.138   2.466  11.423 -0.3356 -0.4837 -0.3080
 3034SOL    HW120564   3.048   2.434  11.428 -1.0417  1.6039  0.4841
 3034SOL    HW220565   3.116   2.559  11.418  1.8398  0.0733  0.1208
 3035SOL     OW20566   0.323   2.888   7.701  0.1704 -0.3517 -0.0836
 3035SOL    HW120567   0.262   2.833   7.750  0.8397  0.1207  1.2841
 3035SOL    HW220568   0.309   2.852   7.613  2.3788 -0.3845 -0.4162
 3036SOL     OW20569   4.487   1.176   4.939 -0.4832 -0.1297  0.4226
 3036SOL    HW120570   4.465   1.256   4.891  1.3277  1.5869  2.4722
 3036SOL    HW220571   4.429   1.171   5.015 -2.5997  1.7472 -1.0624
 3037SOL     OW20572   3.960   2.290   7.212  0.2723 -0.7952  0.1538
 3037SOL    HW120573   3.878   2.250   7.239  0.3817 -0.7275  0.5786
 3037SOL    HW220574   4.025   2.275   7.281  1.1205 -2.8112 -1.0850
 3038SOL     OW20575   0.634   2.428  10.838 -0.2368 -0.0195  0.1726
 3038SOL    HW120576   0.551   2.426  10.791  0.6764 -2.6188 -1.2949
 3038SOL    HW220577   0.685   2.490  10.787 -1.5274  1.5747  0.8151
 3039SOL     OW20578   1.103   4.330  15.079  0.5288  0.0539 -0.0161
 3039SOL    HW120579   1.132   4.368  15.162 -0.1468 -0.5881  0.5142
 3039SOL    HW220580   1.008   4.324  15.090  0.5014 -1.1792 -0.9003
 3040SOL     OW20581   3.907   3.800  16.667 -0.7395  0.3094  0.0370
 3040SOL    HW120582   3.877   3.780  16.756 -0.2591 -2.6953 -0.4696
 3040SOL    HW220583   3.939   3.889  16.683  3.3539 -1.1936  0.3044
 3041SOL     OW20584   2.650   0.860   5.941 -0.2144 -0.7719  0.2311
 3041SOL    HW120585   2.703   0.851   5.862 -1.0545 -0.2999 -0.3989
 3041SOL    HW220586   2.720   0.864   6.006  0.3354 -0.6944 -0.3634
 3042SOL     OW20587   1.878   4.354   7.443 -0.1902 -0.7132 -0.8287
 3042SOL    HW120588   1.920   4.300   7.510 -1.5891 -1.7645 -0.8180
 3042SOL    HW220589   1.808   4.290   7.435  0.5614 -1.7064  0.5962
 3043SOL     OW20590   4.244   2.729   7.495 -0.1818  0.0242  1.0719
 3043SOL    HW120591   4.316   2.666   7.504 -1.0777 -1.1397  0.1117
 3043SOL    HW220592   4.202   2.718   7.580  0.9876 -1.4110  1.4552
 3044SOL     OW20593   2.221   4.554   3.651  0.0087  0.2980  0.2429
 3044SOL    HW120594   2.225   4.646   3.627 -2.0233  0.2093 -0.4142
 3044SOL    HW220595   2.135   4.527   3.622 -0.0051  0.1328  0.4347
 3045SOL     OW20596   2.499   1.515   7.649 -0.1204  0.1102  0.4094
 3045SOL    HW120597   2.498   1.607   7.678  1.8679 -0.1045  1.1417
 3045SOL    HW220598   2.578   1.480   7.690  1.0598  1.4091 -0.7702
 3046SOL     OW20599   4.131   1.590   5.237  0.3984 -0.3022  0.0572
 3046SOL    HW120600   4.195   1.520   5.220 -0.0115 -0.3896 -1.1298
 3046SOL    HW220601   4.067   1.567   5.171 -0.3590  0.7956  0.4049
 3047SOL     OW20602   3.289   2.091   9.864 -0.0387  0.3521  0.1383
 3047SOL    HW120603   3.251   2.024   9.807 -0.1732  0.4021  0.1681
 3047SOL    HW220604   3.378   2.058   9.878 -0.0414  0.6543  0.8939
 3048SOL     OW20605   1.948   2.134   7.618 -0.1119 -0.2081  0.5287
 3048SOL    HW120606   2.003   2.148   7.696 -0.5738 -1.6227  1.1021
 3048SOL    HW220607   1.961   2.040   7.607 -1.1660 -0.3273  0.3106
 3049SOL     OW20608   3.264   1.075   1.426 -0.3382  0.0762 -0.0172
 3049SOL    HW120609   3.177   1.042   1.448 -1.3436  2.0457 -1.0446
 3049SOL    HW220610   3.305   1.010   1.483 -0.1492  1.5949  1.5504
 3050SOL     OW20611   3.923   1.901   4.107  0.3906  0.3605 -0.1790
 3050SOL    HW120612   3.933   1.808   4.125  1.3116  0.7936  1.5130
 3050SOL    HW220613   3.852   1.922   4.169  1.0871 -0.2521  0.8232
 3051SOL     OW20614   4.050   3.049   4.816 -0.7400  0.4674 -0.0297
 3051SOL    HW120615   3.984   3.015   4.755  0.3289  2.5232 -2.3048
 3051SOL    HW220616   4.009   3.024   4.899  1.2440 -2.9682 -0.0640
 3052SOL     OW20617   3.999   1.623   1.308 -0.0362 -0.4434 -0.1760
 3052SOL    HW120618   4.051   1.595   1.383 -0.8117 -0.9902  0.1642
 3052SOL    HW220619   3.963   1.705   1.342 -1.5428 -1.2446  0.2229
 3053SOL     OW20620   2.558   3.032   3.845  0.0187  0.2460  0.0851
 3053SOL    HW120621   2.630   2.977   3.875  0.2207 -0.0458 -0.9487
 3053SOL    HW220622   2.583   3.049   3.754 -0.9997 -1.7839 -0.5620
 3054SOL     OW20623   1.742   0.450   7.842  0.3332 -0.2327  0.1013
 3054SOL    HW120624   1.678   0.395   7.796  0.3264  0.5691 -0.8256
 3054SOL    HW220625   1.707   0.538   7.834 -2.1054 -1.2278 -0.1458
 3055SOL     OW20626   2.448   3.859   7.225  0.5008  0.0247 -0.3141
 3055SOL    HW120627   2.428   3.921   7.155 -1.7726 -1.1082 -0.6567
 3055SOL    HW220628   2.438   3.777   7.177 -0.0918  0.4146 -0.8585
 3056SOL     OW20629   3.688   1.424  12.748 -0.0250  0.4490  0.0461
 3056SOL    HW120630   3.762   1.367  12.771  0.3780  0.3204 -1.5555
 3056SOL    HW220631   3.651   1.437  12.835 -0.9710  1.7568 -0.5612
 3057SOL     OW20632   4.090   1.131  15.509 -0.5015  0.3961  0.4475
 3057SOL    HW120633   4.119   1.217  15.541 -1.0591 -0.0712  2.1510
 3057SOL    HW220634   4.006   1.152  15.468  0.0653  0.4080 -0.7210
 3058SOL     OW20635   2.485   1.493   3.707  0.4526  0.2381  0.1031
 3058SOL    HW120636   2.485   1.589   3.706  1.7039  0.2168 -2.4223
 3058SOL    HW220637   2.425   1.480   3.634  2.4650  0.3516 -1.5793
 3059SOL     OW20638   4.512   4.461   1.709 -0.2931 -0.2227  0.5064
 3059SOL    HW120639   4.491   4.449   1.802 -0.0252  1.0756  0.7366
 3059SOL    HW220640   4.479   4.379   1.675  0.2015 -0.4430  0.5540
 3060SOL     OW20641   2.704   2.274   9.514 -0.1273 -0.5145 -0.2422
 3060SOL    HW120642   2.641   2.316   9.571 -2.7601 -0.4963 -3.1900
 3060SOL    HW220643   2.784   2.291   9.564 -1.0914  0.1649  1.0765
 3061SOL     OW20644   4.692   0.759  12.472  0.0277 -0.2130 -0.0654
 3061SOL    HW120645   0.055   0.794  12.500  0.9129 -1.8932 -0.6527
 3061SOL    HW220646   0.006   0.682  12.429  3.1465  0.1951  1.7668
 3062SOL     OW20647   2.533   2.340   9.992 -0.1069  0.2260 -0.1268
 3062SOL    HW120648   2.437   2.337   9.990 -0.0435 -1.4980 -0.0746
 3062SOL    HW220649   2.538   2.284  10.070  0.0658  2.1214  1.2278
 3063SOL     OW20650   0.569   0.726   5.223  0.2047 -0.2020 -0.2180
 3063SOL    HW120651   0.504   0.795   5.237 -0.3196 -0.2288 -2.5848
 3063SOL    HW220652   0.533   0.672   5.153  0.0390  0.0657 -0.3382
 3064SOL     OW20653   2.662   2.830   9.696 -0.0551 -0.4386 -0.2966
 3064SOL    HW120654   2.576   2.823   9.739  0.7916  0.8605  1.6429
 3064SOL    HW220655   2.711   2.784   9.764 -0.2264  0.5156  0.4855
 3065SOL     OW20656   1.053   3.526  12.642  0.8648  0.2574 -0.6358
 3065SOL    HW120657   1.043   3.523  12.738  0.8736  0.7446 -0.6229
 3065SOL    HW220658   1.048   3.433  12.618 -2.7274  0.5150 -0.9752
 3066SOL     OW20659   4.203   3.346   6.136  0.1557  0.0895 -0.3944
 3066SOL    HW120660   4.255   3.269   6.159 -2.6147 -1.0777  2.0841
 3066SOL    HW220661   4.223   3.351   6.043 -0.1474 -0.9201 -0.5236
 3067SOL     OW20662   0.433   4.661   1.304 -0.1411 -0.1504  0.3074
 3067SOL    HW120663   0.482   4.612   1.237 -0.5739  1.1650 -0.9590
 3067SOL    HW220664   0.432   0.029   1.268  1.1475  0.1394  0.9691
 3068SOL     OW20665   1.233   2.441   1.903  0.1777  0.0764  0.0161
 3068SOL    HW120666   1.323   2.455   1.873  0.0684 -0.4099 -0.5319
 3068SOL    HW220667   1.191   2.397   1.829 -0.9418 -0.4321  0.9488
 3069SOL     OW20668   3.460   3.175  15.003  0.4628  0.2752  0.3541
 3069SOL    HW120669   3.401   3.234  14.956  1.2936  1.9546  1.4636
 3069SOL    HW220670   3.548   3.205  14.983 -0.2357  1.8807 -0.2680
 3070SOL     OW20671   4.547   2.337  10.744  0.1763  0.1223  0.2819
 3070SOL    HW120672   4.452   2.323  10.736 -0.1159  1.6915  0.8288
 3070SOL    HW220673   4.556   2.428  10.775  3.1501  0.2267 -0.9697
 3071SOL     OW20674   1.413   2.658   3.679 -0.4218 -0.3410  0.0707
 3071SOL    HW120675   1.377   2.746   3.677  0.2821 -0.0343  0.8564
 3071SOL    HW220676   1.350   2.611   3.735 -1.0550  0.8705  0.3741
 3072SOL     OW20677   4.580   2.913  15.302 -0.3124 -0.0209  0.1974
 3072SOL    HW120678   4.634   2.910  15.381  2.0752  0.3713 -1.4183
 3072SOL    HW220679   4.649   2.922  15.236  0.2642 -0.0377  0.7986
 3073SOL     OW20680   3.461   1.309  14.587 -0.1358  0.0753  0.1850
 3073SOL    HW120681   3.555   1.294  14.590 -0.1056  0.1025 -0.4890
 3073SOL    HW220682   3.467   1.402  14.612 -0.0825 -0.3161  1.5908
 3074SOL     OW20683   3.420   3.823   6.798  0.1860 -0.0743  0.4222
 3074SOL    HW120684   3.502   3.832   6.847  0.4910 -0.6968  0.0296
 3074SOL    HW220685   3.442   3.871   6.719 -0.5702  0.1920  0.3768
 3075SOL     OW20686   0.855   0.112   2.751 -0.2401  0.1758 -0.0963
 3075SOL    HW120687   0.918   0.142   2.817 -2.7640 -0.6986  2.7342
 3075SOL    HW220688   0.863   0.182   2.686 -0.3153  1.1857  0.9784
 3076SOL     OW20689   1.192   4.558   1.388 -0.0279 -0.2380 -0.3122
 3076SOL    HW120690   1.284   4.547   1.367  0.1132 -0.6534  0.5329
 3076SOL    HW220691   1.160   4.472   1.360  0.6166 -1.3790  2.4843
 3077SOL     OW20692   2.316   3.165   2.800 -0.2536 -0.1036  0.3570
 3077SOL    HW120693   2.328   3.074   2.829 -0.1030 -0.3116 -0.3706
 3077SOL    HW220694   2.304   3.205   2.886  0.4884  3.0122 -0.9920
 3078SOL     OW20695   1.701   1.594  15.634  0.7533  0.4491 -0.1846
 3078SOL    HW120696   1.663   1.539  15.566 -1.9069  2.2671 -0.1406
 3078SOL    HW220697   1.699   1.681  15.592  1.2566 -0.5257 -2.2302
 3079SOL     OW20698   0.789   0.233   1.627 -0.3013 -0.4623 -0.7516
 3079SOL    HW120699   0.761   0.147   1.596 -0.4202 -1.3694  1.9517
 3079SOL    HW220700   0.872   0.214   1.671 -0.5186  0.1710 -0.0684
 3080SOL     OW20701   4.490   2.446   0.130  0.4520 -0.4563 -0.1639
 3080SOL    HW120702   4.504   2.539   0.117 -0.4885 -0.2851  0.0351
 3080SOL    HW220703   4.404   2.434   0.089  0.1482  2.4274 -0.3054
 3081SOL     OW20704   1.256   3.002   6.612 -0.3567  0.4293  0.5224
 3081SOL    HW120705   1.269   2.959   6.697  1.9460  1.5925  0.7551
 3081SOL    HW220706   1.257   2.933   6.546  2.0706 -0.0562  1.0780
 3082SOL     OW20707   0.345   0.706   5.471 -0.0529  0.0663  0.2133
 3082SOL    HW120708   0.275   0.690   5.533  0.2303 -0.9693  0.2701
 3082SOL    HW220709   0.315   0.785   5.426 -2.2969  0.7405  2.9333
 3083SOL     OW20710   1.592   1.979   7.102 -0.0207  0.0435  0.2678
 3083SOL    HW120711   1.640   2.020   7.030 -2.0152  0.1120 -1.0302
 3083SOL    HW220712   1.653   1.996   7.174 -1.2782 -2.4653  1.9437
 3084SOL     OW20713   1.399   0.619  17.280 -0.4169  0.1184  0.2242
 3084SOL    HW120714   1.488   0.634  17.314 -1.2506  0.5000  2.2701
 3084SOL    HW220715   1.371   0.557  17.347 -0.7020 -0.2490 -0.2385
 3085SOL     OW20716   4.190   2.315   3.816 -0.1293 -0.2975 -0.0572
 3085SOL    HW120717   4.169   2.380   3.883 -0.0420 -2.3132  1.9330
 3085SOL    HW220718   4.113   2.258   3.820  0.4224 -1.0821 -0.6897
 3086SOL     OW20719   1.418   0.386   3.747 -0.5507  0.1083 -0.4269
 3086SOL    HW120720   1.349   0.448   3.772 -0.5817  0.0952 -0.4806
 3086SOL    HW220721   1.416   0.346   3.834  0.8603 -0.0744 -0.4775
 3087SOL     OW20722   3.113   2.304   5.199  0.1137 -0.4172 -0.1380
 3087SOL    HW120723   3.191   2.252   5.217  0.6217  0.7030  0.9229
 3087SOL    HW220724   3.042   2.240   5.207  0.1658 -0.2773  1.4881
 3088SOL     OW20725   2.975   1.632  17.182 -0.1876 -0.8379  0.1843
 3088SOL    HW120726   2.935   1.660  17.265  0.3680  2.0178 -0.5137
 3088SOL    HW220727   2.992   1.540  17.201  0.6616 -0.7670 -0.2301
 3089SOL     OW20728   0.769   0.399  11.925 -0.5023 -0.1800 -0.2240
 3089SOL    HW120729   0.680   0.413  11.894 -0.5686 -0.9698 -0.3947
 3089SOL    HW220730   0.761   0.421  12.018 -0.1111  1.1485 -0.5041
 3090SOL     OW20731   2.087   3.831   4.186  0.0280  0.7652  0.2253
 3090SOL    HW120732   2.120   3.916   4.215  0.5632  0.3272  0.9168
 3090SOL    HW220733   2.007   3.819   4.236 -0.0971 -0.7543 -0.3223
 3091SOL     OW20734   1.284   2.756  17.130 -0.5392 -0.1904  0.3460
 3091SOL    HW120735   1.296   2.826  17.194 -0.1972 -0.8795  1.0332
 3091SOL    HW220736   1.217   2.794  17.073 -0.3287  1.5963  1.2906
 3092SOL     OW20737   0.840   1.646  14.715 -0.0426  0.2554  0.2161
 3092SOL    HW120738   0.778   1.595  14.768 -1.1975  1.8977  0.4742
 3092SOL    HW220739   0.917   1.592  14.701 -1.0762 -0.8667 -1.1528
 3093SOL     OW20740   3.728   0.311  15.359 -0.4485 -0.9180 -0.1661
 3093SOL    HW120741   3.727   0.325  15.265  3.5543 -2.2795 -0.3866
 3093SOL    HW220742   3.740   0.401  15.391 -0.4943 -1.6554  1.9535
 3094SOL     OW20743   3.909   3.990   9.181  0.3376  0.2536 -0.0212
 3094SOL    HW120744   3.903   4.079   9.146  0.9691  0.0886 -0.5451
 3094SOL    HW220745   3.839   3.985   9.246  0.9368  0.2463  0.6320
 3095SOL     OW20746   3.835   0.336   2.160 -0.3030  0.2768  0.0403
 3095SOL    HW120747   3.882   0.350   2.078 -0.2867  2.5571  0.4200
 3095SOL    HW220748   3.905   0.378   2.211 -1.3879  0.0189  1.7412
 3096SOL     OW20749   3.616   4.331   7.679  0.6268 -0.0796 -0.3939
 3096SOL    HW120750   3.625   4.262   7.745 -0.1949  2.1843  2.0667
 3096SOL    HW220751   3.533   4.310   7.634  1.2776 -0.9026 -1.2153
 3097SOL     OW20752   3.683   1.343  14.842 -0.8413 -0.0675  0.0645
 3097SOL    HW120753   3.651   1.401  14.911 -1.3169 -1.3128  0.8901
 3097SOL    HW220754   3.755   1.398  14.810  0.2594 -2.0500 -0.8353
 3098SOL     OW20755   2.397   2.418   3.378  0.0668  0.4438 -0.0149
 3098SOL    HW120756   2.456   2.451   3.310 -1.0337 -0.0163 -1.2077
 3098SOL    HW220757   2.324   2.472   3.345 -1.2485 -1.2034  0.2477
 3099SOL     OW20758   4.310   3.456   6.975  0.3025 -0.4703 -0.0310
 3099SOL    HW120759   4.311   3.550   6.955  0.2006 -0.5525 -0.4225
 3099SOL    HW220760   4.364   3.465   7.054 -0.6740 -0.1087  0.5915
 3100SOL     OW20761   1.741   2.434  15.808 -0.5379 -0.0681 -0.0204
 3100SOL    HW120762   1.819   2.390  15.842 -0.3138 -0.3505 -0.8806
 3100SOL    HW220763   1.681   2.398  15.873  1.3529  1.1054  2.3548
 3101SOL     OW20764   2.673   0.951   4.662  0.3595 -0.6240 -0.2568
 3101SOL    HW120765   2.767   0.968   4.659  0.5189 -1.9165 -2.2940
 3101SOL    HW220766   2.654   0.971   4.754  1.3785 -2.5331  0.3551
 3102SOL     OW20767   0.721   4.163   2.100 -0.7301  0.3512  0.0233
 3102SOL    HW120768   0.683   4.230   2.157 -2.7931  0.9114 -2.0432
 3102SOL    HW220769   0.758   4.213   2.028 -0.3974  0.7173  0.4445
 3103SOL     OW20770   4.506   3.318   2.950  0.3346 -0.5377 -0.4238
 3103SOL    HW120771   4.478   3.257   3.018  1.0012 -1.4069 -0.9340
 3103SOL    HW220772   4.581   3.266   2.921  1.6798  1.0757  0.1493
 3104SOL     OW20773   2.984   1.022   2.015 -0.0000  0.1868  0.0214
 3104SOL    HW120774   3.040   1.050   2.088 -0.0211  1.3340 -0.4088
 3104SOL    HW220775   2.924   0.958   2.052  0.7797 -0.6124 -0.1079
 3105SOL     OW20776   0.257   4.384   4.485  0.6321  0.0854  0.2953
 3105SOL    HW120777   0.314   4.406   4.411 -0.8143  0.7267 -0.6470
 3105SOL    HW220778   0.301   4.426   4.559  0.3978  0.7252  0.0742
 3106SOL     OW20779   3.115   3.689   2.513  0.4039 -0.1851 -0.4794
 3106SOL    HW120780   3.052   3.681   2.584  0.2254  0.8747 -0.5073
 3106SOL    HW220781   3.162   3.607   2.518  1.9439  0.5004 -3.8029
 3107SOL     OW20782   1.727   2.759   5.439 -0.2003  0.3233  0.0947
 3107SOL    HW120783   1.759   2.670   5.433  1.5148  0.8814  1.0260
 3107SOL    HW220784   1.741   2.785   5.348 -0.8639  0.6078  0.0729
 3108SOL     OW20785   4.239   1.547   4.594  0.1380 -0.2935 -0.0862
 3108SOL    HW120786   4.216   1.585   4.679  1.9743 -1.0525  0.7512
 3108SOL    HW220787   4.163   1.495   4.570 -0.5847  2.0967 -2.9591
 3109SOL     OW20788   4.020   4.421  15.428 -0.1956 -0.0214  0.2398
 3109SOL    HW120789   4.021   4.483  15.501  0.2609 -1.6770  1.6414
 3109SOL    HW220790   3.995   4.341  15.474 -0.0871 -0.6028 -0.7175
 3110SOL     OW20791   3.457   3.735   6.061  0.7377 -0.1038 -0.7733
 3110SOL    HW120792   3.456   3.656   6.116  0.2602 -0.8273 -1.8092
 3110SOL    HW220793   3.510   3.703   5.988 -0.5733 -1.0697 -1.3135
 3111SOL     OW20794   2.616   1.242   7.338  0.4715 -0.1371  0.3588
 3111SOL    HW120795   2.710   1.256   7.346  0.4482  0.0370  0.3458
 3111SOL    HW220796   2.594   1.196   7.418  0.0540  0.4031  0.5536
 3112SOL     OW20797   4.041   0.274   4.858 -0.9015  0.3677  0.4540
 3112SOL    HW120798   4.073   0.190   4.824  1.2286  1.0404  0.8049
 3112SOL    HW220799   4.071   0.335   4.792  3.2665 -0.5597  1.5127
 3113SOL     OW20800   3.016   2.376   4.904  0.0403 -0.4928 -0.5988
 3113SOL    HW120801   3.104   2.411   4.922 -0.3634  1.1023 -1.7260
 3113SOL    HW220802   3.023   2.297   4.957  0.1542  0.1887  0.4225
 3114SOL     OW20803   0.675   2.735   9.896  0.0832  0.4308 -0.8945
 3114SOL    HW120804   0.597   2.728   9.951 -1.1815  0.8717 -2.6179
 3114SOL    HW220805   0.674   2.827   9.868  1.2772  0.9007  0.5657
 3115SOL     OW20806   2.111   2.026  17.241 -0.2909 -0.6130 -0.2251
 3115SOL    HW120807   2.149   2.062  17.160  1.6233 -0.8743  0.5656
 3115SOL    HW220808   2.034   1.982  17.205 -0.0686 -1.5952  0.5090
 3116SOL     OW20809   0.781   1.019   3.136  0.1516 -0.1725 -0.2444
 3116SOL    HW120810   0.797   0.959   3.063  0.3725  0.2009 -0.5024
 3116SOL    HW220811   0.689   1.040   3.120 -0.2776 -1.8545  0.0104
 3117SOL     OW20812   2.697   0.554   5.441 -0.1147 -0.2485  0.7495
 3117SOL    HW120813   2.784   0.516   5.426 -0.8179 -1.1583 -1.0138
 3117SOL    HW220814   2.668   0.491   5.508  0.1731 -0.5656  0.5789
 3118SOL     OW20815   3.559   4.276   4.556 -0.8297 -0.1277  0.4205
 3118SOL    HW120816   3.590   4.188   4.577 -1.0628 -0.5510 -0.9998
 3118SOL    HW220817   3.633   4.314   4.508 -1.5228  1.1979  0.3966
 3119SOL     OW20818   0.133   2.206   4.336 -0.1232  0.1500  0.3106
 3119SOL    HW120819   0.194   2.237   4.403  0.3428  1.1220 -0.5653
 3119SOL    HW220820   0.171   2.120   4.321  0.8347  0.8262 -1.1264
 3120SOL     OW20821   2.914   0.952   3.941  0.2738  0.1784  0.1344
 3120SOL    HW120822   2.934   0.889   3.871 -1.3049  0.3104 -0.4434
 3120SOL    HW220823   2.825   0.977   3.917 -0.2066 -1.3851  0.2579
 3121SOL     OW20824   4.184   4.437  15.210 -0.3792  0.8582  0.9479
 3121SOL    HW120825   4.152   4.454  15.299 -0.6360 -0.8055  1.1718
 3121SOL    HW220826   4.269   4.399  15.231  0.5716  1.1512 -2.5056
 3122SOL     OW20827   3.270   1.387   0.616  0.1177  0.1851 -0.2685
 3122SOL    HW120828   3.282   1.304   0.663  1.2148  1.3652  1.5435
 3122SOL    HW220829   3.191   1.362   0.569 -1.2011 -1.1853  2.6708
 3123SOL     OW20830   1.376   1.510   4.217 -0.6777  0.0667  0.1085
 3123SOL    HW120831   1.342   1.452   4.285  0.3212 -1.6307 -0.8511
 3123SOL    HW220832   1.468   1.483   4.215 -0.1942  1.6344  1.0760
 3124SOL     OW20833   3.708   2.730  15.766 -0.6414 -0.2157  0.6259
 3124SOL    HW120834   3.694   2.761  15.677  2.0287 -0.1061  0.2377
 3124SOL    HW220835   3.655   2.790  15.818  2.2006  1.0591  2.0336
 3125SOL     OW20836   0.852   4.680  14.329  0.3374 -1.3087 -0.0819
 3125SOL    HW120837   0.885   4.592  14.316  2.7100 -0.3652 -0.4337
 3125SOL    HW220838   0.935   0.006  14.327 -0.9374  0.8957 -1.8202
 3126SOL     OW20839   4.329   0.132   7.902 -0.0292 -0.3100 -0.4374
 3126SOL    HW120840   4.380   0.053   7.919  0.6254 -0.1922 -1.9111
 3126SOL    HW220841   4.242   0.092   7.903 -0.1190 -0.1802 -3.6918
 3127SOL     OW20842   1.221   2.455  11.170  0.3927  0.0470 -0.3725
 3127SOL    HW120843   1.175   2.372  11.167  0.1277  0.2115 -1.0384
 3127SOL    HW220844   1.209   2.482  11.261 -1.8612 -2.2619  0.0063
 3128SOL     OW20845   3.686   2.272  13.917  0.2599  0.3480 -0.2278
 3128SOL    HW120846   3.684   2.320  14.000 -1.6912 -1.9599  1.0383
 3128SOL    HW220847   3.779   2.256  13.903  0.2780 -1.0369  1.4877
 3129SOL     OW20848   1.801   0.524   8.389 -0.3361  0.0717  0.2654
 3129SOL    HW120849   1.731   0.584   8.414  0.3718  0.0371  2.3086
 3129SOL    HW220850   1.805   0.539   8.294  0.5742  1.0317  0.4535
 3130SOL     OW20851   3.795   3.163   4.422 -0.6462  0.1877  0.8903
 3130SOL    HW120852   3.710   3.164   4.467  0.0640 -0.0496  2.2327
 3130SOL    HW220853   3.850   3.108   4.477 -1.6210  0.2469  1.9372
 3131SOL     OW20854   1.875   0.364   5.120 -0.3611  0.0269  0.2301
 3131SOL    HW120855   1.901   0.430   5.056  3.8188  0.9643  2.9148
 3131SOL    HW220856   1.913   0.288   5.076  1.2502 -0.3928  2.3764
 3132SOL     OW20857   0.966   4.658   5.088  0.5951 -0.2223 -0.4324
 3132SOL    HW120858   0.999   0.025   5.109  1.5963 -1.0024  1.3042
 3132SOL    HW220859   1.007   4.601   5.153  0.6530 -2.1941 -2.1789
 3133SOL     OW20860   2.094   1.561  10.909  0.0797  0.0413 -0.0126
 3133SOL    HW120861   2.014   1.564  10.961  0.0391 -1.2304  0.0078
 3133SOL    HW220862   2.157   1.516  10.965  1.2510  0.4699 -0.9832
 3134SOL     OW20863   0.254   2.768  11.086  0.5220 -0.5417  0.3152
 3134SOL    HW120864   0.311   2.726  11.151 -1.1629 -0.4105  1.8764
 3134SOL    HW220865   0.328   2.809  11.043 -1.8326  1.8199 -1.4293
 3135SOL     OW20866   1.503   3.419   7.159 -0.4813 -0.1719  0.2815
 3135SOL    HW120867   1.546   3.418   7.245 -1.1535 -2.9472  0.5842
 3135SOL    HW220868   1.559   3.475   7.104 -2.9947 -0.1273 -2.2008
 3136SOL     OW20869   1.916   1.199   5.808  0.0355 -0.1709 -0.3980
 3136SOL    HW120870   1.918   1.252   5.728  0.4619 -0.8701 -0.8565
 3136SOL    HW220871   1.831   1.213   5.848  0.7609  1.0996  0.6837
 3137SOL     OW20872   1.286   4.182   4.309 -0.1653  0.0793 -0.1184
 3137SOL    HW120873   1.302   4.237   4.386  1.7879  0.4857 -0.7923
 3137SOL    HW220874   1.191   4.176   4.317 -0.1406 -1.7907 -1.1560
 3138SOL     OW20875   3.104   0.216   6.361  0.1266 -0.1910  1.0215
 3138SOL    HW120876   3.047   0.184   6.431 -0.4384 -0.1096  0.6015
 3138SOL    HW220877   3.182   0.248   6.407  1.8125  0.6304 -2.3691
 3139SOL     OW20878   0.432   1.543   1.686  0.0928  0.3664 -0.2029
 3139SOL    HW120879   0.494   1.470   1.687 -1.1497 -0.6743  0.3315
 3139SOL    HW220880   0.464   1.602   1.754  1.2037  0.1910 -0.5721
 3140SOL     OW20881   0.091   2.504   6.104  0.3753  0.6196 -0.0209
 3140SOL    HW120882   0.031   2.453   6.158  1.0268  0.1759  0.2893
 3140SOL    HW220883   0.148   2.545   6.169  3.5183 -1.4724 -1.4657
 3141SOL     OW20884   0.455   4.194   5.578 -0.0911  0.2179  0.4477
 3141SOL    HW120885   0.530   4.209   5.636 -0.0321  2.3565 -0.1899
 3141SOL    HW220886   0.379   4.232   5.623 -0.3860 -0.3129  0.3979
 3142SOL     OW20887   0.691   3.479   5.516 -0.3185  0.2450 -0.3843
 3142SOL    HW120888   0.779   3.508   5.493 -0.3803  0.5084 -0.2956
 3142SOL    HW220889   0.705   3.467   5.610  0.1158  1.8147 -0.2429
 3143SOL     OW20890   2.951   0.880   4.754 -0.7991  0.0925 -0.4434
 3143SOL    HW120891   2.919   0.792   4.735 -1.4611  0.1944  0.1846
 3143SOL    HW220892   3.016   0.859   4.822 -0.0868 -0.3377 -1.2622
 3144SOL     OW20893   2.561   4.479   2.019  0.2303  0.3901 -0.1501
 3144SOL    HW120894   2.531   4.569   2.033  0.6912  0.5958 -0.4745
 3144SOL    HW220895   2.562   4.470   1.924 -0.1631 -1.8816  0.0616
 3145SOL     OW20896   2.247   2.532  10.103  0.2235 -0.3377  0.5139
 3145SOL    HW120897   2.269   2.439  10.116  0.6955 -0.4240 -1.0041
 3145SOL    HW220898   2.152   2.535  10.107  0.2029  0.2923 -0.6793
 3146SOL     OW20899   0.900   3.843   5.080  0.0876 -0.4908  0.2436
 3146SOL    HW120900   0.874   3.779   5.013 -2.2712  1.2041 -0.4559
 3146SOL    HW220901   0.813   3.873   5.108  0.5198 -0.8839  1.9956
 3147SOL     OW20902   3.236   1.236   4.411  0.3810 -0.8954 -0.2125
 3147SOL    HW120903   3.223   1.292   4.487 -1.2397 -1.5410 -0.0136
 3147SOL    HW220904   3.177   1.168   4.442 -2.0409  2.2688  2.1309
 3148SOL     OW20905   0.186   4.367   2.495  0.4948 -0.6393 -0.1911
 3148SOL    HW120906   0.183   4.355   2.590 -1.0357  0.5898 -0.0763
 3148SOL    HW220907   0.202   4.279   2.461  0.4284 -0.8613  0.3508
 3149SOL     OW20908   1.387   3.483   5.746  0.3946  0.0244  0.1134
 3149SOL    HW120909   1.304   3.486   5.697  0.0444 -1.5773  0.6062
 3149SOL    HW220910   1.397   3.389   5.759  1.6837  0.1932  0.3620
 3150SOL     OW20911   1.590   2.155  13.152 -0.0028  0.0003 -0.5835
 3150SOL    HW120912   1.634   2.128  13.072  1.8188 -0.5286  0.6129
 3150SOL    HW220913   1.509   2.104  13.141 -1.3414  2.3447 -1.6100
 3151SOL     OW20914   3.860   3.603   8.368 -0.1546  0.2461  0.4098
 3151SOL    HW120915   3.895   3.674   8.313  0.1824 -2.7044 -3.2090
 3151SOL    HW220916   3.835   3.659   8.442 -0.2298 -1.0745  1.3758
 3152SOL     OW20917   3.896   2.255  11.462 -0.2035 -0.7343  0.2761
 3152SOL    HW120918   3.927   2.345  11.457 -0.7374 -0.5692 -0.0461
 3152SOL    HW220919   3.903   2.225  11.372  0.0050 -0.3870  0.1798
 3153SOL     OW20920   3.286   2.689   4.315 -0.8587 -0.2870  0.1406
 3153SOL    HW120921   3.232   2.665   4.391 -0.9773  2.2941  0.8674
 3153SOL    HW220922   3.239   2.758   4.269  0.5078  0.2256 -0.4808
 3154SOL     OW20923   2.917   2.296   2.894  0.6835 -0.0676 -0.3770
 3154SOL    HW120924   2.916   2.307   2.799 -4.2345  1.6933 -0.1046
 3154SOL    HW220925   2.991   2.350   2.920  1.9024 -1.1084 -1.7345
 3155SOL     OW20926   2.764   0.286   7.515  0.0882  0.2736 -0.1339
 3155SOL    HW120927   2.819   0.359   7.486  0.0773  0.1793 -0.3940
 3155SOL    HW220928   2.708   0.268   7.439 -1.0090  1.6926  0.3425
 3156SOL     OW20929   0.708   1.177   4.998  0.5720  0.1950 -0.1323
 3156SOL    HW120930   0.684   1.265   4.969 -0.6759 -0.4423 -1.0528
 3156SOL    HW220931   0.642   1.128   4.949 -0.9179  0.3265  1.7157
 3157SOL     OW20932   2.925   0.976   0.745  0.2807  0.4858 -0.1915
 3157SOL    HW120933   2.912   1.037   0.818 -1.7624  0.3941 -0.4598
 3157SOL    HW220934   2.928   0.895   0.796  1.8348  1.7790  1.8004
 3158SOL     OW20935   2.966   1.893   7.801  0.0070 -0.3896  0.1068
 3158SOL    HW120936   2.943   1.969   7.856 -0.1231  0.7541 -1.5211
 3158SOL    HW220937   2.989   1.940   7.721 -0.4315 -1.2356 -0.5140
 3159SOL     OW20938   3.842   1.600  15.076  0.0118  0.0999 -0.4512
 3159SOL    HW120939   3.752   1.575  15.058  0.1796 -1.2152  0.5595
 3159SOL    HW220940   3.850   1.568  15.166  3.1836  1.0505 -0.4007
 3160SOL     OW20941   3.126   2.891   4.181 -0.0346 -0.5376  0.3727
 3160SOL    HW120942   3.031   2.878   4.187  0.0911 -1.2483  0.8708
 3160SOL    HW220943   3.142   2.906   4.088 -1.0782 -0.6325  0.1767
 3161SOL     OW20944   1.990   3.682   7.384 -0.3348 -0.5776  0.3593
 3161SOL    HW120945   1.997   3.766   7.339 -1.6152 -0.4400  0.4239
 3161SOL    HW220946   2.015   3.705   7.474  1.1712  1.8629 -0.6868
 3162SOL     OW20947   0.457   3.012  11.849 -0.2518  0.1331  0.0540
 3162SOL    HW120948   0.423   2.931  11.810  0.5813  0.1668 -0.7334
 3162SOL    HW220949   0.396   3.083  11.831  0.7690  1.1765  0.7531
 3163SOL     OW20950   0.035   0.506   5.997 -0.2538  0.2895  0.2930
 3163SOL    HW120951   0.128   0.522   5.982 -0.8774 -0.4181 -4.3202
 3163SOL    HW220952   0.027   0.435   5.934  0.4506  0.6705 -0.2271
 3164SOL     OW20953   0.909   1.320  14.232 -0.1436  0.2753 -0.1457
 3164SOL    HW120954   0.945   1.272  14.306 -2.0632 -0.7091  0.1308
 3164SOL    HW220955   0.943   1.408  14.249 -0.2920  0.5753 -1.4060
 3165SOL     OW20956   2.793   4.533   7.956 -0.2727  0.0437 -0.0581
 3165SOL    HW120957   2.854   4.602   7.930 -0.3411 -0.5494 -1.7825
 3165SOL    HW220958   2.849   4.455   7.952 -1.5062 -0.9225  1.5878
 3166SOL     OW20959   3.720   1.792   6.106  0.2093  0.3352  0.7368
 3166SOL    HW120960   3.759   1.766   6.189  1.5811 -0.1754 -0.0779
 3166SOL    HW220961   3.667   1.714   6.089  0.5434  0.4188 -0.6856
 3167SOL     OW20962   0.586   2.925   7.807  0.3083 -0.4679 -0.3465
 3167SOL    HW120963   0.637   2.979   7.748  1.2236 -1.6138 -0.6018
 3167SOL    HW220964   0.499   2.921   7.768 -0.7984 -0.0870  2.0567
 3168SOL     OW20965   4.234   1.607   0.985  0.2918  0.0225 -0.1343
 3168SOL    HW120966   4.264   1.634   1.071 -0.5370  0.0768  0.1422
 3168SOL    HW220967   4.250   1.677   0.922 -0.3196 -0.7496 -1.1662
 3169SOL     OW20968   3.663   2.109  11.501  0.4852  0.8273  0.1078
 3169SOL    HW120969   3.650   2.192  11.456 -0.9624  0.6383  0.1677
 3169SOL    HW220970   3.672   2.043  11.432  1.2832  0.3234  0.6907
 3170SOL     OW20971   0.353   0.837   7.983 -0.3595  0.0729 -0.0090
 3170SOL    HW120972   0.408   0.914   8.001  0.5967 -0.5476 -0.2642
 3170SOL    HW220973   0.304   0.859   7.904 -0.2400  1.6059  0.3388
 3171SOL     OW20974   0.403   3.981   8.716 -0.3152 -0.0726 -0.5039
 3171SOL    HW120975   0.490   3.943   8.728 -1.4325 -2.6146 -0.4801
 3171SOL    HW220976   0.344   3.920   8.761 -1.1737 -0.2792 -1.8995
 3172SOL     OW20977   1.332   0.727   8.855 -0.2266 -0.3825 -0.8966
 3172SOL    HW120978   1.396   0.724   8.925  2.4721 -1.6746 -3.4068
 3172SOL    HW220979   1.396   0.739   8.785 -1.2560 -1.2754 -2.0187
 3173SOL     OW20980   1.626   1.524  14.395 -0.3880 -0.1153  0.3618
 3173SOL    HW120981   1.552   1.559  14.346  0.5787 -1.4246 -2.0410
 3173SOL    HW220982   1.586   1.470  14.464 -0.1962  0.4377  0.9054
 3174SOL     OW20983   3.042   0.279   7.578  0.3393 -0.3480 -0.1542
 3174SOL    HW120984   3.017   0.188   7.562  0.2669 -0.0208 -1.9337
 3174SOL    HW220985   3.012   0.337   7.508  2.0285  1.1583  0.3709
 3175SOL     OW20986   2.315   2.113   9.694 -0.3716  0.4088  0.4815
 3175SOL    HW120987   2.394   2.102   9.642 -1.7909 -3.5702 -0.8877
 3175SOL    HW220988   2.355   2.087   9.777 -4.2367  1.0316  2.5572
 3176SOL     OW20989   3.933   2.749   8.549  0.2837  0.3403 -0.2405
 3176SOL    HW120990   3.965   2.810   8.616 -2.4206  2.0168 -0.4626
 3176SOL    HW220991   3.932   2.671   8.605  0.5672 -0.6264 -1.5819
 3177SOL     OW20992   3.697   3.158  15.767 -0.0293  0.2229  0.0502
 3177SOL    HW120993   3.792   3.153  15.782  0.2173  1.2331 -1.1681
 3177SOL    HW220994   3.685   3.225  15.699 -0.2891  0.4785  0.3496
 3178SOL     OW20995   1.230   1.066  10.569 -0.0388 -0.3744 -0.3194
 3178SOL    HW120996   1.301   1.129  10.562 -0.8395  0.6723  1.0606
 3178SOL    HW220997   1.182   1.091  10.490  1.9395 -0.9233 -1.6915
 3179SOL     OW20998   1.243   3.959  14.211 -0.1326 -0.6044 -0.4294
 3179SOL    HW120999   1.180   3.931  14.277  1.3540 -0.2243  1.1512
 3179SOL    HW221000   1.185   3.979  14.137  0.2293 -1.9461 -1.0693
 3180SOL     OW21001   1.513   4.079   4.199 -0.3196  0.1405  0.0992
 3180SOL    HW121002   1.502   4.031   4.117  0.1314 -0.1990  0.2382
 3180SOL    HW221003   1.427   4.117   4.220 -0.6556 -0.7606  0.3299
 3181SOL     OW21004   1.943   4.691   0.983  0.6483 -0.0041  0.5270
 3181SOL    HW121005   1.904   4.605   1.000  1.2697  0.0975  2.4696
 3181SOL    HW221006   1.865   0.025   0.973 -0.6762 -1.6239  2.0616
 3182SOL     OW21007   1.522   0.904   7.694 -0.2703  0.8936  0.0152
 3182SOL    HW121008   1.519   0.992   7.654 -0.0316  0.5018 -0.8738
 3182SOL    HW221009   1.472   0.920   7.774 -0.8810  0.9325 -0.3773
 3183SOL     OW21010   3.566   4.467   3.566  0.1514  0.3283 -0.0992
 3183SOL    HW121011   3.495   4.467   3.631  0.3538 -1.9608  0.1011
 3183SOL    HW221012   3.594   4.376   3.564 -0.5855  0.0894  0.4110
 3184SOL     OW21013   4.092   3.191   2.580  1.0470 -0.3475  0.0155
 3184SOL    HW121014   4.187   3.192   2.595  1.0112  0.7348  0.1673
 3184SOL    HW221015   4.083   3.108   2.627 -1.9191 -0.1402 -0.2230
 3185SOL     OW21016   1.016   3.262   8.010 -0.6992  0.4711  0.2812
 3185SOL    HW121017   1.095   3.213   8.029 -1.4289 -0.8309 -0.0363
 3185SOL    HW221018   1.054   3.348   8.030 -2.1818  1.1992 -0.0113
 3186SOL     OW21019   4.136   0.566   8.816  0.8194  0.1359 -0.7741
 3186SOL    HW121020   4.041   0.565   8.808  0.4911  1.9254  3.1402
 3186SOL    HW221021   4.139   0.515   8.897  1.6184 -1.0267 -1.5237
 3187SOL     OW21022   4.105   4.227   7.338 -0.7786 -0.1534  0.0996
 3187SOL    HW121023   4.181   4.231   7.397 -0.4426 -0.9664 -0.2794
 3187SOL    HW221024   4.125   4.293   7.272 -0.0105 -0.1336  0.3550
 3188SOL     OW21025   0.132   1.246   7.920  0.2114  0.2712  0.3645
 3188SOL    HW121026   0.133   1.334   7.956 -1.1441  0.7181 -0.6963
 3188SOL    HW221027   0.222   1.241   7.888  0.0472 -0.0946 -0.0390
 3189SOL     OW21028   4.615   3.438  14.282  0.1261 -0.0480 -0.2880
 3189SOL    HW121029   4.623   3.456  14.375 -0.5446 -3.4670  0.4500
 3189SOL    HW221030   4.584   3.522  14.247  0.5756 -0.1714 -0.9990
 3190SOL     OW21031   1.393   1.707  12.147 -0.1351 -0.3484 -0.0666
 3190SOL    HW121032   1.381   1.701  12.052  5.5131  0.3903 -0.8113
 3190SOL    HW221033   1.486   1.724  12.139 -0.1415 -0.3822 -0.2160
 3191SOL     OW21034   0.040   0.974   5.757 -0.2651 -0.0830  0.2538
 3191SOL    HW121035   0.070   1.009   5.672  1.7255 -1.9354  0.1810
 3191SOL    HW221036   4.671   1.006   5.751 -0.3056 -0.0069  1.4386
 3192SOL     OW21037   1.757   2.133   6.482 -0.4194  0.0827 -0.5873
 3192SOL    HW121038   1.827   2.163   6.424  1.2416  1.5105  2.1480
 3192SOL    HW221039   1.770   2.043   6.512 -2.6573  0.1583  0.5959
 3193SOL     OW21040   0.389   2.336  14.933 -0.5700 -0.2963 -0.3055
 3193SOL    HW121041   0.450   2.270  14.964 -1.4443 -1.3085 -0.7388
 3193SOL    HW221042   0.315   2.283  14.903 -1.3031 -0.8217  2.4162
 3194SOL     OW21043   0.619   2.657   2.551  0.4422 -0.2619  0.2522
 3194SOL    HW121044   0.614   2.665   2.456  1.8640 -0.8489  0.1269
 3194SOL    HW221045   0.589   2.568   2.562  2.6650 -0.8114  1.9517
 3195SOL     OW21046   0.595   0.504   8.273 -0.3019 -0.2919  0.1061
 3195SOL    HW121047   0.683   0.529   8.300 -0.4755  0.4251  0.0099
 3195SOL    HW221048   0.553   0.489   8.358 -1.1371  0.3272 -0.1920
 3196SOL     OW21049   1.418   4.389   6.967 -0.2193 -0.0791  0.5068
 3196SOL    HW121050   1.425   4.310   6.912 -1.1107  0.8247 -0.9069
 3196SOL    HW221051   1.416   4.349   7.054  0.4206 -0.5426  0.3133
 3197SOL     OW21052   3.103   3.520  13.792  0.3009 -0.2507 -0.0224
 3197SOL    HW121053   3.028   3.553  13.841 -0.2493 -1.0988 -0.2860
 3197SOL    HW221054   3.160   3.508  13.868  2.3368 -1.6280 -1.7746
 3198SOL     OW21055   3.374   0.264   1.741  0.1607 -0.6564  0.2956
 3198SOL    HW121056   3.460   0.293   1.710 -0.7857  0.8887 -0.8671
 3198SOL    HW221057   3.394   0.244   1.832  0.0393  0.6180  0.5972
 3199SOL     OW21058   0.342   2.248   4.498 -0.1995  0.0218 -0.1820
 3199SOL    HW121059   0.338   2.323   4.557  0.9179  1.0666 -1.4330
 3199SOL    HW221060   0.432   2.251   4.463 -0.3724  1.5871 -0.4720
 3200SOL     OW21061   3.240   0.156   4.610  0.0623  0.7416 -0.8443
 3200SOL    HW121062   3.291   0.104   4.672  1.2465  0.9198 -1.6704
 3200SOL    HW221063   3.314   0.204   4.572 -0.2309  1.0020 -1.0831
 3201SOL     OW21064   1.062   2.539   2.162  0.2751 -0.3189  0.2990
 3201SOL    HW121065   1.088   2.532   2.070  1.2249 -0.0516  0.5498
 3201SOL    HW221066   1.108   2.621   2.183 -1.4249  0.5654  0.5535
 3202SOL     OW21067   3.923   3.328   9.293  0.4202 -0.6121 -0.2092
 3202SOL    HW121068   3.903   3.403   9.349  3.0782  1.6050 -2.2365
 3202SOL    HW221069   3.856   3.264   9.318 -1.7341  2.2998  1.6012
 3203SOL     OW21070   1.762   2.459  11.071 -0.6714  0.6654 -0.2935
 3203SOL    HW121071   1.742   2.390  11.135 -1.3015  0.1621 -1.0261
 3203SOL    HW221072   1.801   2.522  11.132 -0.3501  0.1694  0.0107
 3204SOL     OW21073   2.052   4.476   6.547 -0.7328 -0.2177 -0.3656
 3204SOL    HW121074   1.986   4.495   6.615  0.4562  1.0427  0.4574
 3204SOL    HW221075   2.115   4.429   6.602  0.9311  0.5770 -1.6235
 3205SOL     OW21076   2.686   3.806   7.703  0.8221 -0.7665 -0.2877
 3205SOL    HW121077   2.757   3.835   7.645 -1.6761  3.7407 -1.0896
 3205SOL    HW221078   2.610   3.817   7.645  1.4834 -0.4234 -1.0982
 3206SOL     OW21079   4.706   2.851  15.552  0.1201 -0.1035  0.1175
 3206SOL    HW121080   0.008   2.943  15.536 -1.2257  0.1241 -0.4863
 3206SOL    HW221081   0.001   2.852  15.646 -0.6141  2.1478  0.2244
 3207SOL     OW21082   1.315   4.592   7.869  0.2738  0.0395 -0.4741
 3207SOL    HW121083   1.223   4.580   7.893 -0.0681 -0.0409 -1.7801
 3207SOL    HW221084   1.358   4.507   7.868  0.9676  0.3958 -1.1560
 3208SOL     OW21085   3.544   1.330   6.668 -0.7276  0.0129  0.5155
 3208SOL    HW121086   3.564   1.240   6.693  1.6163  0.4652  0.2881
 3208SOL    HW221087   3.451   1.325   6.647 -0.5452 -1.3536  0.0707
 3209SOL     OW21088   1.815   1.084   2.189  0.4749 -0.2706 -0.2511
 3209SOL    HW121089   1.791   1.084   2.282 -2.1440  0.8413 -0.9281
 3209SOL    HW221090   1.836   0.994   2.165  1.1325 -0.8637  2.5842
 3210SOL     OW21091   0.600   0.405   5.491 -0.5196  0.1011 -0.4290
 3210SOL    HW121092   0.555   0.416   5.408 -1.0321  0.4195 -0.1118
 3210SOL    HW221093   0.606   0.495   5.524 -1.8687  0.7396 -1.9483
 3211SOL     OW21094   1.046   1.783   4.135  0.0470 -0.1207  0.3371
 3211SOL    HW121095   1.073   1.748   4.220 -0.2590  0.1916  0.5598
 3211SOL    HW221096   1.134   1.800   4.100 -0.0019  0.2569  0.4019
 3212SOL     OW21097   3.018   0.961   1.505  0.1606 -0.3022 -0.6229
 3212SOL    HW121098   2.927   0.986   1.522 -0.2633 -2.3716  0.1438
 3212SOL    HW221099   3.041   0.930   1.592  1.6487  1.3759 -0.4017
 3213SOL     OW21100   0.467   2.230   5.498 -0.0351  0.3234 -0.5490
 3213SOL    HW121101   0.524   2.158   5.524 -1.7755 -0.6207  0.6131
 3213SOL    HW221102   0.431   2.251   5.584  1.6467  0.1287  0.2023
 3214SOL     OW21103   4.568   1.008   6.143  0.3979  0.5026  0.2947
 3214SOL    HW121104   4.564   0.963   6.227  2.1617 -2.6757 -1.3268
 3214SOL    HW221105   4.658   0.992   6.116 -0.5548 -0.4935 -2.2828
 3215SOL     OW21106   2.365   2.462  14.766 -0.3794 -0.3850  0.0445
 3215SOL    HW121107   2.366   2.417  14.682 -0.4722 -1.8183  0.8161
 3215SOL    HW221108   2.302   2.533  14.753 -0.6212 -0.5628  0.2354
 3216SOL     OW21109   1.215   0.159   4.962 -0.2544 -0.2912 -0.1957
 3216SOL    HW121110   1.264   0.094   4.912 -1.5615 -0.8984 -0.7042
 3216SOL    HW221111   1.273   0.182   5.034 -0.1306 -1.7294  0.1657
 3217SOL     OW21112   4.399   0.913   7.457 -0.1938  0.1948 -0.0723
 3217SOL    HW121113   4.433   1.002   7.447  1.0261 -0.3166 -0.5685
 3217SOL    HW221114   4.443   0.887   7.538  0.9951 -0.7991 -1.0372
 3218SOL     OW21115   1.718   0.050  11.869  0.0573 -0.2037  0.2240
 3218SOL    HW121116   1.682   4.712  11.803  2.6534  2.0347 -3.1843
 3218SOL    HW221117   1.646   0.108  11.895 -0.3543 -0.4099 -0.4354
 3219SOL     OW21118   1.812   1.566   3.783  0.1058 -0.3582  0.2574
 3219SOL    HW121119   1.786   1.658   3.781 -1.6937 -0.8426  1.7481
 3219SOL    HW221120   1.894   1.585   3.830 -1.3117  0.5069  2.3854
 3220SOL     OW21121   4.367   1.839   9.316 -0.2337 -0.1414  0.2759
 3220SOL    HW121122   4.454   1.804   9.295 -0.4172 -0.7197  0.5096
 3220SOL    HW221123   4.310   1.763   9.323  0.0350 -0.3451  0.2491
 3221SOL     OW21124   4.242   1.940   4.937  0.1632 -0.3929  0.3961
 3221SOL    HW121125   4.329   1.969   4.911 -0.1933 -0.0998 -0.4920
 3221SOL    HW221126   4.253   1.906   5.026 -1.2238  1.9552  1.4432
 3222SOL     OW21127   1.970   2.790   6.204  0.4940  0.2604 -0.0186
 3222SOL    HW121128   1.955   2.768   6.112  1.8379  1.5151 -0.5321
 3222SOL    HW221129   1.988   2.700   6.235 -0.2766  0.4464  0.9697
 3223SOL     OW21130   1.417   0.012   4.042 -0.1786 -0.4068  0.4243
 3223SOL    HW121131   1.486   0.026   3.976 -0.6011  1.4517  0.3725
 3223SOL    HW221132   1.347   0.042   3.984  0.9801 -2.6864 -2.1474
 3224SOL     OW21133   3.081   2.983   3.055 -0.4663 -0.5592 -0.3031
 3224SOL    HW121134   3.120   3.016   3.136 -0.3041  0.0439 -0.6265
 3224SOL    HW221135   2.990   2.988   3.084  0.0380  1.4148  0.9608
 3225SOL     OW21136   2.366   3.681   9.116  0.1437  0.4606  0.1004
 3225SOL    HW121137   2.310   3.604   9.128 -1.3449  1.5941  0.4104
 3225SOL    HW221138   2.438   3.673   9.178  2.0615 -0.2332 -2.2450
 3226SOL     OW21139   0.934   2.260   7.006  0.5421  0.0602  0.1329
 3226SOL    HW121140   0.923   2.261   6.910  0.5134 -2.1895  0.1126
 3226SOL    HW221141   0.850   2.233   7.044  0.2629  0.2459 -0.3457
 3227SOL     OW21142   1.518   2.373   7.733 -0.0972  0.5143  0.2439
 3227SOL    HW121143   1.574   2.404   7.804 -1.0677 -1.0281  1.6847
 3227SOL    HW221144   1.582   2.320   7.686  0.2153  0.5953  0.5855
 3228SOL     OW21145   3.677   4.592   4.846  0.0323  0.1810  0.7211
 3228SOL    HW121146   3.657   4.639   4.927  0.4412  0.6832  0.5312
 3228SOL    HW221147   3.770   4.611   4.833  0.2173  1.0290  3.1240
 3229SOL     OW21148   2.402   3.859   4.696  0.2986  0.2216  0.2483
 3229SOL    HW121149   2.443   3.871   4.782  2.4997  2.2270 -1.0633
 3229SOL    HW221150   2.463   3.922   4.658 -0.1852 -0.9386 -2.4582
 3230SOL     OW21151   2.409   0.971   6.632 -0.1808 -0.6961  0.1899
 3230SOL    HW121152   2.491   0.921   6.630  0.8747  1.0419 -0.1626
 3230SOL    HW221153   2.403   0.999   6.541 -1.4211 -1.9730 -0.1091
 3231SOL     OW21154   4.613   1.138   7.817 -0.3831  0.6210 -0.6088
 3231SOL    HW121155   4.694   1.171   7.856  1.6492  0.0064 -4.3259
 3231SOL    HW221156   4.630   1.047   7.795 -2.8194 -0.5449  2.2689
 3232SOL     OW21157   0.447   3.023   8.444  0.5638 -0.4266 -0.5431
 3232SOL    HW121158   0.405   3.030   8.530 -0.7418  0.3141 -1.2403
 3232SOL    HW221159   0.401   3.082   8.384 -0.8228 -0.1503  0.8072
 3233SOL     OW21160   0.821   2.095   2.875 -0.0491  0.1551 -0.4810
 3233SOL    HW121161   0.744   2.107   2.821  1.3935 -3.7107 -3.3483
 3233SOL    HW221162   0.794   2.019   2.927 -1.6052 -0.8800 -2.8530
 3234SOL     OW21163   4.010   4.374  13.995 -0.1212  0.1332 -0.1488
 3234SOL    HW121164   4.091   4.350  13.948  1.0688 -1.0025  2.5175
 3234SOL    HW221165   4.044   4.458  14.026  1.2025 -0.2355 -0.5960
 3235SOL     OW21166   1.726   1.384  16.147 -0.4650  0.0759 -0.2095
 3235SOL    HW121167   1.640   1.362  16.181 -0.3567 -1.0330 -0.6471
 3235SOL    HW221168   1.712   1.476  16.125 -1.4753  0.2414  1.1513
 3236SOL     OW21169   1.837   0.456   5.763 -0.5051  0.6866  0.2182
 3236SOL    HW121170   1.874   0.539   5.794  1.3025  0.2601 -0.8125
 3236SOL    HW221171   1.749   0.479   5.794 -1.3524  1.1972 -2.6021
 3237SOL     OW21172   1.219   2.175   6.093  0.1894  0.2795 -0.0866
 3237SOL    HW121173   1.237   2.236   6.021  0.7517  0.0956 -0.1036
 3237SOL    HW221174   1.289   2.197   6.154  2.4425 -1.1103 -2.1520
 3238SOL     OW21175   4.116   2.806   5.523 -0.2884 -0.4002  0.4577
 3238SOL    HW121176   4.040   2.780   5.471  0.5997  1.5116 -1.8098
 3238SOL    HW221177   4.110   2.901   5.538 -1.6530 -0.2586 -0.9528
 3239SOL     OW21178   2.171   4.122  12.228  0.3690  0.7283 -0.2626
 3239SOL    HW121179   2.096   4.113  12.169  0.8481  0.3459 -0.8102
 3239SOL    HW221180   2.150   4.056  12.293 -0.8051 -0.1129 -1.4971
 3240SOL     OW21181   3.380   3.663   2.733 -0.0111 -0.2226  0.4475
 3240SOL    HW121182   3.336   3.743   2.704  0.0219 -0.7044 -0.9657
 3240SOL    HW221183   3.307   3.601   2.742  0.0873 -0.6072 -1.4641
 3241SOL     OW21184   1.547   0.868   4.878  0.5257 -0.9180  0.8030
 3241SOL    HW121185   1.566   0.925   4.804 -0.5894  0.5738  1.6465
 3241SOL    HW221186   1.493   0.801   4.837  2.4102 -1.2700 -1.0715
 3242SOL     OW21187   4.449   4.647   4.852 -0.3053 -0.4341 -0.6015
 3242SOL    HW121188   4.482   4.681   4.769 -1.9933 -1.4306 -1.6813
 3242SOL    HW221189   4.411   4.568   4.812  0.6368 -0.9458 -0.4851
 3243SOL     OW21190   4.662   0.199  17.402  0.2775  0.3012 -0.0456
 3243SOL    HW121191   4.671   0.124  17.344 -0.8963  2.3619 -2.9180
 3243SOL    HW221192   4.590   0.244  17.357  0.4302 -0.4276 -1.0224
 3244SOL     OW21193   1.745   1.884  12.347  0.0023  0.1271  0.1425
 3244SOL    HW121194   1.687   1.808  12.354  0.7134 -0.2058  2.1185
 3244SOL    HW221195   1.716   1.922  12.263 -0.8823 -0.9409 -0.0394
 3245SOL     OW21196   0.652   0.619   7.994 -0.5144 -0.3050  0.1688
 3245SOL    HW121197   0.633   0.572   8.075 -0.8731  0.4344  0.5174
 3245SOL    HW221198   0.729   0.572   7.961 -1.9896 -1.7635 -1.1769
 3246SOL     OW21199   3.762   4.523  13.292 -0.3613  0.3045 -0.7461
 3246SOL    HW121200   3.707   4.445  13.278  0.0578 -0.2298  0.6115
 3246SOL    HW221201   3.845   4.474  13.288 -0.9919 -0.7729 -0.7378
 3247SOL     OW21202   3.001   4.378   8.706 -0.3750 -0.4355 -0.1435
 3247SOL    HW121203   3.073   4.434   8.735 -2.9340  2.2070  1.0755
 3247SOL    HW221204   3.033   4.348   8.620  3.0638  1.1503  0.5758
 3248SOL     OW21205   1.040   1.810   3.003 -0.5949  0.0757  0.2907
 3248SOL    HW121206   1.077   1.894   2.979  0.7069 -1.1238 -1.8404
 3248SOL    HW221207   0.964   1.804   2.944  1.6315  0.0352 -2.5557
 3249SOL     OW21208   3.289   1.332   7.205  0.4909  0.3872 -0.1236
 3249SOL    HW121209   3.281   1.237   7.197 -1.7695  0.5676 -0.0942
 3249SOL    HW221210   3.349   1.350   7.133  0.2700 -1.3837 -0.7699
 3250SOL     OW21211   2.042   3.779   7.660  0.6841 -0.2822  0.3785
 3250SOL    HW121212   2.040   3.857   7.716  0.1141 -0.5524  0.7359
 3250SOL    HW221213   2.134   3.755   7.659  0.0420 -2.8152  1.1178
 3251SOL     OW21214   4.106   2.909   2.615  0.6234 -0.5981  0.4440
 3251SOL    HW121215   4.162   2.873   2.546 -0.2001 -1.6060  0.3013
 3251SOL    HW221216   4.163   2.929   2.689  0.9746  0.6509 -0.1522
 3252SOL     OW21217   0.624   2.712   5.543 -0.2944  0.2103 -0.0258
 3252SOL    HW121218   0.563   2.764   5.491 -0.3920 -0.0111 -0.1311
 3252SOL    HW221219   0.658   2.772   5.610  1.9158  0.4688 -1.3598
 3253SOL     OW21220   0.357   2.641   0.855  0.6274 -0.0320  0.0082
 3253SOL    HW121221   0.277   2.597   0.883 -1.1884  2.3080 -1.5408
 3253SOL    HW221222   0.397   2.651   0.941 -1.0595 -0.1162  0.7943
 3254SOL     OW21223   4.308   1.355   0.718  0.4450 -0.5415  0.0804
 3254SOL    HW121224   4.302   1.434   0.665  0.5747  0.2866  1.2953
 3254SOL    HW221225   4.236   1.359   0.781  0.9025 -0.0065  0.5725
 3255SOL     OW21226   1.595   2.369   6.419 -0.3888  0.2691  0.4455
 3255SOL    HW121227   1.636   2.303   6.476 -1.6337 -0.9836 -0.1088
 3255SOL    HW221228   1.519   2.317   6.391 -0.0811  1.1035 -1.8939
 3256SOL     OW21229   3.625   2.381   8.964  0.2435  0.0186  0.2700
 3256SOL    HW121230   3.628   2.303   8.907  1.4079  0.0739  0.2495
 3256SOL    HW221231   3.562   2.345   9.026 -0.0114 -2.0955 -1.1942
 3257SOL     OW21232   2.420   1.160  15.239  0.2756 -0.7805  0.6310
 3257SOL    HW121233   2.341   1.195  15.198  1.2864 -1.2823 -1.7178
 3257SOL    HW221234   2.408   1.066  15.243  0.0956 -0.7972 -0.3188
 3258SOL     OW21235   1.207   3.775   5.292 -0.0659 -0.1052  0.9650
 3258SOL    HW121236   1.168   3.853   5.332 -0.6955  0.8916 -1.5445
 3258SOL    HW221237   1.206   3.713   5.365 -0.3573 -1.3524 -0.0954
 3259SOL     OW21238   1.567   1.348   7.126  0.2151  0.2860 -0.2011
 3259SOL    HW121239   1.655   1.385   7.136  0.9376 -1.4837  0.0887
 3259SOL    HW221240   1.564   1.274   7.186 -1.1566 -0.9945 -1.8384
 3260SOL     OW21241   2.352   4.609  12.670  0.1055 -0.0780  0.2205
 3260SOL    HW121242   2.301   4.689  12.683 -0.4171 -0.3630 -0.1090
 3260SOL    HW221243   2.434   4.624  12.717  0.8825 -0.9002 -0.8616
 3261SOL     OW21244   0.284   3.727   4.551  0.0656 -0.3120 -0.1092
 3261SOL    HW121245   0.289   3.799   4.615 -0.7144 -0.4345  0.0949
 3261SOL    HW221246   0.305   3.783   4.476 -0.3455 -0.6589 -0.4788
 3262SOL     OW21247   2.455   1.149   9.978  0.3230 -0.2045 -0.1804
 3262SOL    HW121248   2.533   1.095   9.970 -0.4804 -1.5584  1.1940
 3262SOL    HW221249   2.454   1.189  10.065 -1.0365 -1.3961  0.3413
 3263SOL     OW21250   1.412   0.350   1.095 -0.7313  0.4908  0.0262
 3263SOL    HW121251   1.351   0.276   1.090 -1.5728  1.2104 -0.4984
 3263SOL    HW221252   1.412   0.386   1.006  1.0151 -0.1751 -0.2477
 3264SOL     OW21253   1.351   3.877   5.974  0.1871  1.0505  0.3865
 3264SOL    HW121254   1.264   3.897   5.942  0.4432  2.8181  0.8143
 3264SOL    HW221255   1.401   3.845   5.898 -1.1236 -0.0848 -0.0064
 3265SOL     OW21256   4.265   0.894  16.855  0.4208  0.3576 -0.0533
 3265SOL    HW121257   4.320   0.964  16.821  1.4014  0.6888  2.2270
 3265SOL    HW221258   4.190   0.904  16.796  0.3833  1.4009  0.1781
 3266SOL     OW21259   0.318   3.695  13.936  0.0919  0.1363  0.1642
 3266SOL    HW121260   0.229   3.665  13.920  0.1850  0.4095 -0.8182
 3266SOL    HW221261   0.366   3.642  13.873  0.8029  2.1362 -0.9574
 3267SOL     OW21262   3.519   0.085  13.378 -0.1820 -0.0351 -0.3802
 3267SOL    HW121263   3.499   0.177  13.394  0.4062 -0.2394  1.5748
 3267SOL    HW221264   3.431   0.059  13.353 -0.2621 -0.9078  0.8236
 3268SOL     OW21265   3.863   2.982   7.635  0.4603 -0.4288 -0.0163
 3268SOL    HW121266   3.812   2.942   7.706  1.7314 -0.4694  0.8764
 3268SOL    HW221267   3.929   2.913   7.629  1.4728  0.4649  0.8282
 3269SOL     OW21268   2.233   2.665   2.575  0.0816 -0.1478 -0.3029
 3269SOL    HW121269   2.286   2.737   2.543 -0.3161 -0.5681 -1.8769
 3269SOL    HW221270   2.151   2.701   2.610 -0.0664 -0.7873  0.0165
 3270SOL     OW21271   0.070   0.334   4.497 -0.6692  0.1542  0.2287
 3270SOL    HW121272   0.099   0.267   4.435 -0.2468 -1.2152  1.9049
 3270SOL    HW221273   0.009   0.382   4.441 -0.6624  1.8056  1.6474
 3271SOL     OW21274   4.291   1.847   5.176 -0.5106  0.3194  0.6957
 3271SOL    HW121275   4.327   1.897   5.249 -0.5809  0.4678  0.6268
 3271SOL    HW221276   4.231   1.793   5.228  1.3495 -1.9865  0.4411
 3272SOL     OW21277   3.680   2.069  14.961  1.1454 -0.1398  0.7415
 3272SOL    HW121278   3.613   2.103  15.021 -1.3161 -0.8578 -1.6149
 3272SOL    HW221279   3.755   2.127  14.979  0.3974  0.8812  0.5355
 3273SOL     OW21280   1.126   0.171   8.344 -0.1572  0.1803 -0.5671
 3273SOL    HW121281   1.042   0.165   8.299 -0.9985 -2.7068  1.3941
 3273SOL    HW221282   1.177   0.118   8.282  0.5474 -3.3185  2.9536
 3274SOL     OW21283   3.328   3.767   9.567 -0.4766 -0.4212  0.0081
 3274SOL    HW121284   3.250   3.802   9.523 -0.9292 -1.6974 -0.1880
 3274SOL    HW221285   3.277   3.715   9.629 -1.9218  1.0937  0.0942
 3275SOL     OW21286   0.580   4.482   8.916 -0.2604 -0.2515 -0.4511
 3275SOL    HW121287   0.547   4.415   8.976 -3.7111  0.0677 -1.9410
 3275SOL    HW221288   0.647   4.426   8.877  1.1338  0.4167  0.9721
 3276SOL     OW21289   3.965   2.683   2.057 -0.2024 -0.5106  0.6317
 3276SOL    HW121290   4.017   2.761   2.077 -2.6562  1.3853 -0.3515
 3276SOL    HW221291   3.992   2.689   1.965 -0.0982 -2.1631  0.5583
 3277SOL     OW21292   0.873   4.038   9.174  0.3768  0.1224 -0.5652
 3277SOL    HW121293   0.937   4.003   9.235  0.4383  1.3584  0.0740
 3277SOL    HW221294   0.877   4.133   9.184  1.3031  0.3445 -2.9036
 3278SOL     OW21295   0.364   1.007   6.135  0.3587  0.1639  0.3435
 3278SOL    HW121296   0.432   1.062   6.174 -0.1741 -0.6024  2.3628
 3278SOL    HW221297   0.332   0.963   6.213 -1.4248 -0.6146 -0.8273
 3279SOL     OW21298   0.750   0.770   4.911 -0.1087 -0.4946  0.3450
 3279SOL    HW121299   0.661   0.746   4.936 -0.9513  2.7334  0.4340
 3279SOL    HW221300   0.722   0.843   4.856  0.1474  1.5804  2.9074
 3280SOL     OW21301   2.569   4.033   0.118 -0.3653 -0.2666 -0.0824
 3280SOL    HW121302   2.574   4.095   0.045  0.0046  0.5424  0.6298
 3280SOL    HW221303   2.521   3.960   0.081  0.7878  0.1209 -2.3241
 3281SOL     OW21304   2.313   1.421  11.025 -0.5192 -0.6569 -0.1345
 3281SOL    HW121305   2.376   1.388  11.089 -1.9387 -1.1553  1.0086
 3281SOL    HW221306   2.336   1.355  10.959 -1.1348  0.2155 -1.2316
 3282SOL     OW21307   3.433   1.122   5.356  0.1356  0.2025  0.1048
 3282SOL    HW121308   3.428   1.183   5.282  0.2590 -0.1713 -0.2111
 3282SOL    HW221309   3.342   1.112   5.385  0.4231  1.6141  1.4803
 3283SOL     OW21310   2.269   2.218   3.202 -0.4164  0.3361  0.0558
 3283SOL    HW121311   2.320   2.141   3.225 -1.3165 -0.1454  0.4223
 3283SOL    HW221312   2.318   2.278   3.257 -3.6499  1.2868  1.9037
 3284SOL     OW21313   4.379   3.128   3.481  0.5612  0.2604 -0.6210
 3284SOL    HW121314   4.367   3.054   3.422  0.0242 -0.9784  1.0403
 3284SOL    HW221315   4.286   3.145   3.498  0.5344 -0.0233 -0.4782
 3285SOL     OW21316   2.777   1.751  17.438  0.0546  0.3419  0.3654
 3285SOL    HW121317   2.804   1.807  17.365  0.3837 -1.2439 -0.7378
 3285SOL    HW221318   2.683   1.770  17.448  0.2166  0.0078  2.4985
 3286SOL     OW21319   3.471   3.142   9.190 -0.0937  0.7438  0.3598
 3286SOL    HW121320   3.401   3.192   9.233 -1.4203  0.1345 -1.0912
 3286SOL    HW221321   3.473   3.167   9.098 -0.6640 -2.8988 -0.6508
 3287SOL     OW21322   0.674   2.566   9.680 -0.4467 -0.0603  0.4828
 3287SOL    HW121323   0.624   2.630   9.729 -0.3316  0.0219  0.4923
 3287SOL    HW221324   0.763   2.590   9.704 -0.7639  1.9546 -0.3718
 3288SOL     OW21325   4.028   1.625   8.375 -0.1464  0.3632  0.0705
 3288SOL    HW121326   3.936   1.645   8.394 -0.0671 -1.1918  2.1677
 3288SOL    HW221327   4.054   1.598   8.463  4.1290  0.5064 -1.1540
 3289SOL     OW21328   3.441   2.852   6.893  0.1624  0.2230 -0.2962
 3289SOL    HW121329   3.531   2.854   6.925 -0.3958  0.5780  1.2676
 3289SOL    HW221330   3.455   2.784   6.827  0.3027 -1.3084  1.3149
 3290SOL     OW21331   0.395   3.173   6.427 -0.6914  0.0316  0.3100
 3290SOL    HW121332   0.465   3.133   6.375  0.2141  2.7419 -0.5860
 3290SOL    HW221333   0.446   3.208   6.501 -1.3123 -2.5652  1.9703
 3291SOL     OW21334   4.349   3.117   2.656 -0.5035 -0.1886 -0.5667
 3291SOL    HW121335   4.388   3.146   2.739 -0.0901 -3.2704  0.3184
 3291SOL    HW221336   4.392   3.033   2.638  1.0926  0.4126  0.4192
 3292SOL     OW21337   1.423   4.635   5.267 -0.1150 -0.1335 -0.0334
 3292SOL    HW121338   1.385   4.638   5.355  0.3221 -0.0959  0.1565
 3292SOL    HW221339   1.508   4.606   5.299 -0.5119 -1.1888  0.0585
 3293SOL     OW21340   2.911   3.987   4.624 -0.5093 -0.4639 -0.1644
 3293SOL    HW121341   2.898   3.986   4.529 -0.8503  1.0483 -0.1269
 3293SOL    HW221342   2.949   3.900   4.636  0.3850  0.1776  1.5524
 3294SOL     OW21343   1.847   4.457   1.049 -0.0262 -0.1026  0.1081
 3294SOL    HW121344   1.870   4.380   0.996  4.2775  0.7119  0.7877
 3294SOL    HW221345   1.865   4.429   1.139 -0.9605  1.4399  0.7727
 3295SOL     OW21346   1.963   0.118   3.146 -0.4374  0.3133  0.6406
 3295SOL    HW121347   1.910   0.180   3.096 -0.4139  0.0530  0.2968
 3295SOL    HW221348   1.993   0.054   3.081 -0.0621 -0.3838  1.4934
 3296SOL     OW21349   1.200   4.413   9.671  0.7563  0.2452  0.3118
 3296SOL    HW121350   1.267   4.480   9.653  0.3136  0.4356 -0.6313
 3296SOL    HW221351   1.142   4.467   9.724  0.5581 -0.4053  0.7609
 3297SOL     OW21352   2.603   1.142   5.056 -0.1164 -0.0490 -0.5246
 3297SOL    HW121353   2.573   1.162   5.145  0.2864  0.4567 -0.5003
 3297SOL    HW221354   2.671   1.078   5.076 -0.4343  0.4933  2.3251
 3298SOL     OW21355   0.543   1.484   8.424  1.4261 -0.5576 -0.3557
 3298SOL    HW121356   0.560   1.466   8.517 -1.2591 -0.9331  0.0624
 3298SOL    HW221357   0.577   1.573   8.427  2.9847 -1.1354 -0.9183
 3299SOL     OW21358   1.618   3.052   7.943  0.4416  0.4552  0.5194
 3299SOL    HW121359   1.525   3.074   7.931  0.3626 -0.2267 -0.0618
 3299SOL    HW221360   1.620   2.957   7.935 -0.7978  0.6527 -2.1223
 3300SOL     OW21361   2.101   1.779  10.130 -0.2505 -0.3864 -0.2169
 3300SOL    HW121362   2.126   1.731  10.051 -1.5908 -0.5997 -0.5238
 3300SOL    HW221363   2.119   1.717  10.201 -2.7599 -0.0201  0.7570
 3301SOL     OW21364   2.161   0.618   2.401 -0.6579  0.4136  0.6139
 3301SOL    HW121365   2.096   0.568   2.353  0.3152  0.8956 -1.2126
 3301SOL    HW221366   2.119   0.632   2.486 -2.1670  2.0223 -0.3954
 3302SOL     OW21367   4.594   2.278   5.507 -0.0004 -0.3331  0.3532
 3302SOL    HW121368   4.584   2.299   5.414 -0.8965  0.5612  0.6457
 3302SOL    HW221369   4.501   2.277   5.528  0.0663 -1.2118  0.5845
 3303SOL     OW21370   1.034   1.555  14.372 -0.3195 -0.2332  0.2288
 3303SOL    HW121371   1.106   1.591  14.424  2.0111 -1.6701 -2.0175
 3303SOL    HW221372   1.009   1.642  14.339  1.2254  0.4975  1.0118
 3304SOL     OW21373   1.918   1.851  11.072  0.0148  0.1937 -0.5333
 3304SOL    HW121374   1.865   1.833  10.994  0.5289  2.2004 -1.3478
 3304SOL    HW221375   1.982   1.911  11.033  0.4822 -1.6071 -2.5356
 3305SOL     OW21376   1.206   3.391   6.130  0.6867 -0.8841  0.1255
 3305SOL    HW121377   1.213   3.474   6.177 -0.9289 -1.2074  0.9146
 3305SOL    HW221378   1.298   3.363   6.129  0.5844 -1.2132 -0.2170
 3306SOL     OW21379   0.698   0.491  16.527  0.1372  0.1701  0.1171
 3306SOL    HW121380   0.616   0.462  16.488 -0.5602  1.3658  0.7052
 3306SOL    HW221381   0.686   0.465  16.619 -0.3525  0.7103  0.2030
 3307SOL     OW21382   1.840   1.382   7.063  0.3726  0.3079 -0.0154
 3307SOL    HW121383   1.824   1.287   7.066 -1.2902  0.5596 -0.6533
 3307SOL    HW221384   1.849   1.403   6.970  1.1208 -0.7290 -0.1705
 3308SOL     OW21385   0.621   4.653   6.411 -0.1566  0.1130  0.0496
 3308SOL    HW121386   0.573   4.595   6.352 -0.2447  1.3248 -1.0687
 3308SOL    HW221387   0.613   0.013   6.359 -2.1335  0.2473  0.5570
 3309SOL     OW21388   0.503   0.103   1.759  0.3409  0.5130  0.6805
 3309SOL    HW121389   0.523   0.066   1.672 -0.9922  0.2283  0.4927
 3309SOL    HW221390   0.409   0.115   1.740  0.2604 -1.4831 -0.1957
 3310SOL     OW21391   1.690   2.010   5.716  0.5090 -0.1401 -0.0390
 3310SOL    HW121392   1.737   2.093   5.719  0.4161 -0.1109  0.5797
 3310SOL    HW221393   1.707   1.986   5.624 -1.6753 -1.2877 -0.1589
 3311SOL     OW21394   4.080   1.478   5.966 -0.8138  0.1954 -0.1630
 3311SOL    HW121395   4.067   1.572   5.973  0.3182  0.3586 -0.3093
 3311SOL    HW221396   4.005   1.450   6.019 -0.7763 -1.3115 -0.8942
 3312SOL     OW21397   1.306   0.508   9.110 -0.1781  0.6028 -0.5205
 3312SOL    HW121398   1.258   0.534   9.189 -2.2239 -0.0819 -1.5470
 3312SOL    HW221399   1.230   0.476   9.061  0.5694  1.8545 -2.4726
 3313SOL     OW21400   0.407   3.826   2.573  0.2432  0.2589 -0.4797
 3313SOL    HW121401   0.362   3.844   2.656  0.3047 -2.8679  0.2133
 3313SOL    HW221402   0.336   3.820   2.508  2.4758 -0.9363 -2.7923
 3314SOL     OW21403   3.611   2.768   7.521 -0.5612  0.7510 -0.1298
 3314SOL    HW121404   3.561   2.737   7.445 -1.2038  1.5630 -0.0450
 3314SOL    HW221405   3.623   2.859   7.493  0.9247  0.2757 -0.9962
 3315SOL     OW21406   4.040   0.001   4.787 -0.2837  0.4244  0.2301
 3315SOL    HW121407   3.975   4.700   4.720  0.2163 -1.1042  0.2383
 3315SOL    HW221408   4.031   4.646   4.845 -3.7174  0.7445  0.1095
 3316SOL     OW21409   3.554   4.632   0.341  0.2307  0.2973  0.2550
 3316SOL    HW121410   3.491   4.562   0.355 -0.8476  1.1445 -0.3809
 3316SOL    HW221411   3.630   4.594   0.295  0.8015  0.9113  0.6897
 3317SOL     OW21412   0.550   2.367  11.097  0.0268  0.2803  0.1589
 3317SOL    HW121413   0.615   2.400  11.159  0.1987  1.1725 -0.4993
 3317SOL    HW221414   0.596   2.379  11.014 -1.1585 -3.2097 -0.9807
 3318SOL     OW21415   3.538   0.903   5.505  0.1119  0.3090 -0.2627
 3318SOL    HW121416   3.488   0.925   5.584  1.1159  2.1194 -0.1254
 3318SOL    HW221417   3.521   0.982   5.453 -1.0461  0.2655  0.0515
 3319SOL     OW21418   1.172   1.730   5.497  0.2087  0.3901 -0.0868
 3319SOL    HW121419   1.077   1.736   5.486  0.2709  0.0229 -0.7897
 3319SOL    HW221420   1.189   1.643   5.463 -2.2423  0.1942 -0.7642
 3320SOL     OW21421   4.642   2.138   3.722  0.0244 -0.4216 -0.0225
 3320SOL    HW121422   4.616   2.143   3.630 -2.1102 -1.2901  0.5066
 3320SOL    HW221423   0.013   2.113   3.711  0.5963  1.8561 -0.3517
 3321SOL     OW21424   2.157   0.501  10.342  0.1521  0.1815  0.0119
 3321SOL    HW121425   2.143   0.499  10.437 -1.1574  1.3704 -0.1521
 3321SOL    HW221426   2.100   0.426  10.323  0.5560 -0.0208 -0.4042
 3322SOL     OW21427   1.763   1.579   4.566 -0.2307  0.0778 -0.1254
 3322SOL    HW121428   1.814   1.645   4.518 -0.7369  1.6991  1.5799
 3322SOL    HW221429   1.784   1.606   4.655  0.8177  1.1199 -0.6965
 3323SOL     OW21430   0.382   0.666   3.715 -0.6123 -0.1672  0.3483
 3323SOL    HW121431   0.430   0.700   3.791 -0.2964 -0.6198  0.3498
 3323SOL    HW221432   0.297   0.661   3.759  0.3314  3.4346  2.5976
 3324SOL     OW21433   0.438   2.025   9.019  0.0059  0.2941 -0.2059
 3324SOL    HW121434   0.501   1.955   9.005 -0.7974 -0.2681 -1.0028
 3324SOL    HW221435   0.460   2.078   8.942  1.1601 -0.0000 -0.0797
 3325SOL     OW21436   3.031   0.930   5.199  0.2748 -0.4469 -0.3404
 3325SOL    HW121437   3.088   0.985   5.145 -0.3342 -0.0712 -0.6030
 3325SOL    HW221438   3.108   0.883   5.233  0.0121 -0.5056  0.1714
 3326SOL     OW21439   2.337   1.617   3.131  0.4532  0.3947 -0.1252
 3326SOL    HW121440   2.396   1.683   3.094  1.2913 -1.0548 -1.3302
 3326SOL    HW221441   2.321   1.575   3.047  2.4902 -1.1727  0.2675
 3327SOL     OW21442   1.946   0.153   4.958 -0.2855  0.7830 -0.1790
 3327SOL    HW121443   1.939   0.149   4.863  1.3893 -0.9771 -0.2363
 3327SOL    HW221444   1.907   0.068   4.979 -0.0525  0.6041 -0.4652
 3328SOL     OW21445   3.145   4.538   6.781 -0.3107  0.3339  0.2519
 3328SOL    HW121446   3.091   4.542   6.860 -1.2739  1.4151 -0.4598
 3328SOL    HW221447   3.201   4.463   6.800  1.4641  0.7925 -3.2412
 3329SOL     OW21448   0.677   4.576   8.514 -0.2857  0.6130 -0.3039
 3329SOL    HW121449   0.761   4.620   8.504 -0.5963  0.9195 -1.5965
 3329SOL    HW221450   0.707   4.493   8.552  3.9924  2.7494  0.9638
 3330SOL     OW21451   0.149   3.563   4.361  0.3577 -0.3085  0.2990
 3330SOL    HW121452   0.212   3.616   4.409 -1.0542  1.1191  0.5837
 3330SOL    HW221453   0.104   3.513   4.429 -0.8874 -1.0313 -1.0414
 3331SOL     OW21454   2.953   3.564   5.935  0.4093 -0.4748 -0.2569
 3331SOL    HW121455   3.041   3.563   5.971 -0.1459  1.6086  1.1854
 3331SOL    HW221456   2.961   3.563   5.839  1.9623  1.4608 -0.1588
 3332SOL     OW21457   3.451   2.438  10.487  0.1118 -0.0586  0.6740
 3332SOL    HW121458   3.429   2.357  10.442  0.5147  0.0884  0.2120
 3332SOL    HW221459   3.389   2.501  10.450  0.3846  0.2917  0.7997
 3333SOL     OW21460   2.543   1.137   5.558  0.6042 -0.0054 -0.8073
 3333SOL    HW121461   2.622   1.178   5.523 -0.9089  3.3816 -0.2719
 3333SOL    HW221462   2.566   1.044   5.567 -0.5092 -0.1978  0.0587
 3334SOL     OW21463   3.398   4.140  13.186  0.3108 -0.2143  0.0708
 3334SOL    HW121464   3.359   4.201  13.248  0.6576  1.0980 -1.0039
 3334SOL    HW221465   3.358   4.175  13.107 -0.8420 -2.3369 -0.2996
 3335SOL     OW21466   1.128   0.660  12.692 -0.5515 -0.0094  0.0355
 3335SOL    HW121467   1.188   0.726  12.728 -2.2172  2.1951 -1.1964
 3335SOL    HW221468   1.130   0.588  12.755  1.6722  0.1800  0.1578
 3336SOL     OW21469   0.806   1.132   6.807 -0.2643 -0.1698 -0.5543
 3336SOL    HW121470   0.836   1.041   6.815 -0.8978 -0.4074 -0.9002
 3336SOL    HW221471   0.883   1.178   6.771  0.0989 -1.4191 -1.3701
 3337SOL     OW21472   0.352   1.452  12.684 -0.7792 -0.4811  0.0809
 3337SOL    HW121473   0.360   1.402  12.603 -0.4479 -1.1588  0.5301
 3337SOL    HW221474   0.438   1.442  12.725 -0.2730 -1.0621 -1.1279
 3338SOL     OW21475   3.581   4.449   5.651  0.5535 -0.8697 -0.2282
 3338SOL    HW121476   3.586   4.404   5.735  0.4892  0.6948  0.6174
 3338SOL    HW221477   3.602   4.386   5.582  0.3151  1.8855 -2.8249
 3339SOL     OW21478   1.312   3.398   3.792  0.1985 -0.4672  0.4053
 3339SOL    HW121479   1.353   3.389   3.706  0.2545  0.4300  0.3375
 3339SOL    HW221480   1.251   3.469   3.773 -0.0177 -0.6385  0.4578
 3340SOL     OW21481   0.838   2.020   4.449 -0.3237  0.4481  0.0191
 3340SOL    HW121482   0.930   1.994   4.449 -0.0972  1.2279  0.3223
 3340SOL    HW221483   0.843   2.094   4.388 -1.9699 -1.9236 -2.9818
 3341SOL     OW21484   1.668   4.357   2.567  0.5776 -0.2027  0.2455
 3341SOL    HW121485   1.718   4.308   2.501 -0.0953 -0.2719 -0.2136
 3341SOL    HW221486   1.645   4.282   2.621  0.4027  0.0931  0.5765
 3342SOL     OW21487   1.675   4.303   3.523  0.7852 -0.0935 -0.7021
 3342SOL    HW121488   1.657   4.392   3.491  1.6204  0.3601  0.0880
 3342SOL    HW221489   1.636   4.250   3.453 -1.6240  0.7216  0.0105
 3343SOL     OW21490   3.276   4.027  16.618 -0.5649 -0.2638 -0.2362
 3343SOL    HW121491   3.293   3.937  16.645  0.9181  0.0279 -0.1850
 3343SOL    HW221492   3.190   4.018  16.578 -0.0580  0.4511 -1.5224
 3344SOL     OW21493   0.793   3.589  17.252  0.1580  0.2052  0.1301
 3344SOL    HW121494   0.699   3.606  17.260  0.2236  0.0494  1.1569
 3344SOL    HW221495   0.822   3.671  17.292  0.4908 -0.8121  1.9847
 3345SOL     OW21496   0.373   0.662   1.256  0.1459 -0.5677 -0.2650
 3345SOL    HW121497   0.403   0.739   1.207  1.6072 -0.0590  1.4381
 3345SOL    HW221498   0.389   0.689   1.346  2.5896 -0.4391 -0.7430
 3346SOL     OW21499   4.002   0.108   3.350  0.3229 -0.0418 -0.4873
 3346SOL    HW121500   3.964   0.138   3.433 -0.7290  0.1145 -1.0230
 3346SOL    HW221501   3.930   0.058   3.313 -1.3606  0.8044  1.6614
 3347SOL     OW21502   1.894   1.614  12.000  0.2499 -0.4053  0.0280
 3347SOL    HW121503   1.808   1.622  11.959  0.2289 -1.2715 -0.0841
 3347SOL    HW221504   1.931   1.696  11.967 -0.2404  0.1456  0.8713
 3348SOL     OW21505   2.734   3.226  12.295 -0.2565 -0.0858  0.1554
 3348SOL    HW121506   2.680   3.186  12.363 -0.8969 -1.3685 -1.0945
 3348SOL    HW221507   2.805   3.268  12.343 -1.0175  2.1343 -0.6360
 3349SOL     OW21508   4.311   1.528  15.375  0.2922 -0.7183 -0.3029
 3349SOL    HW121509   4.364   1.454  15.406  0.5162  0.1584  1.4448
 3349SOL    HW221510   4.226   1.510  15.417  0.2917 -2.3070 -1.0028
 3350SOL     OW21511   2.532   0.533   8.806  0.1461  0.3905 -0.2687
 3350SOL    HW121512   2.499   0.620   8.826 -0.3890 -0.3080  1.8842
 3350SOL    HW221513   2.594   0.515   8.877  0.5349  0.0447 -0.6940
 3351SOL     OW21514   0.052   1.430   8.269 -0.0449 -0.0222  0.6340
 3351SOL    HW121515   0.123   1.374   8.302  0.0103 -0.0163  0.5231
 3351SOL    HW221516   0.088   1.460   8.186 -0.0183 -0.0455  0.6372
 3352SOL     OW21517   2.563   1.146   2.080 -0.1720  0.1215  0.1939
 3352SOL    HW121518   2.648   1.189   2.073 -0.9633  1.5722 -0.5521
 3352SOL    HW221519   2.513   1.208   2.134 -0.7319  1.4225 -1.8488
 3353SOL     OW21520   1.826   1.939   9.527  0.5817  0.2384  0.6675
 3353SOL    HW121521   1.773   1.866   9.493 -0.4499  1.2361  0.1393
 3353SOL    HW221522   1.909   1.890   9.523  0.0494 -0.7676  2.2859
 3354SOL     OW21523   3.147   3.596  16.589 -0.3257 -0.2575  0.5235
 3354SOL    HW121524   3.153   3.516  16.640 -1.8272 -1.2225 -0.8232
 3354SOL    HW221525   3.121   3.663  16.652  0.6971 -1.2587  2.0125
 3355SOL     OW21526   1.238   1.199   6.561  0.2103  0.0189  0.3804
 3355SOL    HW121527   1.308   1.171   6.620  0.2582  1.7817  1.1444
 3355SOL    HW221528   1.195   1.115   6.542 -1.6088  0.5812  2.0378
 3356SOL     OW21529   0.152   1.019   6.821  0.0809  0.3599 -0.2951
 3356SOL    HW121530   0.204   1.039   6.898  0.1458  3.5102 -1.1454
 3356SOL    HW221531   0.122   0.934   6.853  0.1595  0.2699 -0.4565
 3357SOL     OW21532   3.199   2.976   3.947 -0.6061  0.3462  0.0304
 3357SOL    HW121533   3.278   3.029   3.932 -1.8400  2.2567  0.3279
 3357SOL    HW221534   3.174   2.946   3.859  1.5256  1.1268 -0.8558
 3358SOL     OW21535   4.513   3.092  17.605 -0.0478 -0.0584 -0.5728
 3358SOL    HW121536   4.453   3.151  17.560 -0.3299  0.6808  0.7642
 3358SOL    HW221537   4.592   3.139  17.578  0.5330 -2.1360 -2.4842
 3359SOL     OW21538   1.372   1.557   3.346  0.0972 -0.0328 -0.0955
 3359SOL    HW121539   1.357   1.622   3.277 -0.9794 -1.8632 -1.5874
 3359SOL    HW221540   1.332   1.479   3.308  0.0565 -0.6189  1.1696
 3360SOL     OW21541   1.442   1.677   6.467 -0.2034 -0.7212  0.3008
 3360SOL    HW121542   1.441   1.614   6.395 -1.3120  0.7886 -1.0034
 3360SOL    HW221543   1.422   1.619   6.540 -0.4752 -0.2275  0.6182
 3361SOL     OW21544   4.408   0.136   2.027  0.5699 -0.0905 -0.2116
 3361SOL    HW121545   4.341   0.067   2.027 -1.3123  1.7629 -0.1836
 3361SOL    HW221546   4.488   0.082   2.031  1.7665  1.5912 -1.7566
 3362SOL     OW21547   3.347   2.430  16.490  0.9793 -0.0834  0.4619
 3362SOL    HW121548   3.254   2.439  16.511  0.5914 -1.3624 -0.7318
 3362SOL    HW221549   3.335   2.380  16.410 -2.8151  2.0105 -0.2515
 3363SOL     OW21550   2.098   0.750   9.002  0.0898  0.0291 -0.1098
 3363SOL    HW121551   2.029   0.684   9.010  1.3156 -1.4949 -2.0912
 3363SOL    HW221552   2.048   0.808   8.944 -0.2418  0.3333  0.4828
 3364SOL     OW21553   0.172   2.557  13.121 -0.1602 -0.4027 -0.1008
 3364SOL    HW121554   0.217   2.634  13.084  2.9188 -1.4316  1.4974
 3364SOL    HW221555   0.184   2.561  13.216 -1.4233  0.6566  0.0143
 3365SOL     OW21556   2.696   3.625   2.915 -0.4327  0.0801  0.4355
 3365SOL    HW121557   2.604   3.603   2.930 -0.8652  0.4357 -1.6380
 3365SOL    HW221558   2.714   3.638   3.008 -0.9571 -0.8591  0.6704
 3366SOL     OW21559   4.630   2.378   9.478  0.0110 -0.3482  0.2477
 3366SOL    HW121560   4.571   2.371   9.402  1.1067  0.9975 -0.7202
 3366SOL    HW221561   4.707   2.425   9.446  0.5630 -0.1268  1.9519
 3367SOL     OW21562   4.588   0.054   4.623 -0.1719 -0.2567  0.3844
 3367SOL    HW121563   4.665   0.031   4.675  0.9723  1.3540 -0.6227
 3367SOL    HW221564   4.627   0.098   4.548 -0.8449 -2.4183 -1.2571
 3368SOL     OW21565   2.286   0.873   5.266  0.0981  0.0167  0.2192
 3368SOL    HW121566   2.368   0.837   5.233  0.3871 -0.1155  1.0755
 3368SOL    HW221567   2.275   0.927   5.188 -0.2559 -1.2840 -0.6198
 3369SOL     OW21568   4.058   3.602   3.587  0.0805 -0.1239  0.2165
 3369SOL    HW121569   4.034   3.639   3.672  0.9941  1.7195 -0.3217
 3369SOL    HW221570   4.143   3.645   3.575 -0.0713  0.6793  1.9613
 3370SOL     OW21571   2.873   4.711   4.815  0.9731  0.0879 -0.4402
 3370SOL    HW121572   2.852   4.618   4.821 -0.0084  0.2909 -0.7421
 3370SOL    HW221573   2.922   4.715   4.898 -2.2018  3.0353  1.3159
 3371SOL     OW21574   3.860   4.250  15.708 -0.1396  0.3666  0.2845
 3371SOL    HW121575   3.868   4.233  15.614  1.5225  2.5436  0.0347
 3371SOL    HW221576   3.934   4.196  15.738 -0.1378 -1.5403 -3.1276
 3372SOL     OW21577   2.108   2.176  10.043 -0.5273  0.0365  0.3398
 3372SOL    HW121578   2.160   2.232  10.101  0.8288  0.1975 -1.0339
 3372SOL    HW221579   2.171   2.104  10.030 -0.4843 -0.3645  2.7721
 3373SOL     OW21580   4.565   3.811   4.164 -0.0650 -0.6522 -0.4929
 3373SOL    HW121581   4.509   3.840   4.237  1.4561  2.1275 -0.4221
 3373SOL    HW221582   4.650   3.851   4.182  0.5600 -2.1853 -0.0991
 3374SOL     OW21583   3.756   2.642   5.652  0.0947  0.7271 -0.0165
 3374SOL    HW121584   3.771   2.716   5.594  0.2120 -0.1401 -1.0865
 3374SOL    HW221585   3.829   2.640   5.714  1.7322 -3.1049 -2.0864
 3375SOL     OW21586   0.175   2.057   5.311 -0.6479 -0.0702 -0.5319
 3375SOL    HW121587   0.257   2.014   5.336 -0.4848  1.6522  1.9318
 3375SOL    HW221588   0.202   2.128   5.252  0.3366  0.8324  0.9815
 3376SOL     OW21589   3.661   4.680   9.992 -0.5057 -0.1603 -0.4730
 3376SOL    HW121590   3.694   0.002   9.913  0.4097  2.2073  1.1837
 3376SOL    HW221591   3.591   4.630   9.950 -0.1251 -0.3990 -0.8110
 3377SOL     OW21592   1.100   4.293   8.961 -0.2350 -0.4489 -0.1866
 3377SOL    HW121593   1.080   4.379   8.997  0.6043  0.7714 -2.6568
 3377SOL    HW221594   1.187   4.306   8.924  0.3199 -0.4017  1.1572
 3378SOL     OW21595   2.941   2.417   7.576  0.0423 -0.3597 -0.0406
 3378SOL    HW121596   3.007   2.475   7.615  0.8649  1.0060 -3.4987
 3378SOL    HW221597   2.863   2.443   7.625 -0.8729 -2.7989 -0.2073
 3379SOL     OW21598   3.246   3.316  16.434  0.5677  0.3399  0.2782
 3379SOL    HW121599   3.251   3.406  16.466  1.0158  0.1058  0.8527
 3379SOL    HW221600   3.308   3.334  16.363  1.3454  1.3729  1.2207
 3380SOL     OW21601   2.165   4.214   3.628  0.2407  0.5769  0.7037
 3380SOL    HW121602   2.169   4.217   3.532 -0.4958 -1.1842  0.6234
 3380SOL    HW221603   2.085   4.265   3.638  1.0557  1.7794  1.0810
 3381SOL     OW21604   2.430   2.745   9.830 -0.0926 -0.5805 -0.0438
 3381SOL    HW121605   2.341   2.737   9.795 -0.0018 -1.3652 -0.0997
 3381SOL    HW221606   2.401   2.768   9.918 -0.9929  0.6739 -0.6718
 3382SOL     OW21607   1.566   4.453  16.541 -0.5991  0.3308  0.6258
 3382SOL    HW121608   1.508   4.384  16.572 -0.6215 -0.6396 -1.5986
 3382SOL    HW221609   1.529   4.526  16.591 -0.2307  0.7029  0.3510
 3383SOL     OW21610   0.349   3.816  11.024  0.7250  0.6523  0.4438
 3383SOL    HW121611   0.345   3.898  10.974 -1.8952  1.4114  1.9159
 3383SOL    HW221612   0.326   3.853  11.109  2.5137  2.2067  0.2697
 3384SOL     OW21613   0.497   1.076  12.619 -0.2157 -0.6071  0.4783
 3384SOL    HW121614   0.493   0.982  12.597 -0.1805 -0.1387 -1.5199
 3384SOL    HW221615   0.585   1.083  12.656  0.3950 -1.7660 -0.7337
 3385SOL     OW21616   4.135   3.627   2.083  0.7162  0.4200 -0.2261
 3385SOL    HW121617   4.094   3.571   2.018  1.6568  2.3704 -2.4844
 3385SOL    HW221618   4.060   3.649   2.139 -0.3714 -1.0126 -1.1586
 3386SOL     OW21619   1.977   2.321   9.006  0.8911  0.4098  0.1110
 3386SOL    HW121620   1.887   2.353   9.008  0.2049 -1.6608  2.1930
 3386SOL    HW221621   2.024   2.397   8.972 -0.2197  2.3970  3.0592
 3387SOL     OW21622   0.949   1.821   0.423 -0.5052  0.0709 -0.0706
 3387SOL    HW121623   0.866   1.865   0.405 -0.4817  0.1634  0.0458
 3387SOL    HW221624   0.925   1.732   0.448  1.8666 -0.2823  0.8656
 3388SOL     OW21625   3.484   3.244  14.049 -0.1184 -0.3932 -0.3795
 3388SOL    HW121626   3.393   3.258  14.024  0.2386 -0.1684 -1.5426
 3388SOL    HW221627   3.481   3.259  14.144  1.7601 -2.2475 -0.0247
 3389SOL     OW21628   1.225   1.303   6.315  0.4385  0.1581  0.2639
 3389SOL    HW121629   1.274   1.250   6.253  0.1249 -1.4451  1.4063
 3389SOL    HW221630   1.216   1.235   6.381 -3.2502  2.3461  2.0586
 3390SOL     OW21631   3.470   2.179   3.996  0.1656 -0.2381  0.3330
 3390SOL    HW121632   3.377   2.160   3.985  0.7812 -2.6633 -0.6326
 3390SOL    HW221633   3.497   2.108   4.054 -0.3361  0.8028  1.8801
 3391SOL     OW21634   3.480   2.705   7.773  0.0930  0.1165  0.5662
 3391SOL    HW121635   3.499   2.751   7.691  2.8510 -0.2435  1.0090
 3391SOL    HW221636   3.414   2.643   7.742 -1.6504  1.9299  0.6530
 3392SOL     OW21637   3.310   4.071  10.505  0.4717  0.1578 -0.1551
 3392SOL    HW121638   3.325   4.031  10.591 -1.5092 -0.0968  0.0749
 3392SOL    HW221639   3.347   4.155  10.531  0.0516  0.4432 -0.4820
 3393SOL     OW21640   0.763   0.606   5.999  0.6705 -0.1558 -0.5882
 3393SOL    HW121641   0.825   0.662   5.951 -0.4732  1.0584 -0.6460
 3393SOL    HW221642   0.722   0.555   5.929  0.7403  0.2739 -0.9458
 3394SOL     OW21643   3.047   2.028   9.140 -0.3719 -0.4526  0.3313
 3394SOL    HW121644   3.071   2.067   9.223  0.8177  2.3184 -1.3337
 3394SOL    HW221645   2.979   2.080   9.098  2.5716  4.0479  1.2374
 3395SOL     OW21646   2.813   3.172   5.749  0.4921  0.1853  0.1352
 3395SOL    HW121647   2.873   3.191   5.822 -0.2923  0.3058  0.7509
 3395SOL    HW221648   2.747   3.237   5.774 -1.1607 -3.1009  4.1793
 3396SOL     OW21649   1.956   0.801   9.470 -0.0617  0.7886 -0.0059
 3396SOL    HW121650   1.955   0.839   9.382 -0.5455  3.7381  1.2591
 3396SOL    HW221651   2.019   0.864   9.506 -1.4415  0.7244  2.5182
 3397SOL     OW21652   1.949   0.254  10.429 -0.5832  0.2773  0.4558
 3397SOL    HW121653   2.000   0.258  10.510 -0.0122  2.3110 -0.0018
 3397SOL    HW221654   1.898   0.178  10.455 -0.5131 -0.9258 -3.0203
 3398SOL     OW21655   1.448   3.293   2.893 -0.6286  0.2614  0.4947
 3398SOL    HW121656   1.505   3.365   2.921  0.1219  0.1370 -0.6872
 3398SOL    HW221657   1.505   3.218   2.910 -0.2579  1.0053  2.5273
 3399SOL     OW21658   2.274   1.378   8.894 -0.6063 -0.2000  0.3685
 3399SOL    HW121659   2.335   1.342   8.959  1.5783  1.2360 -0.8895
 3399SOL    HW221660   2.276   1.469   8.925 -0.9949 -0.2542  0.5475
 3400SOL     OW21661   1.187   0.383   4.548 -0.0950 -0.6593  0.1047
 3400SOL    HW121662   1.199   0.412   4.638 -0.3322  0.9413 -0.3884
 3400SOL    HW221663   1.274   0.395   4.510 -0.7955  1.6946 -0.7258
 3401SOL     OW21664   0.808   3.238   3.770 -0.5451  0.2438 -0.4943
 3401SOL    HW121665   0.838   3.328   3.755  0.1486  0.5329  2.7210
 3401SOL    HW221666   0.720   3.238   3.733 -0.8390  1.8643  0.1761
 3402SOL     OW21667   4.156   0.098   7.064 -0.1777 -0.0252  0.0089
 3402SOL    HW121668   4.098   0.131   6.995 -1.2413 -3.1205 -0.5574
 3402SOL    HW221669   4.232   0.154   7.048 -0.7246  0.6124 -0.3978
 3403SOL     OW21670   3.967   0.552   3.122 -0.6540  0.0407 -0.1305
 3403SOL    HW121671   3.975   0.462   3.089 -2.1439 -0.3961  0.6812
 3403SOL    HW221672   3.978   0.599   3.040  3.5068 -1.7044 -0.5793
 3404SOL     OW21673   2.590   1.450   1.383  0.4059 -0.2056 -0.6113
 3404SOL    HW121674   2.654   1.519   1.403 -1.3140  0.4082  2.6667
 3404SOL    HW221675   2.565   1.420   1.470  0.9147  1.5163  0.1185
 3405SOL     OW21676   1.145   0.242   7.354  0.3445  0.0556  0.8078
 3405SOL    HW121677   1.235   0.210   7.357  1.2013  2.4112  0.1674
 3405SOL    HW221678   1.141   0.276   7.444  0.5400 -1.3920  1.3516
 3406SOL     OW21679   4.583   1.853   6.846 -0.0055  0.2156 -0.1488
 3406SOL    HW121680   4.573   1.762   6.819  0.5415 -0.0452  0.5148
 3406SOL    HW221681   4.655   1.858   6.910 -1.2450  2.0427  1.1077
 3407SOL     OW21682   3.209   1.295   8.354  1.1637 -0.0111 -0.4279
 3407SOL    HW121683   3.301   1.283   8.378  0.9758 -0.8446 -0.1211
 3407SOL    HW221684   3.151   1.275   8.427  0.4175 -0.7433 -1.2237
 3408SOL     OW21685   2.709   2.611   9.275  0.2332 -0.2374 -0.3103
 3408SOL    HW121686   2.691   2.690   9.325 -1.6888 -1.1637  0.4718
 3408SOL    HW221687   2.804   2.608   9.288  0.3767  1.6897 -0.9870
 3409SOL     OW21688   2.313   0.864   3.804  0.0357  0.1659  0.1138
 3409SOL    HW121689   2.311   0.929   3.874 -0.9557  2.0355 -1.6539
 3409SOL    HW221690   2.361   0.914   3.737 -1.2863  0.5972 -0.5007
 3410SOL     OW21691   3.851   3.800   2.731 -0.4826  0.5312 -0.7107
 3410SOL    HW121692   3.768   3.757   2.749  0.1501 -0.4222 -0.0366
 3410SOL    HW221693   3.859   3.829   2.822  3.2395 -1.6954 -0.3114
 3411SOL     OW21694   2.757   3.197   3.702  0.9023  0.1653 -0.2489
 3411SOL    HW121695   2.851   3.196   3.686  0.4215 -0.0553 -3.1865
 3411SOL    HW221696   2.758   3.284   3.741  1.4921  0.8792 -1.8649
 3412SOL     OW21697   1.162   4.234   2.420  0.3707 -0.5907  0.2051
 3412SOL    HW121698   1.076   4.215   2.456  1.1163 -1.0259  1.7567
 3412SOL    HW221699   1.191   4.146   2.394  2.5543 -0.4187  2.0725
 3413SOL     OW21700   2.012   1.176  10.493  0.6025 -0.4013 -0.8416
 3413SOL    HW121701   1.965   1.162  10.411 -0.4110 -0.1418 -0.3052
 3413SOL    HW221702   2.091   1.214  10.456  0.4937  0.4677 -0.1866
 3414SOL     OW21703   3.501   1.593  12.314  0.1698 -0.4109  0.1365
 3414SOL    HW121704   3.557   1.552  12.379  0.5994  0.2008  0.1517
 3414SOL    HW221705   3.499   1.524  12.248 -1.3722  0.2439 -0.5002
 3415SOL     OW21706   1.477   2.836   5.487 -0.0914 -0.8068  0.3415
 3415SOL    HW121707   1.453   2.917   5.441  1.2560  0.5758  2.0822
 3415SOL    HW221708   1.567   2.821   5.458 -0.2518  1.5339 -1.3092
 3416SOL     OW21709   4.420   0.266  15.446 -0.2812  0.0279  0.2229
 3416SOL    HW121710   4.434   0.228  15.359 -0.3551 -0.8308  0.5839
 3416SOL    HW221711   4.451   0.356  15.433 -1.4168  0.3666 -0.1723
 3417SOL     OW21712   4.698   4.372   7.763 -0.1012  0.1987  0.6315
 3417SOL    HW121713   0.058   4.347   7.718  0.3468  0.8730  1.0662
 3417SOL    HW221714   4.719   4.465   7.767  2.7374 -0.4651  0.8905
 3418SOL     OW21715   0.631   3.028  17.670 -0.0985  0.7022  0.0858
 3418SOL    HW121716   0.586   3.110   0.005 -2.2925  0.2108 -2.7094
 3418SOL    HW221717   0.712   3.018   0.034 -1.1373  0.3116  1.7065
 3419SOL     OW21718   3.792   3.791   5.730 -0.9362  0.6073  0.0272
 3419SOL    HW121719   3.881   3.797   5.763  0.3738  0.1618 -3.4289
 3419SOL    HW221720   3.790   3.696   5.718  0.9555  0.9549 -3.1266
 3420SOL     OW21721   4.097   3.236   2.300 -0.0719  0.1193  0.7254
 3420SOL    HW121722   4.157   3.168   2.269 -2.1186 -0.9562 -0.8642
 3420SOL    HW221723   4.109   3.229   2.395 -0.6397  0.4875  0.8256
 3421SOL     OW21724   3.328   0.163   6.954  0.0747  0.4008 -0.7660
 3421SOL    HW121725   3.327   0.099   6.883  0.7544 -0.2448 -0.1882
 3421SOL    HW221726   3.338   0.097   7.023 -2.6082 -0.6307 -1.3829
 3422SOL     OW21727   1.435   4.273   2.183  0.3335  0.1905  0.1655
 3422SOL    HW121728   1.460   4.322   2.261 -0.9542 -0.1555  0.7860
 3422SOL    HW221729   1.510   4.289   2.125 -0.2473 -0.7384 -0.8454
 3423SOL     OW21730   0.160   4.167   1.016  0.7035  0.3615 -0.3636
 3423SOL    HW121731   0.075   4.208   1.003 -0.1848 -1.3829 -0.1101
 3423SOL    HW221732   0.165   4.185   1.110 -0.9306  1.0299 -0.4181
 3424SOL     OW21733   0.686   3.983   4.811 -0.6127  0.0457  0.3294
 3424SOL    HW121734   0.637   4.042   4.869 -0.9739  0.1966 -0.1215
 3424SOL    HW221735   0.650   3.900   4.840  3.3275 -2.0538 -0.8705
 3425SOL     OW21736   3.680   2.209  10.087 -0.3921  0.0240  0.3889
 3425SOL    HW121737   3.725   2.168  10.161 -0.9625  2.5437  2.0977
 3425SOL    HW221738   3.595   2.166  10.085 -0.4866  0.2653 -1.1684
 3426SOL     OW21739   4.621   2.316   5.794  0.0032 -0.1393  0.5501
 3426SOL    HW121740   4.612   2.222   5.812  0.0530 -0.1676  0.4252
 3426SOL    HW221741   4.608   2.330   5.701 -0.2087  1.2039  0.7784
 3427SOL     OW21742   0.439   3.608   9.116  0.3030 -0.2369  0.1162
 3427SOL    HW121743   0.372   3.540   9.127  0.8612 -0.6427  1.0149
 3427SOL    HW221744   0.497   3.578   9.186 -0.0607 -1.5925 -0.1627
 3428SOL     OW21745   0.913   3.256   0.263  0.3221 -0.2639 -0.4617
 3428SOL    HW121746   0.957   3.329   0.306 -0.7317 -0.8288  1.5687
 3428SOL    HW221747   0.825   3.284   0.286  0.7464  0.5117  0.2393
 3429SOL     OW21748   3.976   0.937   7.911  0.4017  0.1044 -0.0837
 3429SOL    HW121749   4.039   0.877   7.870  0.2372  1.4426 -2.3137
 3429SOL    HW221750   4.041   0.991   7.956  1.7623 -0.8853 -0.8384
 3430SOL     OW21751   0.565   4.693   3.273 -0.4290  0.1172 -0.0967
 3430SOL    HW121752   0.597   0.042   3.215  0.4654 -0.3988 -0.2188
 3430SOL    HW221753   0.638   4.699   3.334 -0.0601  0.7225 -0.5903
 3431SOL     OW21754   3.520   4.564  13.493 -0.1236  0.4108 -0.2453
 3431SOL    HW121755   3.498   4.540  13.403 -0.3310 -2.7340  0.6546
 3431SOL    HW221756   3.540   4.657  13.486  3.6827 -0.3418  0.6518
 3432SOL     OW21757   2.800   3.845   3.508 -0.3906  0.0835  0.6427
 3432SOL    HW121758   2.885   3.804   3.529  0.3791  0.1981 -2.3054
 3432SOL    HW221759   2.751   3.764   3.524  0.5018 -0.6983 -0.5581
 3433SOL     OW21760   2.487   0.875   7.110 -0.3414 -0.2750  0.1179
 3433SOL    HW121761   2.455   0.902   7.024 -1.0514 -3.4132 -0.6007
 3433SOL    HW221762   2.469   0.781   7.107 -1.5436 -0.0650  0.4103
 3434SOL     OW21763   0.267   1.264   5.005 -0.4564 -0.1590  0.6776
 3434SOL    HW121764   0.248   1.341   5.058 -0.0229  0.7068 -0.4462
 3434SOL    HW221765   0.210   1.195   5.039 -2.6806  0.0659 -2.5858
 3435SOL     OW21766   2.391   0.340   5.164 -0.1493  0.1779 -0.1494
 3435SOL    HW121767   2.346   0.373   5.086 -0.6391 -0.4397 -0.1224
 3435SOL    HW221768   2.320   0.293   5.206  0.2538 -1.6211 -1.4705
 3436SOL     OW21769   2.182   2.914   6.334  0.0247  0.5307 -0.0852
 3436SOL    HW121770   2.097   2.879   6.307 -0.1827 -0.3277  1.7166
 3436SOL    HW221771   2.220   2.932   6.248  1.7452  0.0409  0.5652
 3437SOL     OW21772   3.597   2.234   4.228 -0.0464 -0.3950 -0.2923
 3437SOL    HW121773   3.645   2.287   4.292  2.0598 -0.6760 -1.6603
 3437SOL    HW221774   3.577   2.302   4.164  1.4768  0.4766  0.1557
 3438SOL     OW21775   2.911   1.994  17.306 -0.3623 -0.5233  0.5921
 3438SOL    HW121776   2.958   2.020  17.227  0.6038 -0.1013  1.3026
 3438SOL    HW221777   2.991   1.995  17.358  2.0063  1.4763 -3.1345
 3439SOL     OW21778   1.826   2.473   3.879 -0.0599 -0.0681 -0.0863
 3439SOL    HW121779   1.863   2.553   3.915 -1.9902  0.6853  0.2610
 3439SOL    HW221780   1.771   2.503   3.806  0.3356 -0.3425 -0.4887
 3440SOL     OW21781   0.055   1.978  13.759  0.7683  0.3460  0.2132
 3440SOL    HW121782   0.010   1.922  13.696 -0.6329  0.0455  1.4731
 3440SOL    HW221783   4.692   2.002  13.798  1.0387 -0.9461  1.6053
 3441SOL     OW21784   1.837   2.024  11.925  0.0031  0.1366 -0.2908
 3441SOL    HW121785   1.752   2.009  11.885  0.7836 -1.7224 -1.2630
 3441SOL    HW221786   1.811   2.047  12.014  0.1405  0.4567 -0.3339
 3442SOL     OW21787   1.591   1.536  10.737 -0.0868 -0.2219 -0.4351
 3442SOL    HW121788   1.522   1.601  10.740 -0.0911 -0.1858 -1.2517
 3442SOL    HW221789   1.597   1.494  10.823 -1.4433  0.2374 -0.1250
 3443SOL     OW21790   2.750   3.132   4.539 -0.7716 -0.0063  0.4516
 3443SOL    HW121791   2.679   3.070   4.525 -1.4967  1.2085 -1.3042
 3443SOL    HW221792   2.722   3.170   4.622 -2.0211 -0.6190  0.3053
 3444SOL     OW21793   3.642   1.334   6.079 -0.2786 -0.2688 -0.2367
 3444SOL    HW121794   3.713   1.391   6.111 -0.6639 -0.9624  1.8701
 3444SOL    HW221795   3.685   1.251   6.061 -1.2791 -0.2048 -2.8951
 3445SOL     OW21796   2.704   2.349  11.254  0.1763  0.0928 -0.5504
 3445SOL    HW121797   2.772   2.407  11.218  0.0525  0.4358 -0.2296
 3445SOL    HW221798   2.764   2.306  11.315 -2.6234  0.0976  2.1540
 3446SOL     OW21799   3.507   3.159   2.874 -0.1481  0.2361 -0.1474
 3446SOL    HW121800   3.425   3.153   2.923 -0.8087  1.0602 -1.1718
 3446SOL    HW221801   3.478   3.198   2.792  0.9313  2.3219  0.4607
 3447SOL     OW21802   0.355   3.303  17.380  0.0214 -0.0331 -0.0982
 3447SOL    HW121803   0.344   3.245  17.455 -1.0763  0.2623 -0.0312
 3447SOL    HW221804   0.261   3.321  17.374  0.2118  0.0162 -3.2382
 3448SOL     OW21805   1.226   1.128   2.503 -0.0267 -0.0312  0.0241
 3448SOL    HW121806   1.289   1.056   2.500 -0.5130 -0.5390  2.4282
 3448SOL    HW221807   1.158   1.085   2.554  1.1443 -1.9290 -0.0354
 3449SOL     OW21808   4.029   0.539  15.048 -0.2429 -0.8415 -0.4165
 3449SOL    HW121809   4.028   0.564  15.140  3.8220 -0.1626 -0.5752
 3449SOL    HW221810   3.935   0.525  15.032 -0.1401 -1.5551 -0.4247
 3450SOL     OW21811   0.966   0.639   4.502  0.7509  0.5100  0.4697
 3450SOL    HW121812   1.006   0.633   4.588  1.7501  0.7915  0.0251
 3450SOL    HW221813   0.876   0.617   4.526  0.9414 -0.5714  0.1997
 3451SOL     OW21814   4.574   4.346   6.793 -0.0063  0.2810 -0.2563
 3451SOL    HW121815   4.523   4.317   6.868 -2.2883 -0.3351 -2.0502
 3451SOL    HW221816   4.538   4.284   6.730 -1.1491 -1.6980  2.3738
 3452SOL     OW21817   4.455   4.028  14.996  0.0234  0.2301 -0.6305
 3452SOL    HW121818   4.522   4.043  14.929 -1.4046 -0.2100 -2.1515
 3452SOL    HW221819   4.508   3.973  15.054 -0.9026 -0.9505 -0.8972
 3453SOL     OW21820   1.164   3.091   3.399 -0.3651 -0.0033 -0.1639
 3453SOL    HW121821   1.153   3.025   3.331 -0.6529 -1.8765  1.7296
 3453SOL    HW221822   1.094   3.067   3.459  0.9930 -1.0178  1.0062
 3454SOL     OW21823   2.878   0.245   8.827  0.4898 -0.4807 -0.2074
 3454SOL    HW121824   2.886   0.247   8.732  1.6177  1.1301 -0.0774
 3454SOL    HW221825   2.894   0.152   8.842 -0.0933 -0.6917 -0.8699
 3455SOL     OW21826   3.649   2.938   1.149  0.4957  0.4282  0.4929
 3455SOL    HW121827   3.674   2.996   1.077  1.8961  0.1908  0.8000
 3455SOL    HW221828   3.736   2.917   1.181  0.2288 -2.0628 -0.3898
 3456SOL     OW21829   0.225   3.952   7.037 -0.1528  0.5664  0.7089
 3456SOL    HW121830   0.244   3.917   6.950 -2.1095 -1.7711  1.2196
 3456SOL    HW221831   0.131   3.937   7.039 -0.0975  0.1143 -0.1103
 3457SOL     OW21832   3.166   3.983   8.835  0.6367  0.2021  0.4759
 3457SOL    HW121833   3.201   4.065   8.869 -0.0776  0.5219  0.4412
 3457SOL    HW221834   3.171   4.003   8.742  1.8491  0.8391  0.6746
 3458SOL     OW21835   4.483   4.306   1.269  0.1412 -0.4376  0.1194
 3458SOL    HW121836   4.416   4.254   1.225 -1.5205  0.6861  1.3198
 3458SOL    HW221837   4.426   4.378   1.297  1.0337 -1.2019  3.9925
 3459SOL     OW21838   0.719   2.489   0.849 -0.5992 -0.4322  0.6298
 3459SOL    HW121839   0.640   2.439   0.866  0.0036 -1.2022  1.1443
 3459SOL    HW221840   0.780   2.444   0.907  0.5143  1.2888  0.7923
 3460SOL     OW21841   0.444   3.050   4.181  0.0385  0.1389  0.1640
 3460SOL    HW121842   0.364   3.102   4.174  0.9345  1.4137 -0.4717
 3460SOL    HW221843   0.429   2.993   4.257 -0.6327 -0.3533 -0.3347
 3461SOL     OW21844   1.639   4.434  13.265  0.4491 -0.3016 -0.5928
 3461SOL    HW121845   1.715   4.477  13.305 -2.1523  2.6309  1.2215
 3461SOL    HW221846   1.602   4.398  13.346 -0.1488 -1.2114 -1.2781
 3462SOL     OW21847   2.565   1.692   4.937  0.0291  0.8823  0.0548
 3462SOL    HW121848   2.583   1.737   5.020 -0.0612  2.0945 -0.5701
 3462SOL    HW221849   2.499   1.633   4.972 -0.1290  1.3825  0.6055
 3463SOL     OW21850   4.570   1.017   1.936  0.2000 -0.7924  0.3402
 3463SOL    HW121851   4.505   0.955   1.902  1.6718 -1.0641 -1.9657
 3463SOL    HW221852   4.509   1.087   1.960 -0.7053 -1.9252  1.3331
 3464SOL     OW21853   0.839   0.237   9.080 -0.3226  0.2313 -0.5342
 3464SOL    HW121854   0.745   0.256   9.083 -0.2085  0.7460 -0.2148
 3464SOL    HW221855   0.840   0.148   9.046  0.9241  0.4907 -1.1827
 3465SOL     OW21856   2.453   3.617   6.500 -0.0088 -0.3714 -0.2220
 3465SOL    HW121857   2.427   3.537   6.546 -0.2191 -0.1019  0.1311
 3465SOL    HW221858   2.499   3.658   6.574 -2.5065 -1.0961  1.7284
 3466SOL     OW21859   2.545   3.190   5.552 -0.0698  0.4063 -0.2483
 3466SOL    HW121860   2.574   3.280   5.565  0.2528  0.0481  1.4778
 3466SOL    HW221861   2.549   3.174   5.457  0.6666 -0.3423 -0.0900
 3467SOL     OW21862   1.136   1.409  16.218  0.2931 -0.5290 -0.0530
 3467SOL    HW121863   1.161   1.365  16.299  1.1747 -0.9789 -0.5765
 3467SOL    HW221864   1.041   1.397  16.215  0.3582 -0.6936 -1.6793
 3468SOL     OW21865   1.913   1.286   3.314  0.0390  0.2288  0.4748
 3468SOL    HW121866   1.866   1.259   3.234 -0.5494 -0.4648  1.0507
 3468SOL    HW221867   1.975   1.349   3.276  1.6969 -2.1067 -0.7516
 3469SOL     OW21868   1.716   2.660   3.304 -0.2553  0.0647  0.2237
 3469SOL    HW121869   1.653   2.607   3.352  0.2059 -1.1456 -0.5199
 3469SOL    HW221870   1.667   2.694   3.230 -0.2836  0.6100  0.4882
 3470SOL     OW21871   1.475   3.321   8.237  0.1324  0.6393  0.1994
 3470SOL    HW121872   1.456   3.372   8.315  1.3961  2.1383 -0.4663
 3470SOL    HW221873   1.401   3.349   8.183  0.1079  0.5838  0.2040
 3471SOL     OW21874   1.154   2.205  15.426  0.0633  0.1790  0.5995
 3471SOL    HW121875   1.084   2.269  15.441  0.6243  1.3223 -1.6695
 3471SOL    HW221876   1.226   2.258  15.460  1.1897 -2.1252  1.8303
 3472SOL     OW21877   1.291   1.583  11.881 -0.6242 -0.4715 -0.0689
 3472SOL    HW121878   1.317   1.525  11.810 -0.7626 -0.6902  0.0600
 3472SOL    HW221879   1.232   1.636  11.828 -0.9528 -1.3003 -0.5261
 3473SOL     OW21880   1.796   4.078  12.786  0.7008  0.2138  0.1747
 3473SOL    HW121881   1.758   4.145  12.729 -1.1321 -0.0442  1.1050
 3473SOL    HW221882   1.852   4.031  12.724  1.5273 -0.1326  1.1779
 3474SOL     OW21883   2.984   3.388   7.957  0.3580 -0.1142  0.4423
 3474SOL    HW121884   3.003   3.371   8.049  0.0636 -1.9402  0.1653
 3474SOL    HW221885   2.895   3.424   7.961  1.2992  2.2479  0.2525
 3475SOL     OW21886   0.739   0.714  10.656  0.8990 -0.4740 -0.2501
 3475SOL    HW121887   0.739   0.724  10.751  0.8692 -2.0217 -0.0966
 3475SOL    HW221888   0.669   0.774  10.631 -0.1238 -1.2807  0.7238
 3476SOL     OW21889   3.624   0.005   3.483  0.0311 -0.2170  0.2106
 3476SOL    HW121890   3.688   0.049   3.539 -1.5193  2.2524  0.0792
 3476SOL    HW221891   3.625   4.639   3.521 -2.5141 -0.2333  0.2645
 3477SOL     OW21892   2.333   2.795  13.255 -0.4667  0.3966  0.2535
 3477SOL    HW121893   2.304   2.845  13.332 -0.2499  2.3785 -0.9652
 3477SOL    HW221894   2.352   2.707  13.289  2.9800  0.4238 -1.6018
 3478SOL     OW21895   2.718   0.092   8.522 -0.1753  0.4075  0.4031
 3478SOL    HW121896   2.807   0.056   8.522 -1.1836 -2.1168 -0.1510
 3478SOL    HW221897   2.731   0.162   8.586 -0.3230  0.8418 -0.0405
 3479SOL     OW21898   3.734   2.660   2.881 -0.6284  0.0911 -0.3752
 3479SOL    HW121899   3.661   2.601   2.902  0.9226 -1.1362  1.5567
 3479SOL    HW221900   3.684   2.740   2.868 -0.0132  0.7216  1.1588
 3480SOL     OW21901   3.371   0.384   6.221  0.4712 -0.5882 -0.2216
 3480SOL    HW121902   3.355   0.388   6.315 -2.8597 -4.7717 -0.6125
 3480SOL    HW221903   3.393   0.291   6.218 -0.4837 -0.8389  0.7434
 3481SOL     OW21904   0.729   4.437   5.519  0.2305  0.2716  0.2438
 3481SOL    HW121905   0.796   4.501   5.493 -0.6170  1.7756  1.8211
 3481SOL    HW221906   0.656   4.496   5.538 -1.8403 -2.2375 -0.0420
 3482SOL     OW21907   0.389   1.745   8.729 -0.0586 -0.2543  0.0892
 3482SOL    HW121908   0.316   1.701   8.772 -1.1761  0.3430 -1.2016
 3482SOL    HW221909   0.443   1.670   8.704  0.7701  1.1513 -2.3745
 3483SOL     OW21910   1.998   1.786  14.548  0.3456  0.0342 -0.1371
 3483SOL    HW121911   2.059   1.713  14.553  0.5964  0.2255 -0.4120
 3483SOL    HW221912   2.033   1.831  14.471 -0.0762  1.3432  0.4220
 3484SOL     OW21913   4.631   3.070   4.448 -0.0655  0.3723 -0.1436
 3484SOL    HW121914   4.579   3.000   4.407 -2.7682  1.7714  0.8722
 3484SOL    HW221915   4.633   3.131   4.375 -1.7435  0.1658 -0.3756
 3485SOL     OW21916   2.137   1.807  12.107  0.1978 -0.1550  0.3006
 3485SOL    HW121917   2.085   1.821  12.028 -0.0023 -0.1484  0.4332
 3485SOL    HW221918   2.174   1.722  12.084 -1.8515 -0.3184 -2.3837
 3486SOL     OW21919   2.638   3.956   6.300  0.1287 -0.1260  0.1589
 3486SOL    HW121920   2.607   3.873   6.265 -2.4923  1.3971 -1.1463
 3486SOL    HW221921   2.562   4.012   6.315  0.3020  0.5169 -1.3490
 3487SOL     OW21922   4.352   0.159  12.063  0.1558 -0.1107 -0.4552
 3487SOL    HW121923   4.412   0.086  12.048 -1.6057 -1.1309 -2.4711
 3487SOL    HW221924   4.314   0.150  12.151  1.4955 -1.5578 -0.0282
 3488SOL     OW21925   3.503   3.595   3.182  0.3764 -0.0957  0.1882
 3488SOL    HW121926   3.488   3.525   3.245  0.9934  1.7898  2.4109
 3488SOL    HW221927   3.547   3.530   3.127  0.6759  0.6508 -0.4606
 3489SOL     OW21928   2.634   4.155   1.084  0.1438 -0.4262  0.2172
 3489SOL    HW121929   2.621   4.249   1.077  0.7637 -0.2532  1.4365
 3489SOL    HW221930   2.691   4.131   1.011 -0.7204  0.9108 -0.8827
 3490SOL     OW21931   4.381   0.319   3.128  0.7823  0.0853  0.2991
 3490SOL    HW121932   4.332   0.384   3.178 -1.2281 -0.7014 -0.6399
 3490SOL    HW221933   4.327   0.241   3.137  0.0174  0.7665  1.6270
 3491SOL     OW21934   1.989   0.446  12.864  0.3399 -0.0770 -0.3718
 3491SOL    HW121935   1.942   0.528  12.878  1.3720  0.3046  0.9538
 3491SOL    HW221936   1.988   0.448  12.769  1.4989  0.1191 -0.3900
 3492SOL     OW21937   3.716   0.586  16.944  0.0444  0.4809  0.0506
 3492SOL    HW121938   3.694   0.582  16.851  1.2187 -1.1935 -0.1455
 3492SOL    HW221939   3.692   0.676  16.969  2.1495  0.7552  1.0983
 3493SOL     OW21940   1.335   0.419   6.099 -0.6108 -0.1811  0.1418
 3493SOL    HW121941   1.333   0.496   6.156 -2.0796 -1.2100  1.4905
 3493SOL    HW221942   1.323   0.349   6.162  1.0676 -0.5617  0.0513
 3494SOL     OW21943   4.352   0.194  13.543  0.0584  0.3142  0.1853
 3494SOL    HW121944   4.434   0.158  13.509 -0.6385  0.3147 -1.4975
 3494SOL    HW221945   4.389   0.252  13.609  1.0339  1.5653 -1.4498
 3495SOL     OW21946   0.781   1.731   8.772  0.3394  0.1837 -0.2335
 3495SOL    HW121947   0.848   1.701   8.834  2.0514  0.7061 -1.8412
 3495SOL    HW221948   0.702   1.718   8.824 -0.7415 -1.5407 -2.3284
 3496SOL     OW21949   0.071   2.696   4.819 -0.6189 -0.6810  0.0039
 3496SOL    HW121950   4.715   2.664   4.773 -1.5359  0.2807  0.8528
 3496SOL    HW221951   0.096   2.611   4.854 -1.2965 -1.9290 -2.6229
 3497SOL     OW21952   0.415   1.421  16.731  0.6841 -0.4631 -0.2216
 3497SOL    HW121953   0.439   1.483  16.801 -0.1660  0.7005 -0.9640
 3497SOL    HW221954   0.420   1.338  16.779 -4.9499 -1.4434 -1.3429
 3498SOL     OW21955   3.829   3.807   3.013  0.0728  0.0706  0.0426
 3498SOL    HW121956   3.743   3.787   2.976 -1.1732 -0.4134  3.1655
 3498SOL    HW221957   3.812   3.776   3.102 -2.4823  0.9587 -0.1371
 3499SOL     OW21958   4.507   1.123  17.432 -0.4755 -0.1335 -0.0005
 3499SOL    HW121959   4.536   1.209  17.402 -1.6870  0.2453 -0.0986
 3499SOL    HW221960   4.508   1.076  17.349 -2.7403 -0.0839 -0.0568
 3500SOL     OW21961   0.012   0.612   2.456 -0.1472  0.0359 -0.3968
 3500SOL    HW121962   4.704   0.679   2.393  3.6289  0.0256 -2.1806
 3500SOL    HW221963   4.689   0.651   2.531  1.1350  0.9817 -0.1404
 3501SOL     OW21964   3.585   0.607   4.008 -0.4395  0.2128  0.0866
 3501SOL    HW121965   3.534   0.632   3.931  1.1805 -0.4484 -1.2040
 3501SOL    HW221966   3.577   0.691   4.053 -1.2325 -0.9517  2.1238
 3502SOL     OW21967   0.389   1.025  17.161  0.7681  0.3342 -0.0785
 3502SOL    HW121968   0.399   0.952  17.222 -1.9639 -0.0903 -0.1826
 3502SOL    HW221969   0.304   1.009  17.121  1.5491 -1.5154 -0.9777
 3503SOL     OW21970   0.610   4.243   3.809 -0.1107  0.4549  0.4506
 3503SOL    HW121971   0.576   4.323   3.847 -1.3530 -0.2611  0.8435
 3503SOL    HW221972   0.620   4.177   3.877  1.2132  1.8745  1.6216
 3504SOL     OW21973   3.857   3.738   9.510  0.2113  0.7254  0.3973
 3504SOL    HW121974   3.851   3.705   9.600 -2.7166 -0.4890 -0.2510
 3504SOL    HW221975   3.780   3.793   9.497 -1.1637 -0.9681  1.3347
 3505SOL     OW21976   0.020   0.555   9.985 -0.5670  0.0713 -1.0092
 3505SOL    HW121977   0.019   0.639  10.031 -0.8195 -2.2278  3.2346
 3505SOL    HW221978   4.659   0.517  10.018 -0.8924 -0.1903 -2.1312
 3506SOL     OW21979   2.684   2.611   8.917 -0.1317 -0.4702  0.2533
 3506SOL    HW121980   2.609   2.557   8.942  0.3113 -0.9166  0.6184
 3506SOL    HW221981   2.662   2.698   8.950 -0.0757 -0.2845 -0.1904
 3507SOL     OW21982   0.458   2.680  13.734 -0.6128  0.3235 -0.0949
 3507SOL    HW121983   0.524   2.721  13.789  0.8900 -1.0847 -0.8571
 3507SOL    HW221984   0.509   2.631  13.669  0.3043  1.0307  0.0881
 3508SOL     OW21985   2.196   0.363   4.162  0.1868  0.0003  0.3894
 3508SOL    HW121986   2.159   0.335   4.246  1.4192 -0.3952  0.7881
 3508SOL    HW221987   2.201   0.276   4.123  3.2791  0.0359  0.7069
 3509SOL     OW21988   4.528   1.901   6.136 -0.1756  0.0819 -0.0603
 3509SOL    HW121989   4.461   1.919   6.203  0.9546 -1.6686  1.5390
 3509SOL    HW221990   4.600   1.889   6.197 -1.4587 -1.4699  1.1490
 3510SOL     OW21991   1.176   3.468   2.114 -0.0061 -0.1692  0.0610
 3510SOL    HW121992   1.127   3.407   2.170  1.4285 -1.3352  0.0648
 3510SOL    HW221993   1.248   3.412   2.084  0.9794  0.5996  0.9655
 3511SOL     OW21994   2.722   2.541   9.744  0.0523 -0.6935 -0.1059
 3511SOL    HW121995   2.722   2.551   9.839 -2.4990 -2.7930  0.1092
 3511SOL    HW221996   2.659   2.474   9.717  1.3112 -1.9583  0.1026
 3512SOL     OW21997   4.029   0.028  14.236  0.2580  0.1719 -0.6142
 3512SOL    HW121998   4.100   0.055  14.294 -0.9918  3.0606 -0.4187
 3512SOL    HW221999   4.032   0.106  14.180 -0.6323 -2.1610 -3.8541
 3513SOL     OW22000   3.552   3.126  17.600  0.1119 -0.2321 -0.3078
 3513SOL    HW122001   3.640   3.114  17.564 -0.1673  3.0148 -2.0897
 3513SOL    HW222002   3.538   3.215  17.567 -0.5943  0.5738  2.1811
 3514SOL     OW22003   0.254   3.255   8.292  0.4252 -0.8311  0.7236
 3514SOL    HW122004   0.345   3.270   8.266  0.0727 -0.3470 -0.2072
 3514SOL    HW222005   0.226   3.208   8.214 -3.1473  0.4532  1.2626
 3515SOL     OW22006   3.234   1.378   9.787  0.3412 -0.9843 -0.5800
 3515SOL    HW122007   3.190   1.418   9.712  0.1863  0.7915  0.4452
 3515SOL    HW222008   3.185   1.296   9.794  0.7019 -1.2433 -1.1218
 3516SOL     OW22009   0.390   1.823   6.840 -0.1909  0.2236 -0.2514
 3516SOL    HW122010   0.394   1.746   6.897 -0.3308 -0.8403 -1.6868
 3516SOL    HW222011   0.484   1.839   6.833 -0.5343  1.8848 -0.9293
 3517SOL     OW22012   1.518   1.059   3.752 -0.2845  0.4080 -0.5807
 3517SOL    HW122013   1.502   1.084   3.661  2.0294  2.0461 -0.5413
 3517SOL    HW222014   1.613   1.053   3.751 -0.2942  0.2225 -0.2189
 3518SOL     OW22015   3.183   3.162  17.590 -0.0002  0.0641  0.0568
 3518SOL    HW122016   3.198   3.098  17.521 -1.1675  1.9626 -1.9838
 3518SOL    HW222017   3.169   3.237  17.531 -0.8435 -1.4947 -1.7299
 3519SOL     OW22018   4.629   3.161   6.766  0.1525  0.7872 -0.1454
 3519SOL    HW122019   4.699   3.226   6.765  0.2841  0.6693  2.7764
 3519SOL    HW222020   4.546   3.202   6.791  0.8876  2.5149 -0.4978
 3520SOL     OW22021   0.330   4.537   5.538  0.1189  0.1685 -0.2204
 3520SOL    HW122022   0.320   4.464   5.599  0.1275 -0.4071 -0.8968
 3520SOL    HW222023   0.314   4.492   5.454  0.6092 -0.6359  0.1148
 3521SOL     OW22024   3.753   2.462  15.614 -0.3013  0.0012 -0.3284
 3521SOL    HW122025   3.669   2.477  15.571 -0.2518 -0.0044 -0.4271
 3521SOL    HW222026   3.784   2.551  15.630 -1.5124  0.2462  0.6980
 3522SOL     OW22027   4.236   2.867  12.593  0.2729  0.0999 -0.1546
 3522SOL    HW122028   4.280   2.864  12.678 -1.4339 -0.2346  0.7110
 3522SOL    HW222029   4.149   2.886  12.627 -1.3297 -3.1687 -2.4363
 3523SOL     OW22030   2.353   4.498   8.418  0.6686  0.0853  0.4303
 3523SOL    HW122031   2.443   4.509   8.447  0.7717  1.4427 -0.4496
 3523SOL    HW222032   2.345   4.413   8.463  1.8467 -0.6409 -0.7542
 3524SOL     OW22033   4.024   1.390   2.832 -0.3649  0.2143 -0.3626
 3524SOL    HW122034   3.949   1.406   2.774  0.6857 -0.8549 -2.0033
 3524SOL    HW222035   4.002   1.447   2.906 -1.7059  0.3359 -0.8515
 3525SOL     OW22036   1.815   0.268  15.858  0.5353 -0.4374 -0.7792
 3525SOL    HW122037   1.770   0.264  15.942  0.5121 -0.0689 -0.7739
 3525SOL    HW222038   1.759   0.219  15.798  0.3964  2.3131 -2.8890
 3526SOL     OW22039   1.075   4.708  12.763 -0.1120 -0.3209  0.4775
 3526SOL    HW122040   1.088   0.033  12.846 -0.3506  0.7567 -0.0866
 3526SOL    HW222041   1.162   4.672  12.747  0.4684  1.4909 -0.3763
 3527SOL     OW22042   0.224   0.429  16.643  0.1165  0.2426  1.2471
 3527SOL    HW122043   0.168   0.500  16.674 -0.5696  1.0408 -1.7997
 3527SOL    HW222044   0.201   0.359  16.704 -0.2756 -0.4781  0.2724
 3528SOL     OW22045   2.003   0.328   8.401  0.3179 -0.4293  0.2675
 3528SOL    HW122046   1.951   0.404   8.427 -2.7391 -1.4026 -2.8876
 3528SOL    HW222047   1.945   0.262   8.440 -1.3627  0.9623  0.1273
 3529SOL     OW22048   4.619   1.899   5.693 -0.2858 -0.1853  0.1809
 3529SOL    HW122049   4.592   1.948   5.616 -2.5480 -2.7373 -0.6631
 3529SOL    HW222050   4.580   1.943   5.769 -2.6522  0.1111 -1.1919
 3530SOL     OW22051   4.695   1.827   9.774  0.3445  0.4043 -0.0104
 3530SOL    HW122052   4.618   1.842   9.828 -0.9369 -0.3983 -1.6270
 3530SOL    HW222053   4.647   1.828   9.691 -1.3201  1.0157  0.9800
 3531SOL     OW22054   2.829   0.875   1.160 -0.2448  0.3988 -0.4088
 3531SOL    HW122055   2.822   0.804   1.096  0.2030 -0.2582  0.2649
 3531SOL    HW222056   2.809   0.829   1.242  1.6163  2.3361  1.1635
 3532SOL     OW22057   2.754   4.572   0.257 -0.1673  0.1919  0.0526
 3532SOL    HW122058   2.686   4.578   0.189  0.6319  2.9349 -0.4923
 3532SOL    HW222059   2.733   4.485   0.293 -3.5499  1.3826  0.9321
 3533SOL     OW22060   2.234   3.131  11.971 -0.1341 -0.4401 -0.1333
 3533SOL    HW122061   2.172   3.183  11.920 -0.6107 -1.7796 -0.8851
 3533SOL    HW222062   2.190   3.046  11.967  2.2042 -1.6873  0.8577
 3534SOL     OW22063   2.294   2.592   4.763 -0.1247 -0.0748 -0.5428
 3534SOL    HW122064   2.274   2.530   4.693 -0.3126 -1.1428  0.4607
 3534SOL    HW222065   2.356   2.650   4.719 -1.6165  1.6011 -0.4478
 3535SOL     OW22066   1.948   2.143  14.232 -0.4164 -0.4630  0.2143
 3535SOL    HW122067   1.923   2.050  14.238  0.9716 -0.8918 -0.5961
 3535SOL    HW222068   1.947   2.150  14.136  2.8894 -2.3182  0.0213
 3536SOL     OW22069   2.033   1.980   8.790  0.0543 -0.0456  0.1104
 3536SOL    HW122070   2.061   1.895   8.756 -0.2580  0.3662 -1.1856
 3536SOL    HW222071   1.973   1.957   8.861  1.2339 -1.5039  0.6293
 3537SOL     OW22072   2.420   0.467   2.677 -0.2148  0.0563  0.1113
 3537SOL    HW122073   2.440   0.376   2.655  0.2374 -0.2565  1.8202
 3537SOL    HW222074   2.504   0.499   2.711 -0.6203  0.8964  0.3297
 3538SOL     OW22075   4.390   0.747   1.268  0.1879 -0.1812  0.6121
 3538SOL    HW122076   4.331   0.810   1.227 -0.6215 -1.6552 -0.4947
 3538SOL    HW222077   4.371   0.751   1.361  0.7201  1.0940  0.6724
 3539SOL     OW22078   2.172   0.656   5.930  0.0035 -0.5694  0.4775
 3539SOL    HW122079   2.218   0.609   5.860 -1.5708  0.8485 -1.4868
 3539SOL    HW222080   2.102   0.597   5.959 -0.9718 -0.1168 -0.9517
 3540SOL     OW22081   1.855   4.628   9.277 -0.0093 -0.3320  0.3941
 3540SOL    HW122082   1.928   4.566   9.264  0.6964  0.6589 -0.3248
 3540SOL    HW222083   1.779   4.589   9.234  0.9070 -1.1524 -0.5006
 3541SOL     OW22084   0.883   3.291   3.387  0.2166  0.0615  0.0961
 3541SOL    HW122085   0.919   3.270   3.473  1.4296 -0.9432 -0.6550
 3541SOL    HW222086   0.820   3.219   3.378 -0.0022  0.5822 -2.5117
 3542SOL     OW22087   0.294   3.632   1.843 -0.0867 -0.6953 -0.2399
 3542SOL    HW122088   0.214   3.665   1.802  0.4351 -1.4952 -1.8833
 3542SOL    HW222089   0.259   3.555   1.888 -1.5011  0.2816  0.3249
 3543SOL     OW22090   1.099   4.187   1.655  0.4374  0.0871 -0.0486
 3543SOL    HW122091   1.068   4.105   1.693 -3.8453  1.8070  0.2664
 3543SOL    HW222092   1.033   4.198   1.586  0.7020 -0.4351 -0.3875
 3544SOL     OW22093   3.422   0.177   3.711 -0.0361  0.2161 -0.1942
 3544SOL    HW122094   3.340   0.206   3.752 -0.1576 -0.3035 -0.0651
 3544SOL    HW222095   3.443   0.104   3.770 -0.0968  2.2046  2.2789
 3545SOL     OW22096   0.507   4.248   6.130 -0.2309  0.5335  0.4270
 3545SOL    HW122097   0.540   4.306   6.199  0.4755  1.0213 -0.3169
 3545SOL    HW222098   0.426   4.221   6.173 -0.8524  0.8820 -0.5371
 3546SOL     OW22099   2.999   4.320   7.993  0.6420  0.3784  0.2910
 3546SOL    HW122100   3.053   4.296   7.917  0.9760  0.4652  0.5006
 3546SOL    HW222101   3.067   4.345   8.055  0.2820 -0.4065  1.0035
 3547SOL     OW22102   0.065   1.616   3.643  0.7710  0.3224 -0.0490
 3547SOL    HW122103   4.716   1.551   3.645  0.4668  0.6620  0.2935
 3547SOL    HW222104   0.035   1.693   3.691 -1.7511 -0.0026 -1.0837
 3548SOL     OW22105   1.022   4.266   3.429 -0.3493 -0.4037 -0.3081
 3548SOL    HW122106   1.008   4.172   3.440  0.1698 -0.6964 -2.0929
 3548SOL    HW222107   1.106   4.261   3.384 -0.2129  0.3973 -0.1399
 3549SOL     OW22108   1.492   1.136   3.502 -0.1600  0.8058 -0.1953
 3549SOL    HW122109   1.551   1.208   3.480  1.2032 -0.3430 -0.2701
 3549SOL    HW222110   1.418   1.154   3.443  0.7513  2.1913 -0.9211
 3550SOL     OW22111   1.599   4.217   3.766 -0.3772 -0.0804  0.4405
 3550SOL    HW122112   1.634   4.129   3.779  3.6339  1.9637  3.4640
 3550SOL    HW222113   1.651   4.257   3.696  0.8924 -3.0530 -0.2974
 3551SOL     OW22114   1.208   0.789   9.775 -0.0542 -0.0882 -0.5444
 3551SOL    HW122115   1.282   0.837   9.738 -0.1321  1.2593  1.0280
 3551SOL    HW222116   1.189   0.844   9.851  0.4432 -0.8448  0.1310
 3552SOL     OW22117   3.302   3.926  14.996  0.3595 -0.3668 -0.7522
 3552SOL    HW122118   3.371   3.892  14.938  0.9961 -0.5675  0.1156
 3552SOL    HW222119   3.352   3.989  15.047  1.5857 -0.7427 -1.4852
 3553SOL     OW22120   3.963   2.466   6.475  0.2707  1.0070 -0.4612
 3553SOL    HW122121   3.989   2.475   6.383  1.2715 -0.6594 -0.3315
 3553SOL    HW222122   3.997   2.548   6.511  2.0511 -0.2991  0.7932
 3554SOL     OW22123   2.239   1.312   1.982 -0.2760  0.0518 -0.0656
 3554SOL    HW122124   2.151   1.293   2.015  0.9446 -0.6535  2.8103
 3554SOL    HW222125   2.211   1.293   1.892  0.4695 -3.2512  0.3912
 3555SOL     OW22126   2.648   1.056   3.971  0.3682  0.1478 -0.6705
 3555SOL    HW122127   2.657   1.132   4.028  2.2321  0.8289 -1.8926
 3555SOL    HW222128   2.554   1.039   3.979  0.4791 -0.4593 -0.6646
 3556SOL     OW22129   4.549   3.362   8.740 -0.0339  0.4771 -0.2244
 3556SOL    HW122130   4.585   3.357   8.652  0.1414 -0.0091 -0.1284
 3556SOL    HW222131   4.455   3.358   8.718  0.5084 -0.0488 -2.4508
 3557SOL     OW22132   3.027   0.705   7.690  0.2052 -0.4726 -0.8843
 3557SOL    HW122133   3.098   0.768   7.704  0.3572 -0.3367 -2.3017
 3557SOL    HW222134   3.084   0.629   7.685  1.2922  0.3309 -0.8527
 3558SOL     OW22135   1.778   1.767   7.783  0.1489  0.3154 -0.1700
 3558SOL    HW122136   1.865   1.773   7.744  0.0594 -0.1334 -0.4399
 3558SOL    HW222137   1.749   1.683   7.746 -0.4218 -0.4191  1.9168
 3559SOL     OW22138   2.991   1.143   7.378  0.0406 -0.2937 -0.0442
 3559SOL    HW122139   3.081   1.135   7.410  0.4787 -1.8633 -1.6760
 3559SOL    HW222140   2.991   1.237   7.359  1.5320  0.3187  2.9295
 3560SOL     OW22141   0.734   2.553   1.203  0.9975 -0.3242  0.2148
 3560SOL    HW122142   0.686   2.574   1.283  1.3953  0.5541  0.2264
 3560SOL    HW222143   0.721   2.628   1.144 -2.1021 -1.1905 -0.2163
 3561SOL     OW22144   0.669   3.243  17.206  0.6058 -0.2614  0.2373
 3561SOL    HW122145   0.662   3.250  17.111  0.9695  1.3807  0.3403
 3561SOL    HW222146   0.630   3.327  17.230  1.3253 -0.8008  3.2874
 3562SOL     OW22147   0.515   0.271   9.069 -0.2965  0.0800  0.0186
 3562SOL    HW122148   0.486   0.204   9.130  0.8733 -0.4934 -0.0650
 3562SOL    HW222149   0.482   0.352   9.107  0.2393  0.7224 -0.8745
 3563SOL     OW22150   1.982   1.850   5.632  0.1401 -0.3170  0.1116
 3563SOL    HW122151   2.006   1.931   5.677  1.6222  0.0785 -1.3759
 3563SOL    HW222152   1.976   1.890   5.546  1.2417  1.0925  0.6892
 3564SOL     OW22153   4.717   3.148   2.877  0.4455 -0.2089 -0.5119
 3564SOL    HW122154   0.052   3.222   2.851 -2.4710  2.6092  1.2448
 3564SOL    HW222155   0.046   3.077   2.835  1.6641  1.1031 -1.2837
 3565SOL     OW22156   4.089   4.500   5.173  0.0827 -0.4335  0.1081
 3565SOL    HW122157   4.162   4.559   5.153 -1.1415  0.0647 -2.9040
 3565SOL    HW222158   4.040   4.512   5.091 -0.1126  0.5223  0.3576
 3566SOL     OW22159   2.771   1.109   7.090  0.1163 -0.6243  0.3072
 3566SOL    HW122160   2.796   1.198   7.114  1.0066 -1.0310  0.8997
 3566SOL    HW222161   2.679   1.115   7.065 -0.1638 -1.7370  1.0654
 3567SOL     OW22162   2.286   3.847   7.984 -0.1861  0.1955 -0.3572
 3567SOL    HW122163   2.293   3.759   7.947 -2.1797 -0.7384  1.4208
 3567SOL    HW222164   2.304   3.829   8.076  0.3862  0.2184 -0.4683
 3568SOL     OW22165   2.476   0.066   8.004  0.0511 -0.3814  0.5893
 3568SOL    HW122166   2.393   0.097   7.967  0.4468 -1.2189 -0.9937
 3568SOL    HW222167   2.519   0.138   8.049 -0.8668  0.9450 -0.6472
 3569SOL     OW22168   3.304   1.366   6.538 -0.1806  0.2617  0.4664
 3569SOL    HW122169   3.320   1.397   6.448  1.9526  0.1158  0.7880
 3569SOL    HW222170   3.235   1.418   6.579 -0.0832 -1.5900  2.9523
 3570SOL     OW22171   4.053   2.548   2.575 -0.5931 -0.1471  0.5253
 3570SOL    HW122172   4.073   2.594   2.657 -0.4484  0.2014  0.2954
 3570SOL    HW222173   4.074   2.612   2.507 -1.5755 -1.2146 -0.8073
 3571SOL     OW22174   1.590   2.409  11.455  0.1171  0.0547  0.4970
 3571SOL    HW122175   1.641   2.359  11.391 -0.6894 -0.2175  0.0677
 3571SOL    HW222176   1.568   2.335  11.511 -0.5438  0.2815  0.5368
 3572SOL     OW22177   3.768   1.083   0.832 -0.2660  0.0923 -0.2315
 3572SOL    HW122178   3.787   1.160   0.780 -0.8447  0.1905 -0.2932
 3572SOL    HW222179   3.764   1.020   0.760 -1.2005  1.6189 -1.4942
 3573SOL     OW22180   4.446   2.392   9.288  0.0101 -0.4314  0.5678
 3573SOL    HW122181   4.418   2.301   9.297 -1.0931 -0.2938 -1.3181
 3573SOL    HW222182   4.372   2.440   9.250  1.6418 -0.6281 -2.9407
 3574SOL     OW22183   3.665   3.860   6.976  0.0516 -0.3288 -0.1121
 3574SOL    HW122184   3.708   3.778   6.998  0.2710  0.0360  0.8218
 3574SOL    HW222185   3.731   3.906   6.924  1.9424 -1.8488  0.9493
 3575SOL     OW22186   0.856   0.485   1.307  0.5220  0.0882 -0.3569
 3575SOL    HW122187   0.865   0.392   1.327 -0.8415  0.0573  0.1240
 3575SOL    HW222188   0.890   0.479   1.217  1.1083  0.2591 -0.1465
 3576SOL     OW22189   0.937   2.000  11.242  0.1790 -0.2070 -0.2761
 3576SOL    HW122190   0.929   1.905  11.249  0.3464 -0.2243 -0.3160
 3576SOL    HW222191   0.844   2.023  11.240 -0.4403 -2.8630 -1.9952
 3577SOL     OW22192   2.147   0.864   2.134 -0.7806  0.3905 -0.2703
 3577SOL    HW122193   2.243   0.873   2.138 -0.7923  0.2573  0.3584
 3577SOL    HW222194   2.119   0.952   2.160  0.3983  0.8545 -0.5537
 3578SOL     OW22195   0.339   1.236  12.496  0.4240 -0.0981  0.4388
 3578SOL    HW122196   0.251   1.225  12.532 -0.1810  3.1894 -0.0607
 3578SOL    HW222197   0.390   1.172  12.544 -0.0009 -1.7771 -1.3234
 3579SOL     OW22198   3.269   2.621  10.445  0.2025  0.6511 -0.2146
 3579SOL    HW122199   3.179   2.591  10.430  0.0910 -0.0547  1.9660
 3579SOL    HW222200   3.254   2.710  10.479  0.4046  0.8966 -0.7675
 3580SOL     OW22201   2.223   0.622   7.779  0.2637  0.3707  0.1088
 3580SOL    HW122202   2.187   0.630   7.867  1.3186 -1.4518  0.7185
 3580SOL    HW222203   2.183   0.537   7.758 -1.5558  1.0085  1.0509
 3581SOL     OW22204   3.559   1.765   2.919  0.6881 -0.4814 -0.3591
 3581SOL    HW122205   3.556   1.723   2.833 -1.1355 -1.2259  0.0637
 3581SOL    HW222206   3.609   1.704   2.974 -0.4761 -1.4722 -0.3897
 3582SOL     OW22207   4.364   0.202   2.753  0.8445 -0.1723  0.3249
 3582SOL    HW122208   4.420   0.168   2.683  2.0448 -0.2390  1.3044
 3582SOL    HW222209   4.412   0.277   2.790  0.2732  0.1761  0.3531
 3583SOL     OW22210   0.011   2.639   1.165 -0.1191  0.8352 -0.4302
 3583SOL    HW122211   4.716   2.545   1.152  1.6772  0.2078  2.0039
 3583SOL    HW222212   0.047   2.646   1.253 -3.0540 -1.2014  0.9310
 3584SOL     OW22213   2.419   3.639   1.290 -1.0306  0.5993  0.2863
 3584SOL    HW122214   2.473   3.564   1.315  0.1513  1.7951  1.2921
 3584SOL    HW222215   2.470   3.678   1.220  1.7030 -0.1980  1.8433
 3585SOL     OW22216   0.495   0.027   9.597 -0.0421  0.0273 -0.2642
 3585SOL    HW122217   0.465   0.116   9.613  0.9185  0.4012 -0.5407
 3585SOL    HW222218   0.560   0.035   9.526 -1.1298  1.6857 -1.0613
 3586SOL     OW22219   0.382   0.129  16.678  0.3643 -0.3979 -0.1788
 3586SOL    HW122220   0.303   0.153  16.725  1.1294  1.8333  0.0042
 3586SOL    HW222221   0.438   0.203  16.705 -0.8996 -0.5310  2.8025
 3587SOL     OW22222   1.711   0.710   1.553  0.6506 -0.0027 -0.4682
 3587SOL    HW122223   1.804   0.696   1.536  0.7781  0.7548 -0.3596
 3587SOL    HW222224   1.720   0.800   1.584 -2.0470  0.8770 -2.2671
 3588SOL     OW22225   3.063   1.737   9.089  0.3113  0.0639 -0.0408
 3588SOL    HW122226   3.155   1.756   9.108  0.2392 -1.4562  1.9234
 3588SOL    HW222227   3.025   1.794   9.156  4.1854 -0.3743  2.5568
 3589SOL     OW22228   3.159   4.334   6.462 -0.3437 -0.2177 -0.0058
 3589SOL    HW122229   3.235   4.317   6.406 -0.7636  0.4721 -0.7850
 3589SOL    HW222230   3.088   4.292   6.414  1.7645 -0.5254 -2.8772
 3590SOL     OW22231   2.514   0.582   6.314  0.5522 -0.2115  0.0475
 3590SOL    HW122232   2.453   0.631   6.258  0.0818 -0.3304  0.4635
 3590SOL    HW222233   2.581   0.564   6.248  2.2191 -0.2552  1.7577
 3591SOL     OW22234   3.975   2.857  12.684 -0.5534 -0.2827 -0.5678
 3591SOL    HW122235   3.981   2.765  12.709 -1.2462 -0.2521 -0.2653
 3591SOL    HW222236   3.917   2.890  12.753  0.5253  1.1833 -0.3663
 3592SOL     OW22237   0.022   4.330  14.504  0.2691 -0.2703 -0.3311
 3592SOL    HW122238   0.031   4.360  14.414  1.4820 -1.0773 -0.4869
 3592SOL    HW222239   0.030   4.412  14.552 -1.9235 -0.0653 -0.3170
 3593SOL     OW22240   1.451   4.399   3.914 -0.0335 -0.4316  0.5072
 3593SOL    HW122241   1.364   4.361   3.927  0.4919 -1.5242  0.7525
 3593SOL    HW222242   1.492   4.326   3.868 -0.4194 -1.2361  1.4330
 3594SOL     OW22243   3.648   0.371   8.518  0.1959  0.2332 -0.2388
 3594SOL    HW122244   3.587   0.345   8.587 -0.6264 -1.6251 -1.6803
 3594SOL    HW222245   3.607   0.339   8.438 -1.3929  0.6715  0.4128
 3595SOL     OW22246   0.736   0.191   7.917 -0.5438 -0.1122  0.3579
 3595SOL    HW122247   0.684   0.254   7.968 -1.5023 -1.5015  1.1102
 3595SOL    HW222248   0.691   0.107   7.926 -0.5181 -0.1966 -0.2951
 3596SOL     OW22249   2.621   2.781  14.852  0.2108 -0.3737 -0.3082
 3596SOL    HW122250   2.614   2.731  14.933 -3.4251  2.2224  0.9852
 3596SOL    HW222251   2.713   2.802  14.841  0.6937 -1.6108  1.3503
 3597SOL     OW22252   3.263   1.035  16.891  0.0324  0.0798 -0.5388
 3597SOL    HW122253   3.324   0.970  16.926  1.0969  0.6179 -1.3814
 3597SOL    HW222254   3.218   0.979  16.828 -0.2736 -0.6148  0.3009
 3598SOL     OW22255   2.436   2.506   8.302 -0.6531  0.4445 -0.1643
 3598SOL    HW122256   2.411   2.514   8.394 -0.1942  1.0900 -0.0964
 3598SOL    HW222257   2.382   2.430   8.281 -1.8769  1.1359  0.4428
 3599SOL     OW22258   2.734   2.984   5.304  0.1537 -0.5244 -0.3412
 3599SOL    HW122259   2.645   2.948   5.314 -0.2078  0.5792  0.4036
 3599SOL    HW222260   2.790   2.907   5.316  2.3912  1.0923 -0.5092
 3600SOL     OW22261   0.991   3.480  17.104  0.2914 -0.4397 -0.1282
 3600SOL    HW122262   1.041   3.488  17.186  0.3555  0.0215 -0.2117
 3600SOL    HW222263   0.903   3.500  17.137  1.1239  0.9769  1.2525
 3601SOL     OW22264   4.145   2.324  12.834 -0.0423 -0.6080  0.0382
 3601SOL    HW122265   4.109   2.241  12.804 -0.0187 -0.2842 -0.9005
 3601SOL    HW222266   4.213   2.292  12.894  1.7105  1.5092 -0.8291
 3602SOL     OW22267   0.269   4.473   4.201  0.0746  0.0197 -0.0006
 3602SOL    HW122268   0.181   4.509   4.187  0.0785  1.2180  3.2632
 3602SOL    HW222269   0.317   4.535   4.145  1.3489 -0.5658  0.4594
 3603SOL     OW22270   3.008   2.558  10.362 -0.3453 -0.8065  0.1289
 3603SOL    HW122271   2.933   2.563  10.422 -0.5347 -1.4540 -0.0480
 3603SOL    HW222272   2.974   2.593  10.280  0.3654  0.1998  0.2663
 3604SOL     OW22273   4.458   1.643   8.419  0.1838 -0.2030 -0.0759
 3604SOL    HW122274   4.371   1.630   8.383 -0.1015 -0.2204  0.6136
 3604SOL    HW222275   4.498   1.697   8.351 -2.2562  0.7406 -0.7226
 3605SOL     OW22276   3.274   4.066   7.983 -0.0489 -0.1045  0.0724
 3605SOL    HW122277   3.256   4.154   7.949 -0.7266  0.5308  2.0987
 3605SOL    HW222278   3.266   4.010   7.905  0.2132  0.3526 -0.2836
 3606SOL     OW22279   4.298   2.616   4.405  0.3741  0.0952  0.2866
 3606SOL    HW122280   4.311   2.640   4.496 -0.4282  0.5384  0.2797
 3606SOL    HW222281   4.386   2.588   4.381 -0.3620 -0.0086 -2.3160
 3607SOL     OW22282   1.085   4.110   8.211 -0.1533 -0.1399  0.0208
 3607SOL    HW122283   1.111   4.198   8.236 -0.8798  0.0240  0.2081
 3607SOL    HW222284   1.097   4.110   8.116  2.4888 -2.3394  0.3574
 3608SOL     OW22285   0.995   1.897   7.265 -0.2257  0.7535 -0.1921
 3608SOL    HW122286   0.918   1.865   7.311  1.0092 -0.1039  1.2987
 3608SOL    HW222287   1.031   1.949   7.337  0.5653  0.8927 -0.6882
 3609SOL     OW22288   1.689   3.212   2.136  0.1203 -0.0732 -0.0355
 3609SOL    HW122289   1.647   3.134   2.101 -0.4274  0.3646 -0.3689
 3609SOL    HW222290   1.771   3.167   2.156 -0.2273 -0.7848 -0.2132
 3610SOL     OW22291   2.974   1.432  16.791  0.0327 -0.0064  0.4711
 3610SOL    HW122292   2.902   1.395  16.841 -1.0419  0.6318 -0.6044
 3610SOL    HW222293   3.054   1.382  16.809  0.7532  0.8968 -0.1678
 3611SOL     OW22294   4.063   1.021   5.254 -0.0900  0.2074 -0.3175
 3611SOL    HW122295   4.029   1.091   5.310 -0.2135  0.9777 -1.3321
 3611SOL    HW222296   3.991   0.959   5.260  1.1190 -1.0924  0.5484
 3612SOL     OW22297   3.328   4.574   9.297  0.0297  0.2242 -0.1345
 3612SOL    HW122298   3.286   4.506   9.350  3.2013 -2.1548 -0.6748
 3612SOL    HW222299   3.274   4.571   9.218  1.3194 -0.9508 -0.9654
 3613SOL     OW22300   0.849   0.464  12.518  0.6135  0.5607  0.9032
 3613SOL    HW122301   0.932   0.486  12.474  1.3513 -0.5888  1.7170
 3613SOL    HW222302   0.848   0.369  12.511 -1.0371  0.7587 -1.7283
 3614SOL     OW22303   4.153   0.391   5.348 -0.1935 -0.0314 -0.8865
 3614SOL    HW122304   4.196   0.383   5.263 -1.7372 -0.0597 -1.6707
 3614SOL    HW222305   4.099   0.313   5.356  1.3478 -0.8705  1.2617
 3615SOL     OW22306   4.190   3.955   6.446 -0.1026  0.5167  0.2863
 3615SOL    HW122307   4.210   3.965   6.539  1.7894  1.9087 -0.2794
 3615SOL    HW222308   4.232   3.871   6.431  1.6389  1.3189  0.6149
 3616SOL     OW22309   1.294   3.224   6.809  0.2385 -0.5397 -0.1843
 3616SOL    HW122310   1.263   3.175   6.885 -3.3809 -0.6708 -1.7593
 3616SOL    HW222311   1.258   3.163   6.744  2.1549 -0.0102 -1.7224
 3617SOL     OW22312   0.792   3.504   4.011  0.0355  0.1418  0.5116
 3617SOL    HW122313   0.747   3.588   4.017 -0.4676 -0.2203  1.8352
 3617SOL    HW222314   0.722   3.454   4.052 -0.9600  0.5406 -0.6949
 3618SOL     OW22315   3.482   1.090   1.043 -0.3533 -0.2490  0.0687
 3618SOL    HW122316   3.444   1.176   1.064 -0.1839  1.0790 -5.0999
 3618SOL    HW222317   3.419   1.033   1.086 -1.8739  1.4226  0.0623
 3619SOL     OW22318   0.733   4.325  14.261  0.3357  0.3081  0.8590
 3619SOL    HW122319   0.821   4.361  14.264  0.1698  0.8467 -1.3103
 3619SOL    HW222320   0.695   4.368  14.338 -2.0790 -0.3011  0.0284
 3620SOL     OW22321   0.864   0.452  16.826 -1.2018  0.3340  0.4885
 3620SOL    HW122322   0.924   0.421  16.759  1.5896  1.0585  2.6566
 3620SOL    HW222323   0.847   0.372  16.876  0.4762 -0.2351  0.1209
 3621SOL     OW22324   4.284   4.432   7.245 -0.8702 -0.4363  0.0778
 3621SOL    HW122325   4.364   4.434   7.298 -0.1915 -0.2725 -0.9426
 3621SOL    HW222326   4.241   4.512   7.274  0.8692  0.2348  0.8214
 3622SOL     OW22327   2.849   3.525  17.573 -0.1878 -0.0504 -0.2673
 3622SOL    HW122328   2.809   3.612  17.575 -0.9169 -0.4180  1.0986
 3622SOL    HW222329   2.943   3.539  17.584 -0.4538  1.2754  0.2777
 3623SOL     OW22330   3.639   4.579   5.983  0.0137  0.8840 -0.1545
 3623SOL    HW122331   3.595   4.636   5.919 -2.0193  0.1325  0.5848
 3623SOL    HW222332   3.687   4.649   6.028 -0.9291  0.4527  1.5070
 3624SOL     OW22333   2.734   1.754   1.667  0.7519 -0.1904 -0.4307
 3624SOL    HW122334   2.704   1.683   1.724  0.2274  0.1444 -0.2885
 3624SOL    HW222335   2.661   1.816   1.667  0.9505  0.0360 -1.2700
 3625SOL     OW22336   3.701   0.876   0.625 -0.0347 -0.6488  0.6089
 3625SOL    HW122337   3.738   0.821   0.693  0.5473 -0.7144  0.2408
 3625SOL    HW222338   3.648   0.809   0.582 -0.2447 -1.2095  1.7539
 3626SOL     OW22339   1.409   3.573  15.665  0.0242  0.8638  0.1132
 3626SOL    HW122340   1.414   3.637  15.736  1.5985 -0.8175  1.5075
 3626SOL    HW222341   1.326   3.527  15.684  0.1513  0.9261  0.8111
 3627SOL     OW22342   3.883   1.854   3.815 -0.3488 -0.1437 -0.3480
 3627SOL    HW122343   3.886   1.899   3.899  1.8588 -1.1321  0.1230
 3627SOL    HW222344   3.841   1.919   3.758 -2.7599 -2.4948 -1.2052
 3628SOL     OW22345   3.156   2.024   7.591 -0.5301  0.4640 -0.1946
 3628SOL    HW122346   3.233   2.030   7.535 -1.4098 -2.3870 -1.7193
 3628SOL    HW222347   3.150   2.113   7.626 -3.4073 -0.4698  1.7426
 3629SOL     OW22348   0.646   3.787   6.685  0.3732 -0.0418  0.4888
 3629SOL    HW122349   0.655   3.712   6.744 -0.4242  0.5208  1.3299
 3629SOL    HW222350   0.650   3.740   6.602 -1.3417 -0.6168  0.7319
 3630SOL     OW22351   1.196   1.460   4.519  0.0828  0.5121  0.3075
 3630SOL    HW122352   1.241   1.530   4.566  1.5260  1.0642 -1.9126
 3630SOL    HW222353   1.214   1.388   4.581 -1.1731  0.7118  0.9158
 3631SOL     OW22354   4.297   4.355   8.938  0.1987  0.9989 -0.6955
 3631SOL    HW122355   4.305   4.265   8.970 -0.0678  1.4158  0.5207
 3631SOL    HW222356   4.240   4.339   8.863  1.5780  0.1985 -1.5895
 3632SOL     OW22357   3.879   3.239   5.743 -0.2357 -0.5290  0.1170
 3632SOL    HW122358   3.975   3.235   5.735 -0.1208 -1.1637  1.7420
 3632SOL    HW222359   3.842   3.194   5.668 -0.4371  0.1247 -0.1791
 3633SOL     OW22360   1.843   2.911  11.812  0.6175  0.2955 -0.1914
 3633SOL    HW122361   1.753   2.880  11.805 -0.5764  3.7870 -0.5871
 3633SOL    HW222362   1.875   2.864  11.888  2.1625  0.4922 -0.7261
 3634SOL     OW22363   3.733   1.579   2.485  0.4069  0.1020 -0.1174
 3634SOL    HW122364   3.812   1.633   2.480  0.1748  0.4502  0.0717
 3634SOL    HW222365   3.675   1.628   2.543  0.4750  0.3484 -0.2564
 3635SOL     OW22366   0.106   3.740  16.427  0.3900 -0.0065 -0.2671
 3635SOL    HW122367   0.114   3.832  16.404  0.1775  0.7256  2.5907
 3635SOL    HW222368   0.182   3.730  16.485 -1.2491  1.3246  2.1207
 3636SOL     OW22369   2.230   1.314   6.831 -0.2769  0.5028 -0.1498
 3636SOL    HW122370   2.178   1.267   6.767  2.5781 -2.7001 -0.0849
 3636SOL    HW222371   2.211   1.404   6.803 -1.0932  0.8360  1.4452
 3637SOL     OW22372   2.781   0.066   2.045  0.1836 -0.4811 -0.0887
 3637SOL    HW122373   2.877   0.066   2.039  0.2342 -2.3279  0.7458
 3637SOL    HW222374   2.766   0.059   2.139  0.6658  0.0066  0.0245
 3638SOL     OW22375   0.974   1.386   9.060  0.7189  0.0615  0.5799
 3638SOL    HW122376   0.879   1.381   9.070  0.6926 -0.0082  0.2687
 3638SOL    HW222377   0.978   1.479   9.035 -1.2617  0.0910  0.4253
 3639SOL     OW22378   1.368   2.019   4.155  0.3484  0.0621  0.0669
 3639SOL    HW122379   1.352   1.925   4.148  0.3819 -0.1093  2.3535
 3639SOL    HW222380   1.275   2.044   4.149  0.4892  0.4960 -0.3341
 3640SOL     OW22381   3.173   0.089  11.043  0.1215  0.4791 -0.0986
 3640SOL    HW122382   3.152   0.173  11.084 -0.4051  0.3057 -0.0090
 3640SOL    HW222383   3.085   0.050  11.037  0.6251 -0.4396 -1.4739
 3641SOL     OW22384   4.431   4.216   2.059 -0.4695 -0.3369  0.3514
 3641SOL    HW122385   4.463   4.304   2.038  0.3830 -1.0990 -1.6047
 3641SOL    HW222386   4.449   4.213   2.152 -2.2007  1.6944  0.7720
 3642SOL     OW22387   1.922   0.510   2.249 -0.1029 -0.0955 -0.6773
 3642SOL    HW122388   1.840   0.490   2.295  0.9797  0.6726  1.5923
 3642SOL    HW222389   1.903   0.598   2.217 -1.0908  0.4195  1.3178
 3643SOL     OW22390   3.669   3.380   8.170  0.0763 -0.3583 -0.0541
 3643SOL    HW122391   3.695   3.290   8.189  0.9177 -0.1458 -0.1957
 3643SOL    HW222392   3.616   3.400   8.247 -1.2300  1.0792 -1.3356
 3644SOL     OW22393   2.986   4.489   7.015 -0.2070 -0.5843  0.4002
 3644SOL    HW122394   2.958   4.410   6.969 -0.2441  0.6222 -1.6287
 3644SOL    HW222395   3.026   4.453   7.094  1.1455 -1.9517 -0.9035
 3645SOL     OW22396   0.465   2.164   7.205  0.2026  0.0920 -0.4249
 3645SOL    HW122397   0.425   2.232   7.259 -1.2514 -2.3425  1.5558
 3645SOL    HW222398   0.391   2.104   7.194 -0.8605  1.4027 -0.3585
 3646SOL     OW22399   3.943   1.886   7.490 -0.0111  0.4742  1.2170
 3646SOL    HW122400   3.897   1.836   7.557  0.5137  0.0821  1.2801
 3646SOL    HW222401   3.956   1.816   7.425 -0.1934  3.5223 -2.0880
 3647SOL     OW22402   1.680   4.380  12.947  0.6518  0.4560  0.0580
 3647SOL    HW122403   1.634   4.367  12.864 -0.1022 -1.8261  0.8255
 3647SOL    HW222404   1.766   4.396  12.908  1.5074  0.1414  1.8187
 3648SOL     OW22405   2.691   3.360   6.368 -0.1500 -0.5307 -0.3885
 3648SOL    HW122406   2.748   3.417   6.420 -1.3932  1.6386 -1.3904
 3648SOL    HW222407   2.626   3.425   6.340  1.0179  0.1357 -1.5443
 3649SOL     OW22408   4.373   0.428  15.180 -0.3832  0.6359 -0.2888
 3649SOL    HW122409   4.331   0.402  15.098 -1.3133  1.8970 -0.1928
 3649SOL    HW222410   4.351   0.519  15.196 -1.0404  0.2611  0.9402
 3650SOL     OW22411   3.096   1.434  17.365 -0.2052  0.0266 -0.1760
 3650SOL    HW122412   3.121   1.485  17.442  0.4512 -1.0026  0.2902
 3650SOL    HW222413   3.159   1.464  17.300 -0.3974  1.7194  0.4241
 3651SOL     OW22414   4.379   4.621   8.667  0.1874  0.4625 -0.1972
 3651SOL    HW122415   4.314   4.691   8.661 -0.2393  0.1280  0.4712
 3651SOL    HW222416   4.327   4.544   8.693  0.3969 -0.0873 -1.3814
 3652SOL     OW22417   0.714   2.376  10.069 -0.3865  0.1518  0.1749
 3652SOL    HW122418   0.685   2.340  10.153  0.7963 -0.8176  0.1882
 3652SOL    HW222419   0.798   2.335  10.047 -0.7286  0.0251 -0.8946
 3653SOL     OW22420   3.390   3.812  17.679 -0.1473 -0.3136 -0.2208
 3653SOL    HW122421   3.339   3.892  17.667  3.1907  1.8039 -0.2747
 3653SOL    HW222422   3.475   3.849   0.018 -0.2280  1.8162 -3.1032
 3654SOL     OW22423   0.038   1.281  14.191  0.7296 -0.0146 -0.2825
 3654SOL    HW122424   4.693   1.344  14.160  0.0726 -0.0937  0.9544
 3654SOL    HW222425   0.062   1.244  14.106 -2.3355 -2.7005 -0.0066
 3655SOL     OW22426   4.707   4.517   4.947 -0.3994  0.3637  0.4243
 3655SOL    HW122427   0.054   4.542   4.884  0.1589  0.2127  0.9610
 3655SOL    HW222428   4.639   4.578   4.920 -0.9444 -0.0988  0.7453
 3656SOL     OW22429   0.861   1.609   7.716 -0.3789  0.1819 -0.3360
 3656SOL    HW122430   0.826   1.521   7.709 -0.1291  0.0679 -0.1375
 3656SOL    HW222431   0.927   1.595   7.785 -1.1662 -1.0952  0.1550
 3657SOL     OW22432   2.220   1.394   9.632  0.2050  0.4052 -0.0432
 3657SOL    HW122433   2.228   1.477   9.679 -2.0619  0.7079 -0.2268
 3657SOL    HW222434   2.287   1.347   9.682  0.0594 -2.3732 -2.4791
 3658SOL     OW22435   0.761   1.794  11.655  0.3299 -0.0276 -0.2992
 3658SOL    HW122436   0.832   1.757  11.603 -1.1154 -3.9788  0.5127
 3658SOL    HW222437   0.808   1.819  11.734  0.6114  2.4479 -1.2449
 3659SOL     OW22438   1.836   2.963   7.241  0.8203 -0.4576 -0.1542
 3659SOL    HW122439   1.854   2.949   7.334  1.0532 -1.1984 -0.3140
 3659SOL    HW222440   1.846   3.058   7.233 -0.5517 -0.2747  0.3281
 3660SOL     OW22441   1.508   2.310   5.057 -0.0531 -0.1371 -0.9217
 3660SOL    HW122442   1.504   2.236   5.118 -0.5635 -0.5816 -1.4939
 3660SOL    HW222443   1.584   2.292   5.003 -0.9262  0.8305 -2.4577
 3661SOL     OW22444   0.550   3.867   2.328  0.3471 -0.2734  0.4768
 3661SOL    HW122445   0.459   3.846   2.309 -0.5589  1.2064  3.1007
 3661SOL    HW222446   0.535   3.866   2.423 -1.2187  1.6968  0.2316
 3662SOL     OW22447   3.372   2.564   8.572  0.1991 -0.2086 -0.2645
 3662SOL    HW122448   3.385   2.571   8.667  0.0098 -1.4773 -0.1347
 3662SOL    HW222449   3.287   2.520   8.574 -0.3418  0.8782  0.5637
 3663SOL     OW22450   4.100   0.590  17.210  0.4040  0.0206  0.0412
 3663SOL    HW122451   4.061   0.524  17.267 -1.0559 -0.7876 -1.8559
 3663SOL    HW222452   4.024   0.642  17.185  0.0284 -0.6797 -0.2982
 3664SOL     OW22453   4.151   1.160   6.348 -0.6074 -0.1993 -0.6099
 3664SOL    HW122454   4.173   1.188   6.259  1.8352  1.4380  0.5150
 3664SOL    HW222455   4.088   1.229   6.370  0.2049  0.3623 -0.0475
 3665SOL     OW22456   4.212   3.099   4.503  0.3364  0.4278 -0.3745
 3665SOL    HW122457   4.175   3.053   4.427 -0.1072  0.8055 -0.3833
 3665SOL    HW222458   4.260   3.027   4.543 -2.1807 -0.7778  0.4770
 3666SOL     OW22459   2.183   4.401  13.440 -0.5350  0.3296  0.1723
 3666SOL    HW122460   2.264   4.451  13.448  0.1726 -0.5538 -1.6866
 3666SOL    HW222461   2.115   4.467  13.449  0.2327  0.7770  2.7434
 3667SOL     OW22462   3.113   4.525   7.741 -0.0560 -0.8160 -0.0409
 3667SOL    HW122463   3.086   4.586   7.673 -1.9591 -1.9037 -0.2571
 3667SOL    HW222464   3.097   4.438   7.705  1.0332 -0.4918 -1.2834
 3668SOL     OW22465   2.559   3.307   5.839  0.0443  0.0582  0.6979
 3668SOL    HW122466   2.622   3.353   5.783 -0.0618  0.2322  0.7210
 3668SOL    HW222467   2.477   3.355   5.827  0.1057  0.2639  1.0944
 3669SOL     OW22468   2.594   0.988   2.969 -0.6367  0.2923  0.4814
 3669SOL    HW122469   2.550   0.985   2.884 -1.3420  1.0810  0.8126
 3669SOL    HW222470   2.678   0.953   2.942 -1.8961  1.7819 -5.4241
 3670SOL     OW22471   2.169   3.026   2.540 -0.0793 -0.1988 -0.1679
 3670SOL    HW122472   2.126   3.028   2.626 -0.6914 -0.3807 -0.4751
 3670SOL    HW222473   2.113   2.957   2.506 -1.2129 -0.0132  1.3475
 3671SOL     OW22474   2.863   4.618  15.382  0.2683  0.4818 -0.1398
 3671SOL    HW122475   2.926   4.562  15.426 -1.1746 -1.4244 -0.4899
 3671SOL    HW222476   2.850   4.683  15.451 -2.9958 -0.4159  0.0722
 3672SOL     OW22477   2.643   3.894   6.889  0.1410  0.0289  0.8462
 3672SOL    HW122478   2.627   3.943   6.808  0.9485 -0.4043  0.4208
 3672SOL    HW222479   2.568   3.924   6.940  0.4072 -1.0682  1.8744
 3673SOL     OW22480   2.375   0.417   7.461 -0.4299  0.1324  0.2932
 3673SOL    HW122481   2.377   0.352   7.531  0.2406  0.6910  0.7996
 3673SOL    HW222482   2.289   0.458   7.470 -1.5558 -1.9573 -0.8269
 3674SOL     OW22483   0.497   3.986   0.211  0.1982  0.2047 -1.0586
 3674SOL    HW122484   0.489   3.917   0.278  0.9504  1.2563  0.1198
 3674SOL    HW222485   0.543   4.049   0.266 -1.9822  1.6129 -0.8324
 3675SOL     OW22486   3.360   4.537   0.718 -0.3454  0.0352 -0.5621
 3675SOL    HW122487   3.369   4.523   0.812  0.1272  1.4240 -0.4013
 3675SOL    HW222488   3.269   4.508   0.704 -0.3346 -0.7096  0.9689
 3676SOL     OW22489   0.959   2.823   9.439 -0.5067  0.2507  0.6046
 3676SOL    HW122490   0.892   2.867   9.492 -0.8605  0.3148  0.1099
 3676SOL    HW222491   0.901   2.756   9.401  1.0785 -1.5783  1.3786
 3677SOL     OW22492   3.979   3.810  12.657 -0.4520 -0.0334  0.3317
 3677SOL    HW122493   3.892   3.833  12.624 -0.4731  0.1380  0.5030
 3677SOL    HW222494   4.011   3.744  12.595 -1.8155 -0.0718 -0.3273
 3678SOL     OW22495   0.899   3.334   4.392 -0.2485 -0.4310 -0.2323
 3678SOL    HW122496   0.830   3.323   4.327 -2.4601  1.3779  1.7852
 3678SOL    HW222497   0.873   3.422   4.416 -0.4171 -0.3608 -0.6815
 3679SOL     OW22498   4.648   2.267  13.567  0.3551 -0.2805 -0.1977
 3679SOL    HW122499   4.608   2.285  13.652 -0.5979 -0.6005 -0.5781
 3679SOL    HW222500   4.615   2.344  13.521 -1.3264  1.0441  3.2109
 3680SOL     OW22501   2.424   1.146   8.420  0.3280  0.7438 -0.0049
 3680SOL    HW122502   2.463   1.218   8.469  2.7495  0.0703 -0.8764
 3680SOL    HW222503   2.456   1.168   8.332  1.3887 -1.2239 -0.1235
 3681SOL     OW22504   1.894   2.390   7.042 -0.2376 -0.1648  0.2308
 3681SOL    HW122505   1.897   2.319   6.978 -0.1504 -0.5657  0.6837
 3681SOL    HW222506   1.983   2.383   7.075 -0.5304 -2.9226  0.3979
 3682SOL     OW22507   2.101   1.247   7.982  0.3054 -0.4405  0.2179
 3682SOL    HW122508   2.108   1.251   8.078  0.4334 -1.4224  0.2555
 3682SOL    HW222509   2.192   1.247   7.951 -0.1426 -1.9753 -1.0555
 3683SOL     OW22510   1.048   1.018   3.154  0.3649  0.1617  0.2169
 3683SOL    HW122511   1.073   1.045   3.066  2.6280  0.5645  0.9883
 3683SOL    HW222512   0.965   1.066   3.147  0.5090  0.4508  0.4690
 3684SOL     OW22513   4.403   2.348   6.206  0.3915 -0.0345 -0.0300
 3684SOL    HW122514   4.394   2.420   6.144 -0.9681  0.2548  0.5055
 3684SOL    HW222515   4.486   2.308   6.180 -0.3269 -1.2618 -0.4507
 3685SOL     OW22516   2.128   3.786   6.634  0.4689  0.6297  0.0598
 3685SOL    HW122517   2.069   3.741   6.574  0.8129 -0.2400  0.3741
 3685SOL    HW222518   2.190   3.829   6.575  1.3419  0.1951  0.6569
 3686SOL     OW22519   1.683   1.373   6.221  0.1403 -0.2442 -0.0212
 3686SOL    HW122520   1.750   1.345   6.283 -2.1275  0.2842  2.6737
 3686SOL    HW222521   1.614   1.401   6.281  1.5092 -1.0304  1.9089
 3687SOL     OW22522   1.931   4.645  15.960 -0.1651 -0.0684 -0.0040
 3687SOL    HW122523   1.841   4.627  15.933 -0.7778 -0.9464  2.5514
 3687SOL    HW222524   1.933   4.609  16.049 -2.4819 -1.0937 -0.3662
 3688SOL     OW22525   4.326   1.617   1.247  0.3232  0.0021  0.0986
 3688SOL    HW122526   4.371   1.541   1.284  2.2982  0.5741 -1.1473
 3688SOL    HW222527   4.406   1.670   1.254  1.6030 -1.8929 -0.0485
 3689SOL     OW22528   1.256   4.229  10.941 -0.0855  0.2462  0.0211
 3689SOL    HW122529   1.339   4.219  10.895 -1.4022 -0.3525 -2.2064
 3689SOL    HW222530   1.248   4.143  10.983  2.6771  0.1649  0.3909
 3690SOL     OW22531   0.060   3.764   3.773 -0.3476  0.2343  0.3426
 3690SOL    HW122532   0.025   3.839   3.726 -0.1326  0.6487  0.8344
 3690SOL    HW222533   0.125   3.737   3.708  0.4614 -0.0663  1.2765
 3691SOL     OW22534   2.316   0.295   1.148 -0.3314  0.0180 -0.1573
 3691SOL    HW122535   2.406   0.295   1.114 -0.1284 -2.2654  0.3740
 3691SOL    HW222536   2.267   0.234   1.092 -0.8541 -0.6800  1.0552
 3692SOL     OW22537   1.183   4.065   1.141  0.2353 -0.0295 -0.5820
 3692SOL    HW122538   1.266   4.046   1.098  0.9605 -2.1503  1.7587
 3692SOL    HW222539   1.126   4.005   1.093 -0.6642 -0.2637  0.7670
 3693SOL     OW22540   3.677   2.841   8.482  0.5548  0.1507  0.4278
 3693SOL    HW122541   3.740   2.900   8.440  1.1283 -1.2162 -0.6052
 3693SOL    HW222542   3.730   2.763   8.466 -1.0596 -0.3704 -2.2888
 3694SOL     OW22543   3.408   4.025  14.261  0.3883 -0.2877  0.1335
 3694SOL    HW122544   3.494   3.982  14.260  0.0336 -0.9354 -2.1593
 3694SOL    HW222545   3.434   4.114  14.240 -0.2105 -0.2874 -0.5901
 3695SOL     OW22546   3.340   1.185   2.437  0.3228 -0.5113 -0.1335
 3695SOL    HW122547   3.276   1.147   2.498 -0.7479  1.8444  0.1997
 3695SOL    HW222548   3.397   1.114   2.407 -0.2797 -1.0678  0.0215
 3696SOL     OW22549   1.150   3.913   8.385 -0.1705  0.0824 -0.3504
 3696SOL    HW122550   1.225   3.858   8.362 -0.0575  0.6052 -1.2194
 3696SOL    HW222551   1.141   3.982   8.320  0.9170 -0.6535 -1.2807
 3697SOL     OW22552   3.641   3.890  17.677  0.3059 -0.0493 -0.0675
 3697SOL    HW122553   3.695   3.855  17.606 -0.8233 -0.4803 -0.7143
 3697SOL    HW222554   3.704   3.944   0.038 -0.0630 -0.4997  0.9675
 3698SOL     OW22555   1.440   2.808   8.194  0.3494 -0.2672  0.4477
 3698SOL    HW122556   1.490   2.743   8.145  0.3552  0.6650 -0.7850
 3698SOL    HW222557   1.505   2.877   8.208 -1.2990  1.3631  0.2550
 3699SOL     OW22558   0.738   4.360   6.746  0.1543  0.0527 -0.5232
 3699SOL    HW122559   0.755   4.275   6.788 -1.3580 -0.2150 -0.4550
 3699SOL    HW222560   0.643   4.363   6.744  0.1426 -0.2897 -0.4557
 3700SOL     OW22561   3.737   4.597   6.350 -0.2171 -0.6800  0.1923
 3700SOL    HW122562   3.714   4.504   6.348 -3.1783 -0.0279  3.1652
 3700SOL    HW222563   3.664   4.643   6.392  0.6503  0.9205 -0.0796
 3701SOL     OW22564   3.993   3.829   4.866 -0.0363  0.4076 -0.0385
 3701SOL    HW122565   3.982   3.844   4.960  2.9361  0.6072  0.2744
 3701SOL    HW222566   3.993   3.734   4.867  1.3817  0.4230  1.5013
 3702SOL     OW22567   1.397   0.299   5.726  0.0013  0.4026  0.2002
 3702SOL    HW122568   1.453   0.334   5.795  1.1210 -0.0660 -0.4803
 3702SOL    HW222569   1.314   0.345   5.742 -0.3285  0.7411 -2.4576
 3703SOL     OW22570   0.456   1.693   1.952 -0.4190  0.2559 -0.3964
 3703SOL    HW122571   0.461   1.635   2.027  0.0815  0.1217 -0.5358
 3703SOL    HW222572   0.400   1.760   1.992 -0.2029  0.1472  0.0792
 3704SOL     OW22573   3.076   1.123   9.727  0.3105 -0.0412 -0.0046
 3704SOL    HW122574   3.109   1.082   9.806  1.3348 -0.9905 -0.9319
 3704SOL    HW222575   2.981   1.110   9.734  0.4404 -0.4596  0.9575
 3705SOL     OW22576   0.826   4.469   6.262 -0.2216 -0.0500 -0.0697
 3705SOL    HW122577   0.760   4.413   6.302  0.3032 -0.3036  0.4346
 3705SOL    HW222578   0.776   4.532   6.209 -0.0363  0.3589  0.2448
 3706SOL     OW22579   0.748   0.387   6.741  0.0068 -1.0076 -0.0749
 3706SOL    HW122580   0.799   0.329   6.796  0.3831 -1.1039 -0.5272
 3706SOL    HW222581   0.798   0.377   6.660  1.2501  2.4554  0.2532
 3707SOL     OW22582   1.501   0.474   5.516  0.2027  0.8168  0.5092
 3707SOL    HW122583   1.460   0.464   5.430  0.1293  3.1390  0.2813
 3707SOL    HW222584   1.464   0.400   5.564 -0.4802  1.0919  0.4124
 3708SOL     OW22585   0.773   0.391  12.183 -0.4707 -0.3483 -0.0175
 3708SOL    HW122586   0.694   0.400  12.236  0.2792  1.0446  0.8865
 3708SOL    HW222587   0.823   0.465  12.218  0.8423 -0.9057 -0.7100
 3709SOL     OW22588   2.212   4.539   2.370 -0.1311 -0.4359  0.0383
 3709SOL    HW122589   2.304   4.527   2.350 -0.4053 -0.2349 -1.3687
 3709SOL    HW222590   2.181   4.453   2.343 -1.5298  0.1406 -0.2035
 3710SOL     OW22591   0.460   4.463   3.459 -0.1327  0.3018  0.8116
 3710SOL    HW122592   0.544   4.469   3.414  0.2257  2.2215  1.7407
 3710SOL    HW222593   0.479   4.515   3.537  0.7630  1.5522 -0.2289
 3711SOL     OW22594   2.750   0.440  10.837 -0.1662  0.2421  0.0011
 3711SOL    HW122595   2.760   0.525  10.795  1.9814 -1.3115 -2.7038
 3711SOL    HW222596   2.699   0.467  10.912  2.1766  2.2536  0.8748
 3712SOL     OW22597   3.504   0.290  11.714 -0.2700 -0.1955  0.0013
 3712SOL    HW122598   3.429   0.335  11.753  0.1744 -0.9265  1.6893
 3712SOL    HW222599   3.463   0.227  11.655  0.1460 -0.0252 -0.4640
 3713SOL     OW22600   0.061   0.277   9.129  0.0089 -0.2144 -0.1068
 3713SOL    HW122601   0.065   0.213   9.201  2.0708 -0.6522 -0.6090
 3713SOL    HW222602   0.069   0.218   9.054  0.8602 -1.8342  1.2332
 3714SOL     OW22603   3.203   2.114   6.903  0.2652  0.2107  0.0372
 3714SOL    HW122604   3.244   2.144   6.984 -0.4141  0.8228  0.1536
 3714SOL    HW222605   3.273   2.139   6.842  1.2012 -0.7953  0.6961
 3715SOL     OW22606   0.813   4.475   9.623  0.3183  0.2747  0.5095
 3715SOL    HW122607   0.786   4.383   9.620 -0.9591  0.6828 -0.7106
 3715SOL    HW222608   0.729   4.517   9.642  0.5126  0.3874  1.1271
 3716SOL     OW22609   1.056   2.640   6.391  0.5510 -0.2074  0.5720
 3716SOL    HW122610   1.138   2.604   6.358  0.6069 -1.1656  1.7690
 3716SOL    HW222611   0.993   2.571   6.369 -1.1153  2.6351 -3.7994
 3717SOL     OW22612   0.099   3.981  16.253  0.3009  0.2850  0.4371
 3717SOL    HW122613   0.113   4.069  16.288 -2.2144  0.5741  0.7397
 3717SOL    HW222614   0.003   3.974  16.254  0.4204 -1.7110 -3.1637
 3718SOL     OW22615   0.409   1.599   9.452  0.2116  0.2206 -0.4146
 3718SOL    HW122616   0.369   1.582   9.538  0.5237 -0.7510 -0.4629
 3718SOL    HW222617   0.431   1.512   9.420 -0.0331 -0.8758  2.3983
 3719SOL     OW22618   0.233   1.770   3.295 -0.2073  0.0074 -0.0764
 3719SOL    HW122619   0.219   1.853   3.249 -0.3741 -1.5721 -2.8676
 3719SOL    HW222620   0.188   1.701   3.246 -0.7106  0.9090 -0.8855
 3720SOL     OW22621   0.687   3.736  12.192 -0.6469  0.0305  0.0767
 3720SOL    HW122622   0.682   3.652  12.237  3.0836  0.5073  1.3883
 3720SOL    HW222623   0.753   3.720  12.124 -0.5031 -0.7456  0.4072
 3721SOL     OW22624   4.011   1.065   2.704 -0.0164 -0.6630  0.4515
 3721SOL    HW122625   4.044   1.011   2.633  3.0695 -0.4389  1.7423
 3721SOL    HW222626   4.023   1.151   2.665 -0.1925 -0.8476 -0.0068
 3722SOL     OW22627   3.391   0.975   5.728  0.2278  0.0047 -0.1306
 3722SOL    HW122628   3.351   1.020   5.802  2.3913  0.9191  0.4639
 3722SOL    HW222629   3.379   0.885   5.758  1.8089  0.3258  1.3926
 3723SOL     OW22630   3.116   1.933   0.427 -0.1707  0.0385  0.1470
 3723SOL    HW122631   3.081   1.984   0.500  0.9191 -1.7423  1.9239
 3723SOL    HW222632   3.180   1.881   0.476  0.1210  3.8908  3.8117
 3724SOL     OW22633   3.774   0.601  15.529  0.3306 -0.1458  0.3912
 3724SOL    HW122634   3.724   0.603  15.611 -0.8124  0.0428 -0.3120
 3724SOL    HW222635   3.858   0.562  15.554  0.2839 -0.1029  0.6167
 3725SOL     OW22636   2.325   2.839   4.378  0.3490 -0.3879  1.0008
 3725SOL    HW122637   2.241   2.802   4.405 -0.1089  0.1716  0.3318
 3725SOL    HW222638   2.347   2.788   4.300  0.9412  0.5234  0.5630
 3726SOL     OW22639   3.108   3.687   5.049 -0.3545  0.5184  0.1049
 3726SOL    HW122640   3.033   3.646   5.093  1.4399  0.7666  3.4174
 3726SOL    HW222641   3.064   3.743   4.984 -1.7491 -1.0788 -0.3283
 3727SOL     OW22642   3.118   2.406  12.916  0.2494  0.1498 -0.2199
 3727SOL    HW122643   3.074   2.352  12.850  1.3718 -2.5842  1.2704
 3727SOL    HW222644   3.204   2.364  12.909  1.3898  2.1583  2.0044
 3728SOL     OW22645   2.762   0.247   1.817  0.1748  0.2573 -0.4800
 3728SOL    HW122646   2.846   0.281   1.849  0.3368 -0.6438  0.0625
 3728SOL    HW222647   2.748   0.173   1.876 -3.4794 -0.2290 -1.9859
 3729SOL     OW22648   3.771   0.909   5.277  0.6720 -0.0139  0.0327
 3729SOL    HW122649   3.769   1.004   5.289 -0.9793  0.0715 -0.9374
 3729SOL    HW222650   3.748   0.887   5.367  2.3432 -0.8302  0.2485
 3730SOL     OW22651   3.791   2.809  10.396 -0.1072 -0.2420  0.1904
 3730SOL    HW122652   3.764   2.751  10.324  1.0239  0.4527 -0.7757
 3730SOL    HW222653   3.767   2.752  10.469 -2.1578  2.2292  1.4388
 3731SOL     OW22654   3.095   1.559  17.617  0.0868 -0.3726  0.5453
 3731SOL    HW122655   3.142   1.529   0.010  1.3289 -0.8015 -0.3567
 3731SOL    HW222656   3.050   1.633  17.657  0.3915  0.2734 -0.3181
 3732SOL     OW22657   0.893   3.178  17.085 -0.2417  0.8730  0.1298
 3732SOL    HW122658   0.969   3.226  17.118  0.0110 -0.3004  1.2360
 3732SOL    HW222659   0.824   3.201  17.147 -0.8838  0.3117 -0.3802
 3733SOL     OW22660   3.834   1.714   5.123  0.0252  0.3575  0.3792
 3733SOL    HW122661   3.751   1.704   5.076  0.7864 -1.6114 -0.5267
 3733SOL    HW222662   3.858   1.623   5.104  0.2387  0.6795 -0.9225
 3734SOL     OW22663   3.449   3.089   3.878  0.4409  0.3145 -0.3297
 3734SOL    HW122664   3.512   3.105   3.949 -0.1529  0.9452  0.0601
 3734SOL    HW222665   3.507   3.035   3.823  0.2280 -0.0224 -0.2216
 3735SOL     OW22666   2.359   0.053   5.359  0.2185 -0.4299 -0.3352
 3735SOL    HW122667   2.324   4.692   5.394 -1.7610  0.1179 -1.0666
 3735SOL    HW222668   2.341   0.039   5.266 -0.0422 -2.1377 -0.0257
 3736SOL     OW22669   2.438   2.765   4.656 -0.1462 -0.4731  0.0497
 3736SOL    HW122670   2.469   2.830   4.718 -1.5858 -1.1332  1.4704
 3736SOL    HW222671   2.446   2.806   4.570 -0.3963 -1.6949 -0.5532
 3737SOL     OW22672   3.463   2.487   7.531  0.2315 -0.8847  0.2252
 3737SOL    HW122673   3.534   2.547   7.554  0.5418 -0.7146 -1.1466
 3737SOL    HW222674   3.507   2.408   7.563 -0.7688 -2.0683 -1.2901
 3738SOL     OW22675   2.534   1.384   6.619  0.0339 -0.1577  0.8502
 3738SOL    HW122676   2.461   1.442   6.638 -0.1685 -0.4336  0.9203
 3738SOL    HW222677   2.489   1.311   6.577  1.3999 -1.0174  0.8444
 3739SOL     OW22678   1.557   0.171  15.703 -0.1096 -0.2384  0.2210
 3739SOL    HW122679   1.553   0.147  15.610  0.1048 -0.6079  0.3066
 3739SOL    HW222680   1.531   0.263  15.703  0.7709  0.0143 -1.1032
 3740SOL     OW22681   4.294   1.909   4.228  0.2337  0.3017  0.5306
 3740SOL    HW122682   4.387   1.897   4.210 -0.1789  0.8619 -2.1051
 3740SOL    HW222683   4.255   1.822   4.219  1.7776 -0.6321  3.0874
 3741SOL     OW22684   1.835   0.079   1.674  0.0907  0.3269 -0.3988
 3741SOL    HW122685   1.899   0.144   1.647  0.5348 -0.1213 -0.4381
 3741SOL    HW222686   1.751   0.117   1.649  0.3881  0.5949 -0.9869
 3742SOL     OW22687   4.630   1.647   4.439  0.3271  0.1192  0.0019
 3742SOL    HW122688   4.542   1.665   4.404 -0.2934 -0.6542  1.1693
 3742SOL    HW222689   4.619   1.652   4.534  1.8724 -1.5229  0.2641
 3743SOL     OW22690   2.726   3.796  16.681 -0.1220  0.2520 -0.5187
 3743SOL    HW122691   2.810   3.756  16.705 -1.3631 -0.4215  2.7564
 3743SOL    HW222692   2.772   3.876  16.658  0.2301  0.2215  0.0566
 3744SOL     OW22693   2.090   2.997   5.533 -0.4066  0.8185 -0.2947
 3744SOL    HW122694   2.066   3.074   5.482 -0.5857  0.3401 -0.9292
 3744SOL    HW222695   2.132   2.941   5.468 -2.1351 -2.4533  1.3615
 3745SOL     OW22696   1.270   0.625   5.942 -0.0843  0.2216 -0.1556
 3745SOL    HW122697   1.280   0.535   5.973 -0.5423  0.4799  0.7491
 3745SOL    HW222698   1.213   0.611   5.866 -0.4486 -1.7106  0.4712
 3746SOL     OW22699   0.721   4.401  12.465 -0.1173 -0.1007 -0.2379
 3746SOL    HW122700   0.756   4.334  12.406  0.7497 -0.9968  1.2993
 3746SOL    HW222701   0.649   4.444  12.418 -0.8672 -0.9472  0.1263
 3747SOL     OW22702   3.577   3.061  10.332  0.4322  0.2932  0.8675
 3747SOL    HW122703   3.575   2.979  10.283 -1.6574  1.1594 -0.4800
 3747SOL    HW222704   3.672   3.058  10.343  0.4497  1.9061  1.1627
 3748SOL     OW22705   3.166   3.447   3.322 -0.0043  0.2115 -0.3342
 3748SOL    HW122706   3.154   3.518   3.259  0.3958  2.1646  1.7701
 3748SOL    HW222707   3.093   3.390   3.297  2.4552 -2.3792 -1.5298
 3749SOL     OW22708   2.409   0.700   2.528  0.7078 -0.0378 -0.2098
 3749SOL    HW122709   2.351   0.690   2.453  0.2707  2.6161 -0.2176
 3749SOL    HW222710   2.410   0.608   2.556 -0.6669 -0.1140 -0.4131
 3750SOL     OW22711   2.237   2.437   5.431  0.1852  0.1402  0.4462
 3750SOL    HW122712   2.270   2.507   5.487 -0.7554  1.2546 -0.3797
 3750SOL    HW222713   2.301   2.369   5.450  1.8856  2.3916  2.8349
 3751SOL     OW22714   4.400   2.007   5.359 -0.8925 -0.5750  0.4754
 3751SOL    HW122715   4.492   1.993   5.382  0.3355  1.7359 -3.1523
 3751SOL    HW222716   4.376   2.069   5.428 -0.0123  0.7106 -0.3839
 3752SOL     OW22717   1.968   0.084  17.525 -0.2963 -0.5699 -0.1682
 3752SOL    HW122718   2.020   0.069  17.446  0.2637 -0.3985  0.1635
 3752SOL    HW222719   1.883   0.107  17.488 -0.8426 -1.5129  0.4820
 3753SOL     OW22720   2.299   2.491   5.844 -0.3304  0.4984 -0.4249
 3753SOL    HW122721   2.223   2.544   5.820 -0.8435  0.1355  0.3688
 3753SOL    HW222722   2.360   2.554   5.881 -1.4731  0.3546  1.7145
 3754SOL     OW22723   3.530   4.074   6.355  0.0311 -0.0895  0.1223
 3754SOL    HW122724   3.575   4.109   6.432  2.9551 -0.1073 -1.6081
 3754SOL    HW222725   3.589   4.086   6.281 -1.8758  1.1720 -1.2215
 3755SOL     OW22726   1.095   1.990   8.256  0.4295  0.0730  0.0797
 3755SOL    HW122727   1.091   2.049   8.181 -1.7374 -0.2723 -0.0628
 3755SOL    HW222728   1.007   1.994   8.292  0.0416  2.7319 -1.1934
 3756SOL     OW22729   4.620   1.787  13.667 -0.1064  0.3743 -0.2885
 3756SOL    HW122730   4.602   1.694  13.683  1.4278  0.2716  0.8219
 3756SOL    HW222731   4.544   1.825  13.710  0.9572  3.0649 -0.8047
 3757SOL     OW22732   1.708   2.817  12.116 -0.2356  0.0136 -0.0338
 3757SOL    HW122733   1.666   2.808  12.202 -3.4293  3.0465 -1.2964
 3757SOL    HW222734   1.639   2.811  12.051  0.2120  0.2537 -0.5322
 3758SOL     OW22735   2.043   0.686  13.422  0.6481 -0.1860  0.5609
 3758SOL    HW122736   2.049   0.599  13.461 -0.5357 -1.0888 -1.2859
 3758SOL    HW222737   2.069   0.726  13.504 -0.4838  0.5653  0.5489
 3759SOL     OW22738   2.897   0.132   2.775 -0.1666 -0.1612 -0.4061
 3759SOL    HW122739   2.853   0.121   2.690 -1.6706 -0.0957  0.3609
 3759SOL    HW222740   2.986   0.116   2.744 -0.1581 -1.8381  0.5026
 3760SOL     OW22741   0.250   0.426  13.960 -0.4032  0.0973 -0.1429
 3760SOL    HW122742   0.209   0.340  13.960  1.1563 -0.6489 -0.2386
 3760SOL    HW222743   0.338   0.397  13.934  0.3222  1.4278  0.8136
 3761SOL     OW22744   2.016   3.249   1.305  0.1603 -0.3108 -0.2259
 3761SOL    HW122745   2.100   3.230   1.265  0.5189  0.0882  0.3504
 3761SOL    HW222746   2.011   3.344   1.296 -0.7760 -0.3447 -0.0813
 3762SOL     OW22747   2.131   1.785   7.173 -0.0663 -0.3097 -0.4902
 3762SOL    HW122748   2.200   1.805   7.110  1.5107 -1.0261  1.0013
 3762SOL    HW222749   2.120   1.691   7.156 -1.0230 -0.6595  2.0656
 3763SOL     OW22750   0.851   3.704   1.748  0.3710 -0.3512  0.3543
 3763SOL    HW122751   0.853   3.614   1.716  1.7415 -0.3197  0.3527
 3763SOL    HW222752   0.897   3.692   1.831 -0.0087 -2.3904  0.2572
 3764SOL     OW22753   1.191   2.199   1.429  0.5422 -0.2067 -0.4659
 3764SOL    HW122754   1.286   2.209   1.437  0.3117 -0.2238  2.4355
 3764SOL    HW222755   1.180   2.128   1.492 -0.3870 -0.1617 -0.5767
 3765SOL     OW22756   3.147   4.098  15.232 -0.0574 -0.7883  0.1823
 3765SOL    HW122757   3.198   4.038  15.177 -1.5036 -1.0776 -0.8552
 3765SOL    HW222758   3.062   4.058  15.214  0.3579 -0.9565 -1.4086
 3766SOL     OW22759   3.266   4.331   8.496 -0.5198 -0.1019  0.3723
 3766SOL    HW122760   3.179   4.370   8.488  0.4744  2.5135  2.3448
 3766SOL    HW222761   3.264   4.304   8.404 -1.2102 -0.9325  0.6311
 3767SOL     OW22762   1.455   0.390   7.281  0.1686 -0.2422  0.3205
 3767SOL    HW122763   1.436   0.307   7.324  1.1928 -0.8093 -0.3419
 3767SOL    HW222764   1.431   0.452   7.350  1.1564  1.2259 -0.6578
 3768SOL     OW22765   2.199   1.501   7.605 -0.0614  0.2249 -0.2009
 3768SOL    HW122766   2.292   1.482   7.593 -0.0446  1.8282 -2.4488
 3768SOL    HW222767   2.188   1.592   7.576  0.4883  0.4804  0.3753
 3769SOL     OW22768   2.576   4.375   8.193 -0.2636  0.0882 -0.2563
 3769SOL    HW122769   2.593   4.464   8.225  1.0253 -0.3668  0.3427
 3769SOL    HW222770   2.665   4.340   8.199 -0.3933  0.1030  1.9470
 3770SOL     OW22771   0.807   2.168  10.926  0.0059  0.1026  0.0505
 3770SOL    HW122772   0.740   2.232  10.903  0.4512 -0.0319 -1.6874
 3770SOL    HW222773   0.879   2.223  10.956  1.1889 -1.7394  0.5912
 3771SOL     OW22774   0.989   0.255  12.067  0.5295 -0.4189 -0.2161
 3771SOL    HW122775   1.010   0.298  12.150 -0.9537  0.4759 -0.2962
 3771SOL    HW222776   0.896   0.279  12.072  1.5464  3.4367  0.0013
 3772SOL     OW22777   3.054   2.105   5.402 -0.0020  0.0278  0.1970
 3772SOL    HW122778   3.085   2.034   5.458  1.2253  0.7082  0.3665
 3772SOL    HW222779   2.965   2.078   5.380  1.1512  0.1072 -4.5428
 3773SOL     OW22780   0.226   2.943   6.408  0.1461  0.3456  0.1091
 3773SOL    HW122781   0.287   3.014   6.428  0.7861 -0.0129 -0.5337
 3773SOL    HW222782   0.149   2.997   6.392 -0.1837  0.0733  0.7924
 3774SOL     OW22783   0.047   3.188  17.600  0.3024 -0.1144 -0.4283
 3774SOL    HW122784   0.129   3.140  17.607  0.2003 -0.2637 -0.2452
 3774SOL    HW222785   0.067   3.256  17.535  0.9486 -0.5553 -0.6879
 3775SOL     OW22786   1.420   0.792  13.098  0.0145  0.5178 -0.1147
 3775SOL    HW122787   1.495   0.733  13.105  0.1162  0.3572 -2.2898
 3775SOL    HW222788   1.455   0.881  13.094  1.6598 -0.1948 -1.9383
 3776SOL     OW22789   3.485   2.720   7.289  0.7975 -0.0554  0.2110
 3776SOL    HW122790   3.420   2.758   7.230  1.2892  0.2831 -0.1128
 3776SOL    HW222791   3.471   2.625   7.287  0.5893 -0.0985  3.8862
 3777SOL     OW22792   0.131   3.487   6.164  0.3030  0.2997  0.1115
 3777SOL    HW122793   0.148   3.393   6.170  3.0539  0.8789  1.3795
 3777SOL    HW222794   0.126   3.501   6.259  1.0183  0.0828  0.1858
 3778SOL     OW22795   2.608   3.692  15.587 -0.0847 -0.5668  0.0526
 3778SOL    HW122796   2.667   3.766  15.577 -1.0351  0.2162  0.2987
 3778SOL    HW222797   2.662   3.633  15.640 -0.9552  0.8555  2.4837
 3779SOL     OW22798   1.002   4.593   9.797 -0.8445  0.2659  0.0490
 3779SOL    HW122799   0.953   4.560   9.722 -2.5519  2.0739  0.3787
 3779SOL    HW222800   0.946   4.563   9.867 -0.0430 -3.0205 -0.7031
 3780SOL     OW22801   4.662   1.368   2.127 -0.8891 -0.9750 -0.4125
 3780SOL    HW122802   4.678   1.274   2.124 -0.5972 -0.9269 -0.3761
 3780SOL    HW222803   4.570   1.376   2.101 -0.7817  1.3608 -0.1095
 3781SOL     OW22804   3.687   3.599   8.841  0.3446  0.4576 -0.0968
 3781SOL    HW122805   3.714   3.545   8.915  1.0162 -2.7094 -2.6520
 3781SOL    HW222806   3.717   3.686   8.869  0.3621  0.3860  0.1057
 3782SOL     OW22807   1.111   0.590   8.778  0.3568 -0.0953 -0.2446
 3782SOL    HW122808   1.191   0.640   8.793 -2.7604  4.3831  1.4895
 3782SOL    HW222809   1.121   0.520   8.842 -1.5344  0.3977  0.5952
 3783SOL     OW22810   2.122   1.195  13.432  0.2096  0.2768 -0.1828
 3783SOL    HW122811   2.161   1.108  13.422 -0.7287 -0.1946  0.2337
 3783SOL    HW222812   2.194   1.249  13.399 -0.0236  0.9830  0.4791
 3784SOL     OW22813   3.879   0.295   9.018  0.8971  0.0546  0.1322
 3784SOL    HW122814   3.946   0.363   9.027  0.5067  0.5863 -0.9522
 3784SOL    HW222815   3.938   0.225   8.990  1.5766  0.6606  0.0602
 3785SOL     OW22816   3.732   1.504  16.989 -0.2977  0.2861  0.2696
 3785SOL    HW122817   3.773   1.590  16.991  1.1786 -0.3756 -1.7929
 3785SOL    HW222818   3.729   1.472  16.899 -0.7021  0.7936  0.0980
 3786SOL     OW22819   0.605   2.763   3.392 -0.4209  0.2820  0.2213
 3786SOL    HW122820   0.633   2.679   3.358 -1.9273 -0.1887  0.1510
 3786SOL    HW222821   0.524   2.771   3.343 -1.0678 -2.0820  0.8972
 3787SOL     OW22822   0.893   0.794   5.818 -0.2188 -0.0014  0.8707
 3787SOL    HW122823   0.813   0.797   5.766  1.5844  1.3379 -1.8323
 3787SOL    HW222824   0.889   0.883   5.851 -0.5060 -0.0286  0.9090
 3788SOL     OW22825   3.028   3.146  15.879  0.0142  0.5299  0.2475
 3788SOL    HW122826   3.095   3.107  15.822 -1.4109 -1.1172 -0.2932
 3788SOL    HW222827   2.970   3.071  15.891  0.4594 -0.2531 -2.4355
 3789SOL     OW22828   3.003   1.097   2.748 -0.2807 -0.0521  0.3420
 3789SOL    HW122829   3.072   1.154   2.782 -1.3827  2.1296 -1.1017
 3789SOL    HW222830   3.023   1.021   2.803  1.3741  0.1586  0.0296
 3790SOL     OW22831   1.013   2.273  11.190 -0.2949  0.5809  0.1063
 3790SOL    HW122832   0.966   2.323  11.257 -1.3923  1.7054 -1.5087
 3790SOL    HW222833   0.971   2.187  11.183  0.8513 -0.1355  1.9195
 3791SOL     OW22834   4.309   0.187  12.405 -0.1554 -0.2373  0.3556
 3791SOL    HW122835   4.331   0.207  12.496  1.2873 -0.5775  0.0832
 3791SOL    HW222836   4.386   0.138  12.378 -0.2837 -0.0275 -0.3998
 3792SOL     OW22837   0.798   1.711   7.474 -0.2548  0.2672  0.4515
 3792SOL    HW122838   0.825   1.637   7.420  0.8867  0.8608  0.2250
 3792SOL    HW222839   0.796   1.671   7.561  3.3396  1.4262  1.0598
 3793SOL     OW22840   0.801   3.712   9.378 -0.4693 -0.3351  0.4576
 3793SOL    HW122841   0.728   3.767   9.351 -0.8738 -0.8690  0.4701
 3793SOL    HW222842   0.857   3.716   9.301 -0.4411 -1.4482  0.4203
 3794SOL     OW22843   3.531   3.134   5.962  0.6293  0.5949  0.3428
 3794SOL    HW122844   3.512   3.067   6.028  0.4203 -0.0330 -0.3450
 3794SOL    HW222845   3.623   3.152   5.979  0.0366  2.1657  1.8362
 3795SOL     OW22846   2.112   2.885  15.648 -0.0333 -0.5417  0.3390
 3795SOL    HW122847   2.193   2.924  15.682  0.2885 -2.2723  1.5242
 3795SOL    HW222848   2.060   2.964  15.631 -1.9423 -1.8798 -0.0156
 3796SOL     OW22849   3.175   1.506   7.435 -0.0904 -0.3770 -0.3002
 3796SOL    HW122850   3.150   1.489   7.344 -1.8746  2.0496 -0.2935
 3796SOL    HW222851   3.141   1.595   7.445 -1.4197 -0.8375 -0.6548
 3797SOL     OW22852   4.268   1.861  15.839 -0.3807 -0.0362 -0.0617
 3797SOL    HW122853   4.322   1.934  15.810  0.3250 -0.4337  0.2530
 3797SOL    HW222854   4.251   1.874  15.932 -2.7249 -1.7300 -0.2380
 3798SOL     OW22855   3.026   4.362   4.135 -0.0960 -0.1084 -0.3456
 3798SOL    HW122856   3.115   4.347   4.168 -0.7286 -0.5488  1.1697
 3798SOL    HW222857   3.022   4.450   4.096 -0.5308 -0.1709 -0.4381
 3799SOL     OW22858   2.905   2.942   5.982 -0.6648 -0.1306 -0.1520
 3799SOL    HW122859   2.860   3.026   5.995  2.1127  1.2461  0.7570
 3799SOL    HW222860   2.973   2.944   6.050 -1.3408  0.8141  0.4994
 3800SOL     OW22861   0.446   0.153   0.040 -0.1784 -0.2253 -0.1519
 3800SOL    HW122862   0.391   0.194  17.659 -0.3332 -0.5000 -0.1973
 3800SOL    HW222863   0.441   0.059   0.019  0.8944 -1.2409  4.0372
 3801SOL     OW22864   4.594   2.253   9.723  0.8821 -0.4258  0.3502
 3801SOL    HW122865   4.604   2.282   9.632 -0.9725 -0.0904  0.2624
 3801SOL    HW222866   4.606   2.337   9.767 -1.3024 -0.7110  1.4587
 3802SOL     OW22867   4.261   0.628   4.687  0.0789  0.3144  0.3835
 3802SOL    HW122868   4.314   0.550   4.704  0.4707  0.1329 -1.7229
 3802SOL    HW222869   4.321   0.688   4.731 -0.0575 -0.1120  1.1472
 3803SOL     OW22870   1.089   0.336   7.605  0.0242  0.2424 -0.2302
 3803SOL    HW122871   0.996   0.356   7.619  0.9834  3.2327  1.8537
 3803SOL    HW222872   1.134   0.396   7.665 -0.9534 -0.8404  1.5863
 3804SOL     OW22873   2.219   0.540   1.709  0.0341 -0.1197 -0.0225
 3804SOL    HW122874   2.248   0.614   1.763  0.9751 -0.8086  0.4101
 3804SOL    HW222875   2.278   0.546   1.634  0.1044 -0.0343  0.0398
 3805SOL     OW22876   1.929   0.084  12.303  0.1641 -0.2746 -0.4330
 3805SOL    HW122877   1.989   0.081  12.229  0.3962  0.0692 -0.2579
 3805SOL    HW222878   1.851   0.127  12.267 -0.4719 -1.9997 -1.1094
 3806SOL     OW22879   1.692   2.896   8.747  0.2173 -0.2706  0.5103
 3806SOL    HW122880   1.772   2.922   8.792 -0.3524  1.7491  0.3255
 3806SOL    HW222881   1.630   2.955   8.790  1.6227  0.9577  0.8337
 3807SOL     OW22882   1.567   3.423   5.990 -0.3473 -0.0705 -0.1333
 3807SOL    HW122883   1.534   3.453   5.906 -0.3594 -0.0381 -0.1171
 3807SOL    HW222884   1.553   3.330   5.977 -0.1208 -0.1094 -0.0971
 3808SOL     OW22885   0.498   2.045   2.802 -0.2805 -0.6270 -0.3374
 3808SOL    HW122886   0.414   2.000   2.802 -0.6992  0.1614  0.6561
 3808SOL    HW222887   0.482   2.098   2.723 -0.5644  1.5202  1.1403
 3809SOL     OW22888   2.606   1.769   3.598  0.5386  0.4887  0.4500
 3809SOL    HW122889   2.568   1.855   3.576  2.8596  1.2652 -0.5303
 3809SOL    HW222890   2.555   1.726   3.529 -1.4320 -0.0937  2.2724
 3810SOL     OW22891   2.804   3.082   7.400  0.1615  0.1149 -0.8749
 3810SOL    HW122892   2.867   3.065   7.330 -0.6029  1.3953 -1.8604
 3810SOL    HW222893   2.829   3.017   7.466 -0.1750  0.7631 -0.1131
 3811SOL     OW22894   3.067   2.038   0.694 -0.3857 -0.3299  0.8159
 3811SOL    HW122895   3.141   2.098   0.707 -0.3518 -0.0873 -0.5603
 3811SOL    HW222896   3.087   1.970   0.758 -1.7308 -0.8721  0.6552
 3812SOL     OW22897   3.030   1.552   4.245 -0.4394 -0.4113  0.4143
 3812SOL    HW122898   3.096   1.505   4.193 -2.9699 -1.0347 -2.2483
 3812SOL    HW222899   3.018   1.631   4.193  0.3214  0.0473  0.9453
 3813SOL     OW22900   4.093   4.192   0.481 -0.0234 -0.3679 -0.2102
 3813SOL    HW122901   4.114   4.266   0.538 -2.2355  1.1808 -1.3783
 3813SOL    HW222902   4.144   4.117   0.513 -1.0944 -2.1068 -2.5300
 3814SOL     OW22903   0.809   4.682   6.067  0.4519  0.3565  0.2321
 3814SOL    HW122904   0.756   0.013   6.127  0.8581  1.2247 -0.1498
 3814SOL    HW222905   0.896   4.717   6.091  2.3512 -2.5885 -2.4465
 3815SOL     OW22906   3.816   1.061   3.605 -0.1982  0.6471 -0.6853
 3815SOL    HW122907   3.747   1.127   3.601 -1.1142 -0.3204 -0.7567
 3815SOL    HW222908   3.784   0.983   3.650 -0.3629  1.7952  1.2015
 3816SOL     OW22909   3.156   3.417   2.499 -0.2011 -0.3616 -0.1032
 3816SOL    HW122910   3.094   3.353   2.463 -0.4437 -0.4895  0.5424
 3816SOL    HW222911   3.217   3.359   2.544 -0.0148  1.1247  1.5352
 3817SOL     OW22912   0.924   4.144   2.487  0.3720 -0.1327  0.0284
 3817SOL    HW122913   0.896   4.216   2.543  1.2412  0.0696  0.1985
 3817SOL    HW222914   0.862   4.083   2.525  0.6141  1.5841  3.1369
 3818SOL     OW22915   1.174   4.526   8.316 -0.5560  0.3709 -0.1769
 3818SOL    HW122916   1.080   4.510   8.310 -0.2688 -1.2471 -0.1710
 3818SOL    HW222917   1.182   4.611   8.271 -0.0925  0.6268  0.3923
 3819SOL     OW22918   1.643   4.533   0.317  0.1597 -0.0860 -0.3900
 3819SOL    HW122919   1.552   4.505   0.314 -0.7004  2.4116  2.0390
 3819SOL    HW222920   1.655   4.556   0.409 -0.6397 -0.8756 -0.0891
 3820SOL     OW22921   0.736   2.006   8.055  0.4063  0.2833 -0.1853
 3820SOL    HW122922   0.759   2.085   8.104  0.0473  0.2591  0.0223
 3820SOL    HW222923   0.688   2.039   7.980 -0.2628  0.9726  0.5438
 3821SOL     OW22924   4.591   2.445   3.462  0.1032  0.5776 -0.1698
 3821SOL    HW122925   4.501   2.454   3.429  1.0347  2.1483 -2.2496
 3821SOL    HW222926   4.599   2.350   3.471  0.1619  0.7430  1.5934
 3822SOL     OW22927   2.660   2.257  11.598 -0.4970 -0.4184 -0.5029
 3822SOL    HW122928   2.697   2.178  11.560 -0.2663 -0.4001 -0.3203
 3822SOL    HW222929   2.674   2.244  11.692  0.5101  2.8633 -0.1799
 3823SOL     OW22930   3.838   2.705  13.058 -0.5997 -0.1178 -0.5560
 3823SOL    HW122931   3.861   2.632  13.001 -2.3301 -0.1534 -1.2143
 3823SOL    HW222932   3.769   2.669  13.114 -1.1740  0.7183 -0.7315
 3824SOL     OW22933   3.712   2.127   7.157 -0.0860 -0.6461  0.4175
 3824SOL    HW122934   3.670   2.185   7.221 -0.6445 -2.1209  1.3957
 3824SOL    HW222935   3.694   2.171   7.074 -0.7571  1.6585  1.7882
 3825SOL     OW22936   2.184   2.353   7.882 -0.1861 -0.5735 -0.1794
 3825SOL    HW122937   2.128   2.283   7.849 -2.7592  0.8587  1.1402
 3825SOL    HW222938   2.266   2.306   7.866  0.0420 -0.4273  0.5602
 3826SOL     OW22939   1.461   2.641  11.111  0.5996  0.4812  0.4372
 3826SOL    HW122940   1.428   2.583  11.179 -3.0422  0.0358 -1.7207
 3826SOL    HW222941   1.542   2.685  11.137  1.7088  0.2919 -2.6694
 3827SOL     OW22942   4.603   3.690   8.371 -0.7121  0.1894 -0.4594
 3827SOL    HW122943   4.691   3.728   8.373  0.5525 -2.8232  0.5018
 3827SOL    HW222944   4.629   3.600   8.388 -1.1107  0.0245 -0.7253
 3828SOL     OW22945   1.700   0.677   3.604  0.0604 -0.1277 -0.2332
 3828SOL    HW122946   1.622   0.732   3.593 -0.1252 -0.0862  1.2051
 3828SOL    HW222947   1.660   0.594   3.631 -0.6471  0.9695  2.0702
 3829SOL     OW22948   2.743   1.517   6.435  0.5525 -0.1325 -0.2857
 3829SOL    HW122949   2.699   1.465   6.503  4.2198 -1.7594  0.8640
 3829SOL    HW222950   2.722   1.455   6.365 -1.3779  1.3408 -1.0189
 3830SOL     OW22951   2.965   3.147   7.193 -0.0380  0.1161 -0.2275
 3830SOL    HW122952   2.969   3.223   7.251  0.3576 -0.3603  0.3660
 3830SOL    HW222953   3.017   3.178   7.119  0.2599  0.1247 -0.0126
 3831SOL     OW22954   0.978   2.379   0.599  0.6344  0.1669 -0.0489
 3831SOL    HW122955   1.035   2.452   0.621  0.0388  0.6787 -0.1928
 3831SOL    HW222956   1.038   2.305   0.603 -0.5567 -0.7579  0.5147
 3832SOL     OW22957   2.881   4.603   7.265 -0.2663 -0.7542  0.3041
 3832SOL    HW122958   2.951   4.538   7.255  2.1853  1.9141 -0.0909
 3832SOL    HW222959   2.810   4.539   7.274 -0.2278 -0.8538 -0.0898
 3833SOL     OW22960   3.639   0.937   1.688  0.0280  0.3158 -0.7151
 3833SOL    HW122961   3.670   1.027   1.674  0.4736  0.1453 -0.8305
 3833SOL    HW222962   3.719   0.885   1.676  1.0238  1.6963 -0.0403
 3834SOL     OW22963   1.488   2.520   2.928 -0.0942  0.3752  0.2887
 3834SOL    HW122964   1.473   2.425   2.927  0.7134  0.2524  0.1050
 3834SOL    HW222965   1.430   2.550   2.998  1.6399  0.5454  1.6258
 3835SOL     OW22966   3.255   2.783   0.216  0.0807 -0.3423 -0.1153
 3835SOL    HW122967   3.205   2.794   0.136 -1.5652 -0.1444  0.9418
 3835SOL    HW222968   3.347   2.775   0.191  0.2103 -2.7002  1.0855
 3836SOL     OW22969   2.746   2.547   5.929  0.0136 -0.5099  0.0165
 3836SOL    HW122970   2.807   2.474   5.935 -1.5014 -1.6829  1.3766
 3836SOL    HW222971   2.810   2.609   5.963  0.3924 -0.7207 -0.3196
 3837SOL     OW22972   2.404   3.822   8.892 -0.8011  0.1664  0.1208
 3837SOL    HW122973   2.416   3.754   8.826  1.8869  0.9841 -0.2206
 3837SOL    HW222974   2.400   3.774   8.975  1.1609  1.3884  0.9253
 3838SOL     OW22975   1.527   4.208   4.996  0.1268 -0.3944  0.3703
 3838SOL    HW122976   1.480   4.128   4.972 -0.0079  0.1537 -1.2093
 3838SOL    HW222977   1.454   4.266   5.014  0.6056  1.2071 -2.9095
 3839SOL     OW22978   4.475   0.820  11.298 -0.0741 -0.4601  0.6735
 3839SOL    HW122979   4.481   0.794  11.206 -1.2367  3.9077 -0.6231
 3839SOL    HW222980   4.458   0.914  11.293  2.2621 -0.1434 -1.5160
 3840SOL     OW22981   3.452   0.274   5.084  0.3832 -0.4289  0.0539
 3840SOL    HW122982   3.394   0.253   5.158 -0.2691  0.8513 -0.0963
 3840SOL    HW222983   3.381   0.309   5.030  0.7863  2.2200  1.2248
 3841SOL     OW22984   1.353   3.817   9.091 -0.2752  0.1495  0.5879
 3841SOL    HW122985   1.329   3.724   9.085  0.8389 -0.0364 -0.9644
 3841SOL    HW222986   1.433   3.814   9.038  1.3994  2.0859  3.0043
 3842SOL     OW22987   4.645   0.077  11.608 -0.2065  0.1343  0.3017
 3842SOL    HW122988   4.657   0.171  11.601  4.2195 -0.6220 -2.1852
 3842SOL    HW222989   4.604   0.058  11.523 -1.0473  0.0600  0.7190
 3843SOL     OW22990   2.726   2.687   5.606 -0.0258 -0.3252  0.2081
 3843SOL    HW122991   2.701   2.767   5.651  1.2982  0.2606 -0.1005
 3843SOL    HW222992   2.757   2.630   5.677  0.1259 -0.9288 -0.3368
 3844SOL     OW22993   0.368   2.063   9.935 -0.2886  0.0345 -0.3571
 3844SOL    HW122994   0.410   2.146   9.914 -2.7138  1.4920  0.6454
 3844SOL    HW222995   0.320   2.100  10.009 -1.9295 -1.8950 -0.4374
 3845SOL     OW22996   4.420   0.977  17.233  0.0004 -0.7886  0.3596
 3845SOL    HW122997   4.386   0.892  17.206  1.1284 -1.7073  1.8083
 3845SOL    HW222998   4.369   1.042  17.185  0.9990  1.0338  1.7529
 3846SOL     OW22999   2.771   2.394  12.593  0.0741 -0.1658 -0.5194
 3846SOL    HW123000   2.695   2.433  12.551 -0.3894  1.8098  2.1499
 3846SOL    HW223001   2.783   2.456  12.664 -2.9653  0.5116 -0.6323
 3847SOL     OW23002   3.889   1.187  12.829 -0.6565 -0.4073 -0.1250
 3847SOL    HW123003   3.941   1.240  12.769  0.2009  0.7584  1.6374
 3847SOL    HW223004   3.877   1.249  12.900 -0.7758 -0.6399  0.0586
 3848SOL     OW23005   3.242   0.862  17.235  0.4253  0.4205 -0.3532
 3848SOL    HW123006   3.238   0.876  17.330  0.7815 -0.8634 -0.1460
 3848SOL    HW223007   3.213   0.942  17.190 -0.8278  0.6847  0.9410
 3849SOL     OW23008   1.076   4.022   8.982  0.2175  0.2477 -0.1861
 3849SOL    HW123009   1.079   4.117   8.967 -0.0595  0.5447  1.6315
 3849SOL    HW223010   1.007   4.024   9.048  0.6708  0.6492  0.2773
 3850SOL     OW23011   0.453   3.766   7.775  0.0066 -0.3796 -0.3227
 3850SOL    HW123012   0.545   3.756   7.798  0.0371  0.0656 -0.2330
 3850SOL    HW223013   0.442   3.861   7.785 -6.2098 -0.8726 -2.4005
 3851SOL     OW23014   1.240   0.530   7.831  0.6169  0.6333 -0.1017
 3851SOL    HW123015   1.187   0.607   7.852  2.9085  2.1277  0.1748
 3851SOL    HW223016   1.317   0.552   7.882  1.5233 -1.2918 -0.6337
 3852SOL     OW23017   1.968   4.079  12.040  0.1754  0.2715  0.3951
 3852SOL    HW123018   1.972   4.155  11.983  1.3355 -0.0413  0.0597
 3852SOL    HW223019   1.876   4.058  12.023  0.3995 -1.1886  0.9117
 3853SOL     OW23020   2.516   2.094  17.347 -0.2948  0.1742  0.0804
 3853SOL    HW123021   2.585   2.142  17.394 -1.3777  2.6317 -0.8419
 3853SOL    HW223022   2.572   2.044  17.289  0.5494  2.1099 -0.7833
 3854SOL     OW23023   3.820   2.442  16.517 -0.1747 -0.1201  0.0950
 3854SOL    HW123024   3.749   2.464  16.456  0.8170  0.5286 -0.8276
 3854SOL    HW223025   3.777   2.366  16.555 -0.6209  0.9014  1.6044
 3855SOL     OW23026   1.960   4.227   5.447 -0.5235  0.2915 -0.7583
 3855SOL    HW123027   1.908   4.177   5.384  1.8130  0.5609 -2.8895
 3855SOL    HW223028   1.894   4.269   5.502 -0.3946 -0.1788 -0.2364
 3856SOL     OW23029   0.931   2.177   7.811  0.1509  0.0077 -0.0401
 3856SOL    HW123030   0.838   2.197   7.822  0.0028 -1.6055  1.6535
 3856SOL    HW223031   0.938   2.117   7.737  0.8731  0.0816 -0.0310
 3857SOL     OW23032   1.423   2.011  11.553  0.2524 -0.7762 -0.1857
 3857SOL    HW123033   1.417   2.062  11.473 -0.3811 -0.0610  0.3180
 3857SOL    HW223034   1.345   2.032  11.605  2.5368  1.5179  2.3206
 3858SOL     OW23035   2.737   0.896   6.314 -0.0789  0.1490 -0.1225
 3858SOL    HW123036   2.769   0.985   6.332 -0.1073  0.0716  0.3150
 3858SOL    HW223037   2.798   0.873   6.245  0.0221  2.9791 -0.9895
 3859SOL     OW23038   1.231   0.929  13.448  0.0362  0.0238 -0.2261
 3859SOL    HW123039   1.263   0.868  13.514  0.5059  0.6928  0.1602
 3859SOL    HW223040   1.320   0.931  13.411  0.9655  0.7654  2.0304
 3860SOL     OW23041   0.622   4.213   9.313 -0.2339  0.0056  0.0991
 3860SOL    HW123042   0.689   4.237   9.249  0.6972  0.6813  1.3275
 3860SOL    HW223043   0.554   4.275   9.285  0.7416  0.5975 -0.9355
 3861SOL     OW23044   0.605   0.816   3.892 -0.0017  0.2256 -0.6105
 3861SOL    HW123045   0.633   0.908   3.898 -0.8953  0.3224  2.0329
 3861SOL    HW223046   0.597   0.791   3.984 -1.0472 -1.6599 -1.2178
 3862SOL     OW23047   2.186   4.092   2.120 -0.2879  0.3510  0.1667
 3862SOL    HW123048   2.237   4.085   2.039 -2.1479  1.6601 -1.1042
 3862SOL    HW223049   2.181   3.997   2.131 -3.2506  0.2742 -1.6846
 3863SOL     OW23050   1.096   1.524   6.484  0.3651  0.6464  0.8167
 3863SOL    HW123051   1.048   1.586   6.430 -1.1397 -1.0816  0.1632
 3863SOL    HW223052   1.138   1.469   6.419 -3.7883 -2.8940  1.1100
 3864SOL     OW23053   0.366   1.731   0.199  0.1853 -0.1871 -0.9926
 3864SOL    HW123054   0.326   1.814   0.226  0.7148  0.1519 -1.2320
 3864SOL    HW223055   0.441   1.762   0.147  2.2992 -0.8944  1.6576
 3865SOL     OW23056   4.345   1.911   1.178 -0.1526  0.0535 -0.0536
 3865SOL    HW123057   4.295   1.831   1.199 -1.7791  0.9989 -0.2998
 3865SOL    HW223058   4.428   1.893   1.222  0.1871 -1.5788 -1.3512
 3866SOL     OW23059   1.225   2.855   9.622  0.2498  0.1616 -0.3180
 3866SOL    HW123060   1.223   2.947   9.649 -1.4362  0.0319 -0.0579
 3866SOL    HW223061   1.162   2.857   9.551 -1.5831 -2.4151  1.2345
 3867SOL     OW23062   3.126   1.181   2.185  0.3222  0.4844 -0.0563
 3867SOL    HW123063   3.115   1.257   2.128 -0.7774  0.9891  0.8431
 3867SOL    HW223064   3.104   1.225   2.267  1.0826  2.6944 -1.0586
 3868SOL     OW23065   1.474   4.054  11.518 -0.7148 -0.2175  0.0986
 3868SOL    HW123066   1.385   4.029  11.543 -0.8208 -0.4977 -0.5499
 3868SOL    HW223067   1.461   4.119  11.450  2.2361  0.8797  0.5927
 3869SOL     OW23068   1.290   1.290  10.318 -0.2818  0.1292  0.2250
 3869SOL    HW123069   1.289   1.292  10.413  0.7776  0.0890  0.2432
 3869SOL    HW223070   1.366   1.232  10.302  1.4251  2.4347 -0.0151
 3870SOL     OW23071   3.886   2.589   3.447 -0.4021  0.0080 -0.0419
 3870SOL    HW123072   3.940   2.565   3.372 -1.8749  0.2186 -1.1679
 3870SOL    HW223073   3.808   2.535   3.440 -0.5730  0.2673 -0.1526
 3871SOL     OW23074   1.598   3.563  14.849 -0.3578  0.4439  0.6980
 3871SOL    HW123075   1.577   3.652  14.820  1.1073  2.3686  5.5350
 3871SOL    HW223076   1.509   3.529  14.850  0.3160 -1.3511 -1.7486
 3872SOL     OW23077   1.301   1.534  10.548 -0.0192  0.3389 -0.2998
 3872SOL    HW123078   1.231   1.568  10.604  1.6333 -0.3873  2.2247
 3872SOL    HW223079   1.312   1.444  10.578 -2.5642  0.5320  1.2868
 3873SOL     OW23080   3.032   1.046   4.437 -0.5002 -0.2413 -0.0229
 3873SOL    HW123081   2.966   0.976   4.441 -0.6223 -0.0943  0.4404
 3873SOL    HW223082   2.992   1.109   4.377  2.1504  0.0018 -1.5438
 3874SOL     OW23083   0.817   4.325   8.860 -0.2365 -0.3224  0.9280
 3874SOL    HW123084   0.902   4.285   8.842 -0.8352 -1.2889  0.2538
 3874SOL    HW223085   0.789   4.323   8.769 -0.0252  0.1905  0.8532
 3875SOL     OW23086   3.399   2.118  15.494 -0.4000  0.0965 -0.5180
 3875SOL    HW123087   3.489   2.101  15.465  0.4327  0.9622  1.5594
 3875SOL    HW223088   3.388   2.199  15.444  0.2023 -0.4195 -1.4864
 3876SOL     OW23089   0.594   2.612  15.262 -0.3091 -0.1500 -0.0106
 3876SOL    HW123090   0.689   2.609  15.272 -0.3812 -1.0120  0.4263
 3876SOL    HW223091   0.571   2.595  15.354 -1.5046  0.1504 -0.2544
 3877SOL     OW23092   0.402   4.551   1.546 -0.0080  0.3036 -0.1871
 3877SOL    HW123093   0.411   4.581   1.455 -0.7751 -2.1783 -1.0629
 3877SOL    HW223094   0.318   4.595   1.557  0.6665  1.6627 -0.3517
 3878SOL     OW23095   2.245   1.093  14.225 -0.0406  0.2743 -0.6913
 3878SOL    HW123096   2.308   1.021  14.231  3.1795  3.0327 -1.6914
 3878SOL    HW223097   2.171   1.049  14.184  0.1501  0.7075 -1.4854
 3879SOL     OW23098   4.580   2.832   0.403  0.4456  0.3890  0.1767
 3879SOL    HW123099   4.533   2.870   0.329 -2.1632 -0.6706  1.2784
 3879SOL    HW223100   4.550   2.743   0.384 -0.4197  0.6911  0.0931
 3880SOL     OW23101   0.626   1.632   4.287 -0.3556 -0.2420  0.5007
 3880SOL    HW123102   0.601   1.540   4.296 -0.5316 -0.3406 -0.9632
 3880SOL    HW223103   0.542   1.670   4.262 -0.7271 -1.0856  0.4624
 3881SOL     OW23104   3.408   3.499   0.296 -0.5865 -0.1775 -0.1596
 3881SOL    HW123105   3.397   3.464   0.384 -1.6394 -1.9353 -0.9846
 3881SOL    HW223106   3.447   3.426   0.248 -1.5176 -0.0503 -1.1095
 3882SOL     OW23107   0.823   0.742   3.226 -0.4466 -0.7213 -0.1933
 3882SOL    HW123108   0.869   0.826   3.218 -0.2613 -0.5288  2.9050
 3882SOL    HW223109   0.807   0.716   3.135  0.0495  0.5180 -0.6353
 3883SOL     OW23110   1.166   1.292  16.834 -0.1901  0.2025  0.2982
 3883SOL    HW123111   1.230   1.347  16.878 -0.7729  2.3104 -1.5408
 3883SOL    HW223112   1.092   1.302  16.895 -0.0459 -2.7748  0.9846
 3884SOL     OW23113   3.104   3.624   7.588  0.5289 -0.2643  0.0243
 3884SOL    HW123114   3.030   3.619   7.528  0.6167  1.1186 -0.2053
 3884SOL    HW223115   3.170   3.619   7.519 -0.4192  0.7891 -0.9566
 3885SOL     OW23116   3.828   3.623   7.018  0.4063  0.0789 -0.4700
 3885SOL    HW123117   3.778   3.615   7.099  3.1515  0.3251  1.2466
 3885SOL    HW223118   3.872   3.538   7.017  1.8665  0.8453 -1.2029
 3886SOL     OW23119   1.465   1.288   4.435  0.2270 -0.8498 -0.0533
 3886SOL    HW123120   1.501   1.317   4.352 -1.6112  1.6706  0.0207
 3886SOL    HW223121   1.414   1.212   4.406 -0.3236 -0.8690  0.9677
 3887SOL     OW23122   2.491   2.639   5.939 -0.3741 -0.1961 -0.3110
 3887SOL    HW123123   2.496   2.716   5.996 -0.4099 -0.6986  0.3724
 3887SOL    HW223124   2.581   2.609   5.951 -1.0697 -2.1177  0.2793
 3888SOL     OW23125   1.302   2.929   7.481  0.2960 -0.1577 -0.0002
 3888SOL    HW123126   1.233   2.878   7.524 -0.9510  1.6011  0.0738
 3888SOL    HW223127   1.249   3.002   7.449  0.2514  0.1135  0.6877
 3889SOL     OW23128   3.270   3.817  14.096  0.4889  0.5816 -0.2912
 3889SOL    HW123129   3.315   3.736  14.121 -0.2615  0.5580  0.9679
 3889SOL    HW223130   3.317   3.880  14.151 -0.0051  1.1112 -0.4817
 3890SOL     OW23131   3.275   2.693   3.468 -0.0847 -0.6691 -0.7074
 3890SOL    HW123132   3.193   2.662   3.507  0.1091  1.5622  1.4623
 3890SOL    HW223133   3.279   2.633   3.394  0.5070 -2.3581  0.6960
 3891SOL     OW23134   4.382   3.075   5.451 -0.3658  0.1095 -0.3292
 3891SOL    HW123135   4.442   3.135   5.406  0.4206 -1.4217 -1.3077
 3891SOL    HW223136   4.400   3.005   5.389  1.0134  0.7496 -0.6514
 3892SOL     OW23137   4.479   2.725   4.099 -0.1262 -0.2675 -0.5006
 3892SOL    HW123138   4.490   2.775   4.018 -0.4235  0.8584  0.1552
 3892SOL    HW223139   4.425   2.653   4.067  1.0332 -0.2404 -2.5711
 3893SOL     OW23140   0.957   0.879   8.433  0.1539 -0.5464 -0.1151
 3893SOL    HW123141   0.896   0.849   8.500  0.5223 -0.5069  0.2363
 3893SOL    HW223142   0.905   0.855   8.356 -0.8881 -0.9019  0.6981
 3894SOL     OW23143   3.052   4.495   3.801  0.8028  0.5025 -0.2424
 3894SOL    HW123144   3.006   4.532   3.877  1.0705  3.0669 -1.3156
 3894SOL    HW223145   3.012   4.408   3.802  0.2560  0.7571  0.1409
 3895SOL     OW23146   4.604   0.714   1.998 -0.3322 -0.1587  0.0698
 3895SOL    HW123147   4.605   0.629   1.955  0.7334  0.1370 -0.5108
 3895SOL    HW223148   4.610   0.776   1.925  0.0561  0.6742  0.8071
 3896SOL     OW23149   1.454   4.179   8.241 -0.4763 -0.5714 -0.6337
 3896SOL    HW123150   1.426   4.115   8.306 -2.8579  0.6389 -0.4648
 3896SOL    HW223151   1.541   4.199   8.274 -0.3606  0.4802 -1.5522
 3897SOL     OW23152   3.088   1.505   4.827 -0.1208 -0.0948  0.1390
 3897SOL    HW123153   3.156   1.571   4.839 -0.7666  0.5336  0.3643
 3897SOL    HW223154   3.017   1.560   4.792  0.5791  1.6789  1.5071
 3898SOL     OW23155   3.438   3.039  15.941  0.3304  0.0454  0.4682
 3898SOL    HW123156   3.494   2.963  15.958  0.5504  0.4830  1.6882
 3898SOL    HW223157   3.494   3.109  15.906  2.9766 -1.9267  0.7500
 3899SOL     OW23158   2.128   0.779   4.037 -0.2832  0.4298  0.1780
 3899SOL    HW123159   2.060   0.827   3.990 -1.2266 -0.4374  0.6834
 3899SOL    HW223160   2.114   0.697   3.990  0.3337 -0.6235  1.8375
 3900SOL     OW23161   2.090   4.558   8.457  0.5294  0.1405 -0.2422
 3900SOL    HW123162   2.182   4.531   8.458  1.0836  2.1758  3.5604
 3900SOL    HW223163   2.055   4.516   8.536  2.4859 -0.9902  0.0158
 3901SOL     OW23164   3.499   3.597   8.605  0.1890  0.2980  0.0404
 3901SOL    HW123165   3.459   3.684   8.603  0.5460  0.4417 -0.9087
 3901SOL    HW223166   3.546   3.600   8.688 -0.8003  0.0275  0.6067
 3902SOL     OW23167   1.623   1.387   4.222 -0.5922  0.1737 -0.2755
 3902SOL    HW123168   1.656   1.378   4.133 -0.2992 -2.7229  0.1279
 3902SOL    HW223169   1.673   1.464   4.249  2.3103 -1.9272  0.2923
 3903SOL     OW23170   4.584   1.111   9.010  0.2689  0.3265 -0.2413
 3903SOL    HW123171   4.663   1.067   9.043 -0.2248 -1.3829 -1.2762
 3903SOL    HW223172   4.553   1.032   8.965 -0.0447 -0.2234  0.9405
 3904SOL     OW23173   2.030   1.621   4.311 -0.3814 -0.8164  0.5898
 3904SOL    HW123174   2.066   1.536   4.337  1.8698 -0.4726 -1.3830
 3904SOL    HW223175   2.106   1.668   4.343  1.4316 -1.8830 -2.1944
 3905SOL     OW23176   4.474   0.081   7.415 -0.0350  0.3869  0.0570
 3905SOL    HW123177   4.392   0.051   7.375  0.4877 -0.6443 -0.2656
 3905SOL    HW223178   4.450   0.157   7.467  0.2589  2.0719 -2.2613
 3906SOL     OW23179   4.713   2.215   4.649  0.8828 -0.3029 -0.1181
 3906SOL    HW123180   4.631   2.167   4.661  0.2925  0.8135  0.2572
 3906SOL    HW223181   4.697   2.271   4.573 -1.0925 -3.0745 -1.7406
 3907SOL     OW23182   0.989   1.075   4.953  0.4870 -0.2388 -0.3693
 3907SOL    HW123183   1.025   1.146   5.007  1.0483  0.8184 -2.1414
 3907SOL    HW223184   0.898   1.100   4.969  1.3556  1.6584  1.7090
 3908SOL     OW23185   1.894   4.037   5.008 -0.1537  0.2209 -0.5308
 3908SOL    HW123186   1.968   4.080   4.966  0.3798  0.0136  0.2121
 3908SOL    HW223187   1.933   4.026   5.094 -0.4149  2.0525 -0.1645
 3909SOL     OW23188   4.665   0.406  11.840 -0.2751  0.5106  0.4558
 3909SOL    HW123189   4.690   0.372  11.754 -0.8212  0.1259  0.4499
 3909SOL    HW223190   4.657   0.501  11.836  1.2021  0.5234 -2.2926
 3910SOL     OW23191   3.168   2.424   5.782  0.3298 -0.6544 -0.6998
 3910SOL    HW123192   3.090   2.478   5.792  0.8024 -0.7039  3.1758
 3910SOL    HW223193   3.189   2.437   5.690  1.3341  0.2808 -0.3527
 3911SOL     OW23194   1.968   2.455   2.721 -0.4027  0.1117 -0.5027
 3911SOL    HW123195   1.882   2.494   2.733 -0.6018 -1.5365  3.5001
 3911SOL    HW223196   1.978   2.471   2.628 -1.2028  2.2599 -0.2108
 3912SOL     OW23197   4.326   0.123   9.913 -0.5948  0.2122  0.0147
 3912SOL    HW123198   4.316   0.167   9.997  0.6708  0.8963 -0.1861
 3912SOL    HW223199   4.239   0.088   9.898 -1.0714  0.8142  1.4665
 3913SOL     OW23200   1.696   2.023   7.356  0.1677  0.3412  0.0237
 3913SOL    HW123201   1.739   2.106   7.337 -2.5412  1.4367 -1.3396
 3913SOL    HW223202   1.754   1.986   7.423  0.0209  1.9028  1.0086
 3914SOL     OW23203   2.896   1.791  13.507 -0.4983  0.4150 -0.1421
 3914SOL    HW123204   2.887   1.696  13.522  2.5985 -0.1960 -2.1811
 3914SOL    HW223205   2.804   1.816  13.515 -1.4919 -2.7562 -1.3998
 3915SOL     OW23206   4.322   2.710   5.027  0.2809 -0.6581  0.1925
 3915SOL    HW123207   4.280   2.769   5.089  0.0098 -0.7052  0.0525
 3915SOL    HW223208   4.285   2.736   4.942  1.6583 -0.2294 -0.2745
 3916SOL     OW23209   1.804   4.677   0.179  0.2202  0.0247  0.3992
 3916SOL    HW123210   1.870   4.616   0.143  0.3995  0.7992 -0.5735
 3916SOL    HW223211   1.743   4.613   0.216 -0.7859  0.7392 -0.0511
 3917SOL     OW23212   2.501   0.203   8.419  0.2249 -0.6024  0.3770
 3917SOL    HW123213   2.527   0.294   8.438 -0.3496 -0.6914  1.5882
 3917SOL    HW223214   2.575   0.155   8.454  0.7735 -0.5159 -0.6595
 3918SOL     OW23215   1.037   3.993  13.372 -0.0668 -0.3711  0.1358
 3918SOL    HW123216   0.996   3.906  13.378  0.2784 -0.4941  0.6929
 3918SOL    HW223217   1.010   4.018  13.284 -1.1059 -3.9972 -0.5786
 3919SOL     OW23218   2.666   1.515   0.533  0.6817 -0.1148  0.3346
 3919SOL    HW123219   2.593   1.454   0.541  0.7545  0.1885  3.0409
 3919SOL    HW223220   2.633   1.595   0.572  1.7329 -0.2551  1.5135
 3920SOL     OW23221   4.165   2.529   7.167  0.3683 -0.1727 -0.8750
 3920SOL    HW123222   4.194   2.474   7.240 -0.0272  0.0435 -0.5525
 3920SOL    HW223223   4.247   2.514   7.119  0.7074  0.6225 -0.5449
 3921SOL     OW23224   0.208   2.690   7.484 -0.2152 -0.4056  0.8392
 3921SOL    HW123225   0.145   2.689   7.412  0.9634 -1.9098 -0.1867
 3921SOL    HW223226   0.170   2.615   7.530 -1.7679 -0.8560 -1.1705
 3922SOL     OW23227   3.829   1.248   0.208  0.3247  0.1653  0.9530
 3922SOL    HW123228   3.767   1.239   0.280 -1.0458  1.1727 -0.1096
 3922SOL    HW223229   3.892   1.316   0.232  1.6317 -1.1078  1.1189
 3923SOL     OW23230   1.030   2.018   1.637 -0.8733  0.8572 -0.0657
 3923SOL    HW123231   1.003   2.062   1.718 -0.7681  2.3554 -0.8490
 3923SOL    HW223232   0.969   2.060   1.576 -1.9209 -0.7912 -0.1484
 3924SOL     OW23233   1.588   1.439   0.802 -0.4209 -0.4315 -0.5364
 3924SOL    HW123234   1.574   1.366   0.862  0.2066  1.2298  1.6350
 3924SOL    HW223235   1.645   1.501   0.847 -0.6005 -0.7411  0.1224
 3925SOL     OW23236   4.503   0.145   3.607  0.4527  0.4008  0.2792
 3925SOL    HW123237   4.506   0.064   3.557  0.6558  0.5147  0.1045
 3925SOL    HW223238   4.433   0.184   3.555 -0.4981  1.0435  2.0211
 3926SOL     OW23239   3.493   1.920  14.745  0.1563 -0.6956 -0.0608
 3926SOL    HW123240   3.543   1.988  14.789  1.3705 -1.1192 -0.8021
 3926SOL    HW223241   3.502   1.845  14.805  1.3884 -0.5385 -0.0666
 3927SOL     OW23242   3.238   2.997   2.685 -0.0681 -0.5061  0.5127
 3927SOL    HW123243   3.297   2.940   2.734 -0.5292  0.3070  2.0059
 3927SOL    HW223244   3.153   2.981   2.726  0.0623 -0.3117  0.8572
 3928SOL     OW23245   4.016   3.363   7.561  1.0366 -0.0421  0.3889
 3928SOL    HW123246   3.974   3.354   7.475  1.1592 -0.1746  0.3423
 3928SOL    HW223247   4.102   3.329   7.537  1.6063  1.8565 -0.3035
 3929SOL     OW23248   3.273   3.103   9.980 -0.1115 -0.5037 -0.1920
 3929SOL    HW123249   3.222   3.022   9.976  2.1924 -1.9028 -0.8738
 3929SOL    HW223250   3.251   3.134  10.068  0.7606  1.1165 -0.5356
 3930SOL     OW23251   4.507   4.589   3.964  0.5322 -0.0664 -0.0059
 3930SOL    HW123252   4.510   4.678   3.929  0.6696  0.6373  1.7996
 3930SOL    HW223253   4.443   4.554   3.903 -0.8317  2.6667 -0.1565
 3931SOL     OW23254   3.272   1.800   8.683  0.3637  0.3626  0.4395
 3931SOL    HW123255   3.193   1.751   8.658 -0.6741  1.7011  1.0373
 3931SOL    HW223256   3.230   1.870   8.734  0.6507  0.3796  0.6481
 3932SOL     OW23257   2.259   2.173  16.534  0.0659  0.0930  0.2727
 3932SOL    HW123258   2.170   2.162  16.566  0.5413  3.3159  2.6620
 3932SOL    HW223259   2.267   2.082  16.506 -1.0693 -0.7514  2.7245
 3933SOL     OW23260   2.297   1.451   1.483 -0.2636 -0.1983 -0.0468
 3933SOL    HW123261   2.322   1.522   1.424 -1.4413  1.8580  1.9303
 3933SOL    HW223262   2.355   1.457   1.559 -0.8051 -0.5830  0.3979
 3934SOL     OW23263   0.885   2.824   0.305 -0.4180 -0.7642 -0.0415
 3934SOL    HW123264   0.901   2.759   0.374 -3.3129 -1.4405  0.0020
 3934SOL    HW223265   0.908   2.770   0.230  0.1402 -1.3218  0.5211
 3935SOL     OW23266   4.262   0.613  15.926 -0.0400 -0.3153  0.2619
 3935SOL    HW123267   4.234   0.529  15.964 -0.2049  0.0302  0.9191
 3935SOL    HW223268   4.219   0.665  15.994  0.4498 -1.1204  1.1932
 3936SOL     OW23269   1.641   3.992   5.123  0.0590  0.0543 -0.5496
 3936SOL    HW123270   1.715   4.009   5.065 -0.1594  1.3032 -0.4726
 3936SOL    HW223271   1.581   4.056   5.084 -1.1486 -1.2822 -0.8920
 3937SOL     OW23272   1.646   2.158   4.479  0.2286  0.1191  0.0995
 3937SOL    HW123273   1.703   2.106   4.535  0.1635  0.9990  0.9761
 3937SOL    HW223274   1.602   2.209   4.547  0.1210  1.9227 -1.3239
 3938SOL     OW23275   1.779   2.008  12.649 -0.1698  0.1310 -0.3406
 3938SOL    HW123276   1.782   2.064  12.571 -0.6591  1.4971  0.6288
 3938SOL    HW223277   1.855   1.954  12.624  1.3712  1.6638  1.0759
 3939SOL     OW23278   4.698   4.608  13.153  0.0968  0.1777 -0.3903
 3939SOL    HW123279   4.716   4.681  13.094 -1.9294  1.3963  0.5062
 3939SOL    HW223280   0.068   4.594  13.179  0.0303  0.4966  0.0071
 3940SOL     OW23281   4.703   1.067   2.515  0.0602  0.0838  0.5351
 3940SOL    HW123282   4.616   1.106   2.524 -0.1134 -0.2200  0.1769
 3940SOL    HW223283   0.018   1.118   2.442 -1.7698  0.9116  0.2293
 3941SOL     OW23284   1.262   4.082   7.204  0.2371  0.5002  0.6301
 3941SOL    HW123285   1.168   4.075   7.190  0.1780 -0.8888  1.6876
 3941SOL    HW223286   1.296   4.066   7.116 -2.8109  0.3510 -0.5051
 3942SOL     OW23287   1.661   1.668   5.104  0.3322 -0.0926 -0.1833
 3942SOL    HW123288   1.628   1.638   5.018  0.4498  0.2178 -0.3351
 3942SOL    HW223289   1.582   1.702   5.147  0.5075 -2.2567  1.8407
 3943SOL     OW23290   0.451   4.545   6.741  0.2596 -0.2590  0.0501
 3943SOL    HW123291   0.437   4.532   6.647 -0.6445  1.5966 -0.0716
 3943SOL    HW223292   0.459   4.458   6.780  3.8650  0.3834  0.7306
 3944SOL     OW23293   2.333   2.715   5.589  0.5047 -0.1198  0.4467
 3944SOL    HW123294   2.248   2.690   5.623  1.3051 -0.0962  2.4433
 3944SOL    HW223295   2.364   2.779   5.653 -0.6220 -0.4223  1.2910
 3945SOL     OW23296   3.793   3.340   5.472 -0.0347 -0.2502  0.2890
 3945SOL    HW123297   3.835   3.334   5.387 -1.5685 -1.5833 -0.3763
 3945SOL    HW223298   3.797   3.247   5.497 -0.7860  0.6228  3.7250
 3946SOL     OW23299   2.488   4.338   2.674 -0.5008  0.0624  0.5073
 3946SOL    HW123300   2.536   4.354   2.755  1.2176  0.6542 -0.6183
 3946SOL    HW223301   2.398   4.327   2.705 -0.9316  0.3728 -0.6305
 3947SOL     OW23302   0.398   4.217   4.163 -0.4263  0.1340 -0.1626
 3947SOL    HW123303   0.384   4.305   4.198  2.1499  0.0488  1.0924
 3947SOL    HW223304   0.408   4.236   4.070  0.3676  0.8611  0.0664
 3948SOL     OW23305   1.605   4.287  13.527 -0.2854  0.0383  0.2628
 3948SOL    HW123306   1.640   4.205  13.493 -2.0497 -0.6042  0.0090
 3948SOL    HW223307   1.512   4.278  13.505 -0.8800  3.4544  1.3327
 3949SOL     OW23308   4.190   1.307  16.885 -0.2293  0.1646  0.3187
 3949SOL    HW123309   4.220   1.305  16.794 -1.8821 -1.5812 -0.1782
 3949SOL    HW223310   4.222   1.223  16.918 -1.5505 -0.0911  0.9691
 3950SOL     OW23311   1.294   3.561   9.074 -0.0582 -0.1582  0.5107
 3950SOL    HW123312   1.268   3.505   9.148 -3.1830  2.3262  1.3024
 3950SOL    HW223313   1.299   3.492   9.008 -0.0925  0.6217 -0.3054
 3951SOL     OW23314   3.325   3.931  10.759  0.0571  0.1334 -0.6805
 3951SOL    HW123315   3.318   4.020  10.793  1.6720  1.1889 -3.1410
 3951SOL    HW223316   3.414   3.905  10.781 -0.5584 -0.7632  0.7590
 3952SOL     OW23317   3.237   2.367   0.851 -0.1820  0.2337 -0.4928
 3952SOL    HW123318   3.144   2.378   0.832 -0.7471 -2.8552  0.4628
 3952SOL    HW223319   3.271   2.303   0.788 -4.3011 -1.4264 -1.0104
 3953SOL     OW23320   0.412   2.222   6.584 -0.4800 -0.1942 -0.1405
 3953SOL    HW123321   0.379   2.241   6.672 -0.7422  4.6697 -1.2873
 3953SOL    HW223322   0.388   2.132   6.563 -0.3882  0.1923 -1.8544
 3954SOL     OW23323   2.281   1.909   3.664 -0.1332 -0.2196 -0.1108
 3954SOL    HW123324   2.322   1.867   3.740  1.4348  0.4005 -0.6173
 3954SOL    HW223325   2.343   1.894   3.593  2.0368 -0.7586  1.8906
 3955SOL     OW23326   2.681   2.880   3.611 -0.3573 -0.9228  0.3254
 3955SOL    HW123327   2.716   2.796   3.639  0.2813 -0.8967 -0.4025
 3955SOL    HW223328   2.643   2.845   3.530  0.8179  0.1674 -0.6969
 3956SOL     OW23329   2.172   0.350   6.663  0.2848 -0.1445 -0.2508
 3956SOL    HW123330   2.202   0.406   6.592  2.4313  0.9377  1.4836
 3956SOL    HW223331   2.254   0.325   6.706 -0.8357 -0.4960  1.6772
 3957SOL     OW23332   2.189   3.925   5.044  0.0074 -0.0594 -0.0137
 3957SOL    HW123333   2.248   3.992   5.009 -2.0325  1.7508  0.0403
 3957SOL    HW223334   2.153   3.968   5.122 -0.7901 -0.7496 -0.0013
 3958SOL     OW23335   2.010   4.140  15.939 -0.0877  0.3591 -0.5504
 3958SOL    HW123336   2.082   4.139  16.002 -1.3057 -3.5837  0.7747
 3958SOL    HW223337   2.020   4.053  15.902  1.2291  0.3183 -0.1117
 3959SOL     OW23338   0.366   1.564   0.969  0.2890 -0.6903 -0.0832
 3959SOL    HW123339   0.379   1.630   1.037 -1.6932 -2.4060  2.0054
 3959SOL    HW223340   0.300   1.509   1.013  0.9402 -0.9018  0.6216
 3960SOL     OW23341   4.345   0.276  15.704  0.3303 -0.3593  0.2471
 3960SOL    HW123342   4.398   0.338  15.755 -0.4605 -0.7694  1.5777
 3960SOL    HW223343   4.387   0.280  15.618  0.1278 -1.8511  0.0868
 3961SOL     OW23344   2.635   1.492  11.376 -0.0103 -0.7196 -0.2396
 3961SOL    HW123345   2.622   1.587  11.376  3.6262 -0.2519 -0.1856
 3961SOL    HW223346   2.633   1.479  11.470 -1.0606  0.5193 -0.0790
 3962SOL     OW23347   2.787   1.069   9.152  0.3794  0.1363  0.2565
 3962SOL    HW123348   2.715   1.005   9.154  0.2240  0.3284  0.7208
 3962SOL    HW223349   2.862   1.023   9.115 -0.1657 -0.4267 -0.1535
 3963SOL     OW23350   0.562   3.150  16.923 -0.3201  0.2234  0.0438
 3963SOL    HW123351   0.592   3.072  16.971 -3.1550 -0.7547  0.2084
 3963SOL    HW223352   0.542   3.110  16.839 -2.5456 -1.2412  1.2570
 3964SOL     OW23353   4.305   0.613   2.672 -0.0792 -0.2359  0.5737
 3964SOL    HW123354   4.237   0.569   2.723  1.9271 -1.1445  2.4360
 3964SOL    HW223355   4.307   0.565   2.590 -1.1355 -0.1269  0.4777
 3965SOL     OW23356   2.092   3.137   3.211  0.0392 -0.5050 -0.3881
 3965SOL    HW123357   2.151   3.211   3.201 -1.7194  0.8195 -0.8738
 3965SOL    HW223358   2.096   3.118   3.305  1.3739  0.7858 -0.1876
 3966SOL     OW23359   1.412   1.701   3.792  0.0641  0.2325  0.4191
 3966SOL    HW123360   1.506   1.688   3.802 -0.2775 -1.2342  1.7166
 3966SOL    HW223361   1.412   1.738   3.704 -1.5498 -0.1080  0.2761
 3967SOL     OW23362   3.827   3.850   8.009  0.5939 -0.4930 -0.1929
 3967SOL    HW123363   3.789   3.764   7.991  0.6686 -0.8348  1.3253
 3967SOL    HW223364   3.865   3.874   7.924  2.0009  1.7975  1.0962
 3968SOL     OW23365   2.193   4.545  14.239  0.2945  0.5469  0.5629
 3968SOL    HW123366   2.259   4.595  14.287  1.0958 -0.2670  0.3048
 3968SOL    HW223367   2.249   4.496  14.179  0.7971  0.9580  0.6944
 3969SOL     OW23368   4.113   1.438  13.916 -0.0622 -0.5354  0.4281
 3969SOL    HW123369   4.206   1.425  13.933  0.0554  1.4630  1.2449
 3969SOL    HW223370   4.115   1.509  13.851  3.2845 -1.8879 -0.9263
 3970SOL     OW23371   2.918   1.714   9.385  0.1255 -0.1965 -0.5595
 3970SOL    HW123372   2.852   1.763   9.336  0.4261  1.5625  0.8064
 3970SOL    HW223373   2.978   1.782   9.416  1.0492 -1.1711 -0.2113
 3971SOL     OW23374   4.523   2.416   7.192  0.0877 -0.0888 -0.4527
 3971SOL    HW123375   4.614   2.385   7.186  0.1927  0.4002 -1.4616
 3971SOL    HW223376   4.517   2.506   7.158 -0.4732  0.4975  1.2065
 3972SOL     OW23377   0.312   3.838   5.322 -0.7446 -0.5922  0.5140
 3972SOL    HW123378   0.366   3.904   5.366 -0.4190  0.7431 -1.8732
 3972SOL    HW223379   0.356   3.822   5.239 -0.9053 -2.6712  0.8291
 3973SOL     OW23380   4.140   1.848  15.530 -0.3097  0.0135 -0.1642
 3973SOL    HW123381   4.234   1.840  15.513 -0.3853 -1.2153  0.0099
 3973SOL    HW223382   4.149   1.835  15.624 -1.5234 -3.1523 -0.5035
 3974SOL     OW23383   0.656   3.487  12.284 -0.6041 -0.3588  0.6009
 3974SOL    HW123384   0.689   3.426  12.218 -0.2566 -1.1293  1.4833
 3974SOL    HW223385   0.693   3.463  12.370  0.3749  0.1477  0.3168
 3975SOL     OW23386   3.434   3.587  11.880  0.0451  0.2083 -0.4465
 3975SOL    HW123387   3.397   3.535  11.808 -0.1893 -1.5282  0.9251
 3975SOL    HW223388   3.520   3.602  11.840 -0.2290  1.7821 -0.4402
 3976SOL     OW23389   2.643   1.866  13.482 -0.1455  0.3277  0.5152
 3976SOL    HW123390   2.635   1.944  13.536 -0.7441  1.1366 -0.7513
 3976SOL    HW223391   2.558   1.865  13.438 -0.1717  1.5466  0.5534
 3977SOL     OW23392   0.742   0.221  11.677  0.1887 -0.5179  0.1016
 3977SOL    HW123393   0.726   0.315  11.670  0.2250 -0.4780  0.5734
 3977SOL    HW223394   0.821   0.222  11.732  0.8718  1.0278 -0.9320
 3978SOL     OW23395   1.942   2.743   3.396  0.0753 -0.2253  0.2932
 3978SOL    HW123396   1.861   2.700   3.367  0.8019 -2.8976  2.1991
 3978SOL    HW223397   1.938   2.723   3.490  0.3144 -0.2965  0.2890
 3979SOL     OW23398   1.987   2.713   3.897  0.3537  0.0476 -0.2494
 3979SOL    HW123399   1.938   2.795   3.897 -2.4197 -1.5980 -0.7541
 3979SOL    HW223400   1.988   2.698   3.802 -1.3455 -0.0710 -0.2579
 3980SOL     OW23401   4.027   0.113   4.440  0.7008  0.3386 -0.4883
 3980SOL    HW123402   4.067   0.076   4.363  0.4939 -1.4046  0.2494
 3980SOL    HW223403   4.092   0.083   4.503 -1.5360 -2.5527  0.4410
 3981SOL     OW23404   2.287   0.471   0.640 -0.4115  0.3653 -0.3247
 3981SOL    HW123405   2.229   0.517   0.701 -0.5449 -1.3433  0.8422
 3981SOL    HW223406   2.227   0.422   0.584  2.4465 -1.7069 -1.5421
 3982SOL     OW23407   0.564   4.236   6.991 -0.0856  0.6492  0.0535
 3982SOL    HW123408   0.539   4.233   6.898 -1.2985 -1.5449  0.4472
 3982SOL    HW223409   0.595   4.145   6.986  0.0507  0.8669 -3.0070
 3983SOL     OW23410   4.125   3.905   4.380  0.2937  0.6200  0.1658
 3983SOL    HW123411   4.090   3.972   4.439  0.1750 -0.5460  1.4221
 3983SOL    HW223412   4.112   3.832   4.441 -0.3525  1.2796  0.8169
 3984SOL     OW23413   1.178   0.875   5.992  0.3421  0.2679 -0.9207
 3984SOL    HW123414   1.220   0.790   5.983 -0.9735 -0.1933 -2.6957
 3984SOL    HW223415   1.219   0.920   6.065  0.4232 -2.1532  0.5108
 3985SOL     OW23416   3.094   4.437   5.445 -0.7120 -0.0908 -0.2085
 3985SOL    HW123417   3.160   4.491   5.402 -0.2874 -0.3059  0.1712
 3985SOL    HW223418   3.130   4.422   5.533  1.2233 -0.0064 -1.0114
 3986SOL     OW23419   1.192   3.968   8.630  0.5974 -0.1990  0.0905
 3986SOL    HW123420   1.287   3.983   8.631  0.7475 -1.1893  0.4915
 3986SOL    HW223421   1.174   3.953   8.537 -1.1005  0.6040  0.2845
 3987SOL     OW23422   3.430   2.487   7.184 -0.0908  0.1868 -0.4742
 3987SOL    HW123423   3.505   2.493   7.125  2.3185 -3.2548  2.2003
 3987SOL    HW223424   3.366   2.524   7.123 -1.6589 -0.9962  0.4544
 3988SOL     OW23425   1.882   1.447   5.674 -0.0086  0.2912  0.6921
 3988SOL    HW123426   1.961   1.445   5.727 -0.0854  0.0563  0.7956
 3988SOL    HW223427   1.831   1.516   5.717 -1.3271 -0.3140  0.1210
 3989SOL     OW23428   2.050   3.238   4.491 -0.2516  0.5923 -0.1165
 3989SOL    HW123429   2.043   3.228   4.396 -3.6179 -1.0877  0.3279
 3989SOL    HW223430   2.128   3.294   4.496  0.6678 -0.5278 -2.0377
 3990SOL     OW23431   2.481   0.602   4.868  0.6673 -0.1414 -0.4309
 3990SOL    HW123432   2.430   0.522   4.877  0.3601  0.1768  0.6279
 3990SOL    HW223433   2.565   0.568   4.898  0.5051  0.0396  0.2371
 3991SOL     OW23434   4.570   0.038  16.963 -0.1450  0.6339  0.0616
 3991SOL    HW123435   4.479   0.067  16.978 -0.9784 -1.2367 -1.4525
 3991SOL    HW223436   4.545   4.690  16.902 -0.9764  1.2894 -0.3489
 3992SOL     OW23437   0.273   0.169   5.722 -0.3231 -0.0835  0.0596
 3992SOL    HW123438   0.234   0.257   5.727 -1.5819 -0.5821 -1.0517
 3992SOL    HW223439   0.364   0.197   5.707 -0.2930 -0.1748  0.0746
 3993SOL     OW23440   4.174   4.561  16.741 -0.2976  0.2282 -0.2058
 3993SOL    HW123441   4.216   4.636  16.699 -0.9254  0.6398 -0.1113
 3993SOL    HW223442   4.120   4.535  16.666 -0.9648 -1.2164  0.7690
 3994SOL     OW23443   0.262   4.001   7.484  0.5388  0.1444 -0.8333
 3994SOL    HW123444   0.297   3.928   7.433  1.8604  1.5806 -1.9879
 3994SOL    HW223445   0.339   4.044   7.520 -0.4509  0.4126  0.9769
 3995SOL     OW23446   4.605   2.608   8.881  0.2684  0.2057  0.6112
 3995SOL    HW123447   4.686   2.612   8.931  0.2601 -1.1088  0.7513
 3995SOL    HW223448   4.581   2.515   8.891 -0.5604  0.4125  0.5414
 3996SOL     OW23449   1.523   2.117  11.055 -0.2170  0.1821  0.0438
 3996SOL    HW123450   1.547   2.188  10.995  0.5130  0.0737  0.2020
 3996SOL    HW223451   1.556   2.044  11.003 -3.1233  0.2281 -1.8724
 3997SOL     OW23452   0.863   0.741   5.197 -0.0683 -0.2547 -0.0496
 3997SOL    HW123453   0.783   0.691   5.182 -0.3498 -0.6843  2.8778
 3997SOL    HW223454   0.818   0.822   5.219  0.8277  0.3467 -0.4434
 3998SOL     OW23455   2.286   3.119   7.686 -0.4600 -0.4224  0.1610
 3998SOL    HW123456   2.203   3.128   7.732 -1.0164  0.4045 -0.9926
 3998SOL    HW223457   2.295   3.193   7.627  0.8699 -1.5237 -1.0349
 3999SOL     OW23458   1.098   0.056   2.583 -0.2622 -0.6207  0.4805
 3999SOL    HW123459   1.009   0.042   2.550 -0.2773  4.4550 -1.7045
 3999SOL    HW223460   1.100   4.709   2.650  0.4213 -1.1959 -0.1177
 4000SOL     OW23461   3.648   1.753   1.143 -0.2265 -0.2265  0.0210
 4000SOL    HW123462   3.702   1.741   1.221  1.1514 -0.1714 -0.9203
 4000SOL    HW223463   3.712   1.757   1.073 -0.5464 -1.5292 -0.3511
 4001SOL     OW23464   1.889   2.936  13.481 -0.1475  0.3831  0.2374
 4001SOL    HW123465   1.881   3.030  13.500  0.6266  0.6523 -0.7699
 4001SOL    HW223466   1.978   2.944  13.446 -1.5289  0.5508 -3.3106
 4002SOL     OW23467   3.145   3.692   8.866  0.0143  0.0696  0.4536
 4002SOL    HW123468   3.240   3.690   8.880  0.5024 -3.1616 -3.2457
 4002SOL    HW223469   3.143   3.778   8.825 -2.2533 -0.4253 -0.4546
 4003SOL     OW23470   1.117   1.619  10.718 -0.1074 -0.4612  0.0902
 4003SOL    HW123471   1.034   1.653  10.685  0.2882  0.4810  0.0803
 4003SOL    HW223472   1.090   1.544  10.771  0.8316 -1.4072 -0.7638
 4004SOL     OW23473   2.736   2.042  17.561 -0.1605 -0.4536 -0.5689
 4004SOL    HW123474   2.788   2.079  17.633  1.4265 -2.8273 -0.4980
 4004SOL    HW223475   2.808   2.023  17.501  0.1268  0.7136 -0.5868
 4005SOL     OW23476   2.731   1.276   4.108  0.5686  0.1428  0.8516
 4005SOL    HW123477   2.693   1.333   4.175 -0.0352  1.6358 -0.7844
 4005SOL    HW223478   2.731   1.336   4.033  3.1434  0.7652  1.3491
 4006SOL     OW23479   2.948   3.426   4.688 -0.5200 -0.1715  0.1862
 4006SOL    HW123480   3.030   3.436   4.737 -0.8339  0.1445  0.6527
 4006SOL    HW223481   2.890   3.382   4.750 -1.9608  2.9705  1.1001
 4007SOL     OW23482   3.647   2.111   9.705  0.2965  0.5159  0.2767
 4007SOL    HW123483   3.603   2.038   9.748  0.0678  1.6763  2.0107
 4007SOL    HW223484   3.727   2.069   9.672 -0.1305  0.6079 -0.8707
 4008SOL     OW23485   1.460   1.174  13.605 -0.0122 -0.1181 -0.3041
 4008SOL    HW123486   1.500   1.242  13.551 -0.0032 -1.0089 -1.4162
 4008SOL    HW223487   1.454   1.220  13.689 -0.7666 -0.4585 -0.1715
 4009SOL     OW23488   3.944   3.264   5.261 -0.1928  0.1747 -0.5698
 4009SOL    HW123489   4.013   3.219   5.212 -0.8711  1.1530 -2.4647
 4009SOL    HW223490   3.979   3.352   5.243 -2.1163  0.9627 -0.3806
 4010SOL     OW23491   4.515   3.944   8.589 -0.2089  0.2605  0.2292
 4010SOL    HW123492   4.566   4.025   8.595  1.6586 -0.9802  1.0944
 4010SOL    HW223493   4.583   3.887   8.553 -0.6822  0.9307 -1.7102
 4011SOL     OW23494   3.686   1.960   9.319  0.7542  0.3726  0.1924
 4011SOL    HW123495   3.671   1.907   9.240 -1.8924 -1.1488  1.6910
 4011SOL    HW223496   3.684   2.049   9.284  2.4315  0.6669  0.8793
 4012SOL     OW23497   1.205   2.568   9.631  0.2251 -0.0427  0.3126
 4012SOL    HW123498   1.162   2.536   9.710  0.4912  0.3034  0.5990
 4012SOL    HW223499   1.141   2.634   9.606 -1.4346 -1.2031  1.4774
 4013SOL     OW23500   0.882   2.147   3.796 -0.3924 -0.3803 -0.2418
 4013SOL    HW123501   0.815   2.086   3.825  0.3322 -1.4475 -0.8166
 4013SOL    HW223502   0.863   2.234   3.832 -2.6081 -1.5200  1.3027
 4014SOL     OW23503   2.061   0.354  15.781 -0.4121 -0.0914 -0.0474
 4014SOL    HW123504   1.971   0.321  15.783 -1.3409  2.5144  0.1132
 4014SOL    HW223505   2.045   0.438  15.824 -3.1400  0.0353 -1.3298
 4015SOL     OW23506   2.772   1.957  11.822 -0.4603 -0.4392 -0.3350
 4015SOL    HW123507   2.768   2.049  11.847 -1.2764 -1.2175  2.4158
 4015SOL    HW223508   2.686   1.933  11.855 -0.3478  0.6202  0.6998
 4016SOL     OW23509   3.128   2.174   7.957 -0.2499  0.1561  0.1881
 4016SOL    HW123510   3.059   2.185   7.892  0.0276  0.8085  0.0037
 4016SOL    HW223511   3.098   2.233   8.026 -0.9068 -0.4982  0.4684
 4017SOL     OW23512   2.903   0.069   0.025 -0.1130 -0.1520 -0.0361
 4017SOL    HW123513   2.879   0.146   0.076  0.0653  0.2377 -0.5432
 4017SOL    HW223514   2.924   0.098  17.622 -0.2073  1.7963  0.5876
 4018SOL     OW23515   1.518   4.572   6.796 -0.8858 -0.8532  0.4166
 4018SOL    HW123516   1.564   4.631   6.857 -1.1031 -0.7385  0.4715
 4018SOL    HW223517   1.456   4.523   6.850  0.2288 -1.3377  1.2576
 4019SOL     OW23518   0.554   1.572   7.356 -0.5926  0.3809 -0.2339
 4019SOL    HW123519   0.481   1.578   7.418 -1.4698 -1.3416 -1.0928
 4019SOL    HW223520   0.626   1.589   7.417  1.4910  1.0814 -2.9054
 4020SOL     OW23521   4.261   0.875  14.679  0.0998  0.0501 -0.2705
 4020SOL    HW123522   4.276   0.967  14.657  1.6952 -0.2849 -0.6132
 4020SOL    HW223523   4.349   0.839  14.690  0.2547  0.5142  0.0477
 4021SOL     OW23524   1.428   2.607   2.478  0.2008 -0.5125 -0.3606
 4021SOL    HW123525   1.379   2.625   2.558  0.5211  0.0780 -0.2919
 4021SOL    HW223526   1.393   2.525   2.443 -2.1760  2.4409 -5.0250
 4022SOL     OW23527   1.474   0.636   4.103  0.3145 -0.0812  0.3550
 4022SOL    HW123528   1.562   0.662   4.075 -0.3477 -1.5325 -2.9415
 4022SOL    HW223529   1.417   0.623   4.028  1.3522 -1.0267 -0.2628
 4023SOL     OW23530   3.806   1.095   5.658  0.0148  0.6274 -0.8230
 4023SOL    HW123531   3.840   1.141   5.735 -2.0438  1.8465 -0.6531
 4023SOL    HW223532   3.835   1.004   5.668 -0.7738  0.6098  1.3666
 4024SOL     OW23533   3.404   3.192   0.188  0.3207  0.6946  0.0809
 4024SOL    HW123534   3.324   3.140   0.176  1.0309  0.4559 -3.4686
 4024SOL    HW223535   3.447   3.161   0.109 -1.8201 -0.7715 -0.5132
 4025SOL     OW23536   0.373   4.214   3.467 -0.3101  0.4698  0.3221
 4025SOL    HW123537   0.411   4.301   3.471  0.9529 -0.0110 -0.9209
 4025SOL    HW223538   0.422   4.194   3.387 -2.2706 -0.5789 -0.6298
 4026SOL     OW23539   1.737   2.006  11.493  0.2112 -0.1931 -0.2407
 4026SOL    HW123540   1.763   2.001  11.401 -0.8742 -0.6787 -0.5213
 4026SOL    HW223541   1.648   2.040  11.479  1.0595  1.4130 -1.8041
 4027SOL     OW23542   4.126   4.048   7.980  0.0620  0.1332  0.5323
 4027SOL    HW123543   4.066   4.114   8.014 -2.0410 -0.8618 -1.2864
 4027SOL    HW223544   4.195   4.059   8.046  1.9315  2.4395 -1.8488
 4028SOL     OW23545   2.304   3.161  13.534  0.0703  0.4488 -0.9231
 4028SOL    HW123546   2.339   3.102  13.600  1.6406  0.7896 -1.4551
 4028SOL    HW223547   2.284   3.234  13.592  2.1890  1.9455 -2.0696
 4029SOL     OW23548   1.756   3.349  16.834 -0.0853  0.2523 -1.1498
 4029SOL    HW123549   1.732   3.261  16.805 -0.4810 -0.2898  0.7718
 4029SOL    HW223550   1.704   3.360  16.914 -0.6211  1.5125 -1.6759
 4030SOL     OW23551   2.075   2.201   7.324 -0.1411 -0.5651  0.3289
 4030SOL    HW123552   1.981   2.218   7.323 -0.5755 -3.0544 -1.5577
 4030SOL    HW223553   2.073   2.130   7.389  0.9206 -0.5738  0.3448
 4031SOL     OW23554   2.671   4.673   4.339 -0.4799  0.3571 -0.4224
 4031SOL    HW123555   2.701   4.689   4.429  0.5014 -0.1200 -0.6700
 4031SOL    HW223556   2.586   4.715   4.327 -1.5072 -1.8707 -0.9544
 4032SOL     OW23557   4.389   2.889   7.712  0.2367 -0.2880  0.2001
 4032SOL    HW123558   4.325   2.960   7.719  1.2951  0.6816  0.0554
 4032SOL    HW223559   4.372   2.859   7.622  1.5080 -1.1311  0.2467
 4033SOL     OW23560   2.806   2.018   4.101  0.4144  0.5149  0.0761
 4033SOL    HW123561   2.805   2.078   4.175  0.2367 -0.2560  0.7081
 4033SOL    HW223562   2.726   2.053   4.061  0.4373  2.9426  2.1758
 4034SOL     OW23563   0.135   4.708   0.033  0.0249 -0.5857 -0.5286
 4034SOL    HW123564   0.069   0.055   0.043  0.6871  0.2192 -1.6594
 4034SOL    HW223565   0.207   0.037  17.679  0.1175  0.5574  1.0601
 4035SOL     OW23566   3.774   1.482   1.207  0.2213  0.0183  0.2966
 4035SOL    HW123567   3.830   1.533   1.266  0.3821 -0.8644  0.9135
 4035SOL    HW223568   3.810   1.490   1.119  0.4701 -2.2482  0.2050
 4036SOL     OW23569   0.393   0.139   8.475  0.2913 -0.0923  0.3848
 4036SOL    HW123570   0.452   0.193   8.528 -0.7804  2.9897 -1.6183
 4036SOL    HW223571   0.342   0.203   8.426 -1.4003 -0.1746  2.0427
 4037SOL     OW23572   3.709   3.816   5.045 -0.0112 -0.3809 -0.1852
 4037SOL    HW123573   3.751   3.798   5.129  1.7169 -1.0893 -1.1835
 4037SOL    HW223574   3.706   3.729   5.005 -2.5470 -0.4445  0.1619
 4038SOL     OW23575   4.482   4.488   1.990  0.2562 -0.2924 -0.2065
 4038SOL    HW123576   4.396   4.524   2.011  0.1980  0.1245 -1.1484
 4038SOL    HW223577   4.536   4.567   2.003  2.2377 -1.3657 -1.9988
 4039SOL     OW23578   3.794   1.325   3.864  0.1709  0.3868  0.5664
 4039SOL    HW123579   3.809   1.419   3.861  1.4643  0.0767 -2.3927
 4039SOL    HW223580   3.855   1.292   3.797 -3.8674 -0.0086 -2.8914
 4040SOL     OW23581   2.983   1.176  13.139  0.6124 -0.4708  0.8727
 4040SOL    HW123582   2.904   1.162  13.191 -2.7395  0.6253 -3.8722
 4040SOL    HW223583   2.981   1.271  13.145 -3.3968 -0.4456 -0.8141
 4041SOL     OW23584   0.235   0.577  15.374 -0.1663 -0.3082  0.1770
 4041SOL    HW123585   0.252   0.626  15.455 -1.5868 -0.4505  0.5621
 4041SOL    HW223586   0.262   0.645  15.312  1.0078 -1.8217 -0.9815
 4042SOL     OW23587   0.160   1.092   9.316  0.4220 -0.2082  0.3898
 4042SOL    HW123588   0.242   1.100   9.364 -0.7052  0.8356  2.1190
 4042SOL    HW223589   0.115   1.025   9.367 -1.8572  1.8043  1.0450
 4043SOL     OW23590   2.372   0.261   6.793 -0.1974 -0.5653 -0.9980
 4043SOL    HW123591   2.412   0.292   6.875 -1.7725  1.0083 -0.8158
 4043SOL    HW223592   2.444   0.215   6.751  0.9631  0.6681 -0.3845
 4044SOL     OW23593   1.144   1.242   5.131 -0.6766 -0.9141  0.0739
 4044SOL    HW123594   1.117   1.329   5.099  0.5883 -0.1472  1.1009
 4044SOL    HW223595   1.227   1.222   5.087  0.0982 -0.1751  1.2148
 4045SOL     OW23596   4.486   3.160   7.491 -0.2840  0.2332 -0.0368
 4045SOL    HW123597   4.544   3.231   7.518 -0.9245  0.4932  0.6667
 4045SOL    HW223598   4.549   3.105   7.445 -0.9513 -0.5288 -0.0399
 4046SOL     OW23599   1.539   2.889   4.534 -0.7611  0.1985  0.5166
 4046SOL    HW123600   1.610   2.926   4.585  1.0144 -0.8403 -1.1781
 4046SOL    HW223601   1.487   2.968   4.528  1.3454  1.5277 -0.3083
 4047SOL     OW23602   3.755   4.223   3.870 -0.2848 -0.0884 -0.3619
 4047SOL    HW123603   3.740   4.317   3.876  0.8744  0.1338 -0.9324
 4047SOL    HW223604   3.709   4.197   3.950 -2.0372  0.1737 -1.2756
 4048SOL     OW23605   0.629   4.380   2.260  0.1232  0.3567 -0.3018
 4048SOL    HW123606   0.612   4.309   2.322  0.8269 -0.2044 -0.7618
 4048SOL    HW223607   0.592   4.457   2.304  0.1056  0.8725 -1.2129
 4049SOL     OW23608   2.403   2.896   2.478 -0.2950  0.0536  0.2544
 4049SOL    HW123609   2.336   2.953   2.515  1.2815  1.2580  1.2570
 4049SOL    HW223610   2.440   2.944   2.404  1.1545 -1.0441  0.2516
 4050SOL     OW23611   3.243   2.928   3.677  0.0193  0.5494  0.4543
 4050SOL    HW123612   3.258   2.861   3.610 -1.2740  1.9076 -1.1951
 4050SOL    HW223613   3.234   3.002   3.617 -0.1121 -1.0567 -1.5245
 4051SOL     OW23614   3.207   1.312  16.847 -0.0043  0.0621 -0.0053
 4051SOL    HW123615   3.248   1.371  16.911  1.0431  0.5842 -1.1689
 4051SOL    HW223616   3.236   1.226  16.879  1.6612  0.1092 -1.4502
 4052SOL     OW23617   3.472   3.718   5.560  0.1511 -0.2244 -0.1171
 4052SOL    HW123618   3.386   3.679   5.544  0.0832 -0.0222 -0.2440
 4052SOL    HW223619   3.531   3.687   5.491  0.7508 -1.4560  0.9358
 4053SOL     OW23620   0.796   4.315   9.140  0.3392 -0.4170  0.3067
 4053SOL    HW123621   0.801   4.310   9.045  1.2371  0.1364  0.3262
 4053SOL    HW223622   0.853   4.390   9.160 -1.4006  1.1413 -0.6008
 4054SOL     OW23623   0.216   1.376   5.434 -0.5039 -0.1810 -0.4283
 4054SOL    HW123624   0.197   1.414   5.348 -2.3044 -0.6867 -0.2697
 4054SOL    HW223625   0.167   1.434   5.492  1.3938  0.3429  0.6356
 4055SOL     OW23626   1.714   1.498   5.347  0.3870  0.8269 -0.0317
 4055SOL    HW123627   1.657   1.426   5.320 -0.6919  1.7832 -0.3181
 4055SOL    HW223628   1.754   1.528   5.265  1.8323 -0.8145  0.0831
 4056SOL     OW23629   1.557   0.214   8.947 -0.4389 -0.1546  0.3852
 4056SOL    HW123630   1.462   0.211   8.957 -0.4452 -0.8247  0.1142
 4056SOL    HW223631   1.575   0.307   8.929 -0.9727 -0.0062  0.6134
 4057SOL     OW23632   2.843   2.592  12.743 -0.8965 -0.5367  0.3686
 4057SOL    HW123633   2.934   2.617  12.729 -0.7260 -0.3180  1.8822
 4057SOL    HW223634   2.849   2.624  12.833 -1.4290  0.3686  0.0717
 4058SOL     OW23635   2.199   4.695  17.395  0.3731  0.2337 -0.4520
 4058SOL    HW123636   2.256   0.041  17.433 -0.3855  0.0369  1.0450
 4058SOL    HW223637   2.217   4.706  17.302 -0.1773 -1.1092 -0.7156
 4059SOL     OW23638   2.609   2.231   2.697 -0.0722 -0.2818 -0.0547
 4059SOL    HW123639   2.663   2.283   2.638 -0.6270  3.2792  2.5839
 4059SOL    HW223640   2.533   2.289   2.691 -0.3016 -0.4262  1.4360
 4060SOL     OW23641   1.910   0.169   5.744  0.2503 -0.3686  0.0303
 4060SOL    HW123642   1.874   0.154   5.831  1.1997  1.9000  0.7998
 4060SOL    HW223643   1.905   0.265   5.747 -0.0227 -0.3214 -1.5715
 4061SOL     OW23644   2.648   0.845   6.645  0.0245  0.0969  0.1007
 4061SOL    HW123645   2.652   0.760   6.602 -0.8219  0.3069 -0.3834
 4061SOL    HW223646   2.719   0.837   6.709 -0.4157 -0.5497  0.5039
 4062SOL     OW23647   2.928   1.412   8.520  0.1309  0.2505 -0.1314
 4062SOL    HW123648   2.965   1.367   8.596  3.1201 -1.9772 -2.9614
 4062SOL    HW223649   2.840   1.419   8.557 -0.6882 -3.6360 -1.3589
 4063SOL     OW23650   0.525   1.490  17.642  0.4116 -0.4038  0.2842
 4063SOL    HW123651   0.469   1.422  17.605 -0.3059  1.2690 -1.7102
 4063SOL    HW223652   0.467   1.545   0.009 -0.0368  0.0872 -0.7259
 4064SOL     OW23653   1.405   1.762   3.514  0.3191  0.2358  0.3383
 4064SOL    HW123654   1.310   1.779   3.514 -0.2482 -2.8787 -1.1275
 4064SOL    HW223655   1.406   1.686   3.456 -0.7659  0.6341 -0.2061
 4065SOL     OW23656   2.302   0.096   1.347 -0.4807  0.4407 -0.3610
 4065SOL    HW123657   2.303   0.173   1.290 -0.4380  0.7243  0.0281
 4065SOL    HW223658   2.245   0.037   1.298 -1.3451 -0.2836  1.5117
 4066SOL     OW23659   4.479   1.099   8.303 -0.3661  0.1829 -0.4887
 4066SOL    HW123660   4.504   1.192   8.308 -1.7934  0.5359  0.0068
 4066SOL    HW223661   4.385   1.115   8.298 -0.5077 -0.3965  0.2816
 4067SOL     OW23662   3.857   0.983  17.633 -0.5558 -0.0355  0.1901
 4067SOL    HW123663   3.809   0.903  17.652 -1.3946 -0.2817 -3.0872
 4067SOL    HW223664   3.932   0.956  17.579 -1.1800  2.3873 -1.8656
 4068SOL     OW23665   1.057   0.783   1.676  0.4177 -0.2614  0.0633
 4068SOL    HW123666   1.029   0.703   1.630 -1.1574 -0.6841  1.7702
 4068SOL    HW223667   1.118   0.825   1.615 -0.9689  0.5699 -0.7543
 4069SOL     OW23668   0.082   0.075   4.409 -0.1286 -0.0548  0.5108
 4069SOL    HW123669   0.062   0.080   4.315  0.2685  0.4161  0.4527
 4069SOL    HW223670   0.056   4.704   4.416 -1.6085  0.1229 -2.2793
 4070SOL     OW23671   4.365   3.703   6.373  0.0743 -0.0006  0.2451
 4070SOL    HW123672   4.396   3.693   6.283  1.5609 -4.5055  1.2746
 4070SOL    HW223673   4.415   3.782   6.389  0.8347 -1.0024  2.7665
 4071SOL     OW23674   2.285   3.019   8.626 -0.0634  0.2014  0.0021
 4071SOL    HW123675   2.372   3.059   8.622 -0.6351  1.4108 -0.2709
 4071SOL    HW223676   2.266   2.984   8.539  0.2177  0.4202 -0.1491
 4072SOL     OW23677   2.566   0.086  14.501  0.0580  0.2839 -0.1931
 4072SOL    HW123678   2.533   0.001  14.470 -0.8356  0.7518 -0.5197
 4072SOL    HW223679   2.499   0.151  14.484 -3.8005 -3.5781  0.2018
 4073SOL     OW23680   4.316   2.769  12.030 -0.4425 -0.0684 -0.2452
 4073SOL    HW123681   4.363   2.712  12.089 -0.5729 -0.3997 -0.4615
 4073SOL    HW223682   4.272   2.830  12.090  3.3937  0.5921  1.8978
 4074SOL     OW23683   1.726   0.378   3.972 -0.1620  0.6515 -0.4097
 4074SOL    HW123684   1.754   0.448   4.031  1.4453  0.1725 -0.5890
 4074SOL    HW223685   1.739   0.414   3.885  0.9300 -0.4481 -0.7015
 4075SOL     OW23686   1.189   0.442   4.796  0.2707  0.9935  0.4611
 4075SOL    HW123687   1.198   0.362   4.848  1.1525  1.2401  0.7016
 4075SOL    HW223688   1.144   0.505   4.852 -1.8223 -0.8175  0.7722
 4076SOL     OW23689   3.457   4.646   3.863  0.5871 -0.9385 -0.0897
 4076SOL    HW123690   3.467   4.603   3.947 -2.5070 -2.2493 -0.4126
 4076SOL    HW223691   3.420   4.574   3.811  0.6206 -0.3550 -0.9316
 4077SOL     OW23692   0.379   1.901   8.127 -0.4803 -0.2016 -0.1044
 4077SOL    HW123693   0.322   1.924   8.201  0.5544  0.0381  0.6244
 4077SOL    HW223694   0.336   1.972   8.079 -0.2598  0.3067  0.4383
 4078SOL     OW23695   1.571   4.575   8.300 -0.4229 -0.0785  0.4666
 4078SOL    HW123696   1.559   4.650   8.243  0.3739 -0.2243  0.1099
 4078SOL    HW223697   1.590   4.511   8.232 -1.1370  0.6690 -0.4386
 4079SOL     OW23698   2.461   3.748  17.387 -0.0700  0.2769  0.3158
 4079SOL    HW123699   2.414   3.744  17.304 -0.0736 -0.7965  0.3755
 4079SOL    HW223700   2.386   3.761  17.445 -1.4782 -2.7413 -0.8306
 4080SOL     OW23701   1.383   0.990   7.912 -0.6959 -0.2358 -0.3971
 4080SOL    HW123702   1.375   1.085   7.914  1.0825 -0.1028 -0.0445
 4080SOL    HW223703   1.359   0.966   8.002 -0.6453  0.7607 -0.1207
 4081SOL     OW23704   3.324   3.060  10.399 -0.2915  0.3204 -0.1505
 4081SOL    HW123705   3.417   3.071  10.378  0.0640 -0.4951  0.9214
 4081SOL    HW223706   3.282   3.115  10.334  1.9279  4.2890  1.8009
 4082SOL     OW23707   3.886   2.717  16.571  0.4096 -0.2859 -0.2330
 4082SOL    HW123708   3.803   2.728  16.618  0.8126  3.6874 -0.4604
 4082SOL    HW223709   3.891   2.621  16.571 -0.7755 -0.3492  0.3825
 4083SOL     OW23710   2.910   4.042  16.089 -0.4136 -0.0776 -0.2199
 4083SOL    HW123711   2.988   4.008  16.045  0.0526  0.5358  0.1187
 4083SOL    HW223712   2.849   4.051  16.017  1.4772 -1.1387 -1.9470
 4084SOL     OW23713   1.177   2.643   9.988 -0.2621 -0.0107 -0.6099
 4084SOL    HW123714   1.083   2.626   9.994  0.1867 -2.4819 -0.7325
 4084SOL    HW223715   1.202   2.613  10.076  2.5794 -0.1286 -1.4671
 4085SOL     OW23716   3.253   2.109  11.153  0.6348 -0.4471  0.8609
 4085SOL    HW123717   3.272   2.019  11.178 -0.3461 -0.3493  1.9277
 4085SOL    HW223718   3.281   2.164  11.226  0.8765  0.3998  0.1359
 4086SOL     OW23719   0.143   2.368   5.161  0.0849 -0.1019 -0.4919
 4086SOL    HW123720   0.211   2.418   5.115 -1.0889  2.2807  0.3667
 4086SOL    HW223721   0.139   2.410   5.247 -2.3917  0.4811 -0.8981
 4087SOL     OW23722   0.092   3.331  15.533  0.0956  0.2566 -0.2845
 4087SOL    HW123723   0.066   3.293  15.617 -2.4807 -0.1863 -1.2787
 4087SOL    HW223724   0.072   3.256  15.477  0.4442  0.3016 -0.4707
 4088SOL     OW23725   3.275   2.564   6.939 -0.0171 -0.3622 -0.3560
 4088SOL    HW123726   3.293   2.591   6.849  0.7757 -0.4753 -0.2334
 4088SOL    HW223727   3.190   2.520   6.930 -1.3659  2.1585  0.2159
 4089SOL     OW23728   2.460   1.739  10.509 -0.0661 -0.3569 -0.2417
 4089SOL    HW123729   2.522   1.724  10.580  0.7328  1.0557 -0.6399
 4089SOL    HW223730   2.445   1.651  10.473  0.4867 -0.6701  0.2958
 4090SOL     OW23731   3.981   0.342   1.947  0.0485  0.8176  0.2300
 4090SOL    HW123732   4.002   0.293   1.868  0.4597  0.8667  0.3105
 4090SOL    HW223733   4.069   0.365   1.977  0.3663 -1.4179  1.0502
 4091SOL     OW23734   3.398   0.420   8.193 -0.7814  0.0300  0.1088
 4091SOL    HW123735   3.440   0.334   8.191 -0.2719  0.3804 -3.3479
 4091SOL    HW223736   3.476   0.475   8.190 -0.6543 -0.1616 -0.1013
 4092SOL     OW23737   1.313   1.022   1.023  0.4737  0.5922 -0.4389
 4092SOL    HW123738   1.408   1.030   1.033  0.6093  0.8594 -1.9557
 4092SOL    HW223739   1.293   0.929   1.038 -0.3384  1.1512  1.8980
 4093SOL     OW23740   2.485   0.649  11.315 -0.4979 -0.0900  0.1624
 4093SOL    HW123741   2.425   0.715  11.350  0.9240 -0.2558  2.9949
 4093SOL    HW223742   2.498   0.598  11.395 -0.0948 -0.9805 -0.4812
 4094SOL     OW23743   1.240   2.572  17.344  1.4115  0.3305 -0.1230
 4094SOL    HW123744   1.300   2.579  17.270  0.1097 -0.9981 -1.3014
 4094SOL    HW223745   1.234   2.664  17.368 -0.0304 -0.0792  1.1393
 4095SOL     OW23746   2.069   2.057  17.605 -0.8276 -0.5216  0.4608
 4095SOL    HW123747   2.148   2.077  17.656 -1.3056  1.1119  0.5783
 4095SOL    HW223748   2.015   2.037  17.681  0.4455  1.7922  1.9771
 4096SOL     OW23749   1.758   3.527   6.379  0.1302 -0.2845  0.0094
 4096SOL    HW123750   1.782   3.474   6.303 -0.9529 -2.5519  1.2492
 4096SOL    HW223751   1.710   3.460   6.428 -0.4689  0.0649 -0.1013
 4097SOL     OW23752   4.105   4.049  13.191 -0.1460 -0.3456  0.8634
 4097SOL    HW123753   4.020   4.044  13.147  1.2735 -0.0138 -1.8995
 4097SOL    HW223754   4.085   4.001  13.271 -0.0171 -1.1540  0.4092
 4098SOL     OW23755   0.572   4.299  13.686 -0.0309  0.5514 -0.9062
 4098SOL    HW123756   0.488   4.295  13.732 -0.3564  0.4029 -1.5027
 4098SOL    HW223757   0.632   4.262  13.750  1.7595  1.2752 -2.1578
 4099SOL     OW23758   4.605   4.111  11.067 -0.3599  0.7213 -0.2044
 4099SOL    HW123759   4.698   4.134  11.064  0.6198 -2.8049  2.0164
 4099SOL    HW223760   4.557   4.193  11.072 -1.6105 -0.0634  0.9182
 4100SOL     OW23761   3.731   1.193   1.648 -0.4328  0.2860  0.3520
 4100SOL    HW123762   3.803   1.211   1.587  1.5665 -0.2126  2.5676
 4100SOL    HW223763   3.768   1.240   1.722  2.2559 -2.3038  0.6704
 4101SOL     OW23764   4.305   3.702   7.681 -0.0889  0.2753 -0.4551
 4101SOL    HW123765   4.276   3.632   7.740 -0.5343  0.1962 -0.7694
 4101SOL    HW223766   4.335   3.759   7.752 -0.4098 -0.1863  0.0545
 4102SOL     OW23767   4.623   2.607  11.725  0.3324  0.1778  0.1043
 4102SOL    HW123768   4.535   2.610  11.688  0.2707  1.5094  0.3512
 4102SOL    HW223769   4.602   2.639  11.813 -0.8030  0.7480 -0.3669
 4103SOL     OW23770   0.118   2.350   2.205 -1.1262  0.3540 -0.0320
 4103SOL    HW123771   0.169   2.414   2.157 -2.0920 -0.4403 -2.1101
 4103SOL    HW223772   0.032   2.386   2.225 -1.7075 -0.0488 -1.7753
 4104SOL     OW23773   2.462   1.975   3.479 -0.1972 -0.3650 -0.0122
 4104SOL    HW123774   2.473   2.068   3.498 -4.1515  0.2967 -1.1009
 4104SOL    HW223775   2.456   1.980   3.384  1.1737  0.9027 -0.0293
 4105SOL     OW23776   1.039   4.536   6.613  0.6255  0.2050  0.0114
 4105SOL    HW123777   0.950   4.512   6.588 -0.0948  1.5422  1.3199
 4105SOL    HW223778   1.067   4.446   6.630  1.3068  0.1901 -1.1684
 4106SOL     OW23779   2.666   3.364   0.731  0.2007 -0.0638 -0.3060
 4106SOL    HW123780   2.714   3.447   0.726  0.0550 -0.1585 -3.1494
 4106SOL    HW223781   2.709   3.321   0.806  0.7511  2.2160  0.6889
 4107SOL     OW23782   3.667   0.630  13.692 -0.1141 -0.7031 -0.0859
 4107SOL    HW123783   3.724   0.681  13.635  0.1975 -1.4834 -0.4589
 4107SOL    HW223784   3.731   0.617  13.762  0.1221  0.5706 -0.0641
 4108SOL     OW23785   2.081   4.058  13.419  0.6236 -0.2115  0.3588
 4108SOL    HW123786   2.061   3.972  13.457 -0.8794 -0.8526 -1.8610
 4108SOL    HW223787   2.160   4.094  13.460 -0.0498  2.5907 -0.8767
 4109SOL     OW23788   1.215   1.724   7.414 -0.1837  0.1036 -0.5958
 4109SOL    HW123789   1.292   1.779   7.399  0.1194  0.0822  0.8398
 4109SOL    HW223790   1.177   1.694   7.332  0.0659 -1.7520 -0.0199
 4110SOL     OW23791   2.778   3.273   3.102  0.0967 -0.1734  0.2458
 4110SOL    HW123792   2.793   3.180   3.087 -0.7298 -0.3113  0.2497
 4110SOL    HW223793   2.810   3.311   3.020 -1.1940  0.8362  0.2146
 4111SOL     OW23794   3.588   1.335   4.511  0.0435 -0.3506 -0.8409
 4111SOL    HW123795   3.605   1.241   4.501  0.9309 -0.4380  1.3715
 4111SOL    HW223796   3.669   1.368   4.471 -0.6121 -0.5068 -2.2992
 4112SOL     OW23797   2.032   1.406   9.102  0.1505 -0.0442  0.3869
 4112SOL    HW123798   2.124   1.392   9.125  0.6219  1.7328 -0.3846
 4112SOL    HW223799   2.034   1.368   9.014  0.0027 -1.9157  1.2054
 4113SOL     OW23800   3.137   4.460   5.940 -0.3738 -0.2653  0.3488
 4113SOL    HW123801   3.198   4.509   5.996 -1.5480  0.7261  0.7719
 4113SOL    HW223802   3.120   4.511   5.861  3.0210 -0.1771 -0.3147
 4114SOL     OW23803   2.075   0.896   7.955  0.2941 -0.4226 -0.1852
 4114SOL    HW123804   2.001   0.941   7.914 -0.8044 -1.5511  0.5658
 4114SOL    HW223805   2.054   0.804   7.940 -0.4127 -0.3397  0.2949
 4115SOL     OW23806   3.583   1.021   4.749  0.2889 -0.6487 -0.2831
 4115SOL    HW123807   3.641   0.998   4.821  1.8493  0.7820 -1.0948
 4115SOL    HW223808   3.521   0.948   4.745 -0.2480 -0.2082 -0.1252
 4116SOL     OW23809   3.749   4.301   5.083  0.4572 -0.3464 -0.0416
 4116SOL    HW123810   3.750   4.231   5.149 -1.2998  1.4786  1.9683
 4116SOL    HW223811   3.671   4.354   5.098  0.6282  0.5202 -2.2215
 4117SOL     OW23812   2.970   0.067   6.524  0.4880  0.4487  0.4474
 4117SOL    HW123813   2.970   0.070   6.620 -3.5615 -2.5120  0.5160
 4117SOL    HW223814   2.904   4.719   6.523  2.9257 -1.8434 -1.6369
 4118SOL     OW23815   0.904   2.913   8.360  0.4288 -0.2182 -0.3731
 4118SOL    HW123816   0.975   2.929   8.298  2.1631 -2.3870  1.0815
 4118SOL    HW223817   0.920   2.970   8.436  2.0620 -0.1783 -0.7499
 4119SOL     OW23818   2.556   3.213   5.284  0.0682  0.2042  0.0239
 4119SOL    HW123819   2.480   3.164   5.250 -0.7412  0.6338  1.2333
 4119SOL    HW223820   2.623   3.145   5.274 -0.9273 -0.6710 -0.7687
 4120SOL     OW23821   0.745   0.652   2.222  0.0191  0.4827  0.1088
 4120SOL    HW123822   0.835   0.630   2.246  0.2686 -0.4314 -1.6620
 4120SOL    HW223823   0.734   0.592   2.148  0.3879 -0.2210  0.6146
 4121SOL     OW23824   1.646   3.716  14.600  0.0806 -0.0906 -0.0011
 4121SOL    HW123825   1.628   3.808  14.582 -2.6835 -0.3060  1.6380
 4121SOL    HW223826   1.563   3.678  14.570  1.8345 -3.4093 -0.6516
 4122SOL     OW23827   2.864   0.883  16.350 -0.1124 -0.2115 -0.0234
 4122SOL    HW123828   2.793   0.848  16.296  0.0584 -0.4578 -0.0873
 4122SOL    HW223829   2.900   0.953  16.296  0.8457 -0.1208  0.7358
 4123SOL     OW23830   3.908   2.908   8.309 -0.2525 -0.5393  0.1019
 4123SOL    HW123831   3.936   2.846   8.376  1.7237 -0.7410 -0.9230
 4123SOL    HW223832   3.994   2.932   8.277 -0.2755  0.6014  0.9195
 4124SOL     OW23833   0.044   3.399  10.838 -0.2401  0.2328 -0.6482
 4124SOL    HW123834   0.040   3.494  10.830 -1.2887  0.1020 -1.5203
 4124SOL    HW223835   0.098   3.383  10.760  2.1751  3.0287  0.4383
 4125SOL     OW23836   2.546   1.770   6.749  0.1020  0.6573 -0.2758
 4125SOL    HW123837   2.587   1.812   6.824  0.1364 -2.0387  1.2142
 4125SOL    HW223838   2.623   1.761   6.692 -1.4898 -1.1606 -2.1463
 4126SOL     OW23839   2.844   0.470  11.772  0.5413 -0.4087  0.0300
 4126SOL    HW123840   2.841   0.478  11.677 -0.3057  1.7749  0.2526
 4126SOL    HW223841   2.931   0.502  11.796  0.3779  0.6081 -0.7503
 4127SOL     OW23842   3.808   2.690   6.226  0.2674  0.0455 -0.0168
 4127SOL    HW123843   3.829   2.737   6.307 -2.3400 -1.1624  1.3775
 4127SOL    HW223844   3.762   2.610   6.252  1.1004 -0.0041  1.2526
 4128SOL     OW23845   2.278   0.042   6.584  0.4120 -0.5993 -0.1383
 4128SOL    HW123846   2.185   0.027   6.604  0.5177  1.4435  1.8184
 4128SOL    HW223847   2.264   0.048   6.490 -1.2451  1.2128  0.2254
 4129SOL     OW23848   0.281   0.566   2.418 -0.0007 -0.7576  0.1495
 4129SOL    HW123849   0.189   0.567   2.443 -0.5488  0.7351 -1.8788
 4129SOL    HW223850   0.328   0.571   2.501 -2.3318 -0.5876  1.4624
 4130SOL     OW23851   3.697   3.991   4.170  0.2871  0.2208  0.2541
 4130SOL    HW123852   3.642   3.998   4.091 -0.5049  1.0567  0.8759
 4130SOL    HW223853   3.668   3.910   4.213 -0.3938  0.8626  1.0036
 4131SOL     OW23854   2.153   0.247   7.345  0.4495  0.2373  0.5851
 4131SOL    HW123855   2.241   0.264   7.313  0.0047  0.1665 -0.6757
 4131SOL    HW223856   2.177   0.213   7.431 -0.3375 -1.2346  0.2181
 4132SOL     OW23857   1.295   2.072   3.663  0.6868  0.6530  0.0527
 4132SOL    HW123858   1.201   2.085   3.652  0.8982 -0.1139 -2.6251
 4132SOL    HW223859   1.320   2.061   3.572 -0.3393 -1.4865  0.0389
 4133SOL     OW23860   1.163   3.322   5.380 -0.5832 -0.1376 -0.4194
 4133SOL    HW123861   1.208   3.325   5.295  0.6105 -3.2199  0.1164
 4133SOL    HW223862   1.146   3.228   5.383 -0.8282 -0.0399  0.8562
 4134SOL     OW23863   2.578   3.608  16.551  0.1840 -0.4440  0.2653
 4134SOL    HW123864   2.635   3.607  16.474  1.2731  2.4079  1.0242
 4134SOL    HW223865   2.631   3.666  16.606  0.3791 -0.7157  0.3691
 4135SOL     OW23866   1.834   4.014   2.052  0.0420  0.2817  0.6569
 4135SOL    HW123867   1.894   3.973   2.115  1.0196 -0.0368 -0.4714
 4135SOL    HW223868   1.900   4.027   1.984  1.9424  0.1204  2.4684
 4136SOL     OW23869   3.545   0.786   7.598 -0.2063 -0.0106 -0.1268
 4136SOL    HW123870   3.621   0.828   7.639 -0.2845  0.7961 -0.8160
 4136SOL    HW223871   3.538   0.703   7.645 -2.2365  1.2994  1.8645
 4137SOL     OW23872   1.557   3.232   5.531  0.7527  0.1843  0.0667
 4137SOL    HW123873   1.528   3.232   5.440 -0.0613 -0.6431  0.3230
 4137SOL    HW223874   1.470   3.240   5.572  0.3048 -2.0238 -0.4197
 4138SOL     OW23875   1.008   0.370   9.539 -0.3357 -0.0154 -0.8016
 4138SOL    HW123876   1.000   0.300   9.604  2.7724  1.4166  1.1264
 4138SOL    HW223877   0.967   0.441   9.588  1.8746  0.3162  0.5928
 4139SOL     OW23878   3.228   0.845  15.328 -0.2486 -0.0270 -0.0171
 4139SOL    HW123879   3.144   0.870  15.365  0.0585  1.4616 -0.3442
 4139SOL    HW223880   3.261   0.934  15.316 -2.6040  0.8926  0.3741
 4140SOL     OW23881   0.738   0.187   5.377 -0.3956 -0.6371 -0.4254
 4140SOL    HW123882   0.689   0.216   5.454 -0.1177  0.5481 -0.6908
 4140SOL    HW223883   0.795   0.261   5.355  0.0968 -0.1046  2.7434
 4141SOL     OW23884   4.551   3.591   0.390 -0.1245 -0.5984  0.1010
 4141SOL    HW123885   4.628   3.642   0.366  1.0189 -1.0790  2.7471
 4141SOL    HW223886   4.596   3.545   0.461 -1.2098 -1.3134  0.3309
 4142SOL     OW23887   3.203   2.838   7.066  0.2103  0.0873  0.4253
 4142SOL    HW123888   3.272   2.901   7.085 -0.7714  0.2949  3.2423
 4142SOL    HW223889   3.247   2.771   7.014  0.9794  0.3620  0.7230
 4143SOL     OW23890   2.802   4.182   8.682  0.2481 -0.0612  0.0319
 4143SOL    HW123891   2.882   4.231   8.696  0.8994 -1.7182  2.2174
 4143SOL    HW223892   2.746   4.207   8.756  1.6301  1.0626  0.6824
 4144SOL     OW23893   0.292   0.644   8.202 -0.1317 -0.2755  0.2306
 4144SOL    HW123894   0.371   0.594   8.221 -0.1242 -0.3608 -0.0151
 4144SOL    HW223895   0.331   0.710   8.145 -2.2476 -0.6660 -1.6772
 4145SOL     OW23896   1.319   0.340  11.219  0.2223  0.0319  0.2441
 4145SOL    HW123897   1.355   0.294  11.143  1.2721 -1.2313  1.5010
 4145SOL    HW223898   1.392   0.399  11.237  0.3023 -0.4404  1.4834
 4146SOL     OW23899   3.488   3.436   8.395 -0.3542 -0.5663  0.3037
 4146SOL    HW123900   3.394   3.457   8.392 -0.2657 -0.3241 -0.5395
 4146SOL    HW223901   3.513   3.485   8.474  2.1136  1.4148 -1.7416
 4147SOL     OW23902   2.201   2.171   3.673 -0.3235 -0.1002 -0.1136
 4147SOL    HW123903   2.204   2.076   3.667  2.1140  0.0291 -0.9833
 4147SOL    HW223904   2.120   2.180   3.724 -0.5333 -1.9971 -0.1285
 4148SOL     OW23905   2.491   1.742   9.739 -0.0476  0.6981  0.0461
 4148SOL    HW123906   2.557   1.765   9.673  1.3306  0.5889  1.4061
 4148SOL    HW223907   2.415   1.746   9.681  0.1880 -1.5887 -0.4201
 4149SOL     OW23908   4.699   3.259  11.657 -0.0828 -0.1466  0.0008
 4149SOL    HW123909   4.714   3.352  11.668  0.6799 -0.4578  1.5267
 4149SOL    HW223910   4.605   3.254  11.637 -0.4259  0.3037  1.5118
 4150SOL     OW23911   0.730   2.136   7.174  0.2592 -0.3349 -0.4775
 4150SOL    HW123912   0.734   2.045   7.202 -0.3043 -0.7378 -1.6791
 4150SOL    HW223913   0.636   2.146   7.184  0.4948  0.6434  0.7171
 4151SOL     OW23914   2.511   0.273   3.479 -0.3820 -0.0596 -0.5524
 4151SOL    HW123915   2.529   0.226   3.397 -0.5843  1.4844 -1.4863
 4151SOL    HW223916   2.557   0.354   3.456  0.7865 -0.4503  0.4351
 4152SOL     OW23917   0.491   4.452  12.316  0.0517 -0.5064  0.3274
 4152SOL    HW123918   0.398   4.462  12.334 -0.0466  0.5981 -0.8172
 4152SOL    HW223919   0.501   4.521  12.251  1.1075  1.7610  2.9187
 4153SOL     OW23920   1.806   2.523  12.320  0.2295 -0.1682  0.1884
 4153SOL    HW123921   1.803   2.507  12.414 -1.1602 -0.2909  0.1190
 4153SOL    HW223922   1.778   2.434  12.297 -1.5274  0.4179  0.1406
 4154SOL     OW23923   4.487   1.702  12.958 -0.4036 -0.4815  0.2614
 4154SOL    HW123924   4.579   1.717  12.936 -0.7047  0.7019 -0.2110
 4154SOL    HW223925   4.471   1.616  12.920 -1.9364  0.7543 -1.9157
 4155SOL     OW23926   2.903   1.424  11.280 -0.0787 -0.1402  0.4768
 4155SOL    HW123927   2.819   1.455  11.314  0.0195 -0.5825  1.1249
 4155SOL    HW223928   2.973   1.479  11.315  0.1675 -0.0749 -0.1334
 4156SOL     OW23929   1.409   3.963  13.753 -0.5804 -0.8825  0.1074
 4156SOL    HW123930   1.441   3.980  13.842 -0.1978  2.3513 -0.6393
 4156SOL    HW223931   1.326   4.011  13.756 -1.2536 -2.1485  1.8170
 4157SOL     OW23932   3.023   1.012   7.775  0.5344 -0.1528 -0.3242
 4157SOL    HW123933   2.960   0.984   7.708  2.0206 -0.5278 -1.5821
 4157SOL    HW223934   3.109   0.984   7.744  0.9692  0.1529  0.6244
 4158SOL     OW23935   0.612   0.682   5.548 -0.0211 -0.3229  0.2176
 4158SOL    HW123936   0.639   0.749   5.610  2.2990 -2.5986  1.6835
 4158SOL    HW223937   0.566   0.731   5.481 -0.2284 -1.5736 -0.5657
 4159SOL     OW23938   2.044   1.948   0.825  0.5438  0.0762  0.7636
 4159SOL    HW123939   2.106   1.959   0.753  1.3878  0.2703  1.5264
 4159SOL    HW223940   1.968   1.925   0.772  1.7270 -0.7129 -0.5997
 4160SOL     OW23941   2.711   0.790   7.214  0.3117 -0.2701 -0.4886
 4160SOL    HW123942   2.688   0.802   7.306  1.0616 -0.5942 -0.2522
 4160SOL    HW223943   2.633   0.833   7.180 -0.8137 -1.7221  0.2729
 4161SOL     OW23944   1.287   2.920   4.244  0.1122 -0.9884 -0.3469
 4161SOL    HW123945   1.294   2.844   4.302  1.1132 -1.4203 -1.0467
 4161SOL    HW223946   1.295   2.885   4.156  0.9172 -2.2113  0.2031
 4162SOL     OW23947   1.183   0.650   1.891  0.0334  0.0751 -0.1965
 4162SOL    HW123948   1.147   0.681   1.808  2.0651  0.5363 -0.8867
 4162SOL    HW223949   1.113   0.689   1.944 -0.1228  0.0723 -0.4003
 4163SOL     OW23950   1.766   1.534  10.122 -0.0383 -0.2691  0.3014
 4163SOL    HW123951   1.699   1.479  10.082  0.5647  0.3636 -1.6256
 4163SOL    HW223952   1.733   1.623  10.103 -1.5910 -0.8224  0.4288
 4164SOL     OW23953   1.717   4.174   1.111  0.4885 -0.1136 -0.1555
 4164SOL    HW123954   1.758   4.228   1.179 -1.3385  0.4633  0.4687
 4164SOL    HW223955   1.790   4.161   1.050 -1.2167  0.9738 -2.3876
 4165SOL     OW23956   0.328   3.120   4.873  0.1762 -0.1024  0.4944
 4165SOL    HW123957   0.393   3.159   4.931 -0.6339  2.3694 -0.2786
 4165SOL    HW223958   0.250   3.172   4.890  0.7017  0.8115  0.1341
 4166SOL     OW23959   1.175   2.696   1.659  0.8646 -0.2150  0.4885
 4166SOL    HW123960   1.135   2.617   1.623 -2.9015  1.0854  1.7477
 4166SOL    HW223961   1.253   2.699   1.604 -0.2226  0.0760 -1.0276
 4167SOL     OW23962   2.111   4.451  17.200 -0.5053 -0.0631 -0.4870
 4167SOL    HW123963   2.135   4.530  17.248  0.3231 -1.5768  1.6126
 4167SOL    HW223964   2.020   4.443  17.228 -1.3229 -0.1052 -3.1911
 4168SOL     OW23965   3.508   2.793   4.485 -0.2364  0.8504  0.3731
 4168SOL    HW123966   3.429   2.737   4.489 -0.1335  0.7116  0.4838
 4168SOL    HW223967   3.541   2.766   4.400 -0.4258  0.0806  0.5375
 4169SOL     OW23968   4.284   0.469   8.359 -0.5627  0.4287 -0.0710
 4169SOL    HW123969   4.344   0.543   8.368 -0.5579  0.4620 -0.3837
 4169SOL    HW223970   4.272   0.450   8.452  0.4385 -0.0155 -0.0381
 4170SOL     OW23971   3.336   0.253   7.882  0.0730 -0.4987 -0.4024
 4170SOL    HW123972   3.337   0.291   7.794 -0.7920  0.4351 -0.0092
 4170SOL    HW223973   3.242   0.266   7.898  0.2544 -1.9402  1.8550
 4171SOL     OW23974   1.420   4.612   1.916  0.5785 -0.5870  0.4649
 4171SOL    HW123975   1.490   4.668   1.950 -0.5707  1.5208 -0.5819
 4171SOL    HW223976   1.347   4.642   1.972  1.6075  0.9142  1.0157
 4172SOL     OW23977   1.509   0.857   6.722  0.2504 -0.1347  0.1951
 4172SOL    HW123978   1.502   0.870   6.816 -1.2349 -0.9123  0.1891
 4172SOL    HW223979   1.467   0.935   6.687  0.2068 -0.2937 -0.1126
 4173SOL     OW23980   1.286   2.533   8.565  0.2993 -0.4503 -0.5016
 4173SOL    HW123981   1.305   2.449   8.605 -0.4609 -0.3569  0.0612
 4173SOL    HW223982   1.316   2.527   8.474 -2.1257  2.7934 -1.5207
 4174SOL     OW23983   2.840   4.403   8.899 -0.1024 -0.2117 -0.3133
 4174SOL    HW123984   2.755   4.373   8.869 -0.6874 -1.0025  2.1621
 4174SOL    HW223985   2.901   4.389   8.826 -0.1479 -0.0164 -0.3903
 4175SOL     OW23986   4.593   4.655   2.720  0.1470 -0.2694  0.2672
 4175SOL    HW123987   4.576   4.575   2.671  1.7374 -0.4779  0.0365
 4175SOL    HW223988   4.580   0.014   2.669 -0.1342 -0.4848  0.0118
 4176SOL     OW23989   1.106   0.968   6.472 -0.4768  0.3685  0.0304
 4176SOL    HW123990   1.123   0.892   6.526 -1.6293 -0.2359 -0.4517
 4176SOL    HW223991   1.010   0.969   6.474 -0.4753 -1.5128  1.0580
 4177SOL     OW23992   2.855   1.835   3.336  0.2252 -0.2448  0.6526
 4177SOL    HW123993   2.937   1.797   3.302  2.3284  3.4134  1.5679
 4177SOL    HW223994   2.811   1.858   3.255 -0.9229 -0.9204  1.0931
 4178SOL     OW23995   1.428   1.785   9.786 -0.0307  0.6061 -0.5030
 4178SOL    HW123996   1.478   1.823   9.714 -0.8142  0.9494 -0.8657
 4178SOL    HW223997   1.406   1.704   9.740 -0.7911  0.5544 -0.0408
 4179SOL     OW23998   1.446   4.215   9.183 -0.2502  0.3410 -0.4129
 4179SOL    HW123999   1.367   4.160   9.181 -0.2490  0.3098  0.5575
 4179SOL    HW224000   1.487   4.197   9.098 -1.8937 -0.1009 -1.1375
 4180SOL     OW24001   1.730   4.122   5.331  0.3428  0.6647  0.3991
 4180SOL    HW124002   1.708   4.070   5.254  1.3707  1.4088 -0.4063
 4180SOL    HW224003   1.673   4.092   5.402  0.9084 -0.0315  0.5545
 4181SOL     OW24004   3.472   2.394   9.288 -0.0393  0.1986  0.1339
 4181SOL    HW124005   3.436   2.309   9.264 -1.2773  0.4764  1.0508
 4181SOL    HW224006   3.393   2.441   9.262 -0.8151 -0.2897  1.6670
 4182SOL     OW24007   4.624   4.706   2.074 -0.2103  0.2729  0.8891
 4182SOL    HW124008   4.693   0.024   2.020 -1.1702 -1.5145 -1.5902
 4182SOL    HW224009   4.679   4.657   2.136  1.8568  1.0085 -0.3623
 4183SOL     OW24010   4.097   0.789  16.083 -0.1242  0.4063 -0.5241
 4183SOL    HW124011   4.017   0.838  16.101 -2.5164 -4.0792  1.0158
 4183SOL    HW224012   4.147   0.860  16.042 -0.1307  0.0959 -1.0744
 4184SOL     OW24013   0.272   4.688   9.275 -0.0327 -0.0239 -0.1063
 4184SOL    HW124014   0.242   0.048   9.317 -1.1438 -0.6316  0.2810
 4184SOL    HW224015   0.278   4.627   9.348 -0.3811  3.1126  2.5411
 4185SOL     OW24016   4.274   4.011   5.442 -0.1090  0.1376  0.2153
 4185SOL    HW124017   4.184   4.041   5.431  0.6709  2.2810 -0.1896
 4185SOL    HW224018   4.266   3.922   5.477  0.4238 -0.2684 -0.6842
 4186SOL     OW24019   1.086   1.671   4.392 -0.1231  0.2009  0.2769
 4186SOL    HW124020   1.152   1.620   4.438 -0.0975  1.1412  1.2859
 4186SOL    HW224021   1.002   1.632   4.416  0.3564 -0.5249  0.7525
 4187SOL     OW24022   3.533   3.977   2.823  0.3446 -0.2282  0.0332
 4187SOL    HW124023   3.457   3.927   2.852 -0.6041  1.0268 -0.2567
 4187SOL    HW224024   3.557   3.954   2.734  0.2306  0.3423 -0.1460
 4188SOL     OW24025   0.119   0.654  11.588 -0.1829  0.6769  0.2251
 4188SOL    HW124026   0.111   0.575  11.536 -1.2402  1.4963 -0.8724
 4188SOL    HW224027   0.124   0.715  11.514  1.9898  0.4566  0.1903
 4189SOL     OW24028   0.434   4.708   2.043 -0.6296  0.1198  0.3890
 4189SOL    HW124029   0.356   4.674   1.998  0.2987 -0.6264 -0.6422
 4189SOL    HW224030   0.494   4.693   1.970 -1.5452 -0.6805 -0.1944
 4190SOL     OW24031   4.008   3.559   5.001 -0.4788 -0.4112 -0.6781
 4190SOL    HW124032   4.076   3.516   4.949 -0.5229 -1.8442  0.4554
 4190SOL    HW224033   4.034   3.551   5.093 -2.6766 -0.2343 -0.0330
 4191SOL     OW24034   3.811   3.193  10.664 -0.4648 -0.3785 -0.2088
 4191SOL    HW124035   3.786   3.105  10.695 -2.9132  0.4028 -0.0156
 4191SOL    HW224036   3.766   3.238  10.736  0.3286 -1.4194  0.9450
 4192SOL     OW24037   1.943   0.916   3.869 -0.3842 -0.9029 -0.6321
 4192SOL    HW124038   1.944   0.856   3.795 -0.6265 -0.2768 -1.1469
 4192SOL    HW224039   1.913   1.000   3.833 -0.6956 -1.2615 -1.2189
 4193SOL     OW24040   2.235   4.162   8.159  0.2554  0.3735 -0.0979
 4193SOL    HW124041   2.248   4.234   8.220 -1.3544  0.1519  0.4934
 4193SOL    HW224042   2.321   4.159   8.116  1.6647 -3.6249  2.8939
 4194SOL     OW24043   4.620   4.309   3.995 -0.7313  0.0654 -0.4602
 4194SOL    HW124044   4.575   4.340   3.916  2.5153  0.9342 -2.0015
 4194SOL    HW224045   4.560   4.327   4.066 -0.4642 -1.6311  0.1912
 4195SOL     OW24046   0.754   1.891   0.737  0.1291  1.0808 -0.3962
 4195SOL    HW124047   0.723   1.958   0.676  0.0674  0.3240 -1.1894
 4195SOL    HW224048   0.678   1.876   0.794  0.7123  1.3755  0.4447
 4196SOL     OW24049   1.172   2.117  11.677 -1.0977 -0.4899  0.0866
 4196SOL    HW124050   1.125   2.050  11.628 -0.2537 -1.8647  1.1578
 4196SOL    HW224051   1.149   2.193  11.624  0.9589 -0.9507 -1.4493
 4197SOL     OW24052   0.269   0.854   3.080 -0.0534 -0.3424 -0.0696
 4197SOL    HW124053   0.175   0.852   3.098 -0.5215  0.8362 -2.3820
 4197SOL    HW224054   0.272   0.866   2.985 -4.0324  0.8680 -0.0537
 4198SOL     OW24055   4.484   2.380  13.766 -0.3084  0.2320  1.0507
 4198SOL    HW124056   4.442   2.465  13.756  0.9903  0.2025 -4.7724
 4198SOL    HW224057   4.511   2.386  13.857 -0.2506 -1.2543  1.1417
 4199SOL     OW24058   4.501   0.910   3.517  0.1962 -0.3085 -0.0918
 4199SOL    HW124059   4.430   0.956   3.473 -2.8168 -4.1929  0.7249
 4199SOL    HW224060   4.550   0.982   3.556 -1.6041  0.1076  1.3940
 4200SOL     OW24061   1.525   0.199   9.845 -0.2689  0.2032 -0.0266
 4200SOL    HW124062   1.435   0.193   9.812  0.0667 -0.4935 -0.7989
 4200SOL    HW224063   1.512   0.246   9.927 -1.7927 -0.4850  0.1395
 4201SOL     OW24064   2.044   2.820  11.577 -0.2433  0.1281 -0.0936
 4201SOL    HW124065   2.114   2.777  11.627 -1.3129 -1.4303  0.0319
 4201SOL    HW224066   2.005   2.880  11.640  0.3146 -1.1047  1.4301
 4202SOL     OW24067   3.473   0.287   4.519 -0.0563 -0.3336 -0.1606
 4202SOL    HW124068   3.545   0.256   4.464 -1.2763  0.1394 -2.0174
 4202SOL    HW224069   3.451   0.372   4.481  3.7366 -0.1299 -1.8567
 4203SOL     OW24070   3.058   4.544   6.252 -0.4664  0.2437 -0.5252
 4203SOL    HW124071   3.139   4.549   6.201  1.4586 -2.9556  2.2047
 4203SOL    HW224072   3.042   4.450   6.255  0.5239  0.0764 -0.6299
 4204SOL     OW24073   4.221   0.364  14.967  0.2931 -0.3276  0.1180
 4204SOL    HW124074   4.219   0.386  14.874 -1.1922  0.8766  0.4437
 4204SOL    HW224075   4.162   0.431  15.001  0.3923 -0.7180  1.0506
 4205SOL     OW24076   3.710   4.651   5.404 -0.0454  0.5068 -1.0063
 4205SOL    HW124077   3.695   0.019   5.438  1.7948  0.7750 -0.9063
 4205SOL    HW224078   3.623   4.623   5.432 -0.0426  0.3928 -1.1137
 4206SOL     OW24079   4.387   3.832   5.109 -0.3300 -0.5115  0.6218
 4206SOL    HW124080   4.406   3.918   5.072 -0.8646  0.6756  3.0902
 4206SOL    HW224081   4.408   3.785   5.028  4.0601  0.1167  1.3772
 4207SOL     OW24082   4.058   4.530   8.451 -0.4008 -0.0642  0.0350
 4207SOL    HW124083   4.015   4.449   8.425  0.8212 -0.9306  0.7590
 4207SOL    HW224084   3.979   4.581   8.436 -0.4842 -0.3533 -0.5290
 4208SOL     OW24085   3.599   1.593  15.285 -0.1769 -0.5077 -0.2556
 4208SOL    HW124086   3.597   1.559  15.195  1.4960 -0.6497 -0.2402
 4208SOL    HW224087   3.579   1.683  15.263  1.3862 -0.3603 -1.0741
 4209SOL     OW24088   0.669   3.504   8.095 -0.6404 -0.4263 -0.6104
 4209SOL    HW124089   0.682   3.420   8.053  0.8085  0.3489 -1.7050
 4209SOL    HW224090   0.665   3.566   8.022  0.7735 -0.5606 -0.8038
 4210SOL     OW24091   1.811   0.530  15.975 -0.7282 -0.5080 -0.4091
 4210SOL    HW124092   1.900   0.552  16.003 -0.7109 -1.5592  0.3491
 4210SOL    HW224093   1.816   0.440  15.942  1.4538 -0.3600 -0.4987
 4211SOL     OW24094   0.789   3.776   2.102 -0.4554 -0.6150 -0.0979
 4211SOL    HW124095   0.851   3.757   2.174 -0.4425  0.1811  0.0968
 4211SOL    HW224096   0.843   3.732   2.036  0.5021  1.3869 -0.6611
 4212SOL     OW24097   3.485   1.777   3.375 -0.3640 -0.3646 -0.3467
 4212SOL    HW124098   3.578   1.771   3.400 -0.9953 -1.6822  1.7254
 4212SOL    HW224099   3.457   1.857   3.419 -0.1642  0.9683 -2.6706
 4213SOL     OW24100   1.790   3.545   2.792 -0.7327  0.2280  0.5366
 4213SOL    HW124101   1.842   3.618   2.824 -0.7164  0.8254 -0.8188
 4213SOL    HW224102   1.804   3.554   2.697 -0.5413 -1.8419  0.3628
 4214SOL     OW24103   2.119   3.324  11.720  0.5554  0.3340 -0.3833
 4214SOL    HW124104   2.057   3.254  11.738 -0.8783  1.8565  0.6613
 4214SOL    HW224105   2.051   3.379  11.679  1.8206  1.2154 -1.3103
 4215SOL     OW24106   1.585   4.135  14.739 -0.1932  0.1975  0.4136
 4215SOL    HW124107   1.589   4.103  14.649  1.8756  0.6176  0.3560
 4215SOL    HW224108   1.667   4.184  14.746  0.2456 -0.6333  1.0683
 4216SOL     OW24109   2.424   2.503   6.571  0.2800  0.0199 -0.3089
 4216SOL    HW124110   2.458   2.519   6.483 -2.1533  4.8450 -0.3506
 4216SOL    HW224111   2.365   2.576   6.588 -1.3970 -1.7927  1.7193
 4217SOL     OW24112   3.038   3.534   9.995  0.3545 -0.1254 -0.4953
 4217SOL    HW124113   3.081   3.549   9.910 -0.9906 -0.2646 -1.1987
 4217SOL    HW224114   2.957   3.584   9.986  1.1501  1.4274  1.1612
 4218SOL     OW24115   0.181   3.458   9.140 -0.1533 -0.4333  0.3054
 4218SOL    HW124116   0.125   3.390   9.104 -2.3847  2.0138 -0.8448
 4218SOL    HW224117   0.150   3.535   9.092  2.0486  0.6110  0.5251
 4219SOL     OW24118   2.243   2.595  10.558 -0.0897 -0.7520 -0.0450
 4219SOL    HW124119   2.227   2.689  10.553 -1.4176 -0.9884 -0.1481
 4219SOL    HW224120   2.154   2.560  10.554 -0.5529  0.3225  0.7896
 4220SOL     OW24121   2.607   0.464   1.721  0.4489 -0.1267  0.4304
 4220SOL    HW124122   2.680   0.415   1.758 -0.1150 -0.8641  0.5714
 4220SOL    HW224123   2.612   0.540   1.779 -0.1032  0.7371 -0.6612
 4221SOL     OW24124   2.525   1.938  17.682 -0.0343  0.3067 -0.1490
 4221SOL    HW124125   2.603   1.982  17.649 -0.3938  1.9903  1.2600
 4221SOL    HW224126   2.528   1.862  17.624 -1.7122 -0.4853  0.7935
 4222SOL     OW24127   1.587   1.950  11.773  0.5657 -0.4449  0.6380
 4222SOL    HW124128   1.549   1.984  11.692  1.9642 -1.4592 -0.4452
 4222SOL    HW224129   1.503   1.943  11.819 -0.3814  1.0400 -0.8609
 4223SOL     OW24130   2.014   0.497   6.960 -0.6215 -0.5628  0.0948
 4223SOL    HW124131   1.923   0.526   6.960  0.1643  1.9604 -1.0803
 4223SOL    HW224132   2.009   0.428   7.026 -0.9858  1.5239  2.2378
 4224SOL     OW24133   0.483   1.414   4.310 -0.1335 -0.3096  0.2437
 4224SOL    HW124134   0.438   1.493   4.339 -0.1985  0.3726 -1.7217
 4224SOL    HW224135   0.450   1.415   4.220  2.4914  1.7595 -0.6517
 4225SOL     OW24136   2.271   0.188   1.741 -0.3469 -0.0376  0.0020
 4225SOL    HW124137   2.325   0.250   1.693 -1.8998  2.2404  1.1940
 4225SOL    HW224138   2.183   0.201   1.706 -0.5475 -0.9112  0.1836
 4226SOL     OW24139   3.933   2.482   6.977  0.2940  1.0007 -0.3669
 4226SOL    HW124140   3.984   2.459   7.055 -0.1193  1.4112  0.0305
 4226SOL    HW224141   4.002   2.521   6.925 -1.9885  4.2272 -0.9874
 4227SOL     OW24142   2.665   2.223  11.863  0.4332  0.1910  0.3521
 4227SOL    HW124143   2.664   2.288  11.933  3.1401  0.5415  0.0388
 4227SOL    HW224144   2.577   2.185  11.867  0.0781  0.8308 -1.4684
 4228SOL     OW24145   2.805   3.738   7.302 -0.4120 -0.0061 -0.5893
 4228SOL    HW124146   2.757   3.820   7.297  1.0533  0.8387 -0.9168
 4228SOL    HW224147   2.885   3.755   7.252  0.0776  2.8519  1.1707
 4229SOL     OW24148   1.725   0.257   8.225  0.0529 -0.3490 -0.3424
 4229SOL    HW124149   1.806   0.308   8.215  0.0565 -0.1705  0.6254
 4229SOL    HW224150   1.727   0.233   8.318 -3.7991 -0.0246 -0.1890
 4230SOL     OW24151   1.865   0.608   2.928 -0.0073 -0.4205 -0.6977
 4230SOL    HW124152   1.861   0.606   3.024  1.4070 -2.1900 -0.6780
 4230SOL    HW224153   1.788   0.659   2.903  1.0622  0.9216 -1.2908
 4231SOL     OW24154   1.258   1.798  12.985 -0.6304 -0.0032  0.1613
 4231SOL    HW124155   1.283   1.739  13.057 -0.5185  0.1445  0.2433
 4231SOL    HW224156   1.301   1.882  13.003 -0.0172 -0.4719  0.8806
 4232SOL     OW24157   1.551   2.777   9.063 -0.0553  0.0517 -0.8239
 4232SOL    HW124158   1.487   2.828   9.113  0.6860  1.5500 -1.4057
 4232SOL    HW224159   1.582   2.855   9.017 -0.9432 -0.7057 -2.7331
 4233SOL     OW24160   0.796   1.554   8.129 -0.0764  0.2977 -0.7839
 4233SOL    HW124161   0.742   1.621   8.086 -2.1494 -1.2043 -0.5131
 4233SOL    HW224162   0.862   1.563   8.060 -0.4346 -0.8761 -1.2752
 4234SOL     OW24163   2.318   4.447   3.276 -0.4224 -0.0286 -0.6378
 4234SOL    HW124164   2.412   4.463   3.271  0.1745 -2.8656  1.6420
 4234SOL    HW224165   2.297   4.492   3.357 -1.1814  0.0684 -0.8803
 4235SOL     OW24166   4.582   2.371  12.706 -0.2020 -0.8513 -0.6442
 4235SOL    HW124167   4.667   2.336  12.680  1.0210  1.6116  0.0926
 4235SOL    HW224168   4.614   2.439  12.765  0.8217 -0.6220 -1.4678
 4236SOL     OW24169   3.634   1.642   4.133  0.2683 -0.2247 -0.1813
 4236SOL    HW124170   3.593   1.682   4.210 -1.1520  1.5094 -1.8507
 4236SOL    HW224171   3.594   1.556   4.119 -1.3396  0.0039  2.9137
 4237SOL     OW24172   0.919   0.235   6.896 -0.0971 -0.4722  0.3164
 4237SOL    HW124173   0.992   0.175   6.881  0.0967 -0.4020  1.0188
 4237SOL    HW224174   0.864   0.169   6.939  0.3041 -1.0801 -0.1005
 4238SOL     OW24175   2.857   1.002   3.092  0.3576 -0.0869 -0.4490
 4238SOL    HW124176   2.828   1.093   3.102 -0.2264  0.0363 -3.4339
 4238SOL    HW224177   2.949   1.026   3.077  0.5835 -1.2543 -0.9144
 4239SOL     OW24178   4.419   0.796   3.910 -0.7250  0.7408 -1.0191
 4239SOL    HW124179   4.356   0.780   3.980 -1.1841  0.5725 -1.4746
 4239SOL    HW224180   4.495   0.753   3.950 -0.5487  1.3302 -0.7259
 4240SOL     OW24181   0.424   3.577   8.275 -0.5221  0.8642  0.2860
 4240SOL    HW124182   0.431   3.487   8.244  2.9307  0.7501  1.3826
 4240SOL    HW224183   0.455   3.556   8.363 -1.9641 -0.2209  0.5423
 4241SOL     OW24184   3.641   3.040   7.443 -0.3832  0.4808  0.1976
 4241SOL    HW124185   3.554   3.047   7.482 -1.1439  0.4624 -1.4513
 4241SOL    HW224186   3.669   3.129   7.422 -1.4042  1.3820  2.6476
 4242SOL     OW24187   3.975   1.097  17.012 -0.2091 -0.1165 -0.1853
 4242SOL    HW124188   4.029   1.119  16.937  1.7243 -1.7505  0.7422
 4242SOL    HW224189   3.989   1.179  17.060 -0.5484 -0.3486  0.3178
 4243SOL     OW24190   0.439   2.812  10.558  0.3853  0.5114 -0.2868
 4243SOL    HW124191   0.385   2.813  10.637  1.2097  1.3401  0.2747
 4243SOL    HW224192   0.522   2.840  10.598  0.0591  0.5859  0.3276
 4244SOL     OW24193   3.437   1.384   8.508  0.0596 -0.4918 -0.2515
 4244SOL    HW124194   3.433   1.464   8.560  4.2355  1.0090 -2.2745
 4244SOL    HW224195   3.380   1.326   8.559  2.3666 -1.6471  1.0188
 4245SOL     OW24196   2.700   0.307   7.773 -0.1494  0.0242 -0.5798
 4245SOL    HW124197   2.710   0.295   7.679  0.5097 -0.6151 -0.4301
 4245SOL    HW224198   2.615   0.266   7.788 -1.4148  2.5908 -0.9431
 4246SOL     OW24199   2.456   1.088   0.782 -0.5246  0.1839 -0.1373
 4246SOL    HW124200   2.484   1.031   0.853 -1.0326 -0.1464 -0.2020
 4246SOL    HW224201   2.392   1.146   0.823 -0.6675 -1.3370  1.7797
 4247SOL     OW24202   3.220   0.049   8.153  0.5579 -0.0036  0.0499
 4247SOL    HW124203   3.309   0.069   8.123  0.6791 -1.0934 -0.3147
 4247SOL    HW224204   3.195   0.141   8.162  0.0208 -0.2000  0.5193
 4248SOL     OW24205   2.163   0.099   1.009  0.4054  0.3826  0.0051
 4248SOL    HW124206   2.155   0.163   0.939 -1.9657  0.6858  0.5732
 4248SOL    HW224207   2.084   0.047   0.995  1.0803 -0.0933 -1.9854
 4249SOL     OW24208   1.931   0.233   6.751 -0.2764 -0.4419 -0.2287
 4249SOL    HW124209   1.889   0.238   6.665 -1.3338 -0.3339  0.2869
 4249SOL    HW224210   2.010   0.283   6.732 -0.7737 -0.0444 -1.2780
 4250SOL     OW24211   4.670   0.685  11.807 -0.4453  0.3661  0.2847
 4250SOL    HW124212   0.010   0.687  11.733 -1.9432  3.9563 -0.8250
 4250SOL    HW224213   4.599   0.742  11.778 -1.1788 -0.8539 -0.3270
 4251SOL     OW24214   2.034   2.238   4.976 -0.1515  1.0412  0.4432
 4251SOL    HW124215   2.092   2.169   5.009  1.4597  1.9073 -0.5435
 4251SOL    HW224216   2.040   2.222   4.881 -0.5394 -1.2341  0.8067
 4252SOL     OW24217   1.928   0.125   9.427  0.4968  0.6341 -0.1740
 4252SOL    HW124218   1.877   0.059   9.381 -0.0438  1.0521 -0.1737
 4252SOL    HW224219   1.967   0.080   9.502 -1.5461  0.9055  1.0530
 4253SOL     OW24220   3.976   1.361   8.252  0.4035 -0.1114 -0.5026
 4253SOL    HW124221   4.006   1.447   8.280 -0.3221 -0.0896  0.1903
 4253SOL    HW224222   3.953   1.321   8.335 -0.0593  0.1705 -0.4971
 4254SOL     OW24223   2.383   3.027  16.137 -0.1240  0.0479  0.3075
 4254SOL    HW124224   2.313   2.995  16.195 -2.1101  2.2282 -0.9316
 4254SOL    HW224225   2.351   3.116  16.125 -2.8744 -0.8915  0.6588
 4255SOL     OW24226   2.151   1.611   5.628  0.4824  0.0994 -0.4282
 4255SOL    HW124227   2.096   1.688   5.614  0.1666 -0.0295  0.1213
 4255SOL    HW224228   2.236   1.651   5.648  1.7033 -1.3252 -2.8061
 4256SOL     OW24229   0.562   4.285   7.756  0.3336  0.5140  0.4613
 4256SOL    HW124230   0.537   4.372   7.787 -0.6160  0.2526  0.4235
 4256SOL    HW224231   0.637   4.261   7.811 -0.0689 -1.4823  0.1685
 4257SOL     OW24232   1.723   0.213  12.183  0.6319  0.7407  0.1653
 4257SOL    HW124233   1.679   0.282  12.232 -1.6960 -0.2337 -0.5788
 4257SOL    HW224234   1.668   0.213  12.105 -0.5643  0.8108  1.0046
 4258SOL     OW24235   1.788   1.849   4.407 -0.0539 -0.0817 -0.0157
 4258SOL    HW124236   1.843   1.897   4.468 -0.6089 -0.9196  1.1442
 4258SOL    HW224237   1.778   1.919   4.342 -0.1229  0.4568  0.5702
 4259SOL     OW24238   0.051   2.719   6.986 -0.6258  0.0434  0.1981
 4259SOL    HW124239   0.008   2.794   6.944 -2.3822  0.2439  2.3873
 4259SOL    HW224240   4.717   2.642   6.979 -0.9689  0.2165  0.9783
 4260SOL     OW24241   1.364   3.424   4.338  0.0287 -0.1349 -0.2284
 4260SOL    HW124242   1.291   3.366   4.361  0.0362  0.2398  0.7337
 4260SOL    HW224243   1.372   3.404   4.245  1.2712  1.0611 -0.3743
 4261SOL     OW24244   2.644   3.326   4.732 -0.2436  0.6227  0.4322
 4261SOL    HW124245   2.555   3.297   4.751 -0.0639  0.5655  1.1862
 4261SOL    HW224246   2.629   3.385   4.657  2.4059  2.4885  1.3631
 4262SOL     OW24247   3.384   2.210   7.464 -0.8404  0.1775 -0.4859
 4262SOL    HW124248   3.311   2.257   7.504 -0.2944 -1.7734  2.8689
 4262SOL    HW224249   3.423   2.169   7.542  1.6393  0.3800 -1.6287
 4263SOL     OW24250   4.207   1.687   7.064 -0.0442  0.7698 -0.6902
 4263SOL    HW124251   4.276   1.708   7.126  0.1125  1.5249 -1.1229
 4263SOL    HW224252   4.140   1.754   7.072 -1.5577 -0.6700 -1.2250
 4264SOL     OW24253   0.481   4.458   2.499  0.2648 -0.4215  0.1203
 4264SOL    HW124254   0.448   4.520   2.564  0.0374  1.3007 -1.6136
 4264SOL    HW224255   0.406   4.399   2.492 -0.0141 -0.0901  0.3025
 4265SOL     OW24256   1.756   1.974   5.453  0.1413  0.6966  0.3524
 4265SOL    HW124257   1.845   1.953   5.425 -0.9499 -3.4373 -0.0031
 4265SOL    HW224258   1.718   1.889   5.431 -1.7187  1.7758 -0.6831
 4266SOL     OW24259   2.467   0.109   0.661 -0.2633  0.3998 -0.0248
 4266SOL    HW124260   2.377   0.083   0.683  0.5660 -1.9109  0.6342
 4266SOL    HW224261   2.467   0.114   0.566 -1.3764 -1.2456 -0.1113
 4267SOL     OW24262   3.409   4.179  10.220  0.1411 -0.6935  0.0467
 4267SOL    HW124263   3.430   4.265  10.183  1.7633 -1.7557 -1.4961
 4267SOL    HW224264   3.415   4.204  10.312 -0.4110  0.4349 -0.2261
 4268SOL     OW24265   0.369   3.271   9.272 -0.0766  0.2901  0.3084
 4268SOL    HW124266   0.309   3.345   9.275 -0.8522 -0.3634  0.9242
 4268SOL    HW224267   0.303   3.202   9.260 -0.6082  0.8987 -0.2138
 4269SOL     OW24268   0.991   4.409   3.651  0.4377 -0.1636 -0.0276
 4269SOL    HW124269   1.006   4.350   3.577 -0.1019  1.3303 -1.3476
 4269SOL    HW224270   1.051   4.482   3.634 -0.5470  0.2737 -1.7015
 4270SOL     OW24271   1.547   3.050   8.340 -0.9646  0.0858 -0.1841
 4270SOL    HW124272   1.534   3.144   8.330 -0.8810  0.1253  0.0874
 4270SOL    HW224273   1.452   3.038   8.339 -0.9939  0.2985  1.0771
 4271SOL     OW24274   0.809   2.584   5.384  0.0531  0.4343 -0.2968
 4271SOL    HW124275   0.777   2.652   5.324 -1.9899 -1.7540 -1.7173
 4271SOL    HW224276   0.740   2.588   5.451  1.7261  1.2105  1.3604
 4272SOL     OW24277   1.886   0.217   4.670 -0.0576 -0.1012 -0.1480
 4272SOL    HW124278   1.854   0.284   4.611  3.0603  2.0453  0.5788
 4272SOL    HW224279   1.805   0.165   4.669 -0.5115  0.5194  4.0164
 4273SOL     OW24280   3.402   0.620   3.048 -0.4904 -0.3231  0.1223
 4273SOL    HW124281   3.428   0.613   3.140  0.9445 -2.1160 -0.4338
 4273SOL    HW224282   3.469   0.562   3.012 -1.1563 -0.8585 -0.2561
 4274SOL     OW24283   3.295   2.360  16.814  0.1836 -0.3818 -0.1459
 4274SOL    HW124284   3.259   2.315  16.738 -0.5023 -0.7362  0.3891
 4274SOL    HW224285   3.239   2.324  16.884  0.6739 -2.2537 -0.7262
 4275SOL     OW24286   1.039   0.917  10.664  0.3334 -0.6937  0.1230
 4275SOL    HW124287   1.105   0.977  10.627  1.3226 -0.4413  2.2671
 4275SOL    HW224288   0.986   0.903  10.587 -0.3342  2.0675  0.0825
 4276SOL     OW24289   2.978   2.590  13.335 -0.3106  0.1866  0.0812
 4276SOL    HW124290   2.932   2.671  13.314  0.3195  0.0112 -1.9456
 4276SOL    HW224291   2.970   2.541  13.254  1.8673 -0.4204  0.2493
 4277SOL     OW24292   3.495   1.876   5.871  0.0781 -0.0845 -0.0848
 4277SOL    HW124293   3.556   1.950   5.865  0.5474 -0.5558 -1.0726
 4277SOL    HW224294   3.450   1.873   5.787 -0.0650  0.6930 -0.0372
 4278SOL     OW24295   0.305   2.054   4.978  0.5273 -0.1314  0.1825
 4278SOL    HW124296   0.320   2.032   4.886  1.7832  1.9131 -0.0931
 4278SOL    HW224297   0.386   2.098   5.003 -0.4253 -0.1581  3.3631
 4279SOL     OW24298   1.535   3.990   5.512  0.0599  0.5447 -0.1466
 4279SOL    HW124299   1.541   4.038   5.594  1.1242  1.2811 -0.6400
 4279SOL    HW224300   1.553   3.899   5.538 -0.6635  1.2103  2.6206
 4280SOL     OW24301   0.488   4.481   9.624  0.6372 -0.1393 -0.2147
 4280SOL    HW124302   0.478   4.573   9.599 -3.3424 -0.6253 -0.4795
 4280SOL    HW224303   0.460   4.445   9.539 -2.0137 -0.3144  0.7184
 4281SOL     OW24304   1.944   2.562   3.106 -0.2611 -0.1098 -0.5519
 4281SOL    HW124305   1.868   2.504   3.112  0.0499 -0.4297  0.3710
 4281SOL    HW224306   1.909   2.650   3.117 -2.3092 -1.2068  1.6426
 4282SOL     OW24307   2.633   2.750   1.821 -0.2229 -0.4717  0.2746
 4282SOL    HW124308   2.592   2.789   1.744  0.0925  1.7465  1.2318
 4282SOL    HW224309   2.687   2.687   1.773 -1.2706 -1.2462  0.1090
 4283SOL     OW24310   3.996   1.243   8.798 -0.2537 -0.4565 -0.0893
 4283SOL    HW124311   4.081   1.220   8.835  0.0047 -0.0834 -0.4469
 4283SOL    HW224312   3.933   1.251   8.870  1.2400  3.4966  0.8075
 4284SOL     OW24313   3.427   3.032   0.918  0.2067  0.0360  0.2461
 4284SOL    HW124314   3.482   2.998   0.847  1.9920  1.1357  1.0955
 4284SOL    HW224315   3.356   3.068   0.866 -0.6650  0.9755  2.0960
 4285SOL     OW24316   0.652   4.162  15.369  0.0502 -0.3597  0.1431
 4285SOL    HW124317   0.616   4.092  15.423 -0.2061 -0.5500 -0.2751
 4285SOL    HW224318   0.579   4.179  15.309  0.7628 -0.3775 -0.7241
 4286SOL     OW24319   3.783   0.051   6.138  0.3025  0.3364  0.1117
 4286SOL    HW124320   3.778   4.704   6.206  0.3692  0.5358  0.3151
 4286SOL    HW224321   3.828   0.118   6.189  3.0229 -0.8330 -0.7594
 4287SOL     OW24322   0.907   2.852   0.804 -0.1020 -0.4442 -0.0482
 4287SOL    HW124323   0.880   2.944   0.805 -2.1780 -1.0955  4.2313
 4287SOL    HW224324   1.002   2.855   0.806 -0.2031  0.5795  2.6971
 4288SOL     OW24325   1.430   0.639   1.533  0.2600 -0.9516 -0.2929
 4288SOL    HW124326   1.350   0.624   1.483 -0.4389  1.8059 -0.0107
 4288SOL    HW224327   1.451   0.721   1.489  0.8781 -0.2496  1.2894
 4289SOL     OW24328   4.426   4.224   3.489  0.1013  0.1363  0.1685
 4289SOL    HW124329   4.374   4.159   3.536 -0.4716  1.9491  2.0464
 4289SOL    HW224330   4.403   4.301   3.541  0.5284 -0.1645  0.7996
 4290SOL     OW24331   3.721   3.050   3.406 -0.3260  0.4512 -0.5096
 4290SOL    HW124332   3.644   2.994   3.414 -2.9285  4.3245  1.3254
 4290SOL    HW224333   3.690   3.090   3.325  1.2611 -0.5721 -1.6208
 4291SOL     OW24334   4.256   0.297  11.275 -0.5443 -0.1094 -0.0135
 4291SOL    HW124335   4.281   0.388  11.288  2.7364 -1.1274  0.9222
 4291SOL    HW224336   4.282   0.271  11.186  1.6641  2.4689 -0.1216
 4292SOL     OW24337   4.511   2.053   5.871  0.0588  0.3872 -1.0306
 4292SOL    HW124338   4.417   2.067   5.870  0.5209  3.5018 -1.3661
 4292SOL    HW224339   4.525   1.989   5.941  0.0729  2.8709  1.2423
 4293SOL     OW24340   1.836   3.131   2.734 -0.3557 -0.0564  0.3231
 4293SOL    HW124341   1.920   3.087   2.749 -0.2749 -0.5046 -1.4747
 4293SOL    HW224342   1.841   3.144   2.640 -0.8842  0.1282  0.3238
 4294SOL     OW24343   2.833   1.538   8.214 -0.5505 -0.3132 -0.2228
 4294SOL    HW124344   2.928   1.529   8.206 -0.1043  3.2678  1.0764
 4294SOL    HW224345   2.810   1.447   8.192  1.5375 -1.3101  1.6962
 4295SOL     OW24346   3.722   4.529   4.201 -0.2436 -0.2100  0.1365
 4295SOL    HW124347   3.734   4.473   4.278  2.0388 -1.1962 -0.9485
 4295SOL    HW224348   3.755   4.610   4.239  1.6474  0.1738 -2.3212
 4296SOL     OW24349   1.143   1.813   3.565 -0.1620  0.0486 -0.0826
 4296SOL    HW124350   1.097   1.894   3.543  1.1707  0.5291 -1.1007
 4296SOL    HW224351   1.068   1.755   3.578  0.2361  0.0598  2.2619
 4297SOL     OW24352   2.124   4.610  16.402 -0.5627 -0.2641  0.1810
 4297SOL    HW124353   2.185   4.594  16.330 -0.2081 -3.3047  1.1526
 4297SOL    HW224354   2.043   4.608  16.351 -0.5825 -0.8016  0.2362
 4298SOL     OW24355   2.764   1.871  16.762 -0.5934  0.5214 -0.8038
 4298SOL    HW124356   2.844   1.897  16.806 -0.7799 -1.6914  0.8534
 4298SOL    HW224357   2.700   1.921  16.814  0.6149  1.0099  0.2175
 4299SOL     OW24358   4.336   0.604   5.763  0.6995  0.9447 -0.5504
 4299SOL    HW124359   4.396   0.664   5.808  0.4483 -0.8473  2.1824
 4299SOL    HW224360   4.267   0.665   5.740 -0.2404 -0.7243 -2.1946
 4300SOL     OW24361   2.535   4.033   9.013  0.0516  0.0532 -1.2751
 4300SOL    HW124362   2.576   3.968   9.070 -0.6227  0.9964  0.3056
 4300SOL    HW224363   2.479   3.971   8.966 -0.0998 -0.9957  0.2963
 4301SOL     OW24364   0.610   4.013   2.854  0.1331 -0.0180 -0.5536
 4301SOL    HW124365   0.544   4.007   2.922  0.5040 -1.8789 -0.3665
 4301SOL    HW224366   0.612   3.924   2.819 -1.3257 -0.3604  0.2509
 4302SOL     OW24367   1.575   3.509   2.973 -0.3561  0.0835  0.2949
 4302SOL    HW124368   1.657   3.519   2.926  0.5460 -1.0550  1.6293
 4302SOL    HW224369   1.576   3.599   3.004 -1.6357 -0.8064  2.9347
 4303SOL     OW24370   0.453   2.904   6.955  0.1059  0.3618 -0.9758
 4303SOL    HW124371   0.420   2.895   7.044 -1.2264  0.4159 -1.4612
 4303SOL    HW224372   0.385   2.848   6.917  0.8233 -0.9990 -0.2360
 4304SOL     OW24373   0.924   2.298   8.439 -0.1921  0.2659 -0.2281
 4304SOL    HW124374   0.919   2.363   8.510  0.0750  0.4135 -0.3449
 4304SOL    HW224375   1.009   2.326   8.406  0.2878  0.2536  1.0091
 4305SOL     OW24376   0.822   2.875  16.138 -0.1889 -0.0611  0.4904
 4305SOL    HW124377   0.778   2.924  16.068  1.5935  2.4049  1.1091
 4305SOL    HW224378   0.760   2.803  16.151 -0.8732  0.5025  0.4040
 4306SOL     OW24379   0.862   1.339   4.669  0.2679  0.1572 -0.2849
 4306SOL    HW124380   0.946   1.297   4.686  0.0025 -1.3163 -2.6298
 4306SOL    HW224381   0.886   1.432   4.672 -1.1131  0.4533  1.7337
 4307SOL     OW24382   0.958   3.989   6.098 -0.2786  0.3398  0.2654
 4307SOL    HW124383   0.866   4.005   6.074  0.2588  1.2317 -1.2256
 4307SOL    HW224384   0.963   4.047   6.173  1.1776  3.7865 -2.4808
 4308SOL     OW24385   2.145   1.966   0.405  0.4893 -0.6768 -0.1320
 4308SOL    HW124386   2.128   2.052   0.366  1.3450  0.0667  1.1169
 4308SOL    HW224387   2.162   1.915   0.327 -1.0008 -1.2243 -0.1070
 4309SOL     OW24388   1.389   0.014   7.650 -0.2212  0.5047 -0.6656
 4309SOL    HW124389   1.466   4.684   7.626 -0.2221  0.8245 -1.3415
 4309SOL    HW224390   1.378   4.697   7.737 -1.0765  0.5218 -0.7625
 4310SOL     OW24391   0.396   1.087   4.012  0.1595 -0.3047 -0.5426
 4310SOL    HW124392   0.308   1.074   4.046 -0.2724 -1.4235 -2.0751
 4310SOL    HW224393   0.375   1.084   3.918 -0.8027  0.1475 -0.3388
 4311SOL     OW24394   3.483   0.471  11.449 -0.0220  0.0312  0.4849
 4311SOL    HW124395   3.519   0.505  11.367 -1.0827  2.2585  0.9547
 4311SOL    HW224396   3.564   0.477  11.500 -0.1673 -0.2652  0.7478
 4312SOL     OW24397   0.066   2.643   5.388 -0.4541  0.2013  0.0404
 4312SOL    HW124398   0.134   2.618   5.325 -1.4111  0.2780 -1.0137
 4312SOL    HW224399   0.125   2.636   5.463 -0.1253 -0.7219 -0.2938
 4313SOL     OW24400   4.014   4.004   7.164 -0.6395 -0.3147  0.3536
 4313SOL    HW124401   3.983   3.934   7.221  1.8257  0.4439  2.6634
 4313SOL    HW224402   4.047   4.060   7.234 -1.4810 -0.4435  0.8519
 4314SOL     OW24403   4.311   1.277   2.281  0.2314  0.2473 -0.1170
 4314SOL    HW124404   4.358   1.329   2.216  0.8384  3.1188  2.6093
 4314SOL    HW224405   4.246   1.235   2.225 -0.9606  1.8762  0.0414
 4315SOL     OW24406   4.407   4.297   4.218  0.1241 -0.1965 -0.6630
 4315SOL    HW124407   4.399   4.229   4.151 -0.7583 -0.8491  0.0959
 4315SOL    HW224408   4.369   4.368   4.166  0.6009  0.3492 -0.2692
 4316SOL     OW24409   4.512   0.787   5.886  0.5108 -0.0404  0.3981
 4316SOL    HW124410   4.508   0.878   5.915  0.3822  0.8413 -2.3836
 4316SOL    HW224411   4.605   0.771   5.906  0.9527  2.8790  0.7340
 4317SOL     OW24412   0.643   3.884   1.848  0.0010 -0.3854 -0.1402
 4317SOL    HW124413   0.704   3.812   1.834 -0.0338 -0.0265 -2.1808
 4317SOL    HW224414   0.673   3.946   1.781  1.5321 -2.0347 -0.9620
 4318SOL     OW24415   3.323   3.964   7.542 -0.5253 -0.8331  0.4562
 4318SOL    HW124416   3.292   3.948   7.452  1.4995  0.4418 -0.4800
 4318SOL    HW224417   3.376   4.043   7.533 -2.8088  0.5123 -1.0178
 4319SOL     OW24418   2.205   1.773   8.702 -0.5168  0.5124 -0.1573
 4319SOL    HW124419   2.140   1.786   8.633 -1.0763  0.5148  0.3689
 4319SOL    HW224420   2.237   1.684   8.708 -1.1260  0.4266  1.7824
 4320SOL     OW24421   0.309   3.110   4.601 -0.0227 -0.1381 -0.7020
 4320SOL    HW124422   0.243   3.041   4.600 -0.4953  0.2810  0.5956
 4320SOL    HW224423   0.313   3.117   4.697  0.0726  0.1667 -0.7293
 4321SOL     OW24424   1.389   3.002   2.640  0.3766 -0.0511  0.5104
 4321SOL    HW124425   1.305   3.024   2.681  0.5746  3.2259 -0.8412
 4321SOL    HW224426   1.369   2.996   2.546 -0.1386  0.3796  0.5905
 4322SOL     OW24427   2.873   0.282  16.322 -0.5626  0.5459 -0.0682
 4322SOL    HW124428   2.802   0.245  16.373  0.7267 -0.3324  1.0986
 4322SOL    HW224429   2.869   0.370  16.362 -1.9864 -0.2280  1.4967
 4323SOL     OW24430   1.844   3.375   6.799  0.3359  0.4532  0.2066
 4323SOL    HW124431   1.869   3.313   6.730  0.2956 -0.4677  1.0218
 4323SOL    HW224432   1.765   3.332   6.832  0.2182  1.7121  1.5677
 4324SOL     OW24433   0.260   1.294   9.574 -0.2307  0.0837 -0.0757
 4324SOL    HW124434   0.203   1.232   9.619  0.7092 -1.0988 -0.5276
 4324SOL    HW224435   0.261   1.382   9.612 -1.5929  0.0064  0.1318
 4325SOL     OW24436   2.622   1.374  13.263  0.0890  0.1749  0.3288
 4325SOL    HW124437   2.568   1.444  13.299 -1.2404 -0.7474  0.1589
 4325SOL    HW224438   2.692   1.411  13.210  0.7245 -0.3994  0.7533
 4326SOL     OW24439   2.935   4.660   4.252 -0.0297 -0.1408 -0.3263
 4326SOL    HW124440   2.972   4.665   4.340  1.1775  1.4891 -0.9354
 4326SOL    HW224441   2.843   4.660   4.279  0.3585  3.3122  0.9208
 4327SOL     OW24442   3.270   2.825  13.260  0.3659 -0.3400  0.1405
 4327SOL    HW124443   3.248   2.764  13.330 -0.1426 -1.6945 -1.2021
 4327SOL    HW224444   3.223   2.907  13.276  1.5376  0.4038 -0.2325
 4328SOL     OW24445   4.458   0.623   3.645 -0.3593 -0.0506  0.2824
 4328SOL    HW124446   4.395   0.677   3.598  0.2821  0.5370  0.0951
 4328SOL    HW224447   4.488   0.674   3.720 -1.1286 -0.4334  0.8466
 4329SOL     OW24448   2.452   1.146   0.096 -0.3531 -0.2304  0.4219
 4329SOL    HW124449   2.429   1.122   0.007  0.0815 -0.7249  0.4434
 4329SOL    HW224450   2.501   1.227   0.079  0.2166 -1.0032 -1.5152
 4330SOL     OW24451   1.996   0.355   3.441 -0.2435 -0.1606 -0.0679
 4330SOL    HW124452   2.054   0.357   3.518  1.6652 -0.6159 -1.5092
 4330SOL    HW224453   1.962   0.266   3.448  1.9085 -1.2268 -3.4824
 4331SOL     OW24454   3.240   4.623   2.164  0.4181 -0.5913 -0.4749
 4331SOL    HW124455   3.205   4.593   2.248 -1.2559  0.6843 -0.7047
 4331SOL    HW224456   3.326   4.658   2.185  0.2165 -0.0615 -0.5231
 4332SOL     OW24457   1.566   0.061   8.123 -0.2575  0.7087  0.0600
 4332SOL    HW124458   1.605   0.134   8.172  0.1101 -1.0151  2.3394
 4332SOL    HW224459   1.572   0.100   8.036 -0.6161 -1.3480 -0.8753
 4333SOL     OW24460   0.460   2.127   3.638 -0.3281  0.5009 -0.5262
 4333SOL    HW124461   0.534   2.108   3.695 -1.2954 -0.9921  0.2104
 4333SOL    HW224462   0.489   2.082   3.558  3.1255 -0.9251  1.4977
 4334SOL     OW24463   3.596   0.506  16.700  0.1022  0.3672  0.5103
 4334SOL    HW124464   3.556   0.551  16.625 -1.6792 -1.9108  0.0973
 4334SOL    HW224465   3.556   0.420  16.691 -2.8461  1.5834  1.9340
 4335SOL     OW24466   2.721   3.062   7.020  0.2411  0.3896  0.0799
 4335SOL    HW124467   2.810   3.028   7.023 -1.3133 -3.8440 -1.2128
 4335SOL    HW224468   2.702   3.050   7.113 -1.1434  0.7975 -0.1421
 4336SOL     OW24469   2.239   2.354   1.109  0.6252  0.3374  0.1569
 4336SOL    HW124470   2.178   2.427   1.097  0.4843 -0.1177 -1.7595
 4336SOL    HW224471   2.191   2.285   1.064  2.4010 -0.9604  0.2837
 4337SOL     OW24472   2.290   2.365   1.997 -0.0505 -0.3815 -0.5787
 4337SOL    HW124473   2.195   2.372   2.005  0.0104 -1.6968  1.1533
 4337SOL    HW224474   2.316   2.378   2.088 -0.0993 -0.9333 -0.4879
 4338SOL     OW24475   0.655   2.616   3.124 -0.0574 -0.0743 -0.2069
 4338SOL    HW124476   0.678   2.537   3.075  0.5706 -0.4143  0.6541
 4338SOL    HW224477   0.561   2.623   3.105 -0.0627 -1.0816 -0.5710
 4339SOL     OW24478   0.580   0.913   1.867 -0.1083 -0.2019 -0.0937
 4339SOL    HW124479   0.627   0.920   1.950  1.4753 -0.9606 -0.9150
 4339SOL    HW224480   0.493   0.924   1.906  0.5664  2.7843  0.5958
 4340SOL     OW24481   2.876   3.009   9.985  0.1093 -0.6521 -0.2390
 4340SOL    HW124482   2.857   2.924   9.945  1.7634 -0.4175 -1.5251
 4340SOL    HW224483   2.930   2.991  10.061  0.0603  2.4234  0.5421
 4341SOL     OW24484   1.940   1.429   6.562 -0.5563  0.0601 -0.0104
 4341SOL    HW124485   1.903   1.406   6.647 -0.0540  0.8597  0.4274
 4341SOL    HW224486   1.909   1.356   6.508 -1.4054  0.0325  0.5207
 4342SOL     OW24487   2.990   0.738  16.547  0.0402 -0.6282  0.4857
 4342SOL    HW124488   3.056   0.721  16.480 -0.5337  0.2494 -0.3006
 4342SOL    HW224489   2.923   0.761  16.483  0.2432 -1.2158  0.0625
 4343SOL     OW24490   3.089   2.190  16.831 -0.0508 -0.1500 -0.5419
 4343SOL    HW124491   3.001   2.196  16.795  0.7047 -3.1635 -2.8832
 4343SOL    HW224492   3.122   2.102  16.816 -0.5254 -0.5647  0.9286
 4344SOL     OW24493   0.440   2.789  11.383  0.2639  0.3557  0.2698
 4344SOL    HW124494   0.453   2.875  11.423 -0.9487 -1.3679  4.4090
 4344SOL    HW224495   0.479   2.795  11.296 -1.8911  1.2936 -0.6245
 4345SOL     OW24496   3.322   2.169   0.685 -0.0986 -0.2741  0.4098
 4345SOL    HW124497   3.377   2.092   0.693 -0.9799 -0.9987 -0.5302
 4345SOL    HW224498   3.321   2.191   0.592  0.2551 -3.8748 -0.4119
 4346SOL     OW24499   2.155   0.428   3.223 -0.5578  0.5330  0.0352
 4346SOL    HW124500   2.137   0.385   3.307  0.7902  0.2631  0.1781
 4346SOL    HW224501   2.171   0.514   3.263  0.9333  0.3982 -0.2949
 4347SOL     OW24502   1.101   4.073   7.873  0.4218 -0.2963  0.2679
 4347SOL    HW124503   1.169   4.100   7.934  0.1076  1.1983 -0.0361
 4347SOL    HW224504   1.069   4.159   7.845 -1.9075 -0.7879  1.3455
 4348SOL     OW24505   0.001   3.128  10.895  0.1297 -0.4003 -0.2561
 4348SOL    HW124506   4.700   3.217  10.866  2.0816  0.1732  0.0588
 4348SOL    HW224507   0.092   3.127  10.866  0.7342  0.4389  1.6076
 4349SOL     OW24508   1.442   0.262   2.608  0.1884 -0.4305 -0.3240
 4349SOL    HW124509   1.514   0.319   2.582 -0.4891  0.4370 -0.2740
 4349SOL    HW224510   1.450   0.252   2.703 -0.0810 -0.7932 -0.3393
 4350SOL     OW24511   0.047   3.685  13.448  0.6627 -0.0579  1.0182
 4350SOL    HW124512   0.122   3.688  13.389 -0.0315  2.0967  0.2321
 4350SOL    HW224513   4.695   3.685  13.385  0.8119 -0.9831  0.8388
 4351SOL     OW24514   3.806   3.098   6.512  0.1429  0.6075 -0.3975
 4351SOL    HW124515   3.802   3.011   6.473 -0.6279 -0.1619  1.3670
 4351SOL    HW224516   3.899   3.103   6.532  0.4261  0.5500 -1.7456
 4352SOL     OW24517   2.362   4.305   7.708  0.7060  0.2348 -0.1391
 4352SOL    HW124518   2.449   4.336   7.737  0.8837 -0.9702  0.5988
 4352SOL    HW224519   2.355   4.220   7.751  2.3966 -0.4876 -1.3078
 4353SOL     OW24520   4.680   2.637   4.276 -0.8141  0.5776  0.1490
 4353SOL    HW124521   4.699   2.554   4.232  0.9931  1.1687 -0.1952
 4353SOL    HW224522   4.625   2.679   4.210 -0.6272  0.0949 -0.3104
 4354SOL     OW24523   2.971   2.713   3.622  0.0778 -0.3466  0.0252
 4354SOL    HW124524   3.017   2.644   3.574  2.3242  1.7431 -0.8153
 4354SOL    HW224525   2.916   2.655   3.674 -0.2560 -0.4058 -0.3967
 4355SOL     OW24526   3.989   0.425   7.019 -0.1801  0.2952 -0.0534
 4355SOL    HW124527   4.038   0.422   7.101 -2.5019  2.5404  1.4104
 4355SOL    HW224528   3.982   0.333   6.994 -1.6591 -0.0319  1.5717
 4356SOL     OW24529   1.379   3.091  10.190 -0.2319  0.3454 -0.0033
 4356SOL    HW124530   1.393   3.139  10.271 -0.0957 -1.8619  1.2933
 4356SOL    HW224531   1.285   3.079  10.181 -0.0724 -1.8401  1.2717
 4357SOL     OW24532   0.709   1.383  13.585 -0.4667  0.4520  0.2398
 4357SOL    HW124533   0.782   1.426  13.540 -0.4244 -1.3910 -1.4002
 4357SOL    HW224534   0.738   1.355  13.672 -0.1233  1.6650  0.5277
 4358SOL     OW24535   1.998   4.201   7.984 -0.5221 -0.0046  0.4570
 4358SOL    HW124536   2.089   4.188   8.012 -0.2251  0.4671 -0.2624
 4358SOL    HW224537   1.951   4.241   8.057  1.7055  1.0408  1.3369
 4359SOL     OW24538   3.297   0.059   5.905 -0.0522 -0.1669  0.0615
 4359SOL    HW124539   3.346   0.102   5.834  1.0051 -1.1702  0.1814
 4359SOL    HW224540   3.226   0.021   5.854 -0.7508  1.0647  0.1165
 4360SOL     OW24541   2.968   0.356   1.972  0.0068 -0.2262  0.4591
 4360SOL    HW124542   3.064   0.359   1.973  0.0414 -1.0886 -1.9300
 4360SOL    HW224543   2.956   0.358   2.067 -1.0137 -0.1922  0.3297
 4361SOL     OW24544   0.957   2.039  11.543  0.0818  0.1276 -0.4899
 4361SOL    HW124545   0.937   1.956  11.500 -0.9115  0.6617 -1.0699
 4361SOL    HW224546   0.884   2.096  11.516  0.8123  0.6953 -1.2628
 4362SOL     OW24547   4.633   2.781  12.208  0.4357  0.0714  0.1405
 4362SOL    HW124548   4.564   2.719  12.232  0.4033 -0.4275 -1.2886
 4362SOL    HW224549   4.604   2.859  12.255 -0.7898  0.1855 -0.8165
 4363SOL     OW24550   4.425   1.346   0.325  0.1516  0.0364  0.5896
 4363SOL    HW124551   4.368   1.286   0.277  1.1788 -0.0316 -0.5380
 4363SOL    HW224552   4.516   1.333   0.298 -0.9336  0.2639 -3.1724
 4364SOL     OW24553   1.585   4.170   4.448  0.3939  0.3920  0.3358
 4364SOL    HW124554   1.572   4.139   4.358  0.1875 -1.2199  0.9090
 4364SOL    HW224555   1.577   4.086   4.493 -0.9818  1.5483  2.2740
 4365SOL     OW24556   0.086   4.641   6.107 -0.6726 -0.0019 -0.0419
 4365SOL    HW124557   0.070   4.559   6.061 -0.3486  0.2282 -0.5564
 4365SOL    HW224558   0.138   4.700   6.052 -1.3966 -1.0825 -1.8822
 4366SOL     OW24559   3.817   1.415   5.843  0.0673 -0.7086  0.4245
 4366SOL    HW124560   3.740   1.461   5.877 -0.2837 -0.7517 -0.2995
 4366SOL    HW224561   3.822   1.453   5.755  1.9208  0.0242  0.8371
 4367SOL     OW24562   3.520   0.388   5.484  0.4299  0.0486 -0.3395
 4367SOL    HW124563   3.605   0.393   5.439  0.1969 -0.7519 -0.8744
 4367SOL    HW224564   3.503   0.297   5.460  0.1107 -0.4008  1.5708
 4368SOL     OW24565   2.959   2.351   4.312  0.5468  0.0523  1.0386
 4368SOL    HW124566   3.009   2.378   4.389  1.1895  0.9431  0.3130
 4368SOL    HW224567   3.022   2.374   4.243 -2.6680 -1.0450 -2.2311
 4369SOL     OW24568   1.015   0.549   3.724 -0.0971 -0.4881 -0.2166
 4369SOL    HW124569   0.950   0.617   3.744  0.6078  0.0490  0.2259
 4369SOL    HW224570   1.008   0.549   3.629 -0.9880  2.7063 -0.1525
 4370SOL     OW24571   2.883   2.948  15.431  0.2356  0.8131 -0.1664
 4370SOL    HW124572   2.792   2.944  15.462  0.1259 -1.3730 -0.7979
 4370SOL    HW224573   2.880   3.008  15.356 -2.4927  1.5433  0.5128
 4371SOL     OW24574   4.064   3.410  17.115  0.5590  0.0197  0.7870
 4371SOL    HW124575   4.015   3.414  17.032 -0.8361 -0.4014  1.5822
 4371SOL    HW224576   3.996   3.409  17.183  0.2501  1.3458  0.5002
 4372SOL     OW24577   2.345   2.119   0.073 -0.3788 -0.0287  0.0519
 4372SOL    HW124578   2.401   2.176   0.020 -1.5871 -0.6294 -1.9022
 4372SOL    HW224579   2.404   2.044   0.062 -0.1791  0.1208  0.0996
 4373SOL     OW24580   0.716   1.664  16.042 -0.8445 -0.2006  0.0681
 4373SOL    HW124581   0.638   1.688  16.093  0.9302  0.1820  2.6098
 4373SOL    HW224582   0.682   1.652  15.953  0.2280  0.0940 -0.3734
 4374SOL     OW24583   3.438   1.427   5.018 -0.0835 -0.0657  0.3627
 4374SOL    HW124584   3.485   1.408   5.099 -0.2070  0.2969  0.5194
 4374SOL    HW224585   3.451   1.344   4.973 -0.9576  0.1821 -0.3651
 4375SOL     OW24586   1.627   1.972  10.092  0.0789  0.2966 -0.2224
 4375SOL    HW124587   1.604   1.945  10.181 -1.0512 -1.9458 -1.2209
 4375SOL    HW224588   1.714   1.993  10.127  0.8901 -2.7498 -0.4509
 4376SOL     OW24589   1.008   0.903  12.616  0.2543  0.4547  0.0042
 4376SOL    HW124590   1.084   0.935  12.567 -0.3998  0.8721 -0.7212
 4376SOL    HW224591   1.051   0.824  12.651  1.6163  0.8736 -0.7067
 4377SOL     OW24592   0.094   0.939   6.029 -1.2885  0.2045  0.1836
 4377SOL    HW124593   0.078   0.945   5.935  3.1215 -1.8224 -0.7335
 4377SOL    HW224594   0.186   0.958   6.047 -1.2469  2.0341 -1.9744
 4378SOL     OW24595   1.973   0.327   3.777  0.4247  0.1132  0.5157
 4378SOL    HW124596   1.894   0.369   3.743  1.4228 -0.1404 -2.0724
 4378SOL    HW224597   2.039   0.355   3.714 -1.3204  0.1169 -1.3028
 4379SOL     OW24598   3.840   3.668   6.717 -0.1959  0.2817  0.5537
 4379SOL    HW124599   3.921   3.720   6.721  0.3067 -0.4323 -0.3854
 4379SOL    HW224600   3.831   3.632   6.805 -1.4350 -2.3970 -0.6660
 4380SOL     OW24601   0.083   1.807   7.540  0.1306  0.1655 -0.4610
 4380SOL    HW124602   0.046   1.790   7.453  1.1872 -0.4706 -0.7852
 4380SOL    HW224603   0.040   1.738   7.591 -0.1397 -1.7150 -3.2222
 4381SOL     OW24604   3.187   2.879   4.855 -0.4230 -0.1570 -0.5914
 4381SOL    HW124605   3.218   2.948   4.914  0.5629  0.1610 -1.4946
 4381SOL    HW224606   3.116   2.930   4.816 -0.2978  1.1937  0.9622
 4382SOL     OW24607   1.376   4.462   6.588 -0.0689 -0.4782 -0.5853
 4382SOL    HW124608   1.352   4.376   6.623  0.6414 -0.4628 -0.0628
 4382SOL    HW224609   1.456   4.480   6.638 -0.2845  1.3159 -0.8975
 4383SOL     OW24610   3.294   0.872   7.699 -0.0210 -0.3301 -0.0494
 4383SOL    HW124611   3.372   0.851   7.647 -1.2089 -1.2099 -1.4692
 4383SOL    HW224612   3.322   0.850   7.788 -1.1650 -3.7211 -0.5235
 4384SOL     OW24613   2.021   3.980   1.855 -0.3662  0.0027 -0.0347
 4384SOL    HW124614   2.069   4.049   1.901  0.1004  0.3926 -1.0964
 4384SOL    HW224615   2.069   3.979   1.772  0.8871 -0.3358  0.7017
 4385SOL     OW24616   0.721   3.078   3.371 -0.1159 -0.2898 -0.2222
 4385SOL    HW124617   0.664   3.046   3.301 -0.5242 -1.1384  0.4958
 4385SOL    HW224618   0.701   3.012   3.437 -1.1196  0.7744  0.5343
 4386SOL     OW24619   4.049   3.373   6.820 -0.3383  0.3777  0.1078
 4386SOL    HW124620   4.088   3.383   6.907 -0.5227  0.4701  0.1794
 4386SOL    HW224621   3.955   3.376   6.838 -0.0003 -0.0616  1.9391
 4387SOL     OW24622   2.125   0.313   0.845  0.1670 -0.4832 -0.0400
 4387SOL    HW124623   2.220   0.315   0.838  0.1802  1.8002  0.6365
 4387SOL    HW224624   2.099   0.303   0.754  1.8392  1.6570 -0.7589
 4388SOL     OW24625   2.841   1.026   7.568 -0.5982  0.3270  0.0039
 4388SOL    HW124626   2.762   0.998   7.521 -0.0131  2.6164 -2.3055
 4388SOL    HW224627   2.887   1.071   7.498  1.9059  0.2668  1.6002
 4389SOL     OW24628   4.308   3.992   2.653  0.1916 -0.1006 -0.0247
 4389SOL    HW124629   4.320   3.897   2.643  0.1866 -0.3214  1.9904
 4389SOL    HW224630   4.327   4.028   2.566  0.7841  0.1855  0.2236
 4390SOL     OW24631   4.402   3.927  10.411  0.6333 -0.2642 -0.3174
 4390SOL    HW124632   4.363   3.961  10.491  2.8883  0.9808  0.2624
 4390SOL    HW224633   4.327   3.907  10.356 -0.9084  0.7013  1.4664
 4391SOL     OW24634   0.110   1.165   3.922 -0.4401 -0.1569 -0.3461
 4391SOL    HW124635   0.139   1.255   3.911  0.1985 -0.4246 -0.7992
 4391SOL    HW224636   0.149   1.119   3.847  0.1370  1.3247 -0.9514
 4392SOL     OW24637   3.092   4.169  13.677  0.4338  0.0706 -0.0606
 4392SOL    HW124638   3.059   4.171  13.767  0.8456  0.3541  0.0856
 4392SOL    HW224639   3.128   4.081  13.665  0.8900  0.5898 -2.6309
 4393SOL     OW24640   0.241   3.193   7.569  0.5442  0.3199  0.3524
 4393SOL    HW124641   0.328   3.162   7.546 -0.5823 -1.6117 -1.2743
 4393SOL    HW224642   0.232   3.274   7.518 -0.0932 -0.8572 -1.3831
 4394SOL     OW24643   2.362   1.849   6.999 -0.3642  0.5037  0.7018
 4394SOL    HW124644   2.327   1.930   7.037 -0.5150 -0.0695  1.7934
 4394SOL    HW224645   2.366   1.871   6.906  0.5903 -2.0309  0.1649
 4395SOL     OW24646   1.119   0.244   2.808  0.0821 -0.4696 -0.1409
 4395SOL    HW124647   1.166   0.169   2.844  1.0309 -0.2457 -0.9073
 4395SOL    HW224648   1.108   0.230   2.714 -0.2076  2.7625 -0.5789
 4396SOL     OW24649   4.180   1.883   6.744 -0.0610 -0.4775  0.3120
 4396SOL    HW124650   4.122   1.866   6.818  0.7837  1.5356  1.4160
 4396SOL    HW224651   4.143   1.830   6.673  0.0464 -0.6611  0.3950
 4397SOL     OW24652   2.041   2.632   1.136  0.0696 -0.0038 -0.0234
 4397SOL    HW124653   1.997   2.549   1.119  0.6156 -0.6425  1.6431
 4397SOL    HW224654   2.060   2.661   1.047 -1.9607 -0.4641 -0.6015
 4398SOL     OW24655   0.996   4.265   5.736  0.1594 -0.1613 -0.2619
 4398SOL    HW124656   1.023   4.298   5.822  0.1784  0.0435 -0.3458
 4398SOL    HW224657   1.042   4.184   5.713 -1.1791 -1.4935  1.7088
 4399SOL     OW24658   4.554   1.717   7.980 -0.2282 -0.2155 -0.0622
 4399SOL    HW124659   4.631   1.741   8.031  0.5740  1.9555 -2.2688
 4399SOL    HW224660   4.510   1.659   8.042 -0.5772 -0.9901 -1.0204
 4400SOL     OW24661   4.385   0.053   5.548  0.3688  0.0711 -0.1080
 4400SOL    HW124662   4.477   0.031   5.567  1.6638  3.8151 -2.1312
 4400SOL    HW224663   4.391   0.029   5.455  2.1135  0.8590 -0.2072
 4401SOL     OW24664   3.163   2.714   8.201  0.3778  0.0041  0.0255
 4401SOL    HW124665   3.239   2.750   8.156  0.2446 -0.8504 -0.8739
 4401SOL    HW224666   3.162   2.622   8.173  1.5421  0.0405 -0.1270
 4402SOL     OW24667   3.563   1.553  10.934 -0.6963 -0.3834 -0.2382
 4402SOL    HW124668   3.587   1.638  10.971  1.9107 -1.6634  0.9809
 4402SOL    HW224669   3.549   1.501  11.013  0.4849 -1.2603 -0.6223
 4403SOL     OW24670   4.103   3.503   5.269 -0.0035  0.2298 -0.1720
 4403SOL    HW124671   4.123   3.596   5.279 -0.4901 -0.0742  3.6182
 4403SOL    HW224672   4.135   3.465   5.351 -0.2617  0.6552  0.1278
 4404SOL     OW24673   0.404   4.456   4.694 -0.0546 -0.1627 -0.2045
 4404SOL    HW124674   0.414   4.461   4.789  0.7890 -1.2269 -0.2435
 4404SOL    HW224675   0.382   4.549   4.687 -1.1189 -0.2994  1.1213
 4405SOL     OW24676   1.636   1.774  10.284 -0.0250 -0.6528 -0.1984
 4405SOL    HW124677   1.617   1.709  10.350 -0.3945  0.0029  0.3397
 4405SOL    HW224678   1.556   1.772  10.232 -2.0732  1.5930  2.8484
 4406SOL     OW24679   0.066   3.377  15.176 -0.3537  0.1652 -0.0030
 4406SOL    HW124680   0.067   3.289  15.137 -1.1159  0.4698 -0.6955
 4406SOL    HW224681   0.139   3.405  15.120  1.3910  1.7513  3.0937
 4407SOL     OW24682   2.514   3.723  14.149 -0.3591 -0.1542  0.1753
 4407SOL    HW124683   2.472   3.638  14.140  0.5397 -0.6913  1.1191
 4407SOL    HW224684   2.598   3.709  14.104 -0.1293 -1.7440  1.1299
 4408SOL     OW24685   1.490   3.746   5.222  0.0477  0.7263 -0.1970
 4408SOL    HW124686   1.543   3.818   5.190 -0.3493  0.2182 -2.0198
 4408SOL    HW224687   1.400   3.774   5.207 -0.3448 -0.3483  0.0936
 4409SOL     OW24688   1.714   0.354   6.868  0.1866  0.2320  0.5553
 4409SOL    HW124689   1.687   0.430   6.816 -0.7695 -1.4195 -1.3372
 4409SOL    HW224690   1.801   0.328   6.840  0.2540  0.6757  0.3626
 4410SOL     OW24691   3.240   4.611   6.489 -0.0022  0.2019  0.4457
 4410SOL    HW124692   3.152   4.643   6.470  0.5353  1.4507  0.0368
 4410SOL    HW224693   3.220   4.518   6.496  0.7243  0.0528  0.5097
 4411SOL     OW24694   3.423   0.930  15.626 -0.2112 -0.1014  0.4913
 4411SOL    HW124695   3.410   0.912  15.533  1.3794  2.8718 -0.2954
 4411SOL    HW224696   3.421   0.836  15.647 -2.6134 -0.2826 -0.6016
 4412SOL     OW24697   0.105   2.277  10.674  0.3335  0.3551  0.7631
 4412SOL    HW124698   0.112   2.302  10.766  2.1370  1.1405  0.4148
 4412SOL    HW224699   0.013   2.299  10.662  1.1439  2.4048 -1.6858
 4413SOL     OW24700   3.343   0.005   6.730  0.0509 -0.5269  0.3028
 4413SOL    HW124701   3.289   4.654   6.763 -1.2849  0.4316  0.2006
 4413SOL    HW224702   3.310   4.709   6.642  0.4489  1.7039 -0.2651
 4414SOL     OW24703   0.726   4.189   3.585 -0.5105 -0.2157 -0.1716
 4414SOL    HW124704   0.669   4.210   3.659  1.0568  0.6532  0.7805
 4414SOL    HW224705   0.733   4.277   3.547 -0.1525 -1.3143 -2.6722
 4415SOL     OW24706   1.987   1.812   2.536  0.5405 -0.5184  0.6980
 4415SOL    HW124707   1.958   1.841   2.450 -1.1313 -0.3883  1.3119
 4415SOL    HW224708   2.058   1.871   2.563  0.0168  0.1955  0.4848
 4416SOL     OW24709   0.927   2.874  10.879 -0.6412 -0.5738  0.2891
 4416SOL    HW124710   0.930   2.964  10.914  0.7425 -0.5350  0.0831
 4416SOL    HW224711   0.852   2.830  10.917 -0.5598  0.6008  1.8381
 4417SOL     OW24712   3.806   0.915   8.772 -0.4066 -0.2766  0.6866
 4417SOL    HW124713   3.779   1.006   8.763 -0.0791 -0.2766 -0.3268
 4417SOL    HW224714   3.722   0.872   8.787 -0.2803 -0.5495  0.6195
 4418SOL     OW24715   2.506   3.428   2.409  0.3463  0.1761  0.6804
 4418SOL    HW124716   2.541   3.466   2.490  0.3931  1.9780 -0.1983
 4418SOL    HW224717   2.453   3.356   2.443  1.3043 -0.6522  0.4172
 4419SOL     OW24718   0.158   4.153   9.486 -0.1147 -0.4293 -0.4517
 4419SOL    HW124719   0.102   4.185   9.557 -0.2473 -0.5953 -0.4797
 4419SOL    HW224720   0.094   4.093   9.446  0.2454 -2.1112  1.4692
 4420SOL     OW24721   0.533   4.008   5.414  0.2969  0.7865 -0.1180
 4420SOL    HW124722   0.594   3.980   5.482  2.1884  0.7562 -1.8090
 4420SOL    HW224723   0.484   4.077   5.459 -0.9235 -0.4331  0.4512
 4421SOL     OW24724   2.642   2.501   4.732  0.5456  0.2135 -0.8392
 4421SOL    HW124725   2.736   2.522   4.730  0.6292  0.0012  0.5618
 4421SOL    HW224726   2.625   2.514   4.639  1.2058 -0.2006 -1.0263
 4422SOL     OW24727   2.094   0.196   6.259 -0.0865  0.2698 -0.3448
 4422SOL    HW124728   2.050   0.118   6.225 -0.3466  0.5818 -0.7250
 4422SOL    HW224729   2.185   0.169   6.255 -0.2749 -0.4831  0.3338
 4423SOL     OW24730   3.097   3.855   5.800 -0.0562 -0.4925  0.3525
 4423SOL    HW124731   3.076   3.838   5.709  0.8942  0.9049 -0.1368
 4423SOL    HW224732   3.011   3.881   5.833  0.4724  0.3535  1.0605
 4424SOL     OW24733   0.846   2.237  17.655  0.3458  0.2484  0.3310
 4424SOL    HW124734   0.842   2.330  17.633  0.9595  0.5000  1.2844
 4424SOL    HW224735   0.813   2.238   0.059  0.4466 -0.9648  0.3792
 4425SOL     OW24736   2.891   2.170   1.011 -0.1754  0.4119  0.0633
 4425SOL    HW124737   2.942   2.177   1.092 -1.9172 -1.2018  1.2860
 4425SOL    HW224738   2.876   2.256   0.971  1.3993  0.5289 -0.2974
 4426SOL     OW24739   0.305   1.331   8.402 -0.4071 -0.0869 -0.2071
 4426SOL    HW124740   0.365   1.379   8.459  0.3967  0.5228 -1.5697
 4426SOL    HW224741   0.353   1.331   8.319 -0.9611  2.0044 -0.5270
 4427SOL     OW24742   0.005   2.664  14.976 -0.2435 -0.6375  0.1292
 4427SOL    HW124743   0.066   2.672  15.049 -0.0970  0.4113 -0.1138
 4427SOL    HW224744   4.693   2.753  14.982  1.0556 -0.1391 -0.2017
 4428SOL     OW24745   0.110   2.123   9.822  0.0960  0.2070  0.3521
 4428SOL    HW124746   0.147   2.208   9.844  1.8881 -0.3686 -0.4103
 4428SOL    HW224747   0.045   2.148   9.756  1.3090 -0.8109 -1.2371
 4429SOL     OW24748   2.983   3.384   6.181  0.1822  0.1813 -0.0717
 4429SOL    HW124749   3.000   3.467   6.227  0.5652 -0.1181  0.3391
 4429SOL    HW224750   2.893   3.363   6.204 -0.3265  2.0339 -0.4262
 4430SOL     OW24751   4.365   4.587   6.513 -0.0579 -0.0325 -0.2310
 4430SOL    HW124752   4.281   4.592   6.467 -0.6741  0.0501  0.8895
 4430SOL    HW224753   4.342   4.568   6.604  0.2368  0.7593  0.0035
 4431SOL     OW24754   0.412   3.203   2.104 -0.3814 -0.0998  0.5483
 4431SOL    HW124755   0.502   3.203   2.069 -0.4234 -1.5202  0.4357
 4431SOL    HW224756   0.384   3.111   2.109 -0.4162 -0.1535 -0.5480
 4432SOL     OW24757   1.929   1.542  12.626 -0.4038 -0.3725 -0.1043
 4432SOL    HW124758   1.877   1.513  12.551 -1.6336 -1.9216  1.3338
 4432SOL    HW224759   1.938   1.457  12.669 -0.3038  0.1738  0.9699
 4433SOL     OW24760   0.338   0.489   2.952  0.2391  0.0894  0.0225
 4433SOL    HW124761   0.291   0.452   3.026 -0.7080  0.3608 -0.4396
 4433SOL    HW224762   0.296   0.575   2.942  1.8782  0.7919 -0.7678
 4434SOL     OW24763   1.762   1.476   0.514  0.0510  0.4148  0.7118
 4434SOL    HW124764   1.749   1.528   0.435 -1.6893 -0.4801  0.4101
 4434SOL    HW224765   1.676   1.434   0.523  0.5639 -0.8093 -0.1077
 4435SOL     OW24766   3.285   3.297  12.558  0.7430  0.7971 -0.6302
 4435SOL    HW124767   3.238   3.296  12.474 -1.2356  0.0189  0.4967
 4435SOL    HW224768   3.311   3.206  12.572  1.9432  1.4070  1.0639
 4436SOL     OW24769   2.243   0.340  12.568 -0.2190  0.1861 -0.1350
 4436SOL    HW124770   2.154   0.369  12.552  0.4294  0.5191 -3.0878
 4436SOL    HW224771   2.284   0.424  12.591 -1.1525  0.7104 -0.4089
 4437SOL     OW24772   3.982   4.018   3.142 -0.0350  0.0242  0.5165
 4437SOL    HW124773   3.890   4.044   3.148  0.1908  0.4864  1.9172
 4437SOL    HW224774   3.956   3.935   3.103  0.9233  0.1826 -0.4566
 4438SOL     OW24775   2.499   4.046  16.899  0.3840 -0.5290 -0.1667
 4438SOL    HW124776   2.463   4.130  16.873  1.1065 -1.1036 -3.0081
 4438SOL    HW224777   2.469   3.987  16.830  0.4428 -0.8345  0.0658
 4439SOL     OW24778   1.986   3.024   3.441  0.3047  0.1424 -0.5054
 4439SOL    HW124779   1.891   3.036   3.432  0.5159  1.6964 -0.6348
 4439SOL    HW224780   1.984   2.929   3.432  0.7983  0.1156 -0.3244
 4440SOL     OW24781   3.850   0.772  12.642 -0.4500  0.0403  0.5291
 4440SOL    HW124782   3.897   0.689  12.645  1.5499  1.0645 -2.6538
 4440SOL    HW224783   3.891   0.822  12.713  1.8558  0.5429 -1.1742
 4441SOL     OW24784   2.769   3.758  11.661  0.3325 -0.2457 -0.7110
 4441SOL    HW124785   2.800   3.848  11.668 -1.9741  0.6691 -2.0045
 4441SOL    HW224786   2.682   3.772  11.622 -0.6222 -1.5121  0.9734
 4442SOL     OW24787   4.160   4.394   8.679  0.4947  0.0239  1.0087
 4442SOL    HW124788   4.122   4.309   8.656 -2.2822  1.0067  1.9725
 4442SOL    HW224789   4.139   4.444   8.600  0.6465 -2.6702 -0.7360
 4443SOL     OW24790   4.214   2.314  10.650  0.4841  0.1129  0.1284
 4443SOL    HW124791   4.134   2.367  10.645  0.2148 -0.3644 -0.5250
 4443SOL    HW224792   4.209   2.266  10.733  0.5863 -2.5575 -1.4274
 4444SOL     OW24793   4.639   1.164   3.598  0.0043 -0.4976 -0.1660
 4444SOL    HW124794   0.002   1.127   3.626  1.2481  2.5308  0.1641
 4444SOL    HW224795   4.610   1.204   3.680  0.1543  0.9566 -0.8137
 4445SOL     OW24796   3.959   0.805   6.939 -0.0575 -0.0160  0.2310
 4445SOL    HW124797   3.927   0.748   7.009  0.0701  0.9946  1.1057
 4445SOL    HW224798   3.883   0.857   6.913 -0.9969 -1.8169 -0.6266
 4446SOL     OW24799   1.253   0.237   2.411 -0.3812  0.3419  0.0818
 4446SOL    HW124800   1.322   0.236   2.477 -0.7787 -0.3197  0.4908
 4446SOL    HW224801   1.214   0.152   2.431 -0.0266  0.1296 -0.1260
 4447SOL     OW24802   3.917   1.237   3.261  0.3119 -0.0271  0.6740
 4447SOL    HW124803   3.850   1.265   3.200  1.8571  0.3962 -0.8320
 4447SOL    HW224804   3.925   1.144   3.240 -1.0915 -0.4653  2.1063
 4448SOL     OW24805   3.301   1.748   9.219  0.1663  0.0058  0.1120
 4448SOL    HW124806   3.298   1.716   9.310 -0.8458  0.1827  0.1439
 4448SOL    HW224807   3.327   1.838   9.238 -2.2847  1.1201 -1.7976
 4449SOL     OW24808   2.327   3.388  15.357 -0.2210  0.6186  0.3697
 4449SOL    HW124809   2.250   3.334  15.340 -1.3329  2.3844 -0.2890
 4449SOL    HW224810   2.289   3.452  15.417  0.5167 -0.4335  1.9346
 4450SOL     OW24811   3.957   3.792   9.878  0.0667 -0.0329  0.3174
 4450SOL    HW124812   3.887   3.841   9.921 -0.1963  0.3855 -0.5924
 4450SOL    HW224813   3.902   3.741   9.818 -0.1648  0.6984 -0.0851
 4451SOL     OW24814   0.527   3.101   9.572  0.0427 -0.2138  0.7049
 4451SOL    HW124815   0.452   3.052   9.538 -0.7103  0.3414  1.5682
 4451SOL    HW224816   0.503   3.192   9.557  2.1599  0.4502  1.4964
 4452SOL     OW24817   2.373   2.636   8.601 -0.0470 -0.0510  0.1075
 4452SOL    HW124818   2.457   2.609   8.638 -1.2210 -0.4771  2.4849
 4452SOL    HW224819   2.387   2.719   8.555  0.0368  0.7619  1.5805
 4453SOL     OW24820   0.241   3.788   5.596 -0.6081 -0.4348  0.1453
 4453SOL    HW124821   0.317   3.834   5.559 -1.6183 -0.9478 -2.6274
 4453SOL    HW224822   0.190   3.759   5.520  0.6695 -0.2896 -0.7696
 4454SOL     OW24823   4.423   2.597  12.194 -0.3474 -0.1713  0.6096
 4454SOL    HW124824   4.421   2.501  12.198 -2.6806 -0.1104  0.7097
 4454SOL    HW224825   4.411   2.611  12.287 -1.3530 -0.3246  0.5032
 4455SOL     OW24826   2.440   2.495   2.645 -0.4326 -0.3170  0.1410
 4455SOL    HW124827   2.502   2.538   2.586  1.1756 -2.4875  0.2556
 4455SOL    HW224828   2.365   2.539   2.607  0.0928 -0.5321 -1.1255
 4456SOL     OW24829   1.875   1.611  10.683 -0.3035 -0.4302 -0.0176
 4456SOL    HW124830   1.918   1.559  10.752 -0.8204 -1.2898 -0.3417
 4456SOL    HW224831   1.837   1.683  10.732  0.8952 -1.3002  2.2125
 4457SOL     OW24832   4.595   3.265   4.284  0.0671  0.7916  0.1199
 4457SOL    HW124833   4.613   3.291   4.193  3.7414 -2.2124 -0.0057
 4457SOL    HW224834   4.507   3.300   4.298  0.0400  1.3099 -1.3309
 4458SOL     OW24835   4.430   0.396  11.983 -0.5028  0.2689 -0.4375
 4458SOL    HW124836   4.507   0.378  11.931 -0.1156 -0.5962  0.4384
 4458SOL    HW224837   4.402   0.307  12.005 -0.8439  0.4755 -0.0187
 4459SOL     OW24838   0.791   2.781  15.811  0.7466 -0.1243 -0.0536
 4459SOL    HW124839   0.704   2.795  15.775  0.5596  0.3268  0.5983
 4459SOL    HW224840   0.777   2.822  15.896 -1.3202 -1.2786  0.1706
 4460SOL     OW24841   2.083   4.652  10.360 -0.0131  0.0215  0.4343
 4460SOL    HW124842   2.004   4.614  10.322 -0.3135 -1.9947  3.0511
 4460SOL    HW224843   2.140   4.575  10.359 -0.6970 -0.4720 -0.3114
 4461SOL     OW24844   3.150   0.700   8.332  0.3806 -0.1604  0.4812
 4461SOL    HW124845   3.134   0.786   8.371  0.8102  0.1794 -0.1017
 4461SOL    HW224846   3.110   0.717   8.247  1.4238  0.6673  0.1667
 4462SOL     OW24847   0.341   3.864  11.309  0.0718 -0.2622  0.5368
 4462SOL    HW124848   0.367   3.902  11.392  3.4251  4.2728 -2.6327
 4462SOL    HW224849   0.247   3.882  11.307 -0.1731 -1.4395  1.6435
 4463SOL     OW24850   3.972   3.714  17.226  0.1215 -0.1948  0.1982
 4463SOL    HW124851   4.055   3.674  17.201  0.0966 -0.7799  1.0857
 4463SOL    HW224852   4.001   3.778  17.290 -3.3880  0.8484  0.7361
 4464SOL     OW24853   1.345   0.350   1.977  0.5961 -0.0631  0.1087
 4464SOL    HW124854   1.284   0.399   1.922 -1.3919  0.3536  2.7016
 4464SOL    HW224855   1.310   0.391   2.056  0.4288  1.6367 -0.8380
 4465SOL     OW24856   1.690   2.210   7.598 -0.0446 -0.5594 -0.8275
 4465SOL    HW124857   1.661   2.123   7.626 -0.1579 -0.3435 -0.2584
 4465SOL    HW224858   1.785   2.211   7.612 -0.1251 -0.5699 -0.2458
 4466SOL     OW24859   2.647   1.662  15.052 -0.0748  0.0450 -0.2069
 4466SOL    HW124860   2.588   1.607  15.102  0.9852 -0.7909  0.1127
 4466SOL    HW224861   2.719   1.606  15.024 -1.2388 -0.1902 -2.7621
 4467SOL     OW24862   3.901   2.169   4.058 -0.0354  0.5184 -0.0855
 4467SOL    HW124863   3.967   2.201   4.119  0.3225 -0.3801 -0.0044
 4467SOL    HW224864   3.893   2.077   4.083 -1.5108  0.5538 -0.3815
 4468SOL     OW24865   3.213   4.596  10.217  0.8062  0.0499  0.4287
 4468SOL    HW124866   3.229   4.666  10.154  0.7647 -0.8008 -0.5326
 4468SOL    HW224867   3.294   4.546  10.206  0.9517  0.2824  0.4578
 4469SOL     OW24868   2.850   1.312   9.837 -0.2064 -0.3040 -0.4127
 4469SOL    HW124869   2.885   1.293   9.924 -0.8906  3.0641  0.6212
 4469SOL    HW224870   2.801   1.232   9.818 -0.2812 -0.3632  0.0253
 4470SOL     OW24871   3.273   1.926   1.519 -0.3558 -0.1333  0.1332
 4470SOL    HW124872   3.297   1.888   1.604 -1.6764  2.5428  1.7033
 4470SOL    HW224873   3.179   1.939   1.533 -0.6967 -2.0573 -0.3229
 4471SOL     OW24874   2.064   4.716  12.969 -0.1653  0.3428  0.6142
 4471SOL    HW124875   2.100   4.646  12.914  0.9562  3.2373 -2.3395
 4471SOL    HW224876   1.976   4.684  12.989  0.7079 -0.9556  2.3654
 4472SOL     OW24877   4.007   1.212   6.765  0.2471  0.4212 -0.0190
 4472SOL    HW124878   3.996   1.197   6.859 -0.6139  0.7593 -0.0605
 4472SOL    HW224879   4.097   1.244   6.763  0.7670 -0.9196  2.1426
 4473SOL     OW24880   4.024   0.426   7.593 -0.3843 -0.4251 -0.2350
 4473SOL    HW124881   3.935   0.393   7.598 -1.6860  3.1668  0.5188
 4473SOL    HW224882   4.075   0.362   7.643  3.0297  2.0053 -0.6080
 4474SOL     OW24883   2.048   0.503   3.988 -0.2181 -0.2618 -0.3086
 4474SOL    HW124884   2.035   0.433   3.924 -1.2677 -1.8424  1.6233
 4474SOL    HW224885   2.084   0.456   4.063 -1.3807 -0.7952 -0.0867
 4475SOL     OW24886   2.714   2.123  12.698  0.5642  0.0986  0.0664
 4475SOL    HW124887   2.624   2.155  12.711  0.5409  0.3594 -0.7655
 4475SOL    HW224888   2.760   2.207  12.694 -1.5952  1.2202 -1.3735
 4476SOL     OW24889   2.987   1.482   9.134  0.1624  0.5253  0.0343
 4476SOL    HW124890   3.022   1.455   9.219  0.5948  0.0342 -0.3061
 4476SOL    HW224891   3.034   1.561   9.106 -0.5401  0.9086 -0.0730
 4477SOL     OW24892   0.637   2.796   3.827 -0.3144  0.4536 -0.3730
 4477SOL    HW124893   0.696   2.755   3.891 -1.5837  1.5039  1.4511
 4477SOL    HW224894   0.576   2.841   3.884 -1.3131 -0.2227 -0.9126
 4478SOL     OW24895   2.234   0.788  11.407 -0.5333  0.8035  0.1801
 4478SOL    HW124896   2.148   0.800  11.448  0.5593  2.2882  2.0290
 4478SOL    HW224897   2.208   0.767  11.317  2.0486 -0.8855 -0.1652
 4479SOL     OW24898   2.697   3.635   0.648  0.0028  0.1214 -0.2058
 4479SOL    HW124899   2.711   3.720   0.605  0.9065  1.1280  2.1132
 4479SOL    HW224900   2.638   3.666   0.717  0.6983 -1.4865  1.0989
 4480SOL     OW24901   3.720   1.164   2.654 -0.5345  0.0397 -0.2219
 4480SOL    HW124902   3.786   1.098   2.676  0.8482  1.6853  0.5469
 4480SOL    HW224903   3.662   1.165   2.730 -0.5311  4.1119 -0.3120
 4481SOL     OW24904   4.359   0.273   7.001 -0.4802 -0.7482 -0.1797
 4481SOL    HW124905   4.447   0.272   6.964 -1.2350 -0.1864 -1.9949
 4481SOL    HW224906   4.353   0.353   7.053  1.2653 -1.1425  0.6097
 4482SOL     OW24907   1.384   3.833   7.864  0.3237  0.0074 -0.0026
 4482SOL    HW124908   1.298   3.815   7.901  0.8684  0.6092  1.5820
 4482SOL    HW224909   1.396   3.758   7.806 -1.8250 -1.0025  0.8539
 4483SOL     OW24910   4.404   1.909   6.572 -0.8521  0.8641  0.1900
 4483SOL    HW124911   4.394   1.815   6.557  0.3722  0.4507  1.9893
 4483SOL    HW224912   4.318   1.921   6.614 -1.6192 -1.0273 -0.8705
 4484SOL     OW24913   1.430   2.106   9.966 -0.0543 -0.2691 -0.5474
 4484SOL    HW124914   1.388   2.135  10.048  0.7018  0.3471 -0.3782
 4484SOL    HW224915   1.516   2.076   9.996 -1.5081 -1.1219  2.7981
 4485SOL     OW24916   1.789   3.965   4.121  0.5211  0.3637  0.0147
 4485SOL    HW124917   1.693   3.960   4.122  0.5973 -0.9708 -1.0468
 4485SOL    HW224918   1.824   3.895   4.176 -1.2104 -0.0230  0.6212
 4486SOL     OW24919   4.093   3.217   2.906  0.5074  0.2281  0.2012
 4486SOL    HW124920   4.124   3.305   2.926  1.4266  0.3080 -1.5706
 4486SOL    HW224921   4.169   3.165   2.930  0.0026  0.1011  1.5325
 4487SOL     OW24922   2.911   3.114   8.563 -0.2067  0.1986 -0.0279
 4487SOL    HW124923   2.887   3.046   8.626  0.5990 -1.3281 -1.3421
 4487SOL    HW224924   3.002   3.089   8.547 -0.6433 -0.7334 -1.0764
 4488SOL     OW24925   4.199   0.500   8.103 -0.0971  0.0115 -0.5750
 4488SOL    HW124926   4.114   0.524   8.138  0.1008 -0.4353  0.2203
 4488SOL    HW224927   4.236   0.459   8.181  1.2919  2.8511  0.2393
 4489SOL     OW24928   3.665   2.302   7.962  0.4114 -0.7306 -0.7148
 4489SOL    HW124929   3.723   2.255   8.022  0.4982  0.6130  0.2744
 4489SOL    HW224930   3.727   2.334   7.896  2.0529  2.6580  2.4662
 4490SOL     OW24931   4.060   1.663   7.989  0.0127 -0.7164 -0.3942
 4490SOL    HW124932   4.069   1.576   7.949  0.0729  0.1657 -2.3054
 4490SOL    HW224933   3.966   1.666   8.008  0.3543 -0.6103  1.2461
 4491SOL     OW24934   1.536   1.555  16.344 -0.4039 -0.7135 -0.1773
 4491SOL    HW124935   1.453   1.601  16.332 -0.6615 -1.1452 -0.0425
 4491SOL    HW224936   1.518   1.473  16.299  0.3636 -0.9965  0.0392
 4492SOL     OW24937   0.806   1.057  13.524  0.1804 -0.3032 -0.2131
 4492SOL    HW124938   0.847   1.083  13.607 -0.9080  2.1429 -0.4340
 4492SOL    HW224939   0.885   1.041  13.473 -0.5348 -1.7404 -0.8761
 4493SOL     OW24940   3.398   4.320   1.089  0.4907  0.1037  0.0185
 4493SOL    HW124941   3.472   4.277   1.046 -0.1864 -0.7779 -0.2631
 4493SOL    HW224942   3.400   4.400   1.037 -2.1242  0.1509  0.0204
 4494SOL     OW24943   3.351   0.936   8.233  0.6002 -0.1302 -0.4524
 4494SOL    HW124944   3.382   0.883   8.306  1.3325  2.0117  0.8033
 4494SOL    HW224945   3.397   1.020   8.238 -0.2721  0.2966  0.2731
 4495SOL     OW24946   0.502   2.287   9.914  0.0814  0.5685 -0.6541
 4495SOL    HW124947   0.560   2.280   9.838  0.2790 -1.2541 -0.3321
 4495SOL    HW224948   0.556   2.326   9.983 -0.7863  0.4033  0.1145
 4496SOL     OW24949   2.225   1.859  10.587  0.3306  0.5351  0.0038
 4496SOL    HW124950   2.226   1.830  10.678 -2.4990  0.2596 -0.0395
 4496SOL    HW224951   2.283   1.795  10.546 -2.1982 -1.1673 -0.9292
 4497SOL     OW24952   1.370   4.623  16.984  0.1996  0.4101 -0.6919
 4497SOL    HW124953   1.320   4.546  17.010 -0.6382  0.5507 -1.9217
 4497SOL    HW224954   1.335   4.645  16.898  1.9834 -0.8728 -1.7499
 4498SOL     OW24955   0.125   3.926   4.142  0.4727 -0.0352  0.1381
 4498SOL    HW124956   0.211   3.941   4.180  1.6767 -1.6057 -1.9965
 4498SOL    HW224957   0.119   3.989   4.070  1.8562  2.4998  2.2333
 4499SOL     OW24958   3.572   2.111   4.853 -0.2487 -0.0731  0.3082
 4499SOL    HW124959   3.484   2.146   4.864 -0.5715 -1.0973  0.9747
 4499SOL    HW224960   3.601   2.165   4.780 -0.1488  2.2671  2.0562
 4500SOL     OW24961   2.011   4.259  12.971  0.2897  0.1853  0.0170
 4500SOL    HW124962   1.989   4.334  13.026 -0.6470 -0.4333  0.4888
 4500SOL    HW224963   2.075   4.299  12.912 -1.8456  0.3716 -2.1556
 4501SOL     OW24964   1.518   2.293  10.441 -0.1021  0.5799 -0.2082
 4501SOL    HW124965   1.489   2.365  10.386  2.3653  1.1712 -0.7080
 4501SOL    HW224966   1.609   2.275  10.418 -0.0262  1.1377 -0.3296
 4502SOL     OW24967   1.166   4.275  16.403 -0.0032  0.3784 -0.2512
 4502SOL    HW124968   1.235   4.292  16.339  0.1671 -2.7882 -0.9163
 4502SOL    HW224969   1.169   4.346  16.468 -1.9683 -0.2018  0.4827
 4503SOL     OW24970   2.521   3.987   1.819  0.0422  0.2621 -0.7026
 4503SOL    HW124971   2.449   4.043   1.846 -1.2823 -1.6957 -0.1167
 4503SOL    HW224972   2.498   3.901   1.856  0.9715 -0.6380 -2.1937
 4504SOL     OW24973   0.468   3.706   2.036  0.9297 -0.5635  0.3750
 4504SOL    HW124974   0.385   3.710   2.084  2.1766  2.8496  2.2714
 4504SOL    HW224975   0.421   3.704   1.953  0.5506 -1.9776  0.6216
 4505SOL     OW24976   1.167   1.260   3.447 -0.2123 -0.2093 -0.5775
 4505SOL    HW124977   1.100   1.203   3.484 -0.2539  0.4395  0.3683
 4505SOL    HW224978   1.184   1.306   3.530 -1.4000 -2.8504  1.1247
 4506SOL     OW24979   1.333   1.921   9.437 -0.0506  0.0412 -0.2348
 4506SOL    HW124980   1.269   1.957   9.498 -0.9127 -2.6900  0.4762
 4506SOL    HW224981   1.317   1.828   9.449 -3.1811  0.6617  0.3237
 4507SOL     OW24982   1.784   2.957   4.638  0.5427  0.1668 -0.0935
 4507SOL    HW124983   1.752   3.035   4.684  1.4731  0.0257  0.7875
 4507SOL    HW224984   1.872   2.980   4.609  0.8709  2.5297  2.8134
 4508SOL     OW24985   0.985   0.498   4.246  0.4294 -0.8780  0.0323
 4508SOL    HW124986   0.986   0.529   4.337 -0.3234  0.7741 -0.5228
 4508SOL    HW224987   1.035   0.562   4.196 -1.5600 -0.2366 -1.1635
 4509SOL     OW24988   3.880   1.943   7.179 -1.0592 -0.0642  0.4846
 4509SOL    HW124989   3.812   2.007   7.160 -0.5196  0.0477 -1.1270
 4509SOL    HW224990   3.889   1.951   7.274 -1.1291  0.4419  0.4472
 4510SOL     OW24991   3.259   3.268   5.199 -0.2886 -0.6350 -0.1331
 4510SOL    HW124992   3.345   3.309   5.196  0.3425 -1.9459  0.2355
 4510SOL    HW224993   3.257   3.243   5.292  1.3383 -1.2278 -0.2578
 4511SOL     OW24994   2.300   3.115   6.480  0.4062 -0.6833  0.4552
 4511SOL    HW124995   2.349   3.134   6.400 -0.5518  1.8410  0.4750
 4511SOL    HW224996   2.243   3.044   6.448  1.9860 -1.7914  0.0749
 4512SOL     OW24997   3.783   2.043   6.003  0.3517  0.3235 -0.0514
 4512SOL    HW124998   3.745   1.964   6.040 -0.3048  0.4830 -0.3885
 4512SOL    HW224999   3.703   2.095   5.997  0.7889  0.9385 -0.5642
 4513SOL     OW25000   3.099   3.894   9.889  0.4200 -0.1991  0.0437
 4513SOL    HW125001   3.063   3.929   9.807 -0.0073  0.0256  0.3248
 4513SOL    HW225002   3.148   3.817   9.860  0.5529 -0.3653  0.7073
 4514SOL     OW25003   0.836   1.310   3.792  0.2982 -0.2972 -0.0742
 4514SOL    HW125004   0.780   1.331   3.718  1.3246 -0.4201 -0.8852
 4514SOL    HW225005   0.776   1.277   3.859 -1.9657  2.9460 -0.5352
 4515SOL     OW25006   2.933   2.690   6.000 -0.1311  0.3857 -0.0415
 4515SOL    HW125007   2.920   2.783   6.018  0.2151  0.7431 -1.6625
 4515SOL    HW225008   2.998   2.666   6.066  0.2230 -0.4438 -0.6939
 4516SOL     OW25009   1.914   3.592   5.969 -0.3205 -0.2493  0.1836
 4516SOL    HW125010   1.983   3.589   6.036  0.3186  0.5864 -0.4507
 4516SOL    HW225011   1.837   3.629   6.012 -1.5538  0.0257 -2.3187
 4517SOL     OW25012   1.757   2.188  12.858  0.3354  0.6717  0.3757
 4517SOL    HW125013   1.754   2.115  12.797 -3.2936  0.2228  1.0654
 4517SOL    HW225014   1.832   2.237  12.824  0.5043 -0.8856 -1.4736
 4518SOL     OW25015   3.627   2.772   2.474 -0.5026  0.5639 -0.2026
 4518SOL    HW125016   3.703   2.818   2.511  0.7018  0.5602 -2.6725
 4518SOL    HW225017   3.671   2.686   2.475  0.3457  0.9950 -0.0619
 4519SOL     OW25018   2.987   1.166   5.762  0.3699 -0.1872 -0.0735
 4519SOL    HW125019   3.060   1.225   5.747 -0.8855  1.9867  2.4426
 4519SOL    HW225020   3.001   1.097   5.697  0.4425  1.9563 -2.3110
 4520SOL     OW25021   4.378   2.670  12.457 -0.1438  0.0762 -0.3013
 4520SOL    HW125022   4.327   2.741  12.494 -1.2999 -1.4368  1.0117
 4520SOL    HW225023   4.336   2.595  12.498  1.4595 -1.2142 -0.9768
 4521SOL     OW25024   0.541   1.066   5.437  0.3214  0.0345 -0.0387
 4521SOL    HW125025   0.499   1.040   5.519  1.6584 -0.1345  0.5944
 4521SOL    HW225026   0.502   1.152   5.421  3.2436  1.4120  0.2965
 4522SOL     OW25027   0.849   1.480  16.194  0.0463 -0.2616  0.0081
 4522SOL    HW125028   0.780   1.514  16.139 -1.1778 -2.7192  0.0249
 4522SOL    HW225029   0.853   1.548  16.261  0.2162  1.1928 -1.4845
 4523SOL     OW25030   1.289   3.904   7.454  0.1061 -0.3242 -0.1502
 4523SOL    HW125031   1.290   3.964   7.528  1.2476 -2.3995  1.5062
 4523SOL    HW225032   1.308   3.963   7.381 -0.5308  0.1485  0.0718
 4524SOL     OW25033   1.284   2.318   6.540 -0.3218 -0.6034 -0.4057
 4524SOL    HW125034   1.293   2.238   6.488 -1.2154 -0.3455 -0.9522
 4524SOL    HW225035   1.307   2.385   6.475  3.8668 -1.5570  0.0570
 4525SOL     OW25036   2.548   2.001   0.675 -0.2898 -0.2790 -0.7098
 4525SOL    HW125037   2.584   2.058   0.607  1.0627  0.3783  0.5481
 4525SOL    HW225038   2.611   2.000   0.747 -1.5161  0.0215  0.3594
 4526SOL     OW25039   4.221   2.853   9.631  0.1374  0.1127  0.3320
 4526SOL    HW125040   4.153   2.855   9.564  0.5819  0.5839 -0.1049
 4526SOL    HW225041   4.296   2.843   9.573 -0.7742 -1.5159 -0.5700
 4527SOL     OW25042   0.803   0.956   6.410 -0.4670  0.0541  0.3356
 4527SOL    HW125043   0.709   0.954   6.397 -0.3262 -1.7016 -0.4630
 4527SOL    HW225044   0.831   0.913   6.329  1.6255  0.6094  0.7532
 4528SOL     OW25045   3.616   3.696   2.887 -0.3933  0.3547  0.4299
 4528SOL    HW125046   3.628   3.605   2.913 -2.0205  0.0205  0.0128
 4528SOL    HW225047   3.542   3.687   2.827 -0.3847 -1.8359  0.7501
 4529SOL     OW25048   0.986   0.402   3.433  0.4678  0.8143  0.1462
 4529SOL    HW125049   0.913   0.373   3.378  1.6557  0.1059 -1.0506
 4529SOL    HW225050   0.966   0.495   3.444  2.8748  1.0009  2.9826
 4530SOL     OW25051   3.738   3.095   8.201 -0.2429 -0.4420 -0.2021
 4530SOL    HW125052   3.803   3.042   8.247 -0.4237 -1.1998 -0.8415
 4530SOL    HW225053   3.682   3.021   8.179 -1.0637 -0.1226  0.8121
 4531SOL     OW25054   2.991   2.246   6.688  0.0748  0.6976  0.0551
 4531SOL    HW125055   2.952   2.167   6.724  3.5613 -0.1136  2.1098
 4531SOL    HW225056   3.074   2.221   6.647 -0.9149 -0.6224 -1.1403
 4532SOL     OW25057   0.753   3.685  14.280  0.7355  0.5236 -0.0418
 4532SOL    HW125058   0.689   3.618  14.304  1.8936 -1.0123 -1.2037
 4532SOL    HW225059   0.837   3.640  14.279 -0.5598 -1.8462 -1.7955
 4533SOL     OW25060   2.246   1.274  16.397 -0.5286 -0.3307  0.0945
 4533SOL    HW125061   2.340   1.291  16.405 -0.4780 -0.5596  0.0004
 4533SOL    HW225062   2.207   1.347  16.444 -0.8795 -0.0861 -0.5706
 4534SOL     OW25063   1.264   1.506   2.011 -0.1702 -0.4084  0.1998
 4534SOL    HW125064   1.333   1.560   1.974 -1.9729  1.9721  0.3510
 4534SOL    HW225065   1.284   1.421   1.971 -1.5265 -0.3506 -0.5984
 4535SOL     OW25066   0.598   1.349   0.799  0.2278 -0.2397 -0.5804
 4535SOL    HW125067   0.510   1.342   0.761 -0.3805  2.4037  0.2979
 4535SOL    HW225068   0.640   1.284   0.743  0.4734  0.9623 -1.7901
 4536SOL     OW25069   2.376   3.796  11.740 -0.3873 -0.1223 -0.6137
 4536SOL    HW125070   2.429   3.819  11.664 -0.0540 -1.1317 -0.6782
 4536SOL    HW225071   2.444   3.802  11.807 -0.8237  1.9343 -0.3288
 4537SOL     OW25072   0.370   2.495  16.570  0.2943  0.1690  0.0917
 4537SOL    HW125073   0.388   2.508  16.477  0.4843  2.5137  0.4710
 4537SOL    HW225074   0.337   2.405  16.571 -0.0687  0.2792 -1.9871
 4538SOL     OW25075   1.479   3.683   2.005  0.1166 -0.3402  0.1732
 4538SOL    HW125076   1.540   3.738   1.955 -0.0660 -0.2729  0.0232
 4538SOL    HW225077   1.532   3.604   2.008  0.1990 -0.2849  0.1679
 4539SOL     OW25078   0.447   3.864   6.308 -0.2358 -0.2091  0.4691
 4539SOL    HW125079   0.452   3.804   6.233 -1.5735 -0.5037  0.6153
 4539SOL    HW225080   0.538   3.870   6.337  0.0991 -0.7819 -0.4576
 4540SOL     OW25081   3.581   1.758   0.259 -0.4080  0.2037 -0.7255
 4540SOL    HW125082   3.641   1.778   0.332  0.5010 -0.9431 -1.1632
 4540SOL    HW225083   3.636   1.705   0.201  1.5864 -0.8903  2.1249
 4541SOL     OW25084   3.904   0.262  14.101 -0.3925  0.0719 -0.2820
 4541SOL    HW125085   3.815   0.296  14.093  0.0049  0.6766 -2.0592
 4541SOL    HW225086   3.922   0.307  14.184 -2.2705 -1.0491  0.7217
 4542SOL     OW25087   3.022   1.234   8.735 -0.7201 -0.1264  0.0655
 4542SOL    HW125088   2.940   1.186   8.748 -0.0562 -0.3818  3.3606
 4542SOL    HW225089   3.049   1.259   8.823 -0.9862 -0.1896  0.1649
 4543SOL     OW25090   1.368   3.415   5.181  0.2196 -0.6629  0.0681
 4543SOL    HW125091   1.374   3.485   5.246 -0.9643 -0.6006  0.1096
 4543SOL    HW225092   1.423   3.344   5.215  0.4741 -0.7940 -0.6249
 4544SOL     OW25093   2.154   4.490  12.835  0.6830 -0.2715 -0.4577
 4544SOL    HW125094   2.214   4.437  12.888 -1.7355 -2.6363 -0.0543
 4544SOL    HW225095   2.221   4.537  12.785  2.4157 -1.0754  1.0813
 4545SOL     OW25096   4.280   3.410   5.039 -0.0069 -0.3492  0.4878
 4545SOL    HW125097   4.343   3.425   5.109  1.3322 -0.5181 -0.6925
 4545SOL    HW225098   4.330   3.414   4.957 -1.3607 -1.2485 -0.3819
 4546SOL     OW25099   1.752   3.340   9.016 -0.2020 -0.7605  0.2970
 4546SOL    HW125100   1.747   3.328   8.922  0.6080 -0.2719  0.1933
 4546SOL    HW225101   1.838   3.382   9.024 -0.6074  0.3963 -1.4210
 4547SOL     OW25102   2.138   2.886   3.092  0.8264  0.9253  0.0883
 4547SOL    HW125103   2.059   2.847   3.129 -0.1957  1.9838 -1.0036
 4547SOL    HW225104   2.145   2.970   3.137 -0.5777  0.5980  0.9108
 4548SOL     OW25105   0.481   4.403   5.907  0.0793 -0.2175  0.0016
 4548SOL    HW125106   0.568   4.410   5.868 -0.6431  2.2628 -1.1292
 4548SOL    HW225107   0.490   4.353   5.988  0.8617  1.6171  1.0359
 4549SOL     OW25108   2.933   2.357   2.636 -0.1932  0.0317 -0.7489
 4549SOL    HW125109   3.011   2.405   2.609  0.4159 -0.2379  0.5467
 4549SOL    HW225110   2.929   2.275   2.587 -1.0494  1.0811 -2.4642
 4550SOL     OW25111   0.931   0.539   9.733  0.2176  0.0726 -0.3432
 4550SOL    HW125112   0.880   0.588   9.797  1.1084 -1.3660  1.4373
 4550SOL    HW225113   1.009   0.522   9.786  0.1290  1.0837  0.1010
 4551SOL     OW25114   1.887   2.607  10.417  0.0899  0.5354  0.1875
 4551SOL    HW125115   1.877   2.518  10.383  2.4231  0.1345  0.5585
 4551SOL    HW225116   1.825   2.654  10.362  0.4541  1.6664  0.7416
 4552SOL     OW25117   2.021   2.337   1.999  0.0897  0.3213 -0.2644
 4552SOL    HW125118   1.980   2.287   1.929  2.1845 -0.0724 -1.2097
 4552SOL    HW225119   1.954   2.402   2.019  0.7067  0.9898 -0.3910
 4553SOL     OW25120   3.865   0.730   8.536 -1.2946 -0.3730 -0.1277
 4553SOL    HW125121   3.855   0.741   8.630  1.1936 -0.6761  0.1721
 4553SOL    HW225122   3.889   0.637   8.532  0.0877 -0.0897  1.4821
 4554SOL     OW25123   3.358   2.387  11.619  0.1014  0.8401  0.3417
 4554SOL    HW125124   3.310   2.333  11.682  1.7656  0.0243  0.9101
 4554SOL    HW225125   3.286   2.424  11.568 -0.4408  1.4236  1.5293
 4555SOL     OW25126   1.185   0.415  11.583 -0.1818  0.0658 -0.3411
 4555SOL    HW125127   1.138   0.361  11.646 -0.7137  1.3132  0.3445
 4555SOL    HW225128   1.226   0.349  11.527  0.2522  0.4190 -0.4389
 4556SOL     OW25129   2.305   0.507   6.472 -0.2077 -0.5964 -0.1855
 4556SOL    HW125130   2.292   0.596   6.504 -0.2069 -0.7341  0.2048
 4556SOL    HW225131   2.389   0.518   6.429  0.3711 -0.8269  0.8837
 4557SOL     OW25132   0.700   1.880   7.292  0.1001  0.4252 -0.2949
 4557SOL    HW125133   0.745   1.805   7.331  0.9787  1.5990  0.9375
 4557SOL    HW225134   0.612   1.850   7.271 -0.3957  1.7237 -0.0994
 4558SOL     OW25135   4.310   3.636   4.489 -0.2816  0.1975 -0.5341
 4558SOL    HW125136   4.382   3.694   4.462  1.2766 -0.5426  2.0345
 4558SOL    HW225137   4.336   3.554   4.449  0.4781  1.0981 -1.8941
 4559SOL     OW25138   2.874   0.388   6.308 -0.4683 -0.1181 -0.3176
 4559SOL    HW125139   2.899   0.476   6.338  2.3881 -1.0306  0.0068
 4559SOL    HW225140   2.931   0.335   6.364  2.1749  0.8062 -2.1403
 4560SOL     OW25141   1.530   4.373   9.732 -0.1082 -0.1584 -0.1040
 4560SOL    HW125142   1.608   4.390   9.784  0.4045  0.0267 -0.9281
 4560SOL    HW225143   1.514   4.455   9.685 -0.8984 -0.6675 -0.7303
 4561SOL     OW25144   0.964   4.255   4.980  0.1806 -0.3134 -0.1172
 4561SOL    HW125145   0.906   4.272   4.907  0.4906  0.3138 -0.2170
 4561SOL    HW225146   1.023   4.331   4.973  1.0693 -1.2691 -2.7251
 4562SOL     OW25147   3.399   2.414   8.201  0.5157  0.1717  0.4109
 4562SOL    HW125148   3.440   2.498   8.224  0.8266  0.3079 -0.6545
 4562SOL    HW225149   3.354   2.434   8.119 -0.2286  0.2490  0.8349
 4563SOL     OW25150   1.092   2.728   6.658  0.2856  0.1680 -0.0913
 4563SOL    HW125151   1.157   2.674   6.702 -0.9164 -0.6214  0.6972
 4563SOL    HW225152   1.090   2.681   6.575  2.1073 -0.9705  0.5190
 4564SOL     OW25153   4.675   0.968   8.419 -0.2100  0.4887  0.4604
 4564SOL    HW125154   4.643   0.878   8.429  1.1024 -0.2667 -2.1636
 4564SOL    HW225155   4.623   1.017   8.356  0.2487  1.3828  0.7814
 4565SOL     OW25156   2.094   4.050   9.609 -0.8023  0.4702  0.4756
 4565SOL    HW125157   2.062   4.000   9.683  0.9300 -0.3799  0.6631
 4565SOL    HW225158   2.182   4.068   9.643 -0.1108  0.4411 -1.3080
 4566SOL     OW25159   1.011   3.421   9.126 -0.3571  0.4078 -0.1014
 4566SOL    HW125160   0.943   3.439   9.190  1.5372 -1.0837  2.3604
 4566SOL    HW225161   1.081   3.414   9.191  0.6998 -1.1467 -1.3864
 4567SOL     OW25162   1.943   1.340   5.444 -0.2827  0.0844  0.0201
 4567SOL    HW125163   1.867   1.382   5.402 -1.4796 -0.8555  1.2153
 4567SOL    HW225164   1.915   1.371   5.531  0.5888 -0.5584  0.5295
 4568SOL     OW25165   3.046   1.355   3.919  0.6316 -0.3471 -0.1643
 4568SOL    HW125166   3.077   1.282   3.865  1.1655  1.9879 -2.9775
 4568SOL    HW225167   3.087   1.328   4.002 -1.4585  0.3020  1.0682
 4569SOL     OW25168   1.089   2.662   8.737  0.0698  0.3789 -0.1598
 4569SOL    HW125169   1.164   2.630   8.688  0.1588  1.9244 -1.0119
 4569SOL    HW225170   1.128   2.693   8.819  3.3849  0.7586 -1.9014
 4570SOL     OW25171   3.454   2.502   5.803  0.1480  0.4892 -0.3423
 4570SOL    HW125172   3.435   2.466   5.889  1.7124  1.4632  0.4193
 4570SOL    HW225173   3.377   2.474   5.753  0.0449 -0.0165  0.1074
 4571SOL     OW25174   1.954   4.649   7.046  0.0949  0.5759 -0.8548
 4571SOL    HW125175   1.979   4.565   7.083 -0.1954  0.1719 -1.5721
 4571SOL    HW225176   1.938   4.701   7.124 -2.9163 -0.6227 -0.6982
 4572SOL     OW25177   0.218   1.204   3.018  0.1411  0.1800 -0.3657
 4572SOL    HW125178   0.160   1.153   3.076  1.4714  0.2869  1.0721
 4572SOL    HW225179   0.280   1.136   2.995  0.7349  0.5168  0.2137
 4573SOL     OW25180   0.746   2.950   9.050  0.5919  0.2968 -0.3001
 4573SOL    HW125181   0.744   2.866   9.096 -1.5982 -0.5489 -1.9381
 4573SOL    HW225182   0.777   3.008   9.119  0.6997 -1.7472  1.3700
 4574SOL     OW25183   0.488   0.222   7.584  0.3258  0.3609  0.0697
 4574SOL    HW125184   0.515   0.305   7.625  0.8822  0.0349  0.3687
 4574SOL    HW225185   0.507   0.233   7.490  0.5518 -0.5955  0.0062
 4575SOL     OW25186   3.679   2.954   7.021  0.3097 -0.5458 -0.0042
 4575SOL    HW125187   3.757   2.898   7.019  0.3840 -0.3928 -1.6218
 4575SOL    HW225188   3.706   3.022   7.082  1.2623 -0.9629  0.0420
 4576SOL     OW25189   1.536   0.561  12.673  0.2956 -0.0894  0.0984
 4576SOL    HW125190   1.486   0.639  12.653  1.9103  1.8035  3.4289
 4576SOL    HW225191   1.547   0.569  12.768 -1.0734 -0.8566  0.3166
 4577SOL     OW25192   3.440   0.991   6.252  0.1096 -0.1608  0.0564
 4577SOL    HW125193   3.365   0.953   6.299  1.2665 -2.1306  0.3434
 4577SOL    HW225194   3.454   0.920   6.190 -0.5169  0.6885 -1.0588
 4578SOL     OW25195   1.905   4.448   4.237 -0.5338  0.4447  0.2428
 4578SOL    HW125196   1.872   4.385   4.174 -0.1148  0.5371 -0.0693
 4578SOL    HW225197   1.907   4.397   4.318  1.8694  0.0848 -0.0403
 4579SOL     OW25198   3.253   3.176   3.541  0.0710  0.4604  0.6278
 4579SOL    HW125199   3.333   3.228   3.530  0.3641 -0.1591 -0.1926
 4579SOL    HW225200   3.199   3.236   3.592  0.0345 -1.4133  2.7936
 4580SOL     OW25201   2.193   0.345   5.946  0.1511 -0.3536  0.0102
 4580SOL    HW125202   2.114   0.357   5.999  0.7754  0.3168  0.7895
 4580SOL    HW225203   2.184   0.255   5.915 -1.0367 -0.8322  1.7536
 4581SOL     OW25204   3.853   0.069   3.000  0.1436 -0.0878 -0.0273
 4581SOL    HW125205   3.822   0.053   3.089 -1.0157  0.2925 -0.3564
 4581SOL    HW225206   3.855   4.704   2.958  0.2921 -0.5036  0.8286
 4582SOL     OW25207   0.133   2.051  13.327  0.2645  0.5646 -0.2784
 4582SOL    HW125208   0.165   2.050  13.417 -0.0205 -0.8518 -0.1787
 4582SOL    HW225209   0.113   2.140  13.299 -0.2673 -0.0591 -1.8573
 4583SOL     OW25210   1.224   2.843  12.201  0.3126 -0.0741 -0.1745
 4583SOL    HW125211   1.156   2.821  12.137  0.6271  1.0770 -0.8989
 4583SOL    HW225212   1.275   2.762  12.195 -0.5678 -0.8238  2.4448
 4584SOL     OW25213   1.595   1.007   9.155 -0.1450 -0.3750  0.1011
 4584SOL    HW125214   1.516   1.044   9.115 -0.8954 -1.2978  0.7288
 4584SOL    HW225215   1.657   1.072   9.122 -0.6370 -0.1292 -0.3427
 4585SOL     OW25216   0.622   2.974  10.340  0.5597 -0.0451 -1.0583
 4585SOL    HW125217   0.651   3.036  10.407 -0.9177  1.1539 -1.5482
 4585SOL    HW225218   0.695   2.912  10.330  0.4339 -0.0422 -1.9725
 4586SOL     OW25219   2.620   2.166   9.272 -0.4172  0.4040  0.2304
 4586SOL    HW125220   2.667   2.218   9.337  1.4958 -1.1625  0.0931
 4586SOL    HW225221   2.653   2.200   9.189  1.2317 -2.6849 -0.3470
 4587SOL     OW25222   4.252   0.836   9.297  0.5578 -0.1421 -0.4031
 4587SOL    HW125223   4.336   0.875   9.273 -1.3090  4.4572  0.6389
 4587SOL    HW225224   4.206   0.908   9.255  1.9370  0.6975 -0.4934
 4588SOL     OW25225   2.524   3.579  13.777  0.2056  0.0968  0.4704
 4588SOL    HW125226   2.459   3.619  13.719  2.9783  3.1943 -0.5390
 4588SOL    HW225227   2.581   3.527  13.719 -0.0246  1.1116 -0.6720
 4589SOL     OW25228   3.294   1.388   4.180 -0.3500  0.1393 -0.2974
 4589SOL    HW125229   3.389   1.375   4.183 -0.4676 -0.3849  0.9903
 4589SOL    HW225230   3.268   1.341   4.259  0.1167  0.4430  0.0289
 4590SOL     OW25231   2.515   2.919   6.034 -0.4157  0.0975  0.4071
 4590SOL    HW125232   2.551   3.006   6.051  0.0392  0.4591 -2.3704
 4590SOL    HW225233   2.565   2.886   5.960  0.4174  1.2048  0.4813
 4591SOL     OW25234   2.382   4.587   5.581 -0.1266 -0.0018 -0.6512
 4591SOL    HW125235   2.318   4.658   5.594  1.5058  0.9613  2.0551
 4591SOL    HW225236   2.451   4.624   5.635 -0.1122  1.7157 -1.8435
 4592SOL     OW25237   3.013   4.270   6.253 -0.5996  0.0166  0.7636
 4592SOL    HW125238   2.924   4.236   6.240  0.2473 -1.4236 -1.2764
 4592SOL    HW225239   3.056   4.220   6.183  0.2577  0.8371  0.7136
 4593SOL     OW25240   3.876   0.313   9.340 -0.2026  0.4646  0.3498
 4593SOL    HW125241   3.903   0.388   9.286 -0.2769  0.8914  0.9049
 4593SOL    HW225242   3.792   0.290   9.301  0.2925 -1.2084  0.2999
 4594SOL     OW25243   3.414   2.123   8.773 -0.0804 -0.3673 -0.3399
 4594SOL    HW125244   3.418   2.143   8.866 -2.1067  2.5479 -0.8726
 4594SOL    HW225245   3.459   2.040   8.785  0.7959  0.1364 -0.1323
 4595SOL     OW25246   3.203   2.868  10.567  0.4101 -0.2706 -0.0826
 4595SOL    HW125247   3.192   2.899  10.657 -0.9664  3.5289 -1.5446
 4595SOL    HW225248   3.246   2.942  10.524  0.7073 -0.8497 -0.7917
 4596SOL     OW25249   4.127   3.037   6.253 -0.1978  0.1651  0.4191
 4596SOL    HW125250   4.038   3.002   6.253  0.0781 -0.5571 -1.3446
 4596SOL    HW225251   4.149   3.015   6.343 -4.1937 -3.1993  0.5937
 4597SOL     OW25252   0.192   0.268   6.902 -0.2802 -0.1943 -0.2398
 4597SOL    HW125253   0.188   0.173   6.897 -0.9837 -0.0709 -2.1516
 4597SOL    HW225254   0.277   0.282   6.862 -0.2378  0.5140  0.0887
 4598SOL     OW25255   3.040   0.367   2.557 -0.4575 -0.6042  0.2117
 4598SOL    HW125256   3.083   0.290   2.593  0.8853 -0.6071 -1.4226
 4598SOL    HW225257   3.106   0.403   2.499  2.1625 -1.0631  2.9125
 4599SOL     OW25258   1.603   0.719  10.063  0.3641 -0.1105  0.0348
 4599SOL    HW125259   1.663   0.782  10.103  0.3783 -1.2166  1.7496
 4599SOL    HW225260   1.575   0.762   9.982  0.1135 -0.2532  0.0487
 4600SOL     OW25261   2.415   2.593   3.781  0.3869  0.1199 -0.4455
 4600SOL    HW125262   2.348   2.556   3.723  0.0142 -1.5473  1.0666
 4600SOL    HW225263   2.383   2.680   3.804 -1.9166 -1.4988  2.4522
 4601SOL     OW25264   2.623   2.789   6.337  0.2672 -0.1432 -0.3331
 4601SOL    HW125265   2.570   2.709   6.338  0.5631 -0.3371 -0.2038
 4601SOL    HW225266   2.605   2.823   6.250  1.1893 -1.1648 -0.9293
 4602SOL     OW25267   1.580   3.706   7.376 -0.6507 -0.0942 -0.2884
 4602SOL    HW125268   1.602   3.799   7.367  0.4626 -0.5460 -2.2581
 4602SOL    HW225269   1.511   3.702   7.309 -1.5539  1.3384  0.5461
 4603SOL     OW25270   4.064   0.448   4.650  0.2549 -0.1929 -0.1519
 4603SOL    HW125271   3.996   0.515   4.659  0.0628 -0.3086 -0.7155
 4603SOL    HW225272   4.141   0.502   4.665 -0.1657  0.4172 -0.1831
 4604SOL     OW25273   1.085   2.484   0.910 -0.5847  0.3134  0.0606
 4604SOL    HW125274   1.136   2.442   0.979 -0.4933 -1.3765 -1.0228
 4604SOL    HW225275   1.009   2.425   0.914  0.1750 -0.6141  1.0350
 4605SOL     OW25276   2.802   3.659   0.965 -0.2124  0.1225  0.5128
 4605SOL    HW125277   2.861   3.603   1.016  1.0009  1.6412  0.7523
 4605SOL    HW225278   2.855   3.670   0.887  0.7324 -1.4750  0.9289
 4606SOL     OW25279   0.794   0.501   1.947 -0.2294  0.2144  0.1935
 4606SOL    HW125280   0.781   0.406   1.945 -0.0048  0.1328  2.8649
 4606SOL    HW225281   0.888   0.508   1.928 -0.2477 -1.1834 -0.4103
 4607SOL     OW25282   4.721   2.915   9.650 -0.3038 -0.1669  0.2343
 4607SOL    HW125283   0.070   2.852   9.632 -0.4563  0.0113 -1.0237
 4607SOL    HW225284   4.651   2.850   9.663  1.7704 -2.0339  2.0291
 4608SOL     OW25285   0.809   4.127   6.863  0.4116  0.8105  0.0334
 4608SOL    HW125286   0.900   4.130   6.895 -0.8038 -0.4115  3.6145
 4608SOL    HW225287   0.766   4.079   6.934 -3.9926  0.7271 -2.7111
 4609SOL     OW25288   4.571   3.645   7.556 -0.0364  0.3683  0.3691
 4609SOL    HW125289   4.630   3.706   7.600 -0.6985  1.5238 -0.3440
 4609SOL    HW225290   4.503   3.653   7.623 -0.7531 -1.4319 -0.1618
 4610SOL     OW25291   1.104   2.206   5.701  0.2381 -0.9355  0.2372
 4610SOL    HW125292   1.100   2.111   5.707  2.7054 -1.0687 -0.2261
 4610SOL    HW225293   1.156   2.227   5.624 -1.8167 -0.7215 -1.0905
 4611SOL     OW25294   2.298   4.486   1.406 -0.2292 -0.1321 -0.3363
 4611SOL    HW125295   2.279   4.525   1.320  0.4715 -1.5629 -1.1344
 4611SOL    HW225296   2.294   4.568   1.456  1.7630  0.4394 -1.0958
 4612SOL     OW25297   2.523   3.911   4.930 -0.4486 -0.9167  0.2074
 4612SOL    HW125298   2.587   3.850   4.967 -0.8538 -0.5179  1.5638
 4612SOL    HW225299   2.573   3.991   4.917 -0.9119 -0.7517 -0.5288
 4613SOL     OW25300   2.538   0.954   4.889 -0.1036 -0.5396 -1.0188
 4613SOL    HW125301   2.581   1.023   4.939  0.7043 -1.1980 -0.7994
 4613SOL    HW225302   2.532   0.888   4.958 -0.4436  1.9193  1.3164
 4614SOL     OW25303   4.305   4.455  15.565  0.9117 -0.1651  0.1873
 4614SOL    HW125304   4.244   4.421  15.631 -1.3426  0.1108 -1.7416
 4614SOL    HW225305   4.320   4.379  15.509  1.3751  0.9816 -1.2431
 4615SOL     OW25306   2.749   1.295  14.261 -0.0280 -0.3122  0.5063
 4615SOL    HW125307   2.842   1.272  14.266  0.1508  0.4017  0.5248
 4615SOL    HW225308   2.717   1.286  14.351 -1.5454 -0.7535 -0.0911
 4616SOL     OW25309   1.673   3.008   2.434 -0.7367 -0.1902 -0.3130
 4616SOL    HW125310   1.662   2.927   2.483  0.1314  0.1492  0.4556
 4616SOL    HW225311   1.758   2.990   2.394 -1.1748 -1.2772 -0.7301
 4617SOL     OW25312   2.032   0.981  14.092  0.0709  0.2370  0.0942
 4617SOL    HW125313   2.061   0.920  14.024  0.1631 -1.2838  1.5057
 4617SOL    HW225314   1.945   0.945  14.111  0.0007  0.5931  0.4504
 4618SOL     OW25315   2.367   1.754   3.872  0.0560 -0.1054 -0.6794
 4618SOL    HW125316   2.402   1.826   3.924 -1.5155 -0.1624  0.4551
 4618SOL    HW225317   2.299   1.720   3.931  0.5508 -0.2515 -0.1865
 4619SOL     OW25318   3.422   2.747   3.846  0.5017 -0.2358 -0.2120
 4619SOL    HW125319   3.367   2.824   3.856 -0.4335 -0.8312 -0.7363
 4619SOL    HW225320   3.360   2.688   3.803 -1.2471  3.8814 -3.3791
 4620SOL     OW25321   0.664   3.468  14.589 -0.2044 -0.0006  0.6418
 4620SOL    HW125322   0.589   3.516  14.554 -0.4892 -1.4558 -0.7456
 4620SOL    HW225323   0.667   3.386  14.539 -1.0332  0.0387  0.5398
 4621SOL     OW25324   3.061   4.647   4.516  0.8899  0.2314 -0.3514
 4621SOL    HW125325   3.097   0.012   4.536  0.9250  0.1903 -0.2349
 4621SOL    HW225326   3.094   4.587   4.584 -0.2410 -0.2451 -0.2277
 4622SOL     OW25327   4.352   4.075   9.002  0.0726 -0.1457 -0.0725
 4622SOL    HW125328   4.311   4.006   9.054 -0.4423 -0.6710 -1.1769
 4622SOL    HW225329   4.395   4.014   8.942 -2.9558 -1.3277 -1.0769
 4623SOL     OW25330   1.966   0.180  11.913  0.3339 -0.2267  0.2161
 4623SOL    HW125331   1.881   0.141  11.891 -0.7056  2.3645 -0.3449
 4623SOL    HW225332   1.958   0.187  12.009  0.0277  0.0636  0.1683
 4624SOL     OW25333   0.412   4.475   6.469  0.5034 -0.2369  0.4437
 4624SOL    HW125334   0.370   4.559   6.452 -0.5261 -1.1583 -1.5619
 4624SOL    HW225335   0.337   4.416   6.457  0.9354  0.0493 -3.5288
 4625SOL     OW25336   2.306   2.448   5.049 -0.5188 -0.5004 -0.4308
 4625SOL    HW125337   2.326   2.471   4.958 -0.4990 -0.8751 -0.5203
 4625SOL    HW225338   2.379   2.395   5.080 -0.9965 -1.1750 -0.4502
 4626SOL     OW25339   2.107   1.029   6.818 -0.1349 -0.4776 -0.4898
 4626SOL    HW125340   2.195   1.040   6.854 -0.1827  1.3081 -0.9289
 4626SOL    HW225341   2.136   1.058   6.731  0.9144 -0.7697 -0.2369
 4627SOL     OW25342   2.572   4.697   7.720 -0.0447  1.0605  0.2040
 4627SOL    HW125343   2.632   0.004   7.789  2.9832 -2.1608 -1.1452
 4627SOL    HW225344   2.494   0.014   7.760 -0.4454 -0.5317  0.9015
 4628SOL     OW25345   4.513   1.820   9.965  0.2266 -0.6187 -0.1585
 4628SOL    HW125346   4.507   1.891  10.029 -0.0804 -1.2864  0.5551
 4628SOL    HW225347   4.430   1.821   9.917  0.3605  0.6775 -0.3520
 4629SOL     OW25348   3.076   0.528   3.062  0.0011  0.0552 -0.4894
 4629SOL    HW125349   3.145   0.552   3.000  0.3768 -1.9092 -0.8385
 4629SOL    HW225350   3.019   0.465   3.017 -1.2246  1.2391 -0.6104
 4630SOL     OW25351   1.579   2.847   9.532  0.4651  0.0629 -0.3157
 4630SOL    HW125352   1.671   2.829   9.512  0.7202  0.7941  0.1798
 4630SOL    HW225353   1.579   2.909   9.605 -0.1030 -0.6064  0.2382
 4631SOL     OW25354   4.523   3.528   3.158 -0.1644 -1.1414  0.4290
 4631SOL    HW125355   4.437   3.516   3.199 -0.4019  1.2957  0.6823
 4631SOL    HW225356   4.533   3.448   3.107 -1.4976 -0.3894 -1.0242
 4632SOL     OW25357   2.838   0.090  15.599 -0.4909  0.4848 -0.1604
 4632SOL    HW125358   2.915   0.147  15.596 -0.1167 -0.0762 -1.1740
 4632SOL    HW225359   2.772   0.142  15.646 -0.0145  1.5174 -0.6237
 4633SOL     OW25360   4.079   1.319   0.823  0.3967 -0.5643  0.0861
 4633SOL    HW125361   3.994   1.280   0.802  1.1398 -3.0016  1.5031
 4633SOL    HW225362   4.058   1.375   0.898  0.8124  2.1173 -1.8299
 4634SOL     OW25363   3.357   3.195   3.128  0.1071 -0.1342 -0.2400
 4634SOL    HW125364   3.312   3.134   3.186  0.0463  1.4990  1.4222
 4634SOL    HW225365   3.382   3.259   3.194  0.1881 -0.3258 -0.0871
 4635SOL     OW25366   1.257   4.657  13.053  0.3002  0.0765 -0.4402
 4635SOL    HW125367   1.345   4.625  13.036 -0.1208 -1.3872  0.1438
 4635SOL    HW225368   1.226   4.583  13.105  0.6730  1.1474  1.3188
 4636SOL     OW25369   4.192   0.127  16.694  0.5946  0.6480 -0.0662
 4636SOL    HW125370   4.097   0.135  16.701  0.4692  0.3722 -1.4267
 4636SOL    HW225371   4.201   0.128  16.599 -0.5978  0.4583 -0.1761
 4637SOL     OW25372   0.858   2.923   9.670 -0.3227  0.0721 -0.6674
 4637SOL    HW125373   0.782   2.980   9.683 -0.6081 -0.6411  0.7516
 4637SOL    HW225374   0.899   2.950   9.752  0.3525  2.1169 -1.6594
 4638SOL     OW25375   0.496   3.370   3.970 -0.1226  0.0642 -0.4099
 4638SOL    HW125376   0.404   3.359   3.944 -0.3520  1.3500 -0.1550
 4638SOL    HW225377   0.533   3.342   3.886  0.0587  0.0720 -0.3320
 4639SOL     OW25378   0.039   0.628  16.356  0.0639  0.4726  0.2548
 4639SOL    HW125379   4.696   0.564  16.325  1.4073 -0.4398 -0.5902
 4639SOL    HW225380   0.128   0.613  16.326 -0.3181 -1.2533  0.0089
 4640SOL     OW25381   3.044   0.407   1.664  0.5391  0.3788 -0.8386
 4640SOL    HW125382   3.090   0.341   1.716 -0.8535 -2.1845 -2.8493
 4640SOL    HW225383   3.100   0.485   1.674 -2.6452  2.8048 -1.9567
 4641SOL     OW25384   3.774   2.362   4.377  0.1321 -0.2182 -0.1691
 4641SOL    HW125385   3.782   2.298   4.448 -0.3213  0.5495  0.5695
 4641SOL    HW225386   3.864   2.351   4.349  0.2338 -1.0166  0.4763
 4642SOL     OW25387   3.685   0.543  13.996 -0.4631  0.4515  0.3434
 4642SOL    HW125388   3.750   0.507  13.935 -0.9316  1.8186 -0.9578
 4642SOL    HW225389   3.647   0.461  14.028  0.2656  0.2850  0.8020
 4643SOL     OW25390   4.208   0.975   3.865  0.1186 -0.3485 -0.2590
 4643SOL    HW125391   4.284   1.032   3.849 -0.5464  0.2692 -1.2435
 4643SOL    HW225392   4.254   0.893   3.881 -0.3254 -0.2066  1.7030
 4644SOL     OW25393   4.366   0.634   3.048  0.4215 -0.0987 -0.5527
 4644SOL    HW125394   4.294   0.571   3.043  1.1602 -0.7927 -2.7064
 4644SOL    HW225395   4.387   0.633   3.141  1.6013  1.0254 -0.8052
 4645SOL     OW25396   2.988   1.705   3.993  0.1069  0.1543  0.3515
 4645SOL    HW125397   3.013   1.641   3.926  1.6435  1.9039 -0.7429
 4645SOL    HW225398   2.896   1.731   3.989 -0.2047 -0.8951  0.5608
 4646SOL     OW25399   4.174   3.440   8.053 -0.1162 -0.0624 -0.2501
 4646SOL    HW125400   4.115   3.398   8.117  1.1139 -1.6145 -0.1430
 4646SOL    HW225401   4.225   3.368   8.017 -0.0500 -0.2171  0.1518
 4647SOL     OW25402   3.187   2.521   1.384 -0.4231 -0.3083 -0.1660
 4647SOL    HW125403   3.136   2.596   1.355  0.6784  1.4020  2.2908
 4647SOL    HW225404   3.233   2.497   1.303  2.8519  3.3141  0.6085
 4648SOL     OW25405   4.174   3.907   1.972  0.1612  0.9004  0.1647
 4648SOL    HW125406   4.183   3.942   1.883 -0.6877 -3.3209 -1.6133
 4648SOL    HW225407   4.153   3.814   1.959  4.9240  0.0664 -1.6290
 4649SOL     OW25408   2.233   4.027   8.915 -0.0753  0.0077  0.4187
 4649SOL    HW125409   2.144   4.016   8.949  0.2302 -1.3902  0.7502
 4649SOL    HW225410   2.272   3.940   8.919 -1.1604 -0.5142 -0.3983
 4650SOL     OW25411   2.986   3.332   7.620 -0.7050  0.3261 -0.5311
 4650SOL    HW125412   2.940   3.251   7.600  1.3765 -0.8409 -0.6120
 4650SOL    HW225413   2.988   3.371   7.532 -1.1553 -0.1269 -0.7394
 4651SOL     OW25414   0.884   4.012  15.330 -0.0176  0.3172 -0.1741
 4651SOL    HW125415   0.827   4.069  15.381 -0.1759 -0.1511  0.1672
 4651SOL    HW225416   0.971   4.044  15.354 -0.0223  0.2736 -0.1004
 4652SOL     OW25417   4.331   2.826  15.316 -0.2075  0.0370 -0.2646
 4652SOL    HW125418   4.291   2.905  15.352 -0.9502 -1.2185  1.6087
 4652SOL    HW225419   4.423   2.840  15.339 -0.3201 -1.1161  0.8376
 4653SOL     OW25420   1.019   1.585   4.703 -0.4067  0.1666 -0.7482
 4653SOL    HW125421   1.108   1.616   4.718 -0.0363 -0.2379 -2.0823
 4653SOL    HW225422   0.992   1.652   4.640  1.4388  1.2079 -0.4305
 4654SOL     OW25423   3.527   1.136  14.234  0.1832 -0.2774 -0.3558
 4654SOL    HW125424   3.603   1.108  14.285 -2.0260 -0.1932  2.9824
 4654SOL    HW225425   3.458   1.074  14.259  0.6021 -0.2359  0.9054
 4655SOL     OW25426   3.061   2.306   8.199 -0.3902  0.3244  0.4815
 4655SOL    HW125427   3.125   2.289   8.267  1.3444  4.0516 -0.1973
 4655SOL    HW225428   2.991   2.334   8.258 -0.7978  0.1936  0.0581
 4656SOL     OW25429   3.922   2.035   2.787  0.3906 -0.2325  0.1844
 4656SOL    HW125430   3.939   1.989   2.705 -1.8914  1.0164 -0.9788
 4656SOL    HW225431   3.938   2.126   2.761 -0.1476 -0.3516 -0.5513
 4657SOL     OW25432   0.612   3.087  16.637 -0.3125 -0.3094  0.2711
 4657SOL    HW125433   0.690   3.033  16.623  0.9341  1.1347  1.7179
 4657SOL    HW225434   0.567   3.075  16.553 -0.0550  3.1229 -0.3458
 4658SOL     OW25435   2.800   1.570   5.317 -0.5740  0.0993 -0.2360
 4658SOL    HW125436   2.831   1.580   5.227  1.9123  2.0075  0.8449
 4658SOL    HW225437   2.728   1.508   5.307 -0.1967 -0.2272 -0.8962
 4659SOL     OW25438   0.312   1.623  15.532  0.3054  0.0607  0.1192
 4659SOL    HW125439   0.240   1.628  15.469 -1.2306  0.4533  1.9061
 4659SOL    HW225440   0.273   1.581  15.609 -0.4108  0.3306 -0.0945
 4660SOL     OW25441   0.081   4.220   4.279  0.4848 -0.3977  0.0771
 4660SOL    HW125442   0.149   4.280   4.248  0.7965 -0.4220  0.7266
 4660SOL    HW225443   0.068   4.172   4.197 -1.6004  0.6476 -0.1876
 4661SOL     OW25444   0.351   4.175   9.672 -0.5300 -0.0551 -0.0884
 4661SOL    HW125445   0.428   4.222   9.640  0.0317  0.2501  1.7174
 4661SOL    HW225446   0.306   4.168   9.588  0.2266  0.8107 -0.5706
 4662SOL     OW25447   0.977   3.432  14.766  0.2805  0.2425 -0.2384
 4662SOL    HW125448   1.013   3.439  14.854  1.6124  0.4687 -0.8002
 4662SOL    HW225449   0.925   3.352  14.777 -1.3040  1.3167  0.0499
 4663SOL     OW25450   2.342   2.627  16.451  0.5223  0.5498 -0.3302
 4663SOL    HW125451   2.345   2.536  16.420  0.0077  0.1161  0.9110
 4663SOL    HW225452   2.263   2.623  16.504  1.1274  0.7410  0.5790
 4664SOL     OW25453   0.797   3.159   8.472 -0.1119 -0.0924  0.0062
 4664SOL    HW125454   0.774   3.170   8.380  0.2052 -1.4958 -0.2487
 4664SOL    HW225455   0.749   3.077   8.484 -2.7684  0.9007 -3.7268
 4665SOL     OW25456   1.736   2.545  16.194  0.1874 -0.8777 -0.5083
 4665SOL    HW125457   1.717   2.589  16.112  1.8601 -0.4017 -0.6356
 4665SOL    HW225458   1.828   2.534  16.170 -0.0246  0.1601 -1.7483
 4666SOL     OW25459   1.537   0.091   1.290  0.0292  0.3756 -0.0623
 4666SOL    HW125460   1.443   0.100   1.276  0.2350  0.8120 -1.1650
 4666SOL    HW225461   1.561   0.010   1.245 -0.3481  0.2118  0.0316
 4667SOL     OW25462   3.605   4.539   1.940  0.1013 -0.1504  0.1552
 4667SOL    HW125463   3.595   4.487   2.019  1.1713  1.0579  1.0709
 4667SOL    HW225464   3.676   4.598   1.962  0.3058  0.1122 -1.1910
 4668SOL     OW25465   3.050   2.352  12.579 -0.4901  0.0417 -0.1928
 4668SOL    HW125466   2.958   2.369  12.596 -0.6714 -1.8884  0.7621
 4668SOL    HW225467   3.049   2.311  12.492  2.5758  1.8707 -1.1024
 4669SOL     OW25468   2.186   3.611   0.531 -0.9590  0.1146  0.1588
 4669SOL    HW125469   2.281   3.599   0.533 -0.9841  0.0819  1.0183
 4669SOL    HW225470   2.175   3.668   0.607  1.0343  0.7345 -0.0118
 4670SOL     OW25471   4.279   4.027   8.719 -0.0829 -0.9226 -0.1352
 4670SOL    HW125472   4.332   4.105   8.738 -0.4420 -0.2515 -1.9238
 4670SOL    HW225473   4.337   3.983   8.657  2.4165 -0.1934  1.6609
 4671SOL     OW25474   3.723   3.876   9.961 -0.1162  0.0663 -0.1812
 4671SOL    HW125475   3.693   3.830  10.039 -2.5060 -1.5857 -2.0696
 4671SOL    HW225476   3.652   3.927   9.922  1.0046  0.9357 -1.1018
 4672SOL     OW25477   1.012   2.863   5.024 -0.3972 -0.0405  0.6801
 4672SOL    HW125478   1.011   2.771   4.995 -4.1296  0.1076  0.3479
 4672SOL    HW225479   1.057   2.901   4.949 -2.0236  0.5909  0.0126
 4673SOL     OW25480   3.827   4.010   6.816 -0.7433  0.0777 -0.3161
 4673SOL    HW125481   3.863   4.092   6.849  0.8504 -0.5749 -0.4272
 4673SOL    HW225482   3.912   3.967   6.807 -0.9410 -0.5567  0.9868
 4674SOL     OW25483   0.186   1.066   8.139  0.0638 -0.5783 -0.5119
 4674SOL    HW125484   0.127   0.993   8.159  0.4698 -1.3316 -2.1240
 4674SOL    HW225485   0.138   1.104   8.067  0.3375 -1.0061 -0.9220
 4675SOL     OW25486   3.750   2.136   2.316 -0.5987 -0.8489  0.6525
 4675SOL    HW125487   3.841   2.151   2.340 -0.2716 -1.3056 -0.2626
 4675SOL    HW225488   3.725   2.223   2.284  4.7673 -0.6282 -3.0015
 4676SOL     OW25489   2.379   1.176   3.390  0.3793  0.0415 -0.2636
 4676SOL    HW125490   2.459   1.175   3.338 -0.1607  0.7681 -1.0922
 4676SOL    HW225491   2.315   1.133   3.333 -1.0508  2.7739 -0.6911
 4677SOL     OW25492   0.821   0.791   8.898  0.3220 -0.1095 -0.0034
 4677SOL    HW125493   0.905   0.838   8.898  0.2298  0.0602 -1.5621
 4677SOL    HW225494   0.834   0.712   8.950 -1.6808 -0.8375 -0.5962
 4678SOL     OW25495   1.244   3.508   7.171  0.4992 -0.1008 -0.6646
 4678SOL    HW125496   1.329   3.463   7.166 -0.3643 -1.6710 -1.1534
 4678SOL    HW225497   1.202   3.452   7.236  1.0876 -1.5128 -1.4990
 4679SOL     OW25498   3.058   0.606  11.302  0.1874  0.0341 -0.9446
 4679SOL    HW125499   2.994   0.588  11.233 -1.4672 -0.5792  0.7664
 4679SOL    HW225500   3.140   0.608  11.252  0.2845  0.8083 -0.7482
 4680SOL     OW25501   3.480   4.281   2.047  0.0183 -0.1500  0.0101
 4680SOL    HW125502   3.569   4.252   2.026  0.2059 -0.1418  0.8071
 4680SOL    HW225503   3.502   4.351   2.108 -0.5654 -0.6997  0.8448
 4681SOL     OW25504   1.700   3.973   3.824  0.6836 -0.0929  0.1604
 4681SOL    HW125505   1.670   3.946   3.738  0.6312  0.0979  0.1181
 4681SOL    HW225506   1.653   3.921   3.889  1.1247  0.2594  0.7592
 4682SOL     OW25507   0.794   1.499   2.215  0.4733  0.3074 -0.7268
 4682SOL    HW125508   0.872   1.468   2.169  0.2173 -2.5473  0.7268
 4682SOL    HW225509   0.824   1.584   2.248  1.8897 -0.0549 -1.0799
 4683SOL     OW25510   1.664   1.691  11.521  0.2343  0.7108 -0.0461
 4683SOL    HW125511   1.696   1.690  11.430 -0.3509 -2.4356 -0.2164
 4683SOL    HW225512   1.704   1.772  11.552  0.8542  0.5247 -0.3642
 4684SOL     OW25513   0.691   3.775   4.562  0.1822  0.3194 -0.1634
 4684SOL    HW125514   0.638   3.841   4.606  3.3164  1.1970  2.3315
 4684SOL    HW225515   0.778   3.804   4.592 -0.7828  2.1931  0.8158
 4685SOL     OW25516   0.126   1.349   7.509 -0.4867  0.3343 -0.4372
 4685SOL    HW125517   0.131   1.324   7.417  2.2227  1.3698 -0.5898
 4685SOL    HW225518   0.194   1.291   7.544 -0.4998  0.3732 -0.3483
 4686SOL     OW25519   1.864   3.833  10.102  0.3550  0.2403  0.5371
 4686SOL    HW125520   1.831   3.783  10.177  1.7569  0.6048  1.4093
 4686SOL    HW225521   1.888   3.919  10.136  0.0070  0.4249  0.3101
 4687SOL     OW25522   0.044   2.719  15.791  0.3052 -0.1111  0.8715
 4687SOL    HW125523   0.010   2.680  15.872 -0.2098  0.7073  1.0469
 4687SOL    HW225524   0.061   2.653  15.724 -0.3319  0.3211  0.2885
 4688SOL     OW25525   1.464   4.441   1.367  0.3020  0.6543  0.1259
 4688SOL    HW125526   1.514   4.496   1.307  0.2753 -2.0757 -2.3611
 4688SOL    HW225527   1.527   4.416   1.434  1.2034  1.9201 -0.2478
 4689SOL     OW25528   1.161   2.340   6.774  0.7952  0.2977 -0.4132
 4689SOL    HW125529   1.191   2.318   6.686 -0.0666 -0.6930 -0.4525
 4689SOL    HW225530   1.067   2.324   6.783  0.7408  1.3157  0.8904
 4690SOL     OW25531   4.126   2.658   4.823 -0.5643 -0.0956  0.1033
 4690SOL    HW125532   4.035   2.688   4.822 -0.2731  0.7933  0.4476
 4690SOL    HW225533   4.112   2.564   4.807  0.7457  0.1662 -2.5215
 4691SOL     OW25534   1.283   3.754   3.925  0.2128  0.5256 -0.1627
 4691SOL    HW125535   1.254   3.845   3.930 -1.3747 -0.0680  2.0301
 4691SOL    HW225536   1.222   3.703   3.979  1.0968  1.0426  1.3228
 4692SOL     OW25537   0.070   2.481  12.863  0.0910  0.9851  0.2197
 4692SOL    HW125538   0.135   2.418  12.895 -0.1025 -0.0469 -1.4163
 4692SOL    HW225539   0.102   2.558  12.909  1.9419 -0.2339  0.9534
 4693SOL     OW25540   1.736   3.697   3.314 -0.4235  0.2837 -0.2442
 4693SOL    HW125541   1.789   3.653   3.380  2.3711  0.6695 -2.2456
 4693SOL    HW225542   1.652   3.663   3.344 -0.8232  1.7421  0.2798
 4694SOL     OW25543   0.815   2.255   8.198  0.7619  0.0115 -0.2760
 4694SOL    HW125544   0.874   2.318   8.158 -0.7550  2.7214  1.7907
 4694SOL    HW225545   0.822   2.278   8.291  1.3300  2.8104 -1.0347
 4695SOL     OW25546   3.604   2.995   3.663  0.7795  0.2480 -0.2496
 4695SOL    HW125547   3.560   2.925   3.614 -2.6979  1.8855  0.5127
 4695SOL    HW225548   3.698   2.987   3.647  0.8516 -0.6178  0.5790
 4696SOL     OW25549   1.553   0.796  15.459  0.1784 -0.0621  0.2153
 4696SOL    HW125550   1.560   0.874  15.513  1.6085 -0.9837  1.3700
 4696SOL    HW225551   1.620   0.736  15.494 -1.4076 -2.2448 -0.4644
 4697SOL     OW25552   4.306   0.826  15.218  0.3496  0.0901  0.1917
 4697SOL    HW125553   4.248   0.820  15.142 -0.9414 -1.3127  1.2969
 4697SOL    HW225554   4.292   0.919  15.239  0.0938 -0.0517  0.6408
 4698SOL     OW25555   3.406   2.190  10.311 -0.1592  0.6241 -0.2073
 4698SOL    HW125556   3.318   2.228  10.311  0.1656  1.3800  1.0406
 4698SOL    HW225557   3.394   2.130  10.384 -0.2888 -3.5295 -3.6500
 4699SOL     OW25558   2.421   2.035   9.953 -0.4862 -0.3238  0.3442
 4699SOL    HW125559   2.510   2.003   9.967 -0.7987 -1.2423  0.2229
 4699SOL    HW225560   2.393   2.046  10.044  1.8974  0.3974  0.9664
 4700SOL     OW25561   3.036   2.192   6.168 -0.3213  0.1320  0.4184
 4700SOL    HW125562   3.008   2.261   6.229 -3.5573 -0.4937 -0.3580
 4700SOL    HW225563   3.012   2.116   6.222  1.6638  0.1313  1.3082
 4701SOL     OW25564   2.590   2.612  15.097 -0.0802 -0.1415 -0.3948
 4701SOL    HW125565   2.500   2.580  15.104  0.5818 -1.9488 -0.0529
 4701SOL    HW225566   2.603   2.654  15.182 -1.8489  0.2565 -0.3168
 4702SOL     OW25567   3.176   1.143  17.141 -0.4627 -0.5128 -0.0735
 4702SOL    HW125568   3.176   1.122  17.047  0.2464 -1.7622  0.1950
 4702SOL    HW225569   3.225   1.224  17.130  0.9268 -1.3792 -0.3581
 4703SOL     OW25570   1.229   3.029   5.390  0.4232 -0.2868  0.1967
 4703SOL    HW125571   1.202   2.994   5.476 -1.1487 -0.6005 -0.4288
 4703SOL    HW225572   1.203   2.950   5.343  1.5868  1.0076 -2.5918
 4704SOL     OW25573   0.517   1.113   4.759 -0.1724 -0.0950 -0.0807
 4704SOL    HW125574   0.452   1.055   4.799 -1.2914  0.0138 -1.7337
 4704SOL    HW225575   0.460   1.185   4.730  1.0690  0.6175 -0.7328
 4705SOL     OW25576   3.828   1.227   5.084 -0.1166  0.9182  0.3843
 4705SOL    HW125577   3.846   1.168   5.157  0.7630  1.8771  0.9460
 4705SOL    HW225578   3.821   1.165   5.012  1.2196 -1.4901  2.3343
 4706SOL     OW25579   3.924   2.573   5.862  0.7181 -0.2150 -0.0828
 4706SOL    HW125580   4.013   2.539   5.867  0.1997 -1.7086 -0.9126
 4706SOL    HW225581   3.871   2.496   5.884  1.4872 -0.8312 -0.3568
 4707SOL     OW25582   0.117   4.161   3.987 -0.4463  0.0855 -0.2295
 4707SOL    HW125583   0.146   4.174   3.896 -0.6546  2.0573 -0.0140
 4707SOL    HW225584   0.043   4.222   3.993 -0.2119  0.7571 -4.1539
 4708SOL     OW25585   2.960   0.677  11.068 -0.4643 -0.2080 -0.3337
 4708SOL    HW125586   2.970   0.768  11.097  1.2167  0.8924 -4.3409
 4708SOL    HW225587   2.879   0.696  11.021  0.3677 -3.3795 -3.0738
 4709SOL     OW25588   2.823   0.487   0.393  0.2217  0.2934  0.6366
 4709SOL    HW125589   2.795   0.403   0.429  1.4036  0.8681  2.8793
 4709SOL    HW225590   2.771   0.500   0.313 -1.7389  0.6797  1.9811
 4710SOL     OW25591   0.031   0.168  12.469 -0.0392  0.1888 -0.2719
 4710SOL    HW125592   0.091   0.098  12.441 -1.1478 -1.1779  0.8049
 4710SOL    HW225593   4.693   0.166  12.393  1.7288  0.6274 -1.6727
 4711SOL     OW25594   1.941   4.262   9.485 -0.0764  0.0448  0.1246
 4711SOL    HW125595   1.923   4.182   9.536  1.0040  0.6252  1.4316
 4711SOL    HW225596   2.020   4.227   9.443  0.5990 -0.2654  1.6407
 4712SOL     OW25597   4.640   3.680  15.766 -0.4841 -0.2802  0.4455
 4712SOL    HW125598   4.710   3.673  15.701  0.1740  1.4017  0.9808
 4712SOL    HW225599   4.651   3.608  15.828  1.1418 -1.3804 -1.0901
 4713SOL     OW25600   0.489   1.501   8.683  0.0270 -0.2017 -0.3376
 4713SOL    HW125601   0.413   1.444   8.693 -0.5566  0.3170 -1.8129
 4713SOL    HW225602   0.532   1.476   8.765 -1.7473  0.7991  0.8820
 4714SOL     OW25603   0.386   1.147   3.740  0.2008 -0.2188  0.3575
 4714SOL    HW125604   0.314   1.180   3.686 -0.0334  0.3073  0.9949
 4714SOL    HW225605   0.457   1.143   3.675 -0.1914 -0.1785 -0.0765
 4715SOL     OW25606   1.719   2.875   4.099  0.1961  0.2360 -0.1121
 4715SOL    HW125607   1.725   2.814   4.025 -2.6334 -1.4413  1.0543
 4715SOL    HW225608   1.727   2.963   4.062 -1.9739  1.5156  2.4863
 4716SOL     OW25609   4.472   1.254   8.805  0.5438 -0.1401 -0.4952
 4716SOL    HW125610   4.533   1.235   8.876 -0.2255  2.6931  0.9211
 4716SOL    HW225611   4.523   1.219   8.732  0.2611 -1.3088 -0.1214
 4717SOL     OW25612   2.755   3.327  16.224  0.0473  0.0833 -0.9888
 4717SOL    HW125613   2.765   3.232  16.222  2.1653  0.2497  0.9790
 4717SOL    HW225614   2.827   3.359  16.279 -0.4210 -0.2967 -0.1589
 4718SOL     OW25615   2.588   4.515   6.669 -0.0382 -0.0380 -0.1112
 4718SOL    HW125616   2.618   4.597   6.630  4.1350 -2.1538 -1.3485
 4718SOL    HW225617   2.628   4.529   6.755  1.9688  1.5753 -1.3212
 4719SOL     OW25618   3.480   4.384   5.106  0.5031  0.0318 -0.4114
 4719SOL    HW125619   3.444   4.362   5.020 -1.3306 -0.0067  0.3620
 4719SOL    HW225620   3.416   4.334   5.157 -0.1157  1.1548 -0.0908
 4720SOL     OW25621   1.231   4.294   6.064 -0.0719  0.0830 -0.0905
 4720SOL    HW125622   1.260   4.325   6.150  0.9065 -1.2929  0.0824
 4720SOL    HW225623   1.140   4.321   6.055  0.2092  0.3685 -1.9991
 4721SOL     OW25624   2.852   3.966   5.978 -0.1377 -0.2854  0.8351
 4721SOL    HW125625   2.830   4.059   5.969 -1.8038 -0.8739 -1.1111
 4721SOL    HW225626   2.781   3.913   5.941  1.7803 -1.7397 -0.7509
 4722SOL     OW25627   1.140   0.678   7.577 -0.8126 -0.4158 -0.4855
 4722SOL    HW125628   1.073   0.631   7.527  0.2372 -1.7093 -0.6753
 4722SOL    HW225629   1.212   0.708   7.521 -2.3214 -1.8896 -3.2317
 4723SOL     OW25630   2.917   1.435   0.720 -0.2136 -0.4096 -0.2916
 4723SOL    HW125631   2.987   1.467   0.778 -0.4366 -1.3834  0.5202
 4723SOL    HW225632   2.860   1.389   0.782 -0.8494 -0.0455 -0.6184
 4724SOL     OW25633   0.710   2.208   0.330  0.2551 -0.4299  0.1084
 4724SOL    HW125634   0.623   2.233   0.297  0.1013 -1.2482 -0.1121
 4724SOL    HW225635   0.714   2.231   0.423  1.0442 -1.7165  0.3894
 4725SOL     OW25636   2.042   4.705   6.782  0.1434  0.2502 -0.4188
 4725SOL    HW125637   2.002   0.070   6.765 -0.8381  0.1709  1.5131
 4725SOL    HW225638   2.012   4.695   6.872  0.0393 -0.4045 -0.5271
 4726SOL     OW25639   0.746   0.917  13.220  0.1889 -0.3063  0.3665
 4726SOL    HW125640   0.826   0.930  13.270  1.2134 -3.1593 -0.5019
 4726SOL    HW225641   0.777   0.841  13.171 -0.0436 -1.9401  2.7035
 4727SOL     OW25642   3.317   1.498   7.668  0.2472 -0.0196 -0.0532
 4727SOL    HW125643   3.276   1.513   7.582 -1.0359 -0.3584  0.4896
 4727SOL    HW225644   3.248   1.515   7.732 -0.6267 -0.3307 -0.8945
 4728SOL     OW25645   4.671   1.452  12.804  0.2726  0.5060 -0.0963
 4728SOL    HW125646   4.578   1.459  12.823  0.0968 -1.2011 -0.3265
 4728SOL    HW225647   4.704   1.538  12.829  0.0356  0.2962  0.8992
 4729SOL     OW25648   1.335   1.488   2.928  0.6672  0.2079 -0.0180
 4729SOL    HW125649   1.364   1.579   2.922 -1.9551  0.9410 -1.5254
 4729SOL    HW225650   1.240   1.493   2.932  0.8200  2.5085  0.4644
 4730SOL     OW25651   3.928   0.647   4.782 -0.0116  0.2363 -0.2524
 4730SOL    HW125652   3.903   0.632   4.873  1.9462 -2.1268 -0.1085
 4730SOL    HW225653   3.982   0.726   4.785 -0.6582  0.6564  0.2773
 4731SOL     OW25654   1.683   1.728   5.993  0.1690  0.2828  0.3511
 4731SOL    HW125655   1.605   1.686   5.958 -0.2840 -0.0808  1.8050
 4731SOL    HW225656   1.720   1.768   5.914  1.0399 -1.9806 -0.3768
 4732SOL     OW25657   2.668   1.947   8.931  0.3520  0.0035  0.4824
 4732SOL    HW125658   2.698   1.969   8.842  2.5570  2.5053  1.8521
 4732SOL    HW225659   2.586   1.996   8.940  1.7361  2.3546  0.3751
 4733SOL     OW25660   4.382   1.008   4.749  0.7914 -0.1765  0.0464
 4733SOL    HW125661   4.400   1.079   4.687 -1.3016  1.6149  1.4807
 4733SOL    HW225662   4.411   1.053   4.829  2.2791  1.8426 -1.6303
 4734SOL     OW25663   3.163   1.120   8.057  0.0989  0.4717  0.1486
 4734SOL    HW125664   3.154   1.025   8.053 -0.0156  0.4550  0.6823
 4734SOL    HW225665   3.231   1.130   8.124  1.6831  1.7502 -1.6651
 4735SOL     OW25666   4.619   0.646   7.733 -0.2391 -0.0730  0.6185
 4735SOL    HW125667   4.637   0.566   7.782  0.7005 -0.3016 -0.1114
 4735SOL    HW225668   4.634   0.622   7.642  3.9401  1.2488  0.9699
 4736SOL     OW25669   4.639   4.508   9.123 -0.6171  0.0774  0.2355
 4736SOL    HW125670   4.606   4.428   9.164 -1.8675 -0.3634 -1.6056
 4736SOL    HW225671   4.620   4.571   9.192 -0.0305  0.6224 -0.1082
 4737SOL     OW25672   0.899   1.789   5.409  0.0259 -0.1622  0.2249
 4737SOL    HW125673   0.869   1.804   5.319  0.7711  0.4802  0.0831
 4737SOL    HW225674   0.888   1.871   5.457  0.4652  0.8533 -1.4048
 4738SOL     OW25675   0.293   0.547   5.939 -0.0105 -0.1224 -0.0985
 4738SOL    HW125676   0.322   0.626   5.985 -0.9314 -0.2195  0.6305
 4738SOL    HW225677   0.344   0.560   5.859 -1.2089 -0.4767 -0.9236
 4739SOL     OW25678   4.192   1.755  14.125  0.2325 -0.5454 -0.6543
 4739SOL    HW125679   4.244   1.691  14.077  0.2316  1.8736 -3.8587
 4739SOL    HW225680   4.129   1.776  14.057 -0.3682 -0.8041 -0.1690
 4740SOL     OW25681   1.076   1.690  15.848 -0.0065  0.1449  0.5364
 4740SOL    HW125682   1.055   1.748  15.775 -0.3114  0.1373  0.6176
 4740SOL    HW225683   1.171   1.704  15.855  0.0701  0.3820 -0.9100
 4741SOL     OW25684   2.155   3.374   8.384 -0.2084  0.0338  0.2011
 4741SOL    HW125685   2.132   3.348   8.473  1.0573 -0.1552  0.4706
 4741SOL    HW225686   2.128   3.467   8.384 -0.6095 -0.0742 -1.1093
 4742SOL     OW25687   1.570   1.798  13.991  0.1903 -0.2389 -0.0348
 4742SOL    HW125688   1.544   1.875  13.942  2.5634 -0.0438 -0.9803
 4742SOL    HW225689   1.580   1.844  14.074 -2.2392  3.5598 -1.8374
 4743SOL     OW25690   1.309   4.632   8.852  0.7842 -0.4690  0.3053
 4743SOL    HW125691   1.216   4.617   8.871  0.9619 -0.4538  1.1935
 4743SOL    HW225692   1.336   4.541   8.850 -1.5582 -1.1039 -2.0991
 4744SOL     OW25693   1.493   2.147  13.614  0.5687  0.4302 -0.0017
 4744SOL    HW125694   1.407   2.179  13.588  0.7961 -0.2590 -1.6206
 4744SOL    HW225695   1.543   2.212  13.566 -0.3382  0.7563 -0.4865
 4745SOL     OW25696   4.262   1.681   8.237 -0.2458  0.3223 -0.1961
 4745SOL    HW125697   4.201   1.638   8.296  0.6838 -0.3613  0.2673
 4745SOL    HW225698   4.212   1.656   8.159  2.3858 -2.1084 -1.0977
 4746SOL     OW25699   1.024   3.748   9.171  0.0557  0.6146 -0.1280
 4746SOL    HW125700   1.018   3.678   9.107 -1.6709  0.6652 -0.0390
 4746SOL    HW225701   1.113   3.782   9.164 -0.4530  1.6621 -1.3661
 4747SOL     OW25702   2.232   2.122  11.178  0.6026 -0.2043  0.2660
 4747SOL    HW125703   2.154   2.097  11.227 -0.1387  2.1018  0.2695
 4747SOL    HW225704   2.237   2.217  11.188 -0.9337 -0.1276  0.4092
 4748SOL     OW25705   1.709   0.344   2.277 -0.1672  0.3529  0.3655
 4748SOL    HW125706   1.672   0.376   2.195  0.0416  0.6570  0.3894
 4748SOL    HW225707   1.654   0.402   2.329 -0.6752  2.4132 -2.4559
 4749SOL     OW25708   1.823   1.228   6.406 -0.2271 -0.1462  0.3300
 4749SOL    HW125709   1.813   1.166   6.333  0.6863 -2.5156  2.2177
 4749SOL    HW225710   1.747   1.219   6.463 -0.0872 -1.4655  0.3150
 4750SOL     OW25711   3.611   2.699   4.235 -0.3039  0.3171  0.0591
 4750SOL    HW125712   3.700   2.665   4.221  0.1372  1.5264 -0.0857
 4750SOL    HW225713   3.569   2.659   4.159  1.1832 -0.7834 -0.1964
 4751SOL     OW25714   2.424   0.583   7.177  0.5921  0.3839 -0.4847
 4751SOL    HW125715   2.416   0.489   7.194 -1.6251  0.5824 -0.4303
 4751SOL    HW225716   2.362   0.589   7.104 -3.1105  1.1766  2.7166
 4752SOL     OW25717   0.938   3.309   0.981  0.0328 -0.0067  0.3431
 4752SOL    HW125718   0.857   3.353   1.007 -0.3901  0.4890 -1.7887
 4752SOL    HW225719   0.906   3.259   0.906 -0.4027  1.6409 -0.5749
 4753SOL     OW25720   0.101   3.582   4.089 -0.0489 -0.0176  0.2453
 4753SOL    HW125721   0.060   3.669   4.096  1.0750  0.3082  2.7890
 4753SOL    HW225722   0.141   3.570   4.175 -0.4427 -0.7131  0.3328
 4754SOL     OW25723   4.654   3.903   2.208 -0.2344 -0.0135 -0.4906
 4754SOL    HW125724   4.640   3.871   2.297 -0.3190  0.2557 -0.4061
 4754SOL    HW225725   4.572   3.944   2.181 -0.5112 -1.0837 -1.2792
 4755SOL     OW25726   4.561   0.394  12.242  0.3874  0.2415 -0.0437
 4755SOL    HW125727   4.478   0.397  12.194 -0.1612 -1.9940  0.7814
 4755SOL    HW225728   4.608   0.318  12.206 -3.0224 -2.7694  1.9185
 4756SOL     OW25729   2.795   0.362   4.600 -0.2616  0.4062 -0.1843
 4756SOL    HW125730   2.880   0.327   4.573 -0.2601  0.0002  0.3335
 4756SOL    HW225731   2.784   0.311   4.681 -0.9486 -1.3853 -1.3947
 4757SOL     OW25732   0.449   2.048   0.379 -0.7243  0.2556  0.4539
 4757SOL    HW125733   0.447   2.121   0.317 -2.8327 -1.3411 -1.3530
 4757SOL    HW225734   0.380   1.993   0.341  0.1447 -0.1951 -0.4765
 4758SOL     OW25735   2.459   4.263   9.162  0.2374 -0.1961  0.3069
 4758SOL    HW125736   2.391   4.221   9.215 -2.0594 -0.2847 -2.7332
 4758SOL    HW225737   2.487   4.190   9.107  0.4673 -0.1649  0.3807
 4759SOL     OW25738   2.804   1.648   1.212 -0.8568 -0.6997  0.8373
 4759SOL    HW125739   2.825   1.631   1.304  2.4018 -0.2095  0.1742
 4759SOL    HW225740   2.892   1.619   1.185  0.0406  1.0848  1.8770
 4760SOL     OW25741   3.467   2.150   8.520 -0.4364 -0.2296 -0.4614
 4760SOL    HW125742   3.424   2.140   8.605 -2.2545  0.6647 -1.2954
 4760SOL    HW225743   3.549   2.100   8.530 -0.6955 -0.4668  0.5129
 4761SOL     OW25744   2.860   2.347   8.383 -0.1171  0.0480 -0.5145
 4761SOL    HW125745   2.926   2.293   8.425  1.7104  2.0145 -0.8616
 4761SOL    HW225746   2.781   2.315   8.426  0.1961  0.8771  0.6910
 4762SOL     OW25747   2.276   2.762  16.798  0.2706 -0.5595 -0.4636
 4762SOL    HW125748   2.370   2.773  16.785  0.5528  1.9050  3.5308
 4762SOL    HW225749   2.249   2.705  16.726 -2.6812  2.8852 -2.1008
 4763SOL     OW25750   3.854   3.483   0.558  1.0396  0.2349 -0.5559
 4763SOL    HW125751   3.801   3.553   0.596  0.8462  0.5955 -1.4964
 4763SOL    HW225752   3.804   3.447   0.485  0.3577 -0.6959  0.3643
 4764SOL     OW25753   4.393   3.051  16.065  0.1436 -0.4296  0.1115
 4764SOL    HW125754   4.425   3.031  15.977  1.4721  0.4210  0.3979
 4764SOL    HW225755   4.408   2.972  16.116 -0.5084 -0.1446  0.7438
 4765SOL     OW25756   3.278   1.455   5.481  0.0041 -0.0476  0.2596
 4765SOL    HW125757   3.266   1.496   5.396  0.7423  1.9177  1.1142
 4765SOL    HW225758   3.190   1.457   5.519  0.3423  0.8555  1.0032
 4766SOL     OW25759   0.763   2.414   3.782 -0.0970 -0.7054 -0.0400
 4766SOL    HW125760   0.683   2.435   3.735  0.9201  2.0986 -0.5237
 4766SOL    HW225761   0.818   2.386   3.709 -0.1048 -1.0320  0.0823
 4767SOL     OW25762   1.145   1.325   2.354  0.3030  0.1673 -0.1616
 4767SOL    HW125763   1.176   1.237   2.379  0.4017 -1.0112 -4.3548
 4767SOL    HW225764   1.200   1.379   2.410  0.4133 -0.3897  0.2633
 4768SOL     OW25765   4.541   3.488   6.502 -0.4974 -0.0020 -0.2777
 4768SOL    HW125766   4.447   3.484   6.522  0.2118 -0.1485  3.1460
 4768SOL    HW225767   4.580   3.525   6.581  0.3990  1.2896 -1.3342
 4769SOL     OW25768   0.120   4.273  11.098 -0.7017  0.0964  0.2165
 4769SOL    HW125769   0.188   4.271  11.030 -1.2968 -1.2252 -0.3409
 4769SOL    HW225770   0.161   4.233  11.175 -1.3766 -0.0548  0.4917
 4770SOL     OW25771   2.473   0.813  11.073 -0.5367 -0.1950  0.0912
 4770SOL    HW125772   2.427   0.895  11.095  0.3947  0.2490  0.3805
 4770SOL    HW225773   2.469   0.769  11.158  0.2330  1.9998  1.2811
 4771SOL     OW25774   4.632   3.261   8.970 -0.1155  0.8788 -0.3007
 4771SOL    HW125775   4.601   3.302   8.890  0.1560 -0.4097 -1.0760
 4771SOL    HW225776   4.692   3.200   8.926 -1.2520 -2.7732  3.1582
 4772SOL     OW25777   0.756   2.745  10.246  0.1987  0.0789 -0.8026
 4772SOL    HW125778   0.768   2.706  10.160 -1.3146 -1.2370 -0.4302
 4772SOL    HW225779   0.842   2.784  10.261  0.9678 -1.5253 -1.0212
 4773SOL     OW25780   3.963   1.460   7.596  0.5393 -0.3295  0.7895
 4773SOL    HW125781   3.921   1.484   7.679  0.5191  0.9665  0.4138
 4773SOL    HW225782   4.020   1.386   7.617  0.1269 -0.6263  0.8556
 4774SOL     OW25783   3.830   0.885  16.148 -0.5506 -0.4017  0.2800
 4774SOL    HW125784   3.824   0.968  16.196  0.9396 -0.3207  0.3281
 4774SOL    HW225785   3.805   0.826  16.220  0.7820  0.6185  1.5938
 4775SOL     OW25786   2.468   4.646   4.781  0.1162  0.3438  0.3763
 4775SOL    HW125787   2.543   4.630   4.839  0.3739 -0.7935 -0.2544
 4775SOL    HW225788   2.402   4.684   4.838  0.6385  2.2347 -0.2902
 4776SOL     OW25789   2.694   4.289   2.897 -0.0129  0.2795 -0.1397
 4776SOL    HW125790   2.717   4.221   2.960 -1.6629  0.5303  0.7383
 4776SOL    HW225791   2.708   4.369   2.948  2.5370  0.5058 -1.2230
 4777SOL     OW25792   0.824   2.588   3.982 -0.2134 -0.1887  0.0977
 4777SOL    HW125793   0.775   2.540   4.048  1.1285  1.0880  2.0293
 4777SOL    HW225794   0.809   2.531   3.906  1.2943  2.2030 -1.9844
 4778SOL     OW25795   2.925   0.441   9.324 -0.9153  0.6796  0.2797
 4778SOL    HW125796   2.958   0.365   9.276 -1.7028 -0.2274  1.1744
 4778SOL    HW225797   3.000   0.474   9.374 -0.0375  1.0270 -1.2504
 4779SOL     OW25798   2.482   0.628  13.368 -0.1282 -0.2043  0.2615
 4779SOL    HW125799   2.434   0.599  13.445 -1.1662 -1.1646 -0.7610
 4779SOL    HW225800   2.407   0.651  13.314  0.9336 -0.8426 -1.5040
 4780SOL     OW25801   1.590   3.097   1.358 -0.8304  0.6340 -0.4029
 4780SOL    HW125802   1.678   3.059   1.355 -1.1484 -0.3605  3.2360
 4780SOL    HW225803   1.578   3.130   1.269 -0.7702  2.1514  0.1557
 4781SOL     OW25804   3.717   2.207  16.621  0.2145  0.6894 -0.1537
 4781SOL    HW125805   3.630   2.180  16.591  0.4889 -0.2188 -0.1621
 4781SOL    HW225806   3.725   2.142  16.691  1.2447 -1.9485 -2.7205
 4782SOL     OW25807   1.385   0.811  12.604 -0.8452  0.1528 -0.4053
 4782SOL    HW125808   1.458   0.798  12.543  0.9670 -0.0625  1.8025
 4782SOL    HW225809   1.338   0.879  12.556  0.7786  0.9499 -0.8610
 4783SOL     OW25810   3.295   0.100   8.997  1.0424  0.3744  0.3781
 4783SOL    HW125811   3.337   0.159   9.059 -0.3129  2.8176 -1.0342
 4783SOL    HW225812   3.202   0.106   9.019  0.3122  0.2645 -2.7346
 4784SOL     OW25813   0.935   2.371  15.475  0.0048  0.2446  0.0004
 4784SOL    HW125814   0.860   2.322  15.510  0.0523 -0.5889 -1.0592
 4784SOL    HW225815   0.902   2.398  15.390 -0.3656 -2.1782 -0.6277
 4785SOL     OW25816   3.203   2.648  12.861  1.2147  0.0236  0.4675
 4785SOL    HW125817   3.194   2.642  12.766 -2.4668 -0.4579  0.8218
 4785SOL    HW225818   3.172   2.561  12.887  0.3077 -0.1695 -1.2634
 4786SOL     OW25819   3.140   3.917  15.996  0.4348 -0.9174  0.0078
 4786SOL    HW125820   3.216   3.917  15.938  0.3748 -0.1276 -0.0679
 4786SOL    HW225821   3.137   3.822  16.007 -1.1865 -0.7232  1.2843
 4787SOL     OW25822   0.370   2.952   3.917  0.2454  0.0219  0.0216
 4787SOL    HW125823   0.326   3.028   3.878 -0.3857 -0.0847  0.5075
 4787SOL    HW225824   0.413   2.990   3.993 -0.4135  1.5805 -0.3690
 4788SOL     OW25825   2.825   1.229   6.674  0.1439  0.0098 -0.4702
 4788SOL    HW125826   2.778   1.190   6.600 -0.9472  1.0782 -0.3299
 4788SOL    HW225827   2.862   1.147   6.706 -0.4213 -0.0796 -0.0498
 4789SOL     OW25828   1.987   1.174  12.252  0.6718  0.9019 -0.5981
 4789SOL    HW125829   2.021   1.166  12.162 -1.1315 -2.5570 -0.9713
 4789SOL    HW225830   2.039   1.245  12.288  2.2018  1.1490 -3.2543
 4790SOL     OW25831   3.052   3.849   3.300  0.8020 -0.3066  0.3131
 4790SOL    HW125832   3.133   3.900   3.295 -0.3274  1.4616 -0.0252
 4790SOL    HW225833   3.062   3.823   3.391  0.5095  1.0736  0.7432
 4791SOL     OW25834   0.003   3.958   1.894 -0.1558 -0.2495  0.3424
 4791SOL    HW125835   4.680   3.909   1.964 -1.2349 -1.3777 -1.1454
 4791SOL    HW225836   4.674   3.931   1.817 -1.9266  2.3962  0.5826
 4792SOL     OW25837   1.199   4.390   8.627 -0.1689  0.0141 -0.4114
 4792SOL    HW125838   1.270   4.393   8.692 -2.5372  0.7828  2.1300
 4792SOL    HW225839   1.242   4.390   8.541  0.3339  2.1067 -0.1498
 4793SOL     OW25840   4.184   4.353   1.497 -0.0796  0.0282 -0.2620
 4793SOL    HW125841   4.266   4.314   1.528 -0.0176  0.3250 -0.0509
 4793SOL    HW225842   4.115   4.319   1.555 -1.9962  0.7337 -2.1595
 4794SOL     OW25843   4.508   1.692   3.187 -0.5919  0.3774 -0.7060
 4794SOL    HW125844   4.567   1.731   3.122  0.0633 -0.2113 -0.4680
 4794SOL    HW225845   4.442   1.646   3.136 -0.1290 -1.9886  0.8187
 4795SOL     OW25846   1.220   2.590   3.077 -0.3927  0.3286  0.1838
 4795SOL    HW125847   1.147   2.649   3.060 -0.8636 -0.2473  0.2263
 4795SOL    HW225848   1.179   2.504   3.064 -0.1058  0.1208  0.6488
 4796SOL     OW25849   1.832   2.674   8.296  0.5812 -0.1647 -0.0902
 4796SOL    HW125850   1.802   2.760   8.327  0.3629 -1.4561  3.2654
 4796SOL    HW225851   1.904   2.696   8.236 -2.7507  3.3803 -2.8519
 4797SOL     OW25852   3.667   2.705   6.838 -0.1625 -1.1043 -0.1716
 4797SOL    HW125853   3.629   2.622   6.870 -2.1468 -1.0646 -2.4439
 4797SOL    HW225854   3.745   2.712   6.894 -1.2146 -0.3968  1.2094
 4798SOL     OW25855   4.650   4.442   8.391 -0.2413 -0.3703 -0.5298
 4798SOL    HW125856   0.000   4.410   8.336 -0.5075  0.2779 -1.2533
 4798SOL    HW225857   4.690   4.442   8.478  0.6207  2.2913 -0.9315
 4799SOL     OW25858   3.278   3.961   1.896 -0.0753  0.6386  0.0642
 4799SOL    HW125859   3.237   3.902   1.960  0.6352 -0.5710 -0.5948
 4799SOL    HW225860   3.367   3.961   1.932  0.3107  1.6120 -0.8961
 4800SOL     OW25861   3.441   2.743  10.964  0.4473  0.2747 -0.0204
 4800SOL    HW125862   3.404   2.700  10.887 -0.9128 -0.6121  1.1366
 4800SOL    HW225863   3.411   2.832  10.945 -2.2528 -0.6670 -0.2240
 4801SOL     OW25864   2.938   2.705  15.732  0.1787 -0.2276 -0.1787
 4801SOL    HW125865   2.981   2.781  15.694 -3.2781  1.8764  0.0910
 4801SOL    HW225866   2.848   2.723  15.704 -0.1232 -0.6062  0.5442
 4802SOL     OW25867   2.259   3.328   4.110  0.2809 -0.8916  0.7024
 4802SOL    HW125868   2.266   3.405   4.054 -0.3869  0.1371  1.9975
 4802SOL    HW225869   2.164   3.315   4.114  0.1642 -0.0527  0.8081
 4803SOL     OW25870   0.862   3.947   6.654 -0.2505 -0.0328  0.2612
 4803SOL    HW125871   0.838   4.002   6.728 -1.0990  1.8498 -1.4098
 4803SOL    HW225872   0.788   3.887   6.650  0.0630 -0.4496  0.6998
 4804SOL     OW25873   2.640   4.398   3.761 -0.2997  0.0234  0.0976
 4804SOL    HW125874   2.717   4.440   3.723 -1.4418  0.0982 -2.1613
 4804SOL    HW225875   2.607   4.465   3.821 -0.5470  0.7180 -0.7984
 4805SOL     OW25876   3.549   0.729  17.324  0.2690 -0.4950  0.0227
 4805SOL    HW125877   3.531   0.659  17.386  1.4563  1.0789  2.1491
 4805SOL    HW225878   3.620   0.781  17.360 -1.3042  0.5381  1.6232
 4806SOL     OW25879   4.425   4.535   2.484  0.7984  0.2008  0.1056
 4806SOL    HW125880   4.391   4.540   2.573  1.8739  0.2190  0.5082
 4806SOL    HW225881   4.500   4.477   2.498  2.2213  1.4979 -2.0643
 4807SOL     OW25882   2.132   1.800   0.196  0.3304 -0.3789 -0.2419
 4807SOL    HW125883   2.220   1.762   0.186  1.4167  1.6522  1.7026
 4807SOL    HW225884   2.074   1.731   0.164  1.4986 -1.4629 -0.0073
 4808SOL     OW25885   4.159   3.330   3.759 -0.3489 -0.0147  0.0304
 4808SOL    HW125886   4.104   3.338   3.681 -0.4116 -0.7553  0.0008
 4808SOL    HW225887   4.113   3.400   3.806 -0.2811 -1.5090  2.3171
 4809SOL     OW25888   3.541   2.430   2.827 -0.2367  0.0612 -0.3921
 4809SOL    HW125889   3.461   2.381   2.808 -0.4312 -0.4178  1.6730
 4809SOL    HW225890   3.594   2.416   2.748  0.1088  1.3293 -0.3843
 4810SOL     OW25891   3.892   2.118   8.358  0.0875 -0.5992 -0.3232
 4810SOL    HW125892   3.843   2.079   8.430  0.2541 -0.2034  0.0070
 4810SOL    HW225893   3.958   2.170   8.404 -1.5467  1.1986  0.0307
 4811SOL     OW25894   0.784   3.978   7.339  0.2816 -0.2347  0.1914
 4811SOL    HW125895   0.731   3.909   7.379 -1.1823  0.2543 -0.8877
 4811SOL    HW225896   0.870   3.938   7.348  0.2999 -0.2010  0.1671
 4812SOL     OW25897   3.793   0.458   5.386 -0.4852  0.4346 -0.3362
 4812SOL    HW125898   3.759   0.437   5.299 -1.0318  1.7010 -0.4311
 4812SOL    HW225899   3.847   0.382   5.404  1.2461  1.5362 -0.8691
 4813SOL     OW25900   0.043   3.722   2.989  0.2373 -0.1031  0.3439
 4813SOL    HW125901   4.698   3.664   3.026 -1.0210  1.0127 -0.1718
 4813SOL    HW225902   0.115   3.698   3.048 -0.9459 -1.2712  1.2964
 4814SOL     OW25903   3.952   3.107   9.722 -0.1983  0.4251  0.2164
 4814SOL    HW125904   3.888   3.102   9.651 -0.4614  0.7323  0.4309
 4814SOL    HW225905   3.908   3.064   9.795 -2.0235  3.0203  0.6431
 4815SOL     OW25906   3.044   4.680   8.390 -0.3086  0.7820  0.5567
 4815SOL    HW125907   3.095   4.700   8.311  0.9082  1.7875  1.5884
 4815SOL    HW225908   3.103   0.001   8.453 -0.8999  1.8101  0.4287
 4816SOL     OW25909   2.744   4.203   2.406 -0.5209  0.4688  0.6772
 4816SOL    HW125910   2.723   4.250   2.326  0.9183  1.5444  0.9317
 4816SOL    HW225911   2.659   4.159   2.410 -0.5789  0.4970 -0.3090
 4817SOL     OW25912   0.167   2.528  10.518  0.5918 -0.7815 -1.0453
 4817SOL    HW125913   0.141   2.437  10.536 -0.6621 -0.2939 -0.4188
 4817SOL    HW225914   0.246   2.522  10.464  1.8464  2.4983  0.4147
 4818SOL     OW25915   1.383   3.032   2.064  0.1193  0.8349 -0.8029
 4818SOL    HW125916   1.333   2.975   2.006 -2.3488  0.2657  1.9417
 4818SOL    HW225917   1.454   2.973   2.090 -0.8416  0.4391  0.9263
 4819SOL     OW25918   2.685   4.239   6.773  0.1125  0.2354 -0.4984
 4819SOL    HW125919   2.722   4.168   6.720 -1.5150 -1.2470  0.3670
 4819SOL    HW225920   2.680   4.308   6.707  0.4887  2.2077  1.5472
 4820SOL     OW25921   4.288   4.473   8.311  0.0447  1.1413 -0.0261
 4820SOL    HW125922   4.328   4.421   8.381  0.7153  1.3313 -0.2596
 4820SOL    HW225923   4.205   4.497   8.351  0.2945  1.3293  0.3839
 4821SOL     OW25924   3.559   3.852   7.250 -0.2895  0.3421 -0.4525
 4821SOL    HW125925   3.510   3.773   7.225 -0.1089  0.0490  0.1131
 4821SOL    HW225926   3.590   3.891   7.168  0.0698 -0.4762 -0.7034
 4822SOL     OW25927   3.170   3.010   5.909  0.2719 -0.2005  0.2747
 4822SOL    HW125928   3.230   3.009   5.984  0.8508 -1.6569 -0.2199
 4822SOL    HW225929   3.123   3.093   5.918 -4.0503 -2.8910  2.6873
 4823SOL     OW25930   3.844   3.725   7.728  0.1711  0.0090  0.0285
 4823SOL    HW125931   3.917   3.730   7.666 -0.7059 -0.5051 -1.0452
 4823SOL    HW225932   3.852   3.638   7.768 -1.2235 -1.3766 -2.7393
 4824SOL     OW25933   0.840   3.449   9.330 -0.7485  0.0010  0.0576
 4824SOL    HW125934   0.851   3.426   9.423 -0.7108  0.4860  0.1771
 4824SOL    HW225935   0.796   3.533   9.343 -0.3614  0.5203 -2.1388
 4825SOL     OW25936   1.480   1.536   4.552 -0.5568  0.0616  0.5358
 4825SOL    HW125937   1.570   1.532   4.520 -0.0226  0.2071  2.0343
 4825SOL    HW225938   1.444   1.447   4.549  0.9432 -0.5150 -0.1780
 4826SOL     OW25939   3.246   1.677   6.995 -0.4329  0.2118  0.0137
 4826SOL    HW125940   3.333   1.642   7.016 -0.7115 -0.5305 -0.0491
 4826SOL    HW225941   3.207   1.666   7.081  0.8369  1.1357  0.7031
 4827SOL     OW25942   3.724   2.204   4.651  0.0107 -0.2548 -0.1375
 4827SOL    HW125943   3.766   2.198   4.737  1.6172 -0.2488 -0.9259
 4827SOL    HW225944   3.766   2.131   4.606  1.2937  0.0193  0.6248
 4828SOL     OW25945   3.091   4.507   9.640  0.5417  0.3071  0.1437
 4828SOL    HW125946   3.025   4.456   9.687 -0.7318  0.1626 -1.7525
 4828SOL    HW225947   3.169   4.484   9.689 -0.6362 -1.5573  1.1311
 4829SOL     OW25948   1.479   3.028   5.033  0.2833 -0.1818 -0.5689
 4829SOL    HW125949   1.563   2.991   5.007 -0.1205 -1.2007 -0.4306
 4829SOL    HW225950   1.469   3.078   4.952 -0.2846 -1.6035 -1.3767
 4830SOL     OW25951   4.376   1.240   4.592  0.0863 -0.2120 -0.3184
 4830SOL    HW125952   4.371   1.334   4.610 -0.4567 -0.2287 -0.3870
 4830SOL    HW225953   4.406   1.248   4.502  0.8340 -1.0220 -0.1465
 4831SOL     OW25954   3.782   2.387  11.735  0.5920  0.0606 -0.6410
 4831SOL    HW125955   3.737   2.383  11.820  2.1293 -0.3215  0.1470
 4831SOL    HW225956   3.730   2.461  11.703  0.3996  0.4942  0.6530
 4832SOL     OW25957   3.305   3.701  16.137 -0.1716 -0.3310 -1.0890
 4832SOL    HW125958   3.255   3.729  16.214 -1.0585 -0.1583 -1.7237
 4832SOL    HW225959   3.359   3.779  16.123  0.1128 -0.2758  0.3872
 4833SOL     OW25960   3.587   1.692   4.685 -0.3529  0.5423  0.3959
 4833SOL    HW125961   3.559   1.763   4.626  1.1985 -0.3127 -1.3575
 4833SOL    HW225962   3.517   1.627   4.677  0.1536  0.0649 -0.2133
 4834SOL     OW25963   1.045   2.403   7.683 -0.7388 -0.0640 -0.2880
 4834SOL    HW125964   1.016   2.385   7.593 -1.8100  0.6620 -0.0931
 4834SOL    HW225965   1.015   2.324   7.728 -0.9602 -0.4328 -1.0831
 4835SOL     OW25966   3.861   1.890   1.303 -0.3672 -0.1125  0.4641
 4835SOL    HW125967   3.920   1.918   1.233  0.0139 -3.6130 -0.5679
 4835SOL    HW225968   3.842   1.975   1.343 -3.7150 -0.1439 -1.0463
 4836SOL     OW25969   0.783   1.299  13.847 -0.2361 -0.0564  0.2261
 4836SOL    HW125970   0.863   1.282  13.897 -0.5210 -2.2543 -0.0501
 4836SOL    HW225971   0.715   1.292  13.914 -1.8501 -0.7533 -1.4714
 4837SOL     OW25972   1.662   2.765  12.392 -0.4672 -0.1348 -0.0072
 4837SOL    HW125973   1.728   2.824  12.427 -0.0018  0.4330 -1.8213
 4837SOL    HW225974   1.723   2.699  12.359 -1.4376 -0.6777 -0.7207
 4838SOL     OW25975   2.586   1.139  17.512 -0.1662  0.2429 -0.3739
 4838SOL    HW125976   2.558   1.098  17.431  1.2314 -1.9291  0.2344
 4838SOL    HW225977   2.589   1.066  17.574  1.9755  2.2403  1.9223
 4839SOL     OW25978   3.859   4.713   9.325  0.1413 -0.3176 -0.0742
 4839SOL    HW125979   3.940   0.038   9.303  0.2229 -1.1151 -1.4603
 4839SOL    HW225980   3.872   4.695   9.418 -1.7729 -2.0718 -0.1514
 4840SOL     OW25981   0.637   0.241   3.393 -0.3217 -0.1112  0.4129
 4840SOL    HW125982   0.582   0.166   3.370 -0.4152  0.0650  0.0623
 4840SOL    HW225983   0.633   0.230   3.488  1.1985 -2.5388  0.1824
 4841SOL     OW25984   3.740   0.029   9.010 -0.1091 -0.1907  0.1676
 4841SOL    HW125985   3.784   0.113   9.019 -2.1085  0.7161  1.5579
 4841SOL    HW225986   3.675   0.041   9.079 -1.3955 -1.3596 -0.8395
 4842SOL     OW25987   0.046   3.498   8.585  0.3733  0.6280 -0.2120
 4842SOL    HW125988   0.088   3.437   8.646  1.1490  1.0371 -0.3491
 4842SOL    HW225989   4.711   3.555   8.639  0.4900 -0.9257  1.5733
 4843SOL     OW25990   4.148   3.766   5.282  0.1878 -0.2544  0.0809
 4843SOL    HW125991   4.223   3.794   5.229  0.9848 -0.3205  1.1736
 4843SOL    HW225992   4.080   3.826   5.252 -0.5267 -1.0038  0.2021
 4844SOL     OW25993   0.144   2.056   7.948  0.1478  0.4135 -0.0573
 4844SOL    HW125994   0.105   2.056   8.036  1.8845  0.2049  0.7242
 4844SOL    HW225995   0.070   2.032   7.893 -0.1318 -2.1175  1.4198
 4845SOL     OW25996   1.649   0.714  16.095  0.2844 -0.1126  0.1780
 4845SOL    HW125997   1.707   0.668  16.035 -2.3843 -2.5732 -0.4847
 4845SOL    HW225998   1.623   0.787  16.039  1.1010 -0.1010 -0.1769
 4846SOL     OW25999   2.241   3.422   3.249 -0.6001  0.1158  0.4557
 4846SOL    HW126000   2.332   3.403   3.226 -0.6164  1.6242 -0.8905
 4846SOL    HW226001   2.235   3.517   3.236 -0.2576 -0.1821 -1.8292
 4847SOL     OW26002   3.545   1.864   8.254 -0.0776 -0.5251 -0.1748
 4847SOL    HW126003   3.520   1.954   8.235  0.6064  0.2495  2.6185
 4847SOL    HW226004   3.474   1.847   8.317  1.1647 -1.4687  0.9645
 4848SOL     OW26005   3.034   2.774   7.875 -0.3636 -0.3421  0.3299
 4848SOL    HW126006   3.116   2.802   7.915 -0.7176  1.8201 -0.4819
 4848SOL    HW226007   2.977   2.736   7.942 -1.6670  0.6235 -0.2451
 4849SOL     OW26008   2.244   2.259  14.903 -0.2839  0.0055 -0.2413
 4849SOL    HW126009   2.292   2.333  14.866 -0.1472  0.5897  1.1140
 4849SOL    HW226010   2.254   2.286  14.994 -0.5572 -0.2545 -0.1344
 4850SOL     OW26011   3.235   4.161  13.417  0.0945 -0.3187 -0.1805
 4850SOL    HW126012   3.315   4.116  13.444  0.7486  0.8501 -0.1489
 4850SOL    HW226013   3.200   4.185  13.503 -0.1753 -0.7681 -0.1677
 4851SOL     OW26014   3.965   2.963   3.380  0.5783 -0.4602 -0.8336
 4851SOL    HW126015   3.923   2.883   3.349  1.9098 -2.6873  3.1162
 4851SOL    HW226016   3.894   3.028   3.383  0.4773 -0.6407  0.6774
 4852SOL     OW26017   4.342   0.329   4.599  0.1591 -0.0481 -0.3271
 4852SOL    HW126018   4.335   0.234   4.583  0.1444 -0.1804  0.4792
 4852SOL    HW226019   4.319   0.368   4.514  2.0252 -1.0612 -1.3104
 4853SOL     OW26020   4.234   3.055   9.818  0.1615  0.2038  0.0329
 4853SOL    HW126021   4.230   2.986   9.752 -1.0344 -0.9513  1.3113
 4853SOL    HW226022   4.154   3.100   9.792  1.0157  0.0222 -2.8497
 4854SOL     OW26023   2.527   0.616   9.239 -0.1443 -0.2582  0.0922
 4854SOL    HW126024   2.508   0.529   9.205  0.7265 -0.7663  0.9350
 4854SOL    HW226025   2.438   0.648   9.254  0.6445  2.4269 -0.9185
 4855SOL     OW26026   4.295   3.974  12.977 -0.7070 -0.7855  0.1221
 4855SOL    HW126027   4.237   3.975  13.053 -0.9906  1.1905 -0.1145
 4855SOL    HW226028   4.361   4.035  13.008  0.0471 -2.2948  1.4915
 4856SOL     OW26029   0.566   2.324  15.829 -0.0916 -0.5612 -0.0269
 4856SOL    HW126030   0.493   2.386  15.831  0.9009  0.5645  0.8611
 4856SOL    HW226031   0.535   2.241  15.794  2.4795 -1.5812  0.0764
 4857SOL     OW26032   1.679   0.078   6.521  0.0846 -0.2386 -0.1150
 4857SOL    HW126033   1.751   0.126   6.481  0.7130  0.4955  1.9273
 4857SOL    HW226034   1.651   0.027   6.445 -1.3701  1.4344 -0.6933
 4858SOL     OW26035   3.244   1.219   6.924  0.0332  0.2793 -0.0080
 4858SOL    HW126036   3.287   1.174   6.996 -0.4950  2.1689  1.4803
 4858SOL    HW226037   3.202   1.148   6.874 -0.6493 -1.0767  2.4996
 4859SOL     OW26038   3.863   0.740   4.452  0.6601 -0.2635 -0.0765
 4859SOL    HW126039   3.863   0.660   4.400 -0.8445  0.3357 -1.0033
 4859SOL    HW226040   3.907   0.722   4.535  0.7946  0.7097  0.0641
 4860SOL     OW26041   3.809   2.193  10.608  0.4157  0.2634  0.0389
 4860SOL    HW126042   3.870   2.220  10.540 -0.3641 -0.9655 -1.1531
 4860SOL    HW226043   3.750   2.139  10.556  0.1655  1.6303 -1.0677
 4861SOL     OW26044   2.710   3.898   2.872 -0.7322 -0.2357  0.7665
 4861SOL    HW126045   2.743   3.809   2.887  1.0269  0.1758 -0.6955
 4861SOL    HW226046   2.621   3.878   2.840 -0.7961  1.4089 -0.0637
 4862SOL     OW26047   1.744   4.004   9.502 -0.1899 -0.5065 -0.3276
 4862SOL    HW126048   1.719   4.001   9.595  0.8722  0.5284 -0.0170
 4862SOL    HW226049   1.654   4.004   9.468 -1.8092  1.8641  3.9013
 4863SOL     OW26050   3.180   2.928   2.118  0.1877 -0.3658 -0.1297
 4863SOL    HW126051   3.266   2.941   2.079  0.3963  0.8301  0.7306
 4863SOL    HW226052   3.122   2.931   2.042 -1.4058  0.9054  1.1336
 4864SOL     OW26053   3.978   3.962   2.531 -0.5070  0.7931  0.3391
 4864SOL    HW126054   3.946   3.893   2.590 -0.8068  0.1875 -0.5382
 4864SOL    HW226055   4.010   4.022   2.599 -0.1454  2.1615 -1.0546
 4865SOL     OW26056   0.152   3.156   8.530  0.2091  0.1449  0.3512
 4865SOL    HW126057   0.141   3.174   8.437 -1.3261  0.7346  0.6413
 4865SOL    HW226058   0.243   3.170   8.555  0.4864  0.7597 -0.9784
 4866SOL     OW26059   4.695   2.128   7.526  0.3126 -0.2723 -0.6813
 4866SOL    HW126060   4.690   2.070   7.601 -0.0674 -0.8180 -1.1351
 4866SOL    HW226061   0.007   2.208   7.569 -1.9246  0.2279  0.0779
 4867SOL     OW26062   3.002   1.386   6.936  0.1779  0.8152  0.0877
 4867SOL    HW126063   3.087   1.357   6.903  1.5719  2.8433  1.8677
 4867SOL    HW226064   2.970   1.302   6.968  0.2041  0.9602  0.5039
 4868SOL     OW26065   0.623   2.872   6.686 -0.4262  0.2613  0.2971
 4868SOL    HW126066   0.700   2.816   6.703 -0.3456  0.3960  0.3773
 4868SOL    HW226067   0.562   2.820   6.739  0.6637 -1.3689 -0.0168
 4869SOL     OW26068   0.040   3.332  15.803  0.2497 -0.4996  0.2391
 4869SOL    HW126069   0.025   3.393  15.876  0.3078 -0.6496  0.3760
 4869SOL    HW226070   0.078   3.258  15.850 -1.3196 -0.9003  0.8726
 4870SOL     OW26071   2.673   2.715   0.282 -0.2790 -0.3377  0.2207
 4870SOL    HW126072   2.685   2.722   0.187 -1.0937 -0.9678  0.0675
 4870SOL    HW226073   2.754   2.755   0.313  0.3961 -2.6490  1.3936
 4871SOL     OW26074   2.057   2.146   8.386  0.4312  0.1899 -0.6610
 4871SOL    HW126075   1.989   2.127   8.451  1.1736 -3.0360 -0.8144
 4871SOL    HW226076   2.112   2.067   8.387 -0.6864 -0.5715  1.6578
 4872SOL     OW26077   3.329   1.645  10.588  0.4895 -0.3265 -0.2709
 4872SOL    HW126078   3.281   1.647  10.670 -0.5380 -0.0476 -0.8817
 4872SOL    HW226079   3.410   1.611  10.627  0.2297 -0.3534  0.2466
 4873SOL     OW26080   3.446   3.488   5.201 -0.2862 -0.1878 -0.1590
 4873SOL    HW126081   3.494   3.422   5.151  0.4130 -0.0999  0.4000
 4873SOL    HW226082   3.383   3.513   5.133  0.7520  0.0020 -1.0398
 4874SOL     OW26083   0.353   4.464   9.860  0.5370  0.2758 -0.7963
 4874SOL    HW126084   0.394   4.477   9.775  2.6978 -2.7624 -0.2271
 4874SOL    HW226085   0.264   4.444   9.834 -0.1905  1.6781  0.5849
 4875SOL     OW26086   2.389   2.059  11.707 -0.0857 -0.7956  0.0731
 4875SOL    HW126087   2.342   1.986  11.746  2.1293 -1.9560  0.5593
 4875SOL    HW226088   2.353   2.130  11.762 -0.3460 -1.4112  0.6952
 4876SOL     OW26089   3.317   1.683   1.683  0.0774  0.0698 -0.4554
 4876SOL    HW126090   3.349   1.742   1.751 -0.0533  0.9393 -1.1442
 4876SOL    HW226091   3.327   1.616   1.750  1.1806 -1.0174 -1.7093
 4877SOL     OW26092   0.252   3.166  10.776 -0.5058  0.5809 -0.7138
 4877SOL    HW126093   0.297   3.250  10.768  0.2101  0.6208  3.6676
 4877SOL    HW226094   0.237   3.154  10.682  0.9112 -0.0032 -0.8685
 4878SOL     OW26095   1.718   1.317   3.977  1.0217  0.4386 -0.0947
 4878SOL    HW126096   1.690   1.318   3.886 -0.0017 -0.0713  0.2153
 4878SOL    HW226097   1.814   1.311   3.976  1.0367  0.9354 -1.4052
 4879SOL     OW26098   3.779   1.906   5.443  0.9294  0.1276 -0.1191
 4879SOL    HW126099   3.744   1.995   5.446 -0.3612 -0.3206 -1.9079
 4879SOL    HW226100   3.860   1.923   5.491  1.0489  0.5691 -0.4730
 4880SOL     OW26101   3.659   3.804   3.282 -0.0691 -0.3415  0.0346
 4880SOL    HW126102   3.600   3.733   3.257  1.1927 -1.2790 -0.2149
 4880SOL    HW226103   3.720   3.746   3.327 -0.2099 -0.2857  0.2991
 4881SOL     OW26104   1.417   2.080   2.689  0.2662 -0.4140  0.2389
 4881SOL    HW126105   1.435   2.048   2.777 -0.4185  1.0177  0.8959
 4881SOL    HW226106   1.322   2.087   2.683  0.4310  1.4741 -0.0244
 4882SOL     OW26107   1.807   0.473   6.589 -0.8452 -0.1447 -0.2066
 4882SOL    HW126108   1.864   0.545   6.562 -0.1995 -0.9849 -1.0318
 4882SOL    HW226109   1.724   0.520   6.603 -0.7379  0.8586 -3.0666
 4883SOL     OW26110   3.064   3.383   8.607 -0.5089  0.2578  0.0635
 4883SOL    HW126111   3.036   3.308   8.554  0.5329 -0.5163  0.6276
 4883SOL    HW226112   3.048   3.456   8.547 -0.2098  1.0617  0.9653
 4884SOL     OW26113   1.194   1.495   7.577  0.2615  0.0518  0.2524
 4884SOL    HW126114   1.287   1.473   7.580  0.5841  1.6660  1.8910
 4884SOL    HW226115   1.199   1.552   7.501  1.2409 -1.4227 -0.7837
 4885SOL     OW26116   1.292   2.912   2.380 -0.5992 -0.0150  0.4753
 4885SOL    HW126117   1.324   2.827   2.411 -0.4331  0.4456  1.5368
 4885SOL    HW226118   1.279   2.890   2.287 -1.3215  0.4933  0.4545
 4886SOL     OW26119   2.074   3.153   7.884 -0.3703  0.2846  0.0570
 4886SOL    HW126120   1.992   3.108   7.862 -1.3224  1.0000  2.1286
 4886SOL    HW226121   2.040   3.225   7.937 -0.6022  1.7036 -2.0308
 4887SOL     OW26122   1.407   1.613   5.033  0.7056  0.1509  0.1197
 4887SOL    HW126123   1.402   1.553   5.107  1.4453 -0.2114 -0.1306
 4887SOL    HW226124   1.367   1.694   5.064  1.6908  1.1891 -1.3443
 4888SOL     OW26125   3.961   2.110  16.494 -0.2302  0.8722 -0.2084
 4888SOL    HW126126   3.921   2.057  16.425 -0.6815  1.4836 -0.4113
 4888SOL    HW226127   3.882   2.123  16.547 -1.2657 -2.4173 -0.9468
 4889SOL     OW26128   0.236   4.571   7.531  0.1993  0.0152  0.3462
 4889SOL    HW126129   0.142   4.558   7.517  1.0565 -3.0532 -2.7499
 4889SOL    HW226130   0.247   4.660   7.498 -4.6007 -0.0586 -1.5865
 4890SOL     OW26131   3.542   0.338  16.981 -0.7802  0.1947  0.1529
 4890SOL    HW126132   3.595   0.411  16.949  1.4181 -1.7506 -0.6210
 4890SOL    HW226133   3.537   0.278  16.907 -1.3619 -0.7559  0.9588
 4891SOL     OW26134   1.984   2.053  11.269  0.4589 -0.0894  0.0967
 4891SOL    HW126135   1.932   1.984  11.227  0.6413 -1.0360  1.4006
 4891SOL    HW226136   2.029   2.019  11.347 -0.4269  1.1359  1.1367
 4892SOL     OW26137   2.801   3.595   7.523  0.3510  0.3231 -0.2203
 4892SOL    HW126138   2.798   3.652   7.446 -1.3735 -0.6953 -0.9066
 4892SOL    HW226139   2.728   3.535   7.507  0.5917  0.0620 -0.3332
 4893SOL     OW26140   2.421   2.997   5.683  0.6966  0.1151 -0.4366
 4893SOL    HW126141   2.504   2.962   5.715  0.4386 -1.5798 -1.5966
 4893SOL    HW226142   2.450   3.071   5.630 -0.1785  3.0254  3.1182
 4894SOL     OW26143   1.293   1.922  10.150 -0.6426 -0.3063  0.2824
 4894SOL    HW126144   1.336   1.953  10.229 -0.5756 -0.0285  0.1362
 4894SOL    HW226145   1.363   1.933  10.085 -0.9694 -0.2596 -0.0624
 4895SOL     OW26146   3.588   3.435  13.883 -0.5283 -0.0076 -0.0511
 4895SOL    HW126147   3.604   3.487  13.963 -0.0748 -0.5193  0.1886
 4895SOL    HW226148   3.540   3.365  13.927 -0.9144  0.2504 -0.0605
 4896SOL     OW26149   3.846   2.708   4.586  0.3716  0.4500  0.2501
 4896SOL    HW126150   3.835   2.621   4.625 -1.0614  1.0744  1.2046
 4896SOL    HW226151   3.873   2.701   4.494 -2.3353 -2.3074 -0.3320
 4897SOL     OW26152   4.380   1.265   3.233  0.3878  0.3341  0.2681
 4897SOL    HW126153   4.458   1.313   3.261  0.7556  0.1515 -0.4370
 4897SOL    HW226154   4.308   1.328   3.237 -0.3795 -0.3485 -2.6259
 4898SOL     OW26155   0.387   1.800  14.173  0.9867  0.2627 -0.2553
 4898SOL    HW126156   0.446   1.797  14.248  1.7070 -0.7936 -0.8833
 4898SOL    HW226157   0.407   1.718  14.129 -1.7785 -1.6664  2.0129
 4899SOL     OW26158   4.339   1.626   3.624  0.3606  0.3637  0.2929
 4899SOL    HW126159   4.341   1.677   3.705 -1.0764  0.9641 -0.0501
 4899SOL    HW226160   4.268   1.673   3.581  1.4837  0.7756 -1.0896
 4900SOL     OW26161   1.890   1.837   5.072  0.6115  0.3520 -0.6682
 4900SOL    HW126162   1.828   1.773   5.106  0.2272 -0.1770 -2.3711
 4900SOL    HW226163   1.897   1.902   5.142 -1.9073 -1.8825  1.6422
 4901SOL     OW26164   0.422   2.373   3.506  0.7951  0.3013  0.5273
 4901SOL    HW126165   0.446   2.284   3.530  0.2386  0.3286  1.1867
 4901SOL    HW226166   0.438   2.418   3.590  0.1035 -0.5766  1.1217
 4902SOL     OW26167   1.137   4.269   6.704  0.1146  0.3122  0.0823
 4902SOL    HW126168   1.227   4.237   6.693 -0.2224 -0.8079  0.6413
 4902SOL    HW226169   1.129   4.248   6.797  0.8286  1.4280  0.3994
 4903SOL     OW26170   0.576   3.397  10.465 -0.2665 -0.3970 -0.0634
 4903SOL    HW126171   0.587   3.322  10.524  0.5738 -1.0059 -0.9982
 4903SOL    HW226172   0.481   3.404  10.471 -0.4390 -1.3694 -1.6835
 4904SOL     OW26173   4.174   1.913  16.086 -0.3597  0.1696 -0.1117
 4904SOL    HW126174   4.201   2.003  16.106  0.0921 -0.1771  0.8764
 4904SOL    HW226175   4.188   1.868  16.170 -1.3016  0.1882  0.0598
 4905SOL     OW26176   2.942   2.113   2.439 -0.3767  0.0500 -0.6428
 4905SOL    HW126177   2.932   2.061   2.359 -1.1466 -0.2510 -0.3484
 4905SOL    HW226178   2.976   2.196   2.404  2.0447 -0.7693 -0.2248
 4906SOL     OW26179   2.875   2.797   8.457  0.1039 -0.1376 -0.0684
 4906SOL    HW126180   2.939   2.864   8.435  1.0630 -1.4498 -1.2840
 4906SOL    HW226181   2.888   2.786   8.551  1.6765  3.1208  0.0853
 4907SOL     OW26182   0.694   4.017   6.107  0.0422 -0.2279 -0.3872
 4907SOL    HW126183   0.627   3.996   6.042 -0.5377  0.0941  0.1067
 4907SOL    HW226184   0.664   4.106   6.126  0.8361 -0.6310  2.8433
 4908SOL     OW26185   0.157   0.941   9.022 -0.4927 -0.3953 -0.3682
 4908SOL    HW126186   0.228   0.878   9.037 -2.3126 -2.4387 -0.3317
 4908SOL    HW226187   0.154   0.973   9.112  0.2240  0.3909 -0.6241
 4909SOL     OW26188   0.296   4.709   6.883  0.1589 -0.2808 -0.1545
 4909SOL    HW126189   0.350   4.639   6.845 -0.1657  0.1869 -1.4610
 4909SOL    HW226190   0.210   4.667   6.882 -0.4432  0.9448  1.3937
 4910SOL     OW26191   2.403   0.891  15.263 -0.4115  0.3419  0.5566
 4910SOL    HW126192   2.328   0.842  15.231 -0.3569  1.1624 -0.7971
 4910SOL    HW226193   2.420   0.849  15.348 -0.7289 -0.0746  0.4144
 4911SOL     OW26194   1.012   0.996   2.715  0.0418  0.6946 -0.4964
 4911SOL    HW126195   1.092   1.035   2.748  1.0946 -0.9131 -1.1531
 4911SOL    HW226196   1.029   0.902   2.725 -0.2819  0.4375 -2.3849
 4912SOL     OW26197   0.527   1.190  11.849  0.1473 -0.3117 -0.2972
 4912SOL    HW126198   0.456   1.229  11.798 -1.6473 -1.8851  1.0012
 4912SOL    HW226199   0.567   1.264  11.894 -3.4214  1.1528  0.4927
 4913SOL     OW26200   4.043   2.038   5.913 -0.0742 -0.2942  0.7008
 4913SOL    HW126201   4.079   2.112   5.962  2.1745 -0.1168 -1.2047
 4913SOL    HW226202   3.951   2.046   5.939  0.2095  1.3538  1.2132
 4914SOL     OW26203   3.973   1.267   3.516  0.0308  0.1670 -0.1364
 4914SOL    HW126204   3.917   1.191   3.533  0.9958 -0.0618  2.0530
 4914SOL    HW226205   3.955   1.280   3.423  2.0006  0.0333 -0.5392
 4915SOL     OW26206   3.445   2.774   2.287 -0.2837 -0.2249  0.3918
 4915SOL    HW126207   3.503   2.794   2.361 -0.7125 -0.8749  0.9024
 4915SOL    HW226208   3.423   2.684   2.311  0.5170 -0.1861  1.2798
 4916SOL     OW26209   0.167   1.775  13.531 -0.0406 -0.5431  0.1924
 4916SOL    HW126210   0.113   1.726  13.469  0.4984  0.7369 -1.2651
 4916SOL    HW226211   0.098   1.796  13.595 -0.1244 -2.0400  0.6058
 4917SOL     OW26212   2.597   0.836  15.683  0.2612 -0.1648 -0.1316
 4917SOL    HW126213   2.624   0.816  15.593  3.0870  0.2813  0.6162
 4917SOL    HW226214   2.664   0.899  15.711 -0.6800  0.6246  0.3220
 4918SOL     OW26215   1.914   1.176   5.183  0.6027 -0.1165 -0.0256
 4918SOL    HW126216   2.004   1.205   5.193  0.4409  0.3545  0.0692
 4918SOL    HW226217   1.925   1.081   5.190 -0.6020 -0.3357 -0.9980
 4919SOL     OW26218   1.736   0.123   0.989  0.4273 -0.2969 -0.7675
 4919SOL    HW126219   1.648   0.089   1.002  0.3700 -0.2165 -0.9472
 4919SOL    HW226220   1.719   0.217   0.997 -2.6405 -0.9124 -0.2352
 4920SOL     OW26221   4.477   4.506  13.499  0.6865 -0.2948  0.5951
 4920SOL    HW126222   4.412   4.459  13.551  0.4585 -1.7295 -0.9741
 4920SOL    HW226223   4.531   4.534  13.573 -0.6368 -0.0903  1.4834
 4921SOL     OW26224   3.051   1.500   0.251 -0.1641 -0.0769  0.0335
 4921SOL    HW126225   3.101   1.581   0.266 -3.2703  1.6880  0.9061
 4921SOL    HW226226   3.125   1.455   0.211  0.0873 -0.6706  1.1516
 4922SOL     OW26227   2.599   3.875  17.066  0.4535 -0.4046 -0.6529
 4922SOL    HW126228   2.586   3.948  17.005 -1.3175 -1.3627 -1.4107
 4922SOL    HW226229   2.511   3.858  17.099  0.0153 -0.4565 -1.8471
 4923SOL     OW26230   1.102   3.181   9.457  0.3126 -0.0064 -0.1831
 4923SOL    HW126231   1.009   3.159   9.462  0.5604 -0.8392  0.7353
 4923SOL    HW226232   1.133   3.134   9.379 -1.4125 -0.3836 -0.6459
 4924SOL     OW26233   4.541   3.835  15.171 -0.0264 -0.4711 -0.3526
 4924SOL    HW126234   4.544   3.742  15.149  0.4527 -0.4519 -0.3651
 4924SOL    HW226235   4.569   3.846  15.262  0.4757 -0.0809 -0.5520
 4925SOL     OW26236   2.641   2.701   6.681  0.1189  0.6623  0.1384
 4925SOL    HW126237   2.657   2.764   6.611  0.4235 -1.7788 -2.0048
 4925SOL    HW226238   2.570   2.649   6.642  0.7581  0.7142 -1.0882
 4926SOL     OW26239   2.249   4.629   7.145  0.0623  0.1439  0.5842
 4926SOL    HW126240   2.220   4.712   7.107  2.3818  0.2234 -0.9808
 4926SOL    HW226241   2.247   4.576   7.066  1.3239  1.5836 -0.4111
 4927SOL     OW26242   3.813   1.292   0.675 -0.6675  0.3124  0.2986
 4927SOL    HW126243   3.746   1.274   0.608  0.1369 -1.2151 -0.0858
 4927SOL    HW226244   3.888   1.255   0.629  0.2010  0.7464  1.3580
 4928SOL     OW26245   0.731   1.927   0.301 -0.3582  0.2978  0.5201
 4928SOL    HW126246   0.637   1.936   0.315 -0.7949 -1.7421 -1.0123
 4928SOL    HW226247   0.748   2.020   0.291  1.9023  0.0090  1.7391
 4929SOL     OW26248   2.806   2.432  13.839  0.1610 -0.0167  0.2972
 4929SOL    HW126249   2.889   2.479  13.825  1.6794 -2.1119  2.2777
 4929SOL    HW226250   2.833   2.347  13.805  1.1244  0.9036 -1.2451
 4930SOL     OW26251   2.540   2.339   9.724 -0.0710  0.2734 -0.7312
 4930SOL    HW126252   2.529   2.306   9.813 -0.9351  1.1606 -0.5046
 4930SOL    HW226253   2.466   2.400   9.714  1.2085  1.8257 -0.8510
 4931SOL     OW26254   2.345   3.214   2.512  0.0508  0.1321  0.1953
 4931SOL    HW126255   2.289   3.136   2.510  1.5546 -0.9286 -0.9220
 4931SOL    HW226256   2.372   3.215   2.604 -2.7530 -2.7789  1.0629
 4932SOL     OW26257   2.896   0.858   6.095  0.5291  0.3039 -0.1498
 4932SOL    HW126258   2.933   0.927   6.040  1.8084 -0.7462 -0.6136
 4932SOL    HW226259   2.966   0.792   6.091  0.3508  0.0233  1.2366
 4933SOL     OW26260   3.603   4.060  11.787 -0.0535  0.2387 -0.3161
 4933SOL    HW126261   3.534   4.125  11.773 -0.8040 -0.3475  0.6521
 4933SOL    HW226262   3.666   4.109  11.841 -1.7891  0.6281  1.3629
 4934SOL     OW26263   3.526   1.943   7.943  0.2192  0.1579 -0.0999
 4934SOL    HW126264   3.622   1.940   7.936  0.4619  0.9368  2.5409
 4934SOL    HW226265   3.508   1.928   7.851  0.2916 -1.8944  0.2186
 4935SOL     OW26266   2.985   1.269   5.309 -0.6705  1.0829  0.3954
 4935SOL    HW126267   2.927   1.286   5.235 -0.7659 -1.6311 -0.1746
 4935SOL    HW226268   2.919   1.257   5.376 -0.8369 -0.5765 -0.0677
 4936SOL     OW26269   3.671   2.737   3.158  1.0968 -0.1984 -0.6063
 4936SOL    HW126270   3.632   2.808   3.209  0.3422 -1.6301  0.8376
 4936SOL    HW226271   3.650   2.764   3.069 -0.8471 -0.4097 -0.2163
 4937SOL     OW26272   3.745   0.694   5.480 -0.1558 -0.1644 -0.7097
 4937SOL    HW126273   3.777   0.611   5.445 -0.3636  0.6983 -2.9704
 4937SOL    HW226274   3.657   0.700   5.441 -0.4681  1.5046  0.2543
 4938SOL     OW26275   1.511   4.274  14.067 -0.2613  0.2229  0.2242
 4938SOL    HW126276   1.545   4.312  13.986  2.2055 -2.6697 -0.0863
 4938SOL    HW226277   1.504   4.341  14.135  0.4293  2.8739 -2.2811
 4939SOL     OW26278   1.300   2.583   6.821  0.3882 -0.7160  0.4992
 4939SOL    HW126279   1.270   2.493   6.816 -0.9661 -0.1736 -1.0654
 4939SOL    HW226280   1.384   2.569   6.777 -0.8770 -0.0861 -2.1809
 4940SOL     OW26281   1.484   4.343   0.541 -0.4233 -0.6478 -0.3572
 4940SOL    HW126282   1.492   4.428   0.584  2.5768 -0.5933 -1.0471
 4940SOL    HW226283   1.393   4.351   0.510  0.3475  3.3208 -1.5626
 4941SOL     OW26284   0.915   0.381   4.971 -0.4085  0.3654 -0.4256
 4941SOL    HW126285   0.831   0.398   5.013  0.6845  3.2287  0.5918
 4941SOL    HW226286   0.945   0.469   4.950  0.3524 -0.1316 -1.4257
 4942SOL     OW26287   4.607   2.958   0.129 -0.0155  0.6612  0.1766
 4942SOL    HW126288   4.551   3.000   0.064 -1.5213 -2.1953 -0.3903
 4942SOL    HW226289   4.673   3.025   0.147 -1.4213  1.8015  1.0654
 4943SOL     OW26290   2.745   3.209  11.036 -0.0862 -0.0274  0.1768
 4943SOL    HW126291   2.820   3.153  11.016  0.2015  1.2031 -2.1272
 4943SOL    HW226292   2.752   3.206  11.131  0.7842  0.4887  0.1290
 4944SOL     OW26293   0.915   2.098   6.559 -0.2430  0.8746  0.4194
 4944SOL    HW126294   0.970   2.054   6.623 -3.9537  1.2573  3.9063
 4944SOL    HW226295   0.989   2.135   6.512 -0.2618  0.6377  0.2054
 4945SOL     OW26296   3.625   1.134  15.043  0.1607 -0.3798 -0.5529
 4945SOL    HW126297   3.665   1.171  14.964 -1.0307  1.7594 -0.1473
 4945SOL    HW226298   3.636   1.041  15.023 -1.5679 -0.5276 -0.8026
 4946SOL     OW26299   1.645   2.954   2.100  0.3717 -0.6974  0.5946
 4946SOL    HW126300   1.733   2.967   2.134  1.3629 -1.1752 -1.8068
 4946SOL    HW226301   1.636   2.860   2.087  1.6418 -0.7362  0.0069
 4947SOL     OW26302   2.917   1.859  13.202  0.2480 -0.3718 -0.4142
 4947SOL    HW126303   3.008   1.831  13.188 -0.0802 -1.6075 -0.0475
 4947SOL    HW226304   2.916   1.856  13.297  0.6590  2.6077 -0.3265
 4948SOL     OW26305   3.996   1.550   6.847 -0.2183  0.1555 -0.2413
 4948SOL    HW126306   3.901   1.561   6.856 -0.1908 -1.5047  2.0450
 4948SOL    HW226307   4.021   1.551   6.940 -0.2390 -1.2695 -0.2222
 4949SOL     OW26308   1.348   0.213   6.319  0.3035  0.1476  0.1238
 4949SOL    HW126309   1.254   0.200   6.329  0.3347 -0.6127 -0.5567
 4949SOL    HW226310   1.368   0.119   6.318 -1.0569 -0.1191 -2.6156
 4950SOL     OW26311   0.642   2.891  10.730 -0.4259 -0.0295  0.5245
 4950SOL    HW126312   0.606   2.962  10.783  0.1327 -0.2442  1.1977
 4950SOL    HW226313   0.691   2.953  10.676  0.3348 -1.0629  0.0250
 4951SOL     OW26314   3.691   4.065   8.114  0.0592 -0.5190  0.0733
 4951SOL    HW126315   3.738   3.990   8.078 -0.7174 -0.7386 -0.4724
 4951SOL    HW226316   3.614   4.020   8.149  0.3665  0.9371  2.6344
 4952SOL     OW26317   0.378   1.402   7.010  0.7437  0.0966 -0.4088
 4952SOL    HW126318   0.382   1.377   6.918  1.1976  1.2481 -0.6934
 4952SOL    HW226319   0.358   1.495   7.000  3.6123  0.8338  0.6407
 4953SOL     OW26320   0.151   1.414  16.703 -0.0088  0.8295  0.6092
 4953SOL    HW126321   0.241   1.439  16.682  0.3544 -0.9985 -0.0641
 4953SOL    HW226322   0.152   1.384  16.794  2.5799  0.7417  0.5273
 4954SOL     OW26323   1.362   0.609   4.414 -0.3032  0.9647 -0.3205
 4954SOL    HW126324   1.398   0.673   4.353 -0.6578 -1.2714 -2.8648
 4954SOL    HW226325   1.300   0.670   4.455  0.4363  0.2354  1.8621
 4955SOL     OW26326   1.645   2.751   4.335 -0.4608 -0.5268  0.9749
 4955SOL    HW126327   1.606   2.795   4.410  2.0658  0.7087  1.5920
 4955SOL    HW226328   1.668   2.821   4.274  0.6615 -2.2096 -0.5325
 4956SOL     OW26329   4.197   3.550  14.992 -0.5760  0.6096  0.3487
 4956SOL    HW126330   4.152   3.557  15.077 -2.8023 -0.2319 -0.7768
 4956SOL    HW226331   4.221   3.641  14.972 -2.1194  0.4133 -2.3589
 4957SOL     OW26332   3.952   2.567  14.479  0.8430 -0.3396  0.1504
 4957SOL    HW126333   3.995   2.498  14.531  2.3530  1.6780  1.5796
 4957SOL    HW226334   4.016   2.638  14.480 -0.4581  0.8237  0.0189
 4958SOL     OW26335   3.124   2.004  17.501 -0.7787  0.1127 -0.6386
 4958SOL    HW126336   3.183   2.079  17.491 -0.4855 -0.2641 -1.8044
 4958SOL    HW226337   3.137   1.980  17.593 -1.7227  0.1907 -0.4848
 4959SOL     OW26338   3.194   3.081  13.354  0.2835  0.2597  0.1266
 4959SOL    HW126339   3.133   3.139  13.309  0.9665  1.3133  0.5798
 4959SOL    HW226340   3.262   3.144  13.377  0.8325  0.3225 -1.6902
 4960SOL     OW26341   0.975   4.412   7.222 -0.4430 -0.0214 -0.4118
 4960SOL    HW126342   0.894   4.445   7.183  0.1037  2.6511  0.7394
 4960SOL    HW226343   0.947   4.365   7.301  0.3899  1.3388  0.6877
 4961SOL     OW26344   2.011   2.269  12.711  0.1720 -0.1494  0.5919
 4961SOL    HW126345   1.970   2.229  12.634 -0.3730 -2.3957  2.0265
 4961SOL    HW226346   2.103   2.254  12.687 -0.2331 -0.9764 -0.4394
 4962SOL     OW26347   4.093   2.149   5.660  0.0860  0.0635  0.2764
 4962SOL    HW126348   3.997   2.149   5.669  0.2849  0.2470  2.4432
 4962SOL    HW226349   4.100   2.081   5.727  0.3969  0.2842  0.4645
 4963SOL     OW26350   1.359   1.267   6.069 -0.0881  0.3146 -0.3683
 4963SOL    HW126351   1.381   1.288   5.978 -0.1866  0.7164 -0.2963
 4963SOL    HW226352   1.334   1.174   6.066  0.0701  0.2511  0.3200
 4964SOL     OW26353   1.317   0.439   2.249  0.0975  0.3346  0.5767
 4964SOL    HW126354   1.410   0.441   2.273  0.5221 -0.3607 -1.0077
 4964SOL    HW226355   1.302   0.359   2.300  3.8695 -0.6877  0.0904
 4965SOL     OW26356   1.408   4.200   6.689 -0.3611  0.4705 -0.4364
 4965SOL    HW126357   1.384   4.125   6.634 -0.0444  0.5079 -0.6252
 4965SOL    HW226358   1.501   4.185   6.703 -0.8474 -1.8129  0.4858
 4966SOL     OW26359   4.077   0.843  15.538 -0.0467  0.0483  0.0912
 4966SOL    HW126360   4.086   0.937  15.549  0.5675 -0.2279  1.9114
 4966SOL    HW226361   4.019   0.849  15.462  0.2147 -1.1079 -0.2047
 4967SOL     OW26362   1.681   0.861   5.291 -0.0458 -0.3208 -0.1904
 4967SOL    HW126363   1.776   0.873   5.300  0.0499  0.3114 -2.0896
 4967SOL    HW226364   1.662   0.768   5.277 -1.6190 -0.1081  0.4748
 4968SOL     OW26365   0.001   4.511  14.766  0.4993  0.5368 -0.0186
 4968SOL    HW126366   4.668   4.507  14.845  3.0567 -2.2936  1.5890
 4968SOL    HW226367   0.081   4.459  14.769  0.6730  0.8598  0.7267
 4969SOL     OW26368   4.113   1.626   3.399  0.0404 -0.0643  0.4963
 4969SOL    HW126369   4.085   1.596   3.485 -1.8229  2.3210  0.7138
 4969SOL    HW226370   4.074   1.713   3.394  2.0833  0.9115  1.5635
 4970SOL     OW26371   1.120   2.944   4.567  0.6715 -0.1523  0.4150
 4970SOL    HW126372   1.049   2.964   4.507  0.5233 -1.0931  0.2679
 4970SOL    HW226373   1.116   2.849   4.550  1.9611  0.1689 -1.6490
 4971SOL     OW26374   2.401   4.287   4.753 -0.4301 -0.1144 -0.1872
 4971SOL    HW126375   2.351   4.263   4.675  0.6863  0.2887 -1.0108
 4971SOL    HW226376   2.471   4.335   4.709 -0.5061  1.1039  0.9832
 4972SOL     OW26377   4.116   2.888   4.351 -0.8967 -0.1817  0.2644
 4972SOL    HW126378   4.119   2.911   4.258  0.7417  2.3319  0.9243
 4972SOL    HW226379   4.091   2.796   4.349 -1.8528  0.0482  1.6174
 4973SOL     OW26380   0.887   2.372   1.051 -0.3832  0.3054  0.0462
 4973SOL    HW126381   0.961   2.355   1.109 -0.9261  3.9384  1.8289
 4973SOL    HW226382   0.840   2.431   1.110  2.5066  1.5558  1.0893
 4974SOL     OW26383   2.860   1.267   5.040  0.4781 -0.6451  0.4679
 4974SOL    HW126384   2.769   1.237   5.029  0.7396 -1.9519  1.9511
 4974SOL    HW226385   2.909   1.211   4.979  0.8768 -0.7181  0.8624
 4975SOL     OW26386   2.193   1.361   1.224 -0.2530  0.5875  0.2453
 4975SOL    HW126387   2.225   1.382   1.312 -3.0888 -0.3944  1.5198
 4975SOL    HW226388   2.229   1.433   1.171 -0.0609 -1.0234 -1.7803
 4976SOL     OW26389   2.176   3.073   5.789  0.4155 -0.9774  0.6815
 4976SOL    HW126390   2.168   3.050   5.696 -1.3817 -0.7789  0.7898
 4976SOL    HW226391   2.271   3.079   5.796  0.3387  0.7965  0.1823
 4977SOL     OW26392   4.329   1.899   9.771 -0.2404  0.0784  0.5897
 4977SOL    HW126393   4.311   1.990   9.796 -0.5347  0.0880  0.3457
 4977SOL    HW226394   4.395   1.913   9.702 -1.3381 -1.0485 -0.6886
 4978SOL     OW26395   2.208   0.164   8.985 -0.5296 -0.6551  0.0300
 4978SOL    HW126396   2.173   0.200   9.066  0.3872  3.3775 -1.3612
 4978SOL    HW226397   2.164   0.214   8.916  2.3007  0.3560 -1.0504
 4979SOL     OW26398   1.353   4.274  13.501  0.3746  0.1065  0.0918
 4979SOL    HW126399   1.335   4.368  13.496 -1.3003 -0.2776 -1.4318
 4979SOL    HW226400   1.267   4.233  13.517 -0.0589  0.7326 -0.6486
 4980SOL     OW26401   3.207   0.346   8.527  0.6273 -0.0647 -0.2313
 4980SOL    HW126402   3.137   0.361   8.463  0.1057  0.0882  0.3832
 4980SOL    HW226403   3.267   0.418   8.509 -1.3372  1.3673 -1.0520
 4981SOL     OW26404   4.669   0.897   8.125 -0.5577 -0.5041  0.4199
 4981SOL    HW126405   4.672   0.913   8.030  0.8990 -2.0662  0.1949
 4981SOL    HW226406   4.665   0.802   8.132  1.4895 -0.8004 -2.3235
 4982SOL     OW26407   0.887   1.009   5.593  0.1826  0.5518  0.0481
 4982SOL    HW126408   0.964   0.961   5.623 -0.1022 -0.7183 -1.2428
 4982SOL    HW226409   0.925   1.040   5.511 -0.7925 -0.5434 -0.8269
 4983SOL     OW26410   3.708   0.802   2.295 -0.4107 -0.2172  0.1809
 4983SOL    HW126411   3.803   0.803   2.281 -0.7945 -2.4737 -2.5601
 4983SOL    HW226412   3.675   0.792   2.206  0.5603  0.0977 -0.2156
 4984SOL     OW26413   0.768   0.109   7.138 -0.3484  0.0974 -0.2389
 4984SOL    HW126414   0.728   0.083   7.055  0.6147  0.9410 -0.9756
 4984SOL    HW226415   0.859   0.080   7.125 -0.7987 -0.4299 -2.2944
 4985SOL     OW26416   4.607   0.805   9.256  0.5857 -0.2194 -0.3546
 4985SOL    HW126417   4.668   0.866   9.297  1.8284 -2.1950  0.7972
 4985SOL    HW226418   4.524   0.849   9.241  0.1654 -0.5594  1.0182
 4986SOL     OW26419   3.096   3.332   0.791 -0.2568  0.2476 -0.3212
 4986SOL    HW126420   3.071   3.425   0.785  0.9341  0.7153  1.9523
 4986SOL    HW226421   3.125   3.326   0.882  0.9121 -0.0331 -0.7176
 4987SOL     OW26422   0.166   2.997   4.285  0.5704  0.4556  0.1952
 4987SOL    HW126423   0.142   3.081   4.325 -3.5312 -1.4945  1.7151
 4987SOL    HW226424   0.107   3.003   4.210 -0.2140 -2.8292  0.5725
 4988SOL     OW26425   3.667   2.605   5.275  0.3125 -0.2031  0.0192
 4988SOL    HW126426   3.738   2.556   5.234 -0.0127 -0.9785  0.3937
 4988SOL    HW226427   3.592   2.552   5.247  0.8156 -0.2111 -1.3316
 4989SOL     OW26428   0.463   2.963  12.201 -0.3193 -0.0008 -0.4915
 4989SOL    HW126429   0.424   3.043  12.237 -0.5374  0.5843 -2.0364
 4989SOL    HW226430   0.385   2.908  12.190 -0.3453 -0.1335  0.3426
 4990SOL     OW26431   3.199   3.206  14.509 -0.2351  0.1107  0.1919
 4990SOL    HW126432   3.155   3.167  14.434 -0.4272 -1.6496  1.2108
 4990SOL    HW226433   3.269   3.248  14.458  1.0887 -0.6919  1.3392
 4991SOL     OW26434   4.672   3.506  15.992  0.0876  0.2292 -0.2292
 4991SOL    HW126435   0.021   3.532  16.051  0.5907  0.4094 -0.9040
 4991SOL    HW226436   4.601   3.534  16.050  0.6292 -0.1066  0.5986
 4992SOL     OW26437   1.479   3.938  12.614  0.2327  0.1379 -0.1879
 4992SOL    HW126438   1.454   4.026  12.587  0.8020  0.5669  0.6903
 4992SOL    HW226439   1.508   3.901  12.531  0.8370  2.0315 -0.8071
 4993SOL     OW26440   2.276   1.822  10.852 -0.8602 -0.3966 -0.5778
 4993SOL    HW126441   2.215   1.859  10.916 -0.6545 -0.8582 -0.1149
 4993SOL    HW226442   2.327   1.899  10.828 -2.0977  0.7601  0.5089
 4994SOL     OW26443   3.828   2.472   0.195  0.2315  0.1878 -0.6289
 4994SOL    HW126444   3.904   2.414   0.188 -0.0701 -0.3570  0.6485
 4994SOL    HW226445   3.851   2.546   0.251 -0.2749  0.0947 -0.3074
 4995SOL     OW26446   1.349   4.055  11.227 -0.0895  0.2814  0.7943
 4995SOL    HW126447   1.384   4.141  11.248 -0.5230  0.5274  0.5054
 4995SOL    HW226448   1.283   4.036  11.293 -2.0309  0.3555 -1.1092
 4996SOL     OW26449   4.576   4.439   4.578  0.3419 -0.0948  0.0829
 4996SOL    HW126450   4.513   4.402   4.639  0.0201 -0.2014 -0.3119
 4996SOL    HW226451   4.501   4.467   4.525 -1.0802 -2.1571  0.9917
 4997SOL     OW26452   3.090   4.549   5.132 -0.1445 -0.2092  0.4169
 4997SOL    HW126453   3.051   4.635   5.119 -0.0104 -0.4442 -1.5307
 4997SOL    HW226454   3.018   4.497   5.096 -0.3420 -0.7216  1.5304
 4998SOL     OW26455   3.589   4.211   5.818  0.2638 -0.2651 -0.3188
 4998SOL    HW126456   3.515   4.192   5.760 -0.2709 -0.0032  0.2744
 4998SOL    HW226457   3.634   4.127   5.811 -1.9486 -1.4379 -0.5980
 4999SOL     OW26458   0.753   0.978  12.577  0.4007 -0.1333  0.1049
 4999SOL    HW126459   0.730   0.912  12.512  1.3714  0.2106 -0.5880
 4999SOL    HW226460   0.838   0.952  12.612 -0.4762  1.6392  3.5399
 5000SOL     OW26461   0.586   3.818  17.307 -0.3605  0.1969  0.2131
 5000SOL    HW126462   0.494   3.817  17.283 -0.5160  1.2955  0.7263
 5000SOL    HW226463   0.615   3.884  17.243 -2.5136  0.3420 -0.6041
 5001SOL     OW26464   1.847   4.242  13.357 -0.5905 -0.1551 -0.7565
 5001SOL    HW126465   1.856   4.336  13.367  1.0740 -0.5595  1.4105
 5001SOL    HW226466   1.930   4.209  13.391  0.2697  3.7676  0.9379
 5002SOL     OW26467   3.053   1.439   2.126  0.1782 -0.4752  0.7238
 5002SOL    HW126468   3.040   1.506   2.193 -1.7536 -0.9033  0.7645
 5002SOL    HW226469   3.144   1.454   2.100  0.6112  0.6013  2.8479
 5003SOL     OW26470   0.370   0.880   7.186  0.1102  0.0792  0.4676
 5003SOL    HW126471   0.462   0.854   7.180  0.5905  2.1583 -1.1299
 5003SOL    HW226472   0.363   0.942   7.114  2.0777  0.7203  0.8288
 5004SOL     OW26473   0.604   3.346   9.163 -0.7137 -0.4405 -0.6395
 5004SOL    HW126474   0.515   3.330   9.193 -0.6295 -2.2026 -1.3199
 5004SOL    HW226475   0.640   3.390   9.240  0.5436  0.8969 -1.9884
 5005SOL     OW26476   3.146   4.710   9.455 -0.2752 -0.1346  0.1471
 5005SOL    HW126477   3.207   4.675   9.391 -1.0437 -2.4847  0.6931
 5005SOL    HW226478   3.108   4.634   9.498 -0.0843 -0.1495  0.2885
 5006SOL     OW26479   2.209   0.699   0.462 -0.2237 -0.1828  0.4078
 5006SOL    HW126480   2.286   0.739   0.503  0.5994 -0.9249 -0.4281
 5006SOL    HW226481   2.168   0.780   0.431  0.2343  0.8400  2.4587
 5007SOL     OW26482   1.487   2.330   9.116  0.5945  0.9238 -0.6480
 5007SOL    HW126483   1.575   2.345   9.080  0.5199  0.3607 -1.0625
 5007SOL    HW226484   1.508   2.255   9.171 -0.4682 -0.6414 -2.3934
 5008SOL     OW26485   0.283   4.298   5.755  0.4454  0.4651  0.2817
 5008SOL    HW126486   0.338   4.342   5.820 -0.5179 -1.8161  2.6632
 5008SOL    HW226487   0.197   4.316   5.794  0.0924 -1.7685  0.5014
 5009SOL     OW26488   4.689   1.567   2.634 -0.1139 -0.3973  0.5596
 5009SOL    HW126489   4.684   1.488   2.579  0.5750 -0.7349  0.9793
 5009SOL    HW226490   4.716   1.516   2.711  1.2256 -1.6088 -0.7333
 5010SOL     OW26491   2.044   2.187   2.797 -0.1473  0.3739 -0.3672
 5010SOL    HW126492   2.032   2.139   2.879 -1.5637 -1.8479 -1.8875
 5010SOL    HW226493   1.998   2.270   2.810  3.1453  2.4123 -1.4989
 5011SOL     OW26494   1.987   2.231   2.522  0.1529 -0.0389  0.1007
 5011SOL    HW126495   2.028   2.317   2.510  0.4558 -0.3278 -0.9927
 5011SOL    HW226496   2.034   2.203   2.600  0.6509  0.9266  0.1492
 5012SOL     OW26497   4.339   2.295   5.561 -0.0310  0.5705 -0.8377
 5012SOL    HW126498   4.271   2.234   5.589 -0.7581  1.3987 -0.8174
 5012SOL    HW226499   4.290   2.375   5.575 -0.4520  0.1270  0.1990
 5013SOL     OW26500   3.422   4.628   3.248 -0.7621 -0.3350 -0.2726
 5013SOL    HW126501   3.396   4.553   3.300 -0.3682  0.5356  1.1925
 5013SOL    HW226502   3.394   4.703   3.302 -0.4136 -0.9031  0.6873
 5014SOL     OW26503   3.285   3.642  14.772 -0.3673  0.3227  0.7994
 5014SOL    HW126504   3.224   3.684  14.712  1.8243  0.9991 -0.9586
 5014SOL    HW226505   3.357   3.706  14.782  0.8089 -0.8618 -0.0871
 5015SOL     OW26506   3.701   0.363  13.617 -0.0165 -0.1362 -0.6511
 5015SOL    HW126507   3.627   0.340  13.672  0.8868 -1.4207  0.0336
 5015SOL    HW226508   3.704   0.458  13.623 -0.2198 -0.2729  1.5595
 5016SOL     OW26509   2.902   3.796   5.334  0.1329  0.1752  0.2848
 5016SOL    HW126510   2.934   3.741   5.262 -2.3430  1.3504 -1.7252
 5016SOL    HW226511   2.858   3.730   5.388 -0.9566  1.1989  0.6489
 5017SOL     OW26512   0.460   2.656  10.051  0.0504 -0.1711  1.1049
 5017SOL    HW126513   0.493   2.632  10.137 -0.8574 -0.7744  1.2896
 5017SOL    HW226514   0.379   2.606  10.039 -0.0741  0.0175  1.1435
 5018SOL     OW26515   1.952   3.177   1.953 -0.0336 -0.1639 -0.1849
 5018SOL    HW126516   1.880   3.240   1.946 -0.1203 -0.2415  0.0086
 5018SOL    HW226517   1.915   3.116   2.017  1.2598 -2.1851 -1.3672
 5019SOL     OW26518   0.329   0.130   4.857  0.1280 -0.3807  0.0454
 5019SOL    HW126519   0.351   0.093   4.771  0.1519 -1.9143  0.7201
 5019SOL    HW226520   0.278   0.204   4.823  0.2966 -0.4705 -0.4064
 5020SOL     OW26521   3.067   3.648   8.494 -0.3934 -0.0842 -0.2246
 5020SOL    HW126522   3.079   3.741   8.479  0.5213  0.1340  1.8126
 5020SOL    HW226523   3.099   3.616   8.410  2.2226 -0.4445  0.9090
 5021SOL     OW26524   3.417   4.643   5.174 -0.2877 -0.0653 -0.1378
 5021SOL    HW126525   3.450   4.564   5.130 -0.2634 -1.0180  1.5740
 5021SOL    HW226526   3.368   4.602   5.245 -1.2048  0.0874 -0.6837
 5022SOL     OW26527   2.472   0.771   3.320  0.2208 -0.4642 -0.1334
 5022SOL    HW126528   2.563   0.798   3.313 -0.1564  0.5561 -1.1510
 5022SOL    HW226529   2.437   0.786   3.232 -0.2142 -0.1388  0.0932
 5023SOL     OW26530   3.250   1.729   9.473  0.1211 -0.4755 -0.6708
 5023SOL    HW126531   3.288   1.782   9.544 -0.5372 -0.6175 -0.2065
 5023SOL    HW226532   3.202   1.660   9.519 -3.4784  1.4174 -1.5055
 5024SOL     OW26533   0.271   0.598   1.866  0.2672  0.4936  0.4298
 5024SOL    HW126534   0.336   0.532   1.841 -0.7890  0.2045 -1.6285
 5024SOL    HW226535   0.280   0.594   1.961  0.5533  0.8032  0.4146
 5025SOL     OW26536   0.224   3.718   3.171  0.0688 -0.0078  0.2544
 5025SOL    HW126537   0.244   3.666   3.249 -3.4528  0.1432  1.2705
 5025SOL    HW226538   0.206   3.800   3.216  0.4903  0.0575  0.3012
 5026SOL     OW26539   2.319   1.872   8.996  0.0185 -0.1185  0.0258
 5026SOL    HW126540   2.265   1.840   8.924  0.8217 -0.8917 -0.2301
 5026SOL    HW226541   2.260   1.848   9.067  2.8193 -1.7009  1.8172
 5027SOL     OW26542   3.331   2.009   2.627  1.0750 -0.4059  0.5659
 5027SOL    HW126543   3.347   2.041   2.716 -0.3411 -0.9553  1.0178
 5027SOL    HW226544   3.262   1.944   2.641  0.2101  0.1073 -1.2893
 5028SOL     OW26545   0.503   4.306   5.313 -0.5907 -0.3308  0.8042
 5028SOL    HW126546   0.414   4.340   5.327 -0.9786 -0.8986 -0.2353
 5028SOL    HW226547   0.528   4.283   5.402 -1.4840 -0.6464  0.9801
 5029SOL     OW26548   2.296   1.186   4.652  0.0365  0.2836  0.1363
 5029SOL    HW126549   2.289   1.126   4.726 -1.8193  2.5657  1.8346
 5029SOL    HW226550   2.206   1.195   4.622  0.0473 -0.4924 -0.1063
 5030SOL     OW26551   1.608   0.629  13.296  0.4343 -0.3570 -0.4600
 5030SOL    HW126552   1.609   0.550  13.241 -2.1238 -1.0638  0.5247
 5030SOL    HW226553   1.686   0.676  13.267 -0.2678  0.8936 -0.3367
 5031SOL     OW26554   2.998   0.515   6.526  0.2704 -0.2158 -0.2256
 5031SOL    HW126555   3.065   0.484   6.586 -0.8627  1.3341  1.8213
 5031SOL    HW226556   3.052   0.548   6.454 -0.3347  2.0254  0.3511
 5032SOL     OW26557   3.941   0.635   8.146  0.4047  0.1715 -0.2634
 5032SOL    HW126558   3.903   0.565   8.200  0.0297  0.6755  0.1264
 5032SOL    HW226559   3.898   0.631   8.061 -1.0870  0.7107  0.4693
 5033SOL     OW26560   1.134   1.716   8.129 -0.2446 -0.0076  0.2936
 5033SOL    HW126561   1.077   1.782   8.169 -0.6221  0.3385 -0.8257
 5033SOL    HW226562   1.171   1.766   8.057 -0.5082 -1.6290 -0.9708
 5034SOL     OW26563   1.669   0.579  14.893 -0.0076 -0.2911  0.5343
 5034SOL    HW126564   1.685   0.522  14.968 -0.0388 -0.8185  0.1324
 5034SOL    HW226565   1.589   0.545  14.852  1.7684 -4.2092  0.3610
 5035SOL     OW26566   0.073   3.417   8.050  0.1035 -0.2652  0.2538
 5035SOL    HW126567   0.086   3.458   8.136  0.4280 -1.1966  0.6548
 5035SOL    HW226568   0.121   3.478   7.995  0.4062  1.1686  2.0888
 5036SOL     OW26569   3.053   2.573   9.400  0.1742  0.5470 -0.1785
 5036SOL    HW126570   3.048   2.662   9.365  0.4399  1.0700  1.1038
 5036SOL    HW226571   3.033   2.592   9.491  1.3764 -0.0338  0.2083
 5037SOL     OW26572   3.666   2.113   0.088 -0.1464 -0.2130  0.2306
 5037SOL    HW126573   3.738   2.149   0.036 -0.9476  0.7364 -0.2399
 5037SOL    HW226574   3.718   2.088   0.164  2.7517  3.1069 -0.6474
 5038SOL     OW26575   1.813   3.371   7.732 -0.3336  0.2958  0.1607
 5038SOL    HW126576   1.742   3.421   7.691 -0.9196 -0.0299  0.7758
 5038SOL    HW226577   1.843   3.313   7.662  0.4491 -0.4636  1.1358
 5039SOL     OW26578   1.752   2.282   6.735  0.9153 -0.0073  0.0380
 5039SOL    HW126579   1.828   2.253   6.785  0.9071 -0.2996 -0.1204
 5039SOL    HW226580   1.782   2.258   6.648  1.9617  2.0683 -0.1765
 5040SOL     OW26581   0.814   3.227   6.287  0.2595 -0.0270  0.4483
 5040SOL    HW126582   0.744   3.173   6.322 -0.5155  0.8904  0.3076
 5040SOL    HW226583   0.776   3.313   6.304  0.4356 -0.2403  1.9349
 5041SOL     OW26584   1.570   3.706  13.676  0.1318 -0.1967 -0.2613
 5041SOL    HW126585   1.526   3.653  13.742  0.8531  0.5106  0.7830
 5041SOL    HW226586   1.516   3.779  13.646  0.7905  0.7714  0.9010
 5042SOL     OW26587   3.140   4.025   3.592 -0.6838  0.2018  0.0577
 5042SOL    HW126588   3.173   4.064   3.673  0.2789  2.9755 -1.6676
 5042SOL    HW226589   3.134   4.101   3.534 -2.2356  2.2000  2.8424
 5043SOL     OW26590   2.660   3.171   7.845 -0.3183  0.4941  0.8749
 5043SOL    HW126591   2.661   3.159   7.750 -0.7008  0.7800  0.8337
 5043SOL    HW226592   2.741   3.122   7.860  0.4001  1.4935  0.2650
 5044SOL     OW26593   3.502   4.172  10.676 -0.0175 -0.0849  0.6082
 5044SOL    HW126594   3.523   4.157  10.769 -1.4137 -1.6031  0.6863
 5044SOL    HW226595   3.416   4.211  10.689  1.2381  2.3044  1.6345
 5045SOL     OW26596   0.102   3.058  11.805 -0.3754 -0.0625 -0.1525
 5045SOL    HW126597   0.048   3.109  11.744 -1.4669 -1.7246 -0.5559
 5045SOL    HW226598   0.171   3.121  11.829 -1.3559  0.8952  0.1532
 5046SOL     OW26599   0.368   4.049   9.945 -0.3779  0.4541  0.0068
 5046SOL    HW126600   0.386   3.962   9.909 -1.6865  0.4933 -0.7345
 5046SOL    HW226601   0.341   4.093   9.865 -0.6803 -0.4151 -0.3715
 5047SOL     OW26602   0.875   0.027   4.018 -0.0198 -0.3652 -0.0922
 5047SOL    HW126603   0.809   4.718   3.956 -2.3060  0.2973  2.0645
 5047SOL    HW226604   0.941   4.678   4.017 -1.0726 -1.3773  1.1260
 5048SOL     OW26605   1.118   4.715  15.058  0.1977 -0.6778  0.5412
 5048SOL    HW126606   1.107   0.064  14.993 -2.0146 -3.0575 -1.6423
 5048SOL    HW226607   1.053   4.651  15.028 -2.2030  2.7189 -1.6466
 5049SOL     OW26608   0.179   0.455  11.008 -0.0892 -0.3825  0.5903
 5049SOL    HW126609   0.131   0.393  10.954  0.5853 -0.0098 -0.4278
 5049SOL    HW226610   0.239   0.389  11.042 -1.0739 -1.5133  0.1181
 5050SOL     OW26611   2.372   4.013  13.665  0.0398  0.1031 -0.1389
 5050SOL    HW126612   2.428   4.066  13.609 -0.8864  0.8990 -0.3008
 5050SOL    HW226613   2.326   3.962  13.598  1.5321  0.0316 -1.0876
 5051SOL     OW26614   1.686   1.524   9.802 -0.6493 -0.0500  0.4436
 5051SOL    HW126615   1.736   1.513   9.721  0.5282 -0.0086  1.1719
 5051SOL    HW226616   1.721   1.608   9.828 -1.4697  0.9437 -1.6363
 5052SOL     OW26617   3.832   4.160   8.795  0.1518 -0.0515  0.5943
 5052SOL    HW126618   3.910   4.166   8.739 -1.8006 -0.1348 -2.1185
 5052SOL    HW226619   3.811   4.067   8.787 -1.5674  0.5528 -1.7911
 5053SOL     OW26620   1.128   3.255   4.708 -0.3667 -0.3019 -0.1699
 5053SOL    HW126621   1.187   3.245   4.633  1.0032  0.2540  0.8160
 5053SOL    HW226622   1.099   3.341   4.678  2.5416  0.8595  0.2483
 5054SOL     OW26623   3.397   3.264   5.558 -0.4298 -0.2738 -0.1603
 5054SOL    HW126624   3.453   3.194   5.593 -1.7879 -1.6258 -0.7239
 5054SOL    HW226625   3.336   3.204   5.516  0.1970 -2.0791  1.4920
 5055SOL     OW26626   0.924   0.497   7.976  0.4177 -0.5293  0.3444
 5055SOL    HW126627   0.982   0.573   7.968  1.6493 -1.2880  2.1714
 5055SOL    HW226628   0.984   0.423   7.992  1.6610  0.6798  1.2725
 5056SOL     OW26629   1.136   0.859  16.644  0.0659  0.1850  0.0210
 5056SOL    HW126630   1.088   0.898  16.717  0.7730 -1.5448  1.4355
 5056SOL    HW226631   1.130   0.925  16.576 -1.3391 -1.3916 -1.3857
 5057SOL     OW26632   4.398   4.453   1.005 -0.1839 -0.2482  0.1965
 5057SOL    HW126633   4.339   4.484   1.074  0.4209  2.1875 -0.3810
 5057SOL    HW226634   4.461   4.399   1.052  0.1631 -0.2852 -0.3120
 5058SOL     OW26635   1.818   0.967   6.656 -0.3897  0.0718 -0.4268
 5058SOL    HW126636   1.858   0.909   6.721 -1.6942  0.2361  0.5355
 5058SOL    HW226637   1.869   0.947   6.578 -0.5305  1.4644 -0.8785
 5059SOL     OW26638   1.546   2.425  13.538  0.0952 -0.3304 -0.0566
 5059SOL    HW126639   1.513   2.504  13.495  0.0092 -1.3640 -1.9107
 5059SOL    HW226640   1.474   2.411  13.600  0.9593 -0.5312  0.9087
 5060SOL     OW26641   0.993   2.381   2.379 -0.4943  0.0054 -0.3114
 5060SOL    HW126642   1.017   2.301   2.333 -0.8016 -1.8727  2.8661
 5060SOL    HW226643   1.005   2.443   2.306 -0.3724  0.4508  0.0838
 5061SOL     OW26644   2.222   3.707  17.545 -0.0692  0.1482 -0.0435
 5061SOL    HW126645   2.136   3.685  17.509 -0.3470  3.1315 -1.2166
 5061SOL    HW226646   2.178   3.741  17.623  0.9076  0.7642  0.2405
 5062SOL     OW26647   0.596   0.056   1.513  0.1909 -0.1521 -0.0339
 5062SOL    HW126648   0.672   0.007   1.482 -0.8771 -3.3752  2.3917
 5062SOL    HW226649   0.520   0.014   1.473 -0.7377 -1.2934  2.8873
 5063SOL     OW26650   3.214   0.483  11.555 -0.5425 -0.0229  0.5186
 5063SOL    HW126651   3.301   0.454  11.527 -1.2268  0.1075 -1.7139
 5063SOL    HW226652   3.171   0.490  11.470 -0.9939 -1.1574  0.6625
 5064SOL     OW26653   0.026   3.649   4.666  0.1585 -0.1772 -0.4953
 5064SOL    HW126654   0.016   3.565   4.623 -1.1732  1.6627 -3.7385
 5064SOL    HW226655   4.658   3.679   4.684  0.2700 -0.6350  0.8233
 5065SOL     OW26656   1.575   3.633   4.135 -0.1755 -0.3346 -0.3636
 5065SOL    HW126657   1.655   3.603   4.179 -0.2390 -2.5328 -1.7670
 5065SOL    HW226658   1.539   3.553   4.098 -0.4946 -1.2829  1.9887
 5066SOL     OW26659   0.371   0.172   4.198  0.4652 -0.0095  0.5886
 5066SOL    HW126660   0.391   0.137   4.284  1.9276  0.9189  0.6182
 5066SOL    HW226661   0.416   0.254   4.217 -2.3997  1.8494 -0.5681
 5067SOL     OW26662   1.032   4.630   7.934 -0.5156 -0.1398 -0.1048
 5067SOL    HW126663   1.057   0.002   7.938 -0.8377 -0.0330 -0.6678
 5067SOL    HW226664   0.968   4.629   7.863 -0.3390 -0.7675 -0.2519
 5068SOL     OW26665   0.794   2.539   5.862 -0.2419  0.3979  0.4484
 5068SOL    HW126666   0.784   2.624   5.819 -0.1110  0.5401  0.6996
 5068SOL    HW226667   0.889   2.548   5.865 -0.3322  1.8750 -1.2550
 5069SOL     OW26668   1.467   2.192   1.503  0.0665 -0.0837 -0.0828
 5069SOL    HW126669   1.526   2.165   1.432 -0.2955  1.3067 -0.9047
 5069SOL    HW226670   1.520   2.259   1.547 -0.9637 -0.5395  1.8446
 5070SOL     OW26671   3.711   1.039  15.630  0.2196  0.2975 -0.1861
 5070SOL    HW126672   3.623   1.004  15.625  0.0855  0.7655 -1.1497
 5070SOL    HW226673   3.738   1.028  15.721 -0.1151 -0.9909 -0.2503
 5071SOL     OW26674   3.561   4.681   2.575 -0.1369 -0.3273  0.2496
 5071SOL    HW126675   3.549   4.588   2.595 -0.7098  0.1746  2.1850
 5071SOL    HW226676   3.633   4.700   2.634  0.4320 -0.0253 -0.5462
 5072SOL     OW26677   0.980   4.366   6.021 -0.4939  0.2087  0.0699
 5072SOL    HW126678   0.919   4.422   5.972  0.1257  2.1213  1.4501
 5072SOL    HW226679   0.954   4.386   6.111 -0.6115  1.8123 -0.3135
 5073SOL     OW26680   0.255   2.700   7.964 -0.2631 -0.5555  0.0038
 5073SOL    HW126681   0.166   2.709   7.998  0.4168  0.4122  1.4909
 5073SOL    HW226682   0.298   2.769   8.013 -0.1008 -2.1267  2.0384
 5074SOL     OW26683   1.367   0.886   7.215 -0.0457 -0.1674  0.3996
 5074SOL    HW126684   1.384   0.832   7.293  1.5322 -0.9307 -0.4761
 5074SOL    HW226685   1.382   0.973   7.253  2.9437 -0.5533  0.1074
 5075SOL     OW26686   3.720   1.067   6.224 -0.0217  0.3931  0.3511
 5075SOL    HW126687   3.637   1.061   6.271 -0.7316  1.1264 -0.8026
 5075SOL    HW226688   3.710   0.991   6.167 -4.6343  1.3070 -0.0116
 5076SOL     OW26689   2.121   1.871   3.259 -0.5541 -0.5985  0.4263
 5076SOL    HW126690   2.105   1.949   3.311 -0.0686 -0.1365 -0.1098
 5076SOL    HW226691   2.208   1.838   3.279 -0.3890 -1.0844 -1.0523
 5077SOL     OW26692   1.253   1.402   3.994  0.6141  0.1294 -0.0375
 5077SOL    HW126693   1.331   1.349   3.977  0.8540  0.1676  0.9197
 5077SOL    HW226694   1.289   1.456   4.065 -0.6478  0.8422  0.0427
 5078SOL     OW26695   0.458   3.589  10.100  0.3723 -0.3542 -0.0286
 5078SOL    HW126696   0.373   3.557  10.132  0.1022 -0.6511 -1.0489
 5078SOL    HW226697   0.518   3.516  10.114  2.3892  1.1912 -0.7432
 5079SOL     OW26698   3.964   0.028  10.880  0.2119  0.1314 -0.0836
 5079SOL    HW126699   3.931   0.054  10.966 -1.8669  2.7203 -1.6616
 5079SOL    HW226700   3.942   4.656  10.879  1.0944 -0.0838  0.5859
 5080SOL     OW26701   3.179   4.573   8.741  0.3484 -0.2469 -0.2999
 5080SOL    HW126702   3.248   4.589   8.805  0.2433 -0.2368 -0.1885
 5080SOL    HW226703   3.193   4.651   8.687  0.0940  0.6548  0.9365
 5081SOL     OW26704   4.705   4.143   3.512  0.0118  0.2394 -0.6487
 5081SOL    HW126705   0.017   4.171   3.427  0.9835 -0.6300 -0.5441
 5081SOL    HW226706   4.616   4.180   3.514 -1.2703 -2.8993  0.3645
 5082SOL     OW26707   3.759   3.811   5.309  0.4823 -0.5568 -0.5173
 5082SOL    HW126708   3.724   3.733   5.352  2.6427  0.0418  2.3609
 5082SOL    HW226709   3.834   3.815   5.369  0.7118  1.9204 -0.9546
 5083SOL     OW26710   2.725   3.057   1.725  0.8613  0.8268  0.3670
 5083SOL    HW126711   2.797   3.035   1.665  1.8474  1.7086  1.2471
 5083SOL    HW226712   2.668   2.980   1.729 -0.5233  1.8526  0.5862
 5084SOL     OW26713   2.945   2.289   9.658 -0.4980  0.1813 -0.1031
 5084SOL    HW126714   3.024   2.305   9.607  1.7798  0.5577  3.6383
 5084SOL    HW226715   2.956   2.361   9.719 -1.4406  0.4923 -0.2989
 5085SOL     OW26716   2.048   0.609   6.699  0.2606  0.2154  0.0082
 5085SOL    HW126717   2.070   0.527   6.744  0.6087  1.0725  1.3994
 5085SOL    HW226718   2.013   0.654   6.777  0.0835  0.1871 -0.0546
 5086SOL     OW26719   2.764   3.356   5.002 -0.4589  0.5907 -0.5402
 5086SOL    HW126720   2.696   3.291   4.983 -1.8037  1.6973  0.4344
 5086SOL    HW226721   2.826   3.288   5.028 -0.3520  1.5981  1.8128
 5087SOL     OW26722   0.288   3.580   3.611 -0.3128  0.1249 -0.0233
 5087SOL    HW126723   0.264   3.661   3.567 -1.8438 -1.1234 -1.5069
 5087SOL    HW226724   0.377   3.605   3.636 -0.3386  1.4197 -1.2400
 5088SOL     OW26725   4.514   1.238   7.235  0.1253  0.3889  0.0241
 5088SOL    HW126726   4.550   1.326   7.249  0.7414 -0.1565  1.7790
 5088SOL    HW226727   4.446   1.260   7.171 -0.3508 -0.0894  0.3638
 5089SOL     OW26728   3.189   3.141   8.248 -0.1531  0.1327 -1.3397
 5089SOL    HW126729   3.257   3.114   8.187  0.4594  2.2991 -1.6035
 5089SOL    HW226730   3.118   3.098   8.201 -1.4088  1.7946 -0.9691
 5090SOL     OW26731   0.544   1.989   3.420  0.0518 -0.0243 -0.3726
 5090SOL    HW126732   0.564   1.905   3.460  3.1788  0.4646 -0.9593
 5090SOL    HW226733   0.624   2.009   3.372  0.4307 -0.1831  0.1927
 5091SOL     OW26734   1.054   4.603   6.339 -0.2912 -0.2085 -0.1582
 5091SOL    HW126735   0.972   4.560   6.313 -1.3068  1.7783 -0.2603
 5091SOL    HW226736   1.052   4.608   6.434 -1.9559 -0.3000 -0.1818
 5092SOL     OW26737   2.375   3.299   4.727 -0.4891 -0.1170  0.7157
 5092SOL    HW126738   2.347   3.360   4.658  1.8059 -0.0242 -0.1363
 5092SOL    HW226739   2.291   3.275   4.764 -0.8502 -2.8213 -1.8180
 5093SOL     OW26740   0.794   1.282  12.910 -0.0233 -0.7298 -0.2109
 5093SOL    HW126741   0.835   1.196  12.916 -1.9947 -1.7014 -0.6278
 5093SOL    HW226742   0.815   1.316  12.997  0.5452  0.0393 -0.6529
 5094SOL     OW26743   3.562   2.799   3.507  0.6266  0.2338 -0.2242
 5094SOL    HW126744   3.470   2.787   3.482  0.6852 -1.0247  0.1874
 5094SOL    HW226745   3.596   2.715   3.477  0.7689  0.3698 -0.4428
 5095SOL     OW26746   3.186   2.058  16.526  0.0476  0.6489  0.2404
 5095SOL    HW126747   3.145   2.001  16.460  0.6347  1.0857 -0.5049
 5095SOL    HW226748   3.175   1.993  16.596 -1.9586 -0.3864 -1.0216
 5096SOL     OW26749   1.831   4.302   4.844  0.0387  0.3363  1.0905
 5096SOL    HW126750   1.815   4.246   4.920 -3.7522  0.4033  0.3345
 5096SOL    HW226751   1.907   4.259   4.807 -1.6546 -0.6139 -1.2778
 5097SOL     OW26752   1.732   1.158   2.442 -0.0763 -0.4633  0.0922
 5097SOL    HW126753   1.702   1.246   2.420 -1.4374 -1.0717 -0.5009
 5097SOL    HW226754   1.662   1.122   2.498  1.6654 -2.1821  1.1501
 5098SOL     OW26755   2.991   3.946  14.198  0.1110 -0.5417 -0.0935
 5098SOL    HW126756   3.081   3.926  14.173 -0.6266 -2.0292 -1.5863
 5098SOL    HW226757   2.943   3.950  14.115  1.8346  0.5349 -1.0353
 5099SOL     OW26758   0.819   4.061   0.305 -0.8678  0.2784 -0.3981
 5099SOL    HW126759   0.738   4.097   0.341 -1.8475 -1.7828 -0.5463
 5099SOL    HW226760   0.786   3.972   0.295  0.0871 -0.1522  0.3041
 5100SOL     OW26761   2.560   3.939   0.684 -0.0384 -0.7381 -0.1630
 5100SOL    HW126762   2.617   3.906   0.615  1.4348  0.1555  0.6330
 5100SOL    HW226763   2.633   3.968   0.739 -1.8155  0.0215  1.7801
 5101SOL     OW26764   2.639   3.576  16.224  0.3399  0.3920  0.0345
 5101SOL    HW126765   2.677   3.489  16.233 -1.0351 -0.4517 -2.2664
 5101SOL    HW226766   2.714   3.635  16.237  0.1186  1.1177 -2.0112
 5102SOL     OW26767   1.511   1.668   8.103 -0.4562  0.0654 -0.3472
 5102SOL    HW126768   1.539   1.644   8.014 -2.3797  0.0024 -0.9488
 5102SOL    HW226769   1.440   1.606   8.121  0.0089  0.3935  2.5251
 5103SOL     OW26770   3.911   0.578   6.796 -0.0778  0.5594 -0.0265
 5103SOL    HW126771   3.948   0.526   6.867 -0.5794 -1.1657 -1.0253
 5103SOL    HW226772   3.937   0.664   6.830  1.8192  0.2480 -0.6363
 5104SOL     OW26773   0.851   4.329  15.401  0.0311  0.7613  0.4097
 5104SOL    HW126774   0.766   4.287  15.414 -0.1146  0.6123 -0.9840
 5104SOL    HW226775   0.872   4.296  15.313  1.1157  1.7415  0.3118
 5105SOL     OW26776   1.831   2.525   2.055  0.4755  0.0242  0.4172
 5105SOL    HW126777   1.821   2.596   1.992 -0.7659 -1.3273 -0.9411
 5105SOL    HW226778   1.809   2.574   2.134 -0.6282 -0.6965  0.5741
 5106SOL     OW26779   4.244   0.027   2.406  0.3219 -0.5772 -0.2209
 5106SOL    HW126780   4.322   4.694   2.413  0.4961 -0.3178 -0.1852
 5106SOL    HW226781   4.293   0.105   2.379  1.3429 -0.6975  1.3009
 5107SOL     OW26782   3.820   4.024  10.250  0.2998 -0.4802 -0.1278
 5107SOL    HW126783   3.797   4.042  10.159  1.2888 -0.6929 -0.4173
 5107SOL    HW226784   3.747   4.057  10.302  0.7368  0.0435  0.1465
 5108SOL     OW26785   2.667   0.973   2.645  0.2550 -0.2862  0.5742
 5108SOL    HW126786   2.713   0.933   2.719  0.8904 -0.2554  0.1918
 5108SOL    HW226787   2.669   0.906   2.576 -0.9253 -1.5028  1.7146
 5109SOL     OW26788   3.178   0.767   6.621 -0.2382 -0.0166  0.1955
 5109SOL    HW126789   3.233   0.778   6.544 -0.7423 -0.1155 -0.1814
 5109SOL    HW226790   3.238   0.737   6.689 -1.2388 -0.9169  0.6946
 5110SOL     OW26791   1.689   2.525   2.731  0.0417  0.0613 -0.2211
 5110SOL    HW126792   1.662   2.441   2.696  0.7399 -0.3862  0.3126
 5110SOL    HW226793   1.606   2.539   2.778  1.6070  1.7332  2.0815
 5111SOL     OW26794   4.110   2.088   9.144  0.2372 -0.6051  0.2161
 5111SOL    HW126795   4.102   2.055   9.233  2.2863  1.2133  1.0558
 5111SOL    HW226796   4.161   2.015   9.109 -0.1321 -1.0601  0.6383
 5112SOL     OW26797   3.926   3.332  12.417  0.1390  0.1661 -0.4496
 5112SOL    HW126798   3.985   3.304  12.347  0.9020  2.6284 -0.7754
 5112SOL    HW226799   3.857   3.266  12.410  0.6243 -0.4717  0.8405
 5113SOL     OW26800   3.170   3.491   2.787 -0.0152  0.0379  0.1163
 5113SOL    HW126801   3.086   3.500   2.743 -1.0532 -0.7026  1.9732
 5113SOL    HW226802   3.172   3.398   2.812 -2.5246  0.5698  2.3103
 5114SOL     OW26803   3.401   1.210   0.282  0.4712 -0.4605 -0.1192
 5114SOL    HW126804   3.475   1.231   0.338 -0.0778 -1.7383  1.0896
 5114SOL    HW226805   3.440   1.138   0.232  0.5532 -1.2345  1.0735
 5115SOL     OW26806   4.617   3.106   3.335  0.3369 -0.0605  0.2316
 5115SOL    HW126807   4.664   3.023   3.327  1.0903  0.4576 -0.5773
 5115SOL    HW226808   4.660   3.169   3.278  0.4355  1.3091  1.8135
 5116SOL     OW26809   0.705   2.229   9.358 -0.5681 -0.1463  0.0464
 5116SOL    HW126810   0.766   2.230   9.431 -0.4327 -1.5280 -0.0467
 5116SOL    HW226811   0.648   2.303   9.378  1.3041  1.5625 -0.8995
 5117SOL     OW26812   1.926   0.033  14.707  0.4531  0.0644 -0.5098
 5117SOL    HW126813   1.940   4.668  14.667  0.5181 -1.1048  2.0590
 5117SOL    HW226814   1.937   0.096  14.636  0.7810 -1.0977 -1.4905
 5118SOL     OW26815   3.013   2.292  16.356 -0.6241  0.2634 -0.3028
 5118SOL    HW126816   3.035   2.259  16.269 -0.1354  0.6576 -0.3218
 5118SOL    HW226817   3.076   2.244  16.410 -0.4577  0.3713 -0.4032
 5119SOL     OW26818   1.481   2.229   6.160  0.3081  0.7686 -0.0909
 5119SOL    HW126819   1.553   2.245   6.100 -0.3750 -3.2471 -1.9743
 5119SOL    HW226820   1.483   2.134   6.177  0.7173  1.1886  2.3019
 5120SOL     OW26821   1.587   2.680  11.458 -0.3962 -0.0259 -0.4988
 5120SOL    HW126822   1.673   2.696  11.420 -0.4099 -2.7261 -1.7114
 5120SOL    HW226823   1.579   2.585  11.471  1.3453 -0.0772  0.1519
 5121SOL     OW26824   2.312   4.519  10.862 -0.0468  0.3570 -0.4404
 5121SOL    HW126825   2.384   4.490  10.918  1.5013  1.2333 -1.9472
 5121SOL    HW226826   2.289   4.603  10.903 -2.4673  0.0868 -1.2355
 5122SOL     OW26827   2.992   2.918  10.194 -0.2049 -0.2211  0.1164
 5122SOL    HW126828   2.938   2.881  10.264 -0.4707 -4.1102 -2.1742
 5122SOL    HW226829   3.081   2.917  10.227  0.4614  0.6721 -1.6368
 5123SOL     OW26830   4.568   0.449  10.385 -0.3510  0.4702 -0.1336
 5123SOL    HW126831   4.630   0.416  10.451 -0.7895  0.0422  0.0632
 5123SOL    HW226832   4.562   0.542  10.406 -0.1013  0.8652 -1.8168
 5124SOL     OW26833   3.516   2.103  11.733  0.3223 -0.0731 -1.0242
 5124SOL    HW126834   3.577   2.091  11.660  1.1196  0.7089 -0.4890
 5124SOL    HW226835   3.582   2.124  11.800  0.1242 -2.5243 -0.0449
 5125SOL     OW26836   1.610   0.001   4.953 -0.6014 -0.0520  0.0986
 5125SOL    HW126837   1.673   4.696   5.021 -0.3070 -1.1987 -0.6127
 5125SOL    HW226838   1.638   4.667   4.880 -1.4831  0.3679 -0.5427
 5126SOL     OW26839   1.726   0.322   7.458  0.3336 -0.3537 -0.7492
 5126SOL    HW126840   1.778   0.340   7.380  0.8898  2.3733  0.2453
 5126SOL    HW226841   1.770   0.256   7.512 -0.2784  0.0073  0.1875
 5127SOL     OW26842   1.289   0.802   4.225 -0.0125 -0.3196 -0.1743
 5127SOL    HW126843   1.356   0.752   4.179 -0.4506 -1.5532  0.5075
 5127SOL    HW226844   1.213   0.764   4.181 -0.6744  1.7267 -0.7651
 5128SOL     OW26845   1.292   0.586  13.271  0.5106  0.0306 -0.0019
 5128SOL    HW126846   1.324   0.671  13.241 -1.7612  0.8316 -0.1954
 5128SOL    HW226847   1.325   0.580  13.360 -0.1451 -0.2045  0.2243
 5129SOL     OW26848   3.066   4.421  13.556  0.1048  0.5155 -0.2198
 5129SOL    HW126849   3.128   4.479  13.600 -0.7345  0.9510  0.3938
 5129SOL    HW226850   3.085   4.337  13.599 -0.6766  0.4501  0.0030
 5130SOL     OW26851   0.889   1.666   3.624 -0.3854  0.1122  0.2871
 5130SOL    HW126852   0.869   1.600   3.558 -1.2957 -2.9161  3.5821
 5130SOL    HW226853   0.815   1.661   3.685  1.5832  0.3793  2.7014
 5131SOL     OW26854   3.815   4.293   2.283  0.0071  0.4658 -0.3952
 5131SOL    HW126855   3.839   4.320   2.194 -1.5147  2.7966 -0.0945
 5131SOL    HW226856   3.829   4.199   2.275 -2.2324  0.1746 -0.7177
 5132SOL     OW26857   2.968   3.197  13.687  0.0181  0.0976  0.1706
 5132SOL    HW126858   2.957   3.257  13.613  1.1201  1.7122  1.3154
 5132SOL    HW226859   2.884   3.201  13.733  1.1221 -0.9497  2.3146
 5133SOL     OW26860   3.116   4.427   0.665  0.3716 -0.0075 -0.0463
 5133SOL    HW126861   3.112   4.454   0.573  0.2235  0.3416  0.0620
 5133SOL    HW226862   3.167   4.347   0.653  1.0790  0.1779  1.6902
 5134SOL     OW26863   0.568   2.347  11.490  0.9673  0.6014 -0.0179
 5134SOL    HW126864   0.510   2.395  11.432 -0.9328 -1.0426  0.5188
 5134SOL    HW226865   0.504   2.327  11.559 -1.3063  1.1964 -1.9728
 5135SOL     OW26866   3.235   1.111   3.040  0.1163  0.2757  0.4787
 5135SOL    HW126867   3.283   1.191   3.062 -0.0042  0.8652 -1.3667
 5135SOL    HW226868   3.263   1.067   3.120 -0.1127 -0.4047  0.1858
 5136SOL     OW26869   3.734   0.010   8.730 -0.4290 -0.1811 -0.1081
 5136SOL    HW126870   3.706   4.640   8.729 -2.9223  0.6033 -1.3864
 5136SOL    HW226871   3.724   0.021   8.825  0.5476 -1.2930  0.1174
 5137SOL     OW26872   3.469   2.151   8.257 -0.0886 -0.2341 -0.0229
 5137SOL    HW126873   3.483   2.153   8.352 -0.9096  0.2755  0.0915
 5137SOL    HW226874   3.460   2.245   8.247 -2.1576 -0.3375  0.8164
 5138SOL     OW26875   0.004   0.671   6.606  0.4822  0.2273 -0.2103
 5138SOL    HW126876   0.023   0.724   6.684 -1.6615 -0.8465  1.0272
 5138SOL    HW226877   4.718   0.589   6.655  1.2582  0.3892  0.1633
 5139SOL     OW26878   2.029   4.561   2.713 -0.5950  0.2829 -0.5385
 5139SOL    HW126879   2.062   4.519   2.634 -0.3178  0.8082 -0.6980
 5139SOL    HW226880   1.985   4.489   2.759 -0.8480  0.8956  0.1776
 5140SOL     OW26881   2.738   0.312   5.788 -0.5167  0.4052  0.1115
 5140SOL    HW126882   2.699   0.349   5.868 -1.1260  1.4465 -0.6631
 5140SOL    HW226883   2.661   0.315   5.731 -0.2916  2.4296 -0.1187
 5141SOL     OW26884   1.322   1.928  11.848 -0.0923  0.2820  0.0713
 5141SOL    HW126885   1.282   2.014  11.842  2.0130  1.1685 -1.2399
 5141SOL    HW226886   1.245   1.872  11.837  0.1034 -0.2053  1.1779
 5142SOL     OW26887   1.956   4.696   6.191 -0.9929  0.0071 -0.0005
 5142SOL    HW126888   1.960   4.654   6.105  2.0830  0.4211 -0.0720
 5142SOL    HW226889   1.958   4.614   6.240 -0.5479 -0.6575 -1.1367
 5143SOL     OW26890   3.524   1.592  13.000  0.5600 -0.4013 -0.2596
 5143SOL    HW126891   3.551   1.505  13.030 -3.6392 -1.7353 -0.4387
 5143SOL    HW226892   3.553   1.646  13.074  2.1005  0.2743 -1.3524
 5144SOL     OW26893   4.389   4.232   1.616  0.2392  0.0366  0.5728
 5144SOL    HW126894   4.466   4.221   1.560 -1.0783  1.4368 -1.5107
 5144SOL    HW226895   4.388   4.159   1.678  0.5276  0.5330  1.1648
 5145SOL     OW26896   2.071   0.044   8.184 -0.2641 -0.1196 -0.2005
 5145SOL    HW126897   2.112   4.705   8.246 -0.9440  0.5965  0.9427
 5145SOL    HW226898   2.109   0.129   8.206  2.1193 -0.7818 -1.8195
 5146SOL     OW26899   1.315   1.614  11.034  0.0339 -0.3333  0.4388
 5146SOL    HW126900   1.297   1.670  11.109  0.4207 -2.9589  2.4917
 5146SOL    HW226901   1.249   1.545  11.048  0.1361 -0.3042  1.0225
 5147SOL     OW26902   2.534   0.618   3.548  0.0966 -0.4265 -0.8408
 5147SOL    HW126903   2.505   0.663   3.469  0.6227  1.3761 -0.0036
 5147SOL    HW226904   2.593   0.553   3.510  2.2361  0.5189  0.9194
 5148SOL     OW26905   0.226   4.071   1.843 -0.2764  0.8327  0.3523
 5148SOL    HW126906   0.140   4.037   1.869  0.9522 -2.4464  0.1638
 5148SOL    HW226907   0.200   4.107   1.758  0.4372  0.6368  0.0494
 5149SOL     OW26908   1.030   4.675   8.895 -0.1159  0.1602 -0.2159
 5149SOL    HW126909   0.939   4.666   8.867  0.3722 -0.9239 -1.4566
 5149SOL    HW226910   1.016   4.644   8.985 -0.3781  0.3244 -0.2002
 5150SOL     OW26911   1.414   0.254  13.061 -0.6204 -0.1953  0.1422
 5150SOL    HW126912   1.341   0.305  13.097 -0.9447 -1.5066  1.3109
 5150SOL    HW226913   1.363   0.207  12.995 -1.6186 -1.3752  1.7512
 5151SOL     OW26914   1.967   4.439   6.258 -0.0303 -0.4013  0.4215
 5151SOL    HW126915   2.036   4.404   6.315  1.1968 -1.1988 -1.5462
 5151SOL    HW226916   2.002   4.412   6.173  0.0558  1.5172 -0.1560
 5152SOL     OW26917   2.598   1.214   1.151 -0.1352 -0.1620 -0.0516
 5152SOL    HW126918   2.648   1.296   1.159 -0.4771 -0.0185  0.6358
 5152SOL    HW226919   2.598   1.182   1.242  0.2491  0.8835  0.3173
 5153SOL     OW26920   4.437   0.771   4.827  0.1054 -0.6510  0.4699
 5153SOL    HW126921   4.442   0.798   4.919 -1.6122 -0.4462  0.4912
 5153SOL    HW226922   4.403   0.856   4.797  1.2716 -0.1190  0.6298
 5154SOL     OW26923   2.661   3.842   1.489 -0.5358 -0.1721 -0.4711
 5154SOL    HW126924   2.573   3.879   1.502 -1.1554 -1.3544 -1.2954
 5154SOL    HW226925   2.699   3.846   1.576  0.9866 -1.3150 -1.0873
 5155SOL     OW26926   3.470   1.248   2.962  0.0375  0.0085  0.2907
 5155SOL    HW126927   3.409   1.198   2.908  1.0885 -0.8890 -0.0728
 5155SOL    HW226928   3.455   1.335   2.924  0.7232 -0.8286 -1.8785
 5156SOL     OW26929   4.132   2.211   4.980 -0.6082 -0.2469 -0.0820
 5156SOL    HW126930   4.144   2.229   5.073 -2.7974  0.5885  0.0269
 5156SOL    HW226931   4.180   2.128   4.979 -0.0163  0.0959 -0.5390
 5157SOL     OW26932   4.286   3.556   6.689  0.6583  0.2383  0.4981
 5157SOL    HW126933   4.346   3.489   6.722  1.5402  0.5523 -0.4456
 5157SOL    HW226934   4.210   3.522   6.736 -1.3764  1.3633 -1.9579
 5158SOL     OW26935   4.321   1.376   5.272 -0.3727  0.9285 -0.1025
 5158SOL    HW126936   4.273   1.422   5.341  2.0424  0.1054  2.1532
 5158SOL    HW226937   4.402   1.353   5.317 -1.3095 -1.2874  0.4871
 5159SOL     OW26938   1.521   1.375   9.961  0.3068 -0.3539  0.2514
 5159SOL    HW126939   1.578   1.397   9.888 -0.1257  0.9377  0.2913
 5159SOL    HW226940   1.490   1.460   9.993  0.1192 -0.1151 -0.5744
 5160SOL     OW26941   0.055   4.599   6.825  0.5920 -0.0358 -0.0323
 5160SOL    HW126942   0.009   4.523   6.790  0.7927  0.2545 -0.9162
 5160SOL    HW226943   0.052   4.666   6.757  2.1332  2.4478  2.2921
 5161SOL     OW26944   2.945   0.441   2.223  0.5227  0.1303 -0.6318
 5161SOL    HW126945   3.007   0.514   2.224  0.9032 -0.2061  0.3657
 5161SOL    HW226946   2.867   0.486   2.255 -0.0688 -0.1469 -1.7195
 5162SOL     OW26947   1.722   1.947   3.949  0.1794  0.6202 -0.4353
 5162SOL    HW126948   1.644   1.984   3.908  0.9383  1.4272 -1.1497
 5162SOL    HW226949   1.730   1.874   3.888 -1.5983 -0.7741  1.0183
 5163SOL     OW26950   1.361   2.351  12.474  0.2394 -0.0470  0.8112
 5163SOL    HW126951   1.391   2.442  12.482  1.2433 -0.5964  3.4925
 5163SOL    HW226952   1.441   2.304  12.499  0.1375 -0.9609 -0.5951
 5164SOL     OW26953   0.623   2.379   6.820  0.0775 -0.3224  0.2146
 5164SOL    HW126954   0.565   2.373   6.896  1.2062 -0.4083  1.0651
 5164SOL    HW226955   0.564   2.340   6.756 -0.5082  1.6965 -0.4953
 5165SOL     OW26956   0.659   0.935   8.323  0.2108  1.0041  0.2279
 5165SOL    HW126957   0.665   1.029   8.339 -0.0563  0.5173  3.3046
 5165SOL    HW226958   0.566   0.931   8.305  0.2230  1.6311  0.0307
 5166SOL     OW26959   1.804   4.428   1.822  0.1668 -0.0060 -0.8983
 5166SOL    HW126960   1.888   4.426   1.869  0.8071  1.9340 -1.9528
 5166SOL    HW226961   1.737   4.451   1.887  0.7013  0.1069 -0.3810
 5167SOL     OW26962   2.950   2.406  15.476 -0.2105  0.3452 -0.4620
 5167SOL    HW126963   2.907   2.491  15.466  1.8947  1.3704 -0.9067
 5167SOL    HW226964   2.959   2.366  15.390  1.6478  1.0222 -0.5848
 5168SOL     OW26965   1.263   3.043   7.095  0.8078 -0.1621 -0.1849
 5168SOL    HW126966   1.221   2.970   7.139  0.2213  0.3820  0.1508
 5168SOL    HW226967   1.274   3.109   7.163  1.9479  0.2678 -0.7749
 5169SOL     OW26968   3.333   1.455   2.130  0.5233 -0.3713  0.4149
 5169SOL    HW126969   3.373   1.377   2.170  1.2877  0.5321  1.4259
 5169SOL    HW226970   3.407   1.515   2.135  0.7862 -0.7267  0.8358
 5170SOL     OW26971   2.051   3.412   6.158  0.1479 -0.1105 -0.3994
 5170SOL    HW126972   2.068   3.431   6.250  1.1415 -0.8502 -0.4285
 5170SOL    HW226973   1.957   3.395   6.152  0.2233 -0.5133 -0.4442
 5171SOL     OW26974   0.121   2.565  14.705 -0.6664 -0.2286  0.6671
 5171SOL    HW126975   0.124   2.592  14.797  1.5725  1.9009 -0.0384
 5171SOL    HW226976   0.062   2.633  14.671  0.3035  1.5707  2.5578
 5172SOL     OW26977   2.291   1.516   4.416 -0.0599 -0.5225 -0.0471
 5172SOL    HW126978   2.345   1.522   4.494 -1.3302 -2.8418  1.0045
 5172SOL    HW226979   2.275   1.609   4.401  1.1911 -0.2369  0.4446
 5173SOL     OW26980   1.679   2.100  12.138  0.3305  0.0306  0.0766
 5173SOL    HW126981   1.706   2.170  12.197  0.6039  3.0465 -3.6354
 5173SOL    HW226982   1.590   2.084  12.168 -0.1831  2.2749 -0.2266
 5174SOL     OW26983   4.352   1.605  13.411  0.1014 -0.0900 -0.3947
 5174SOL    HW126984   4.402   1.609  13.329  2.6849 -0.9738  1.1462
 5174SOL    HW226985   4.418   1.598  13.480  1.3253  0.8132 -1.4612
 5175SOL     OW26986   3.180   3.897   6.896  0.9945  0.0453  0.6307
 5175SOL    HW126987   3.192   3.989   6.916 -2.7522  0.1935  2.1130
 5175SOL    HW226988   3.271   3.870   6.883  0.7926 -0.4827  0.2712
 5176SOL     OW26989   3.109   2.802   1.503  0.2431 -0.5145  0.7500
 5176SOL    HW126990   3.080   2.729   1.558 -1.9964  0.9611  1.5034
 5176SOL    HW226991   3.204   2.797   1.516  0.2804 -0.5582  0.4488
 5177SOL     OW26992   2.480   4.138   8.062  0.3397  0.4805  0.3852
 5177SOL    HW126993   2.513   4.221   8.097  2.7298 -0.3590  0.0938
 5177SOL    HW226994   2.563   4.111   8.022  0.9477  0.5028  1.6371
 5178SOL     OW26995   1.541   1.057   5.936  0.2981 -0.0313  0.4116
 5178SOL    HW126996   1.598   1.006   5.878 -1.3544 -1.6904  0.2249
 5178SOL    HW226997   1.484   1.107   5.877 -1.1711 -2.3029 -0.1052
 5179SOL     OW26998   0.558   2.259   5.262  0.6127  0.8311  0.0206
 5179SOL    HW126999   0.523   2.258   5.352 -1.4903  0.4704 -0.8103
 5179SOL    HW227000   0.651   2.255   5.284  0.2031 -0.0080  1.6367
 5180SOL     OW27001   3.032   1.477   3.019 -0.0762 -0.3225 -0.0244
 5180SOL    HW127002   3.002   1.398   3.065 -0.4313 -0.0954  0.1299
 5180SOL    HW227003   3.023   1.444   2.929  1.4693  0.3949 -0.4503
 5181SOL     OW27004   0.316   2.706  16.383  0.1083 -0.4400  0.1941
 5181SOL    HW127005   0.383   2.721  16.449 -0.6914  0.0963  0.8774
 5181SOL    HW227006   0.250   2.768  16.412  0.9898 -0.5673  2.4329
 5182SOL     OW27007   0.365   3.090  11.044 -0.4695 -0.1849 -0.2756
 5182SOL    HW127008   0.325   3.164  10.998 -0.3233  1.2337  1.8958
 5182SOL    HW227009   0.309   3.082  11.121  0.1408  0.1023  0.1915
 5183SOL     OW27010   1.904   3.949   6.992 -0.2331  0.3297  0.1574
 5183SOL    HW127011   1.882   3.922   6.903  0.6759  0.6831 -0.1773
 5183SOL    HW227012   1.936   4.038   6.974 -0.1614  0.2547 -0.0758
 5184SOL     OW27013   4.509   0.156   2.524  0.0963 -0.2330 -0.3888
 5184SOL    HW127014   4.494   0.228   2.463  1.3651  1.0895  0.8755
 5184SOL    HW227015   4.575   0.100   2.483  0.2273 -1.1176  1.0064
 5185SOL     OW27016   0.302   3.448  15.418  0.3776 -0.0785 -0.0348
 5185SOL    HW127017   0.237   3.384  15.447 -0.6366  0.9173 -0.1146
 5185SOL    HW227018   0.320   3.491  15.501  0.7502  1.5653 -0.9588
 5186SOL     OW27019   4.322   3.910   2.207 -0.3930 -0.1772  0.2970
 5186SOL    HW127020   4.294   3.835   2.259 -1.2258  0.0373  0.1479
 5186SOL    HW227021   4.276   3.893   2.125 -0.4117  0.7323  0.1227
 5187SOL     OW27022   3.732   1.048  17.093  0.2791  0.0914  0.4018
 5187SOL    HW127023   3.822   1.059  17.062 -0.1102 -1.4077 -1.1912
 5187SOL    HW227024   3.703   0.960  17.072  0.0712  1.0561 -3.3300
 5188SOL     OW27025   0.653   3.940   9.311 -0.2018 -0.3692  0.2590
 5188SOL    HW127026   0.614   4.028   9.312  1.3731  0.2971  1.4565
 5188SOL    HW227027   0.725   3.964   9.253 -0.1762 -0.1687  0.3738
 5189SOL     OW27028   3.479   3.233  13.161  0.0454  0.3507 -0.1068
 5189SOL    HW127029   3.450   3.316  13.125 -2.0014 -1.0615 -1.7053
 5189SOL    HW227030   3.403   3.213  13.215 -0.0951  1.5146  0.1175
 5190SOL     OW27031   0.860   0.736   3.818  0.1710 -0.4977  0.2189
 5190SOL    HW127032   0.766   0.739   3.840  0.2291 -0.6045  0.4825
 5190SOL    HW227033   0.880   0.827   3.839  0.0746 -0.2770 -0.6616
 5191SOL     OW27034   4.523   3.669   6.987  0.4049 -0.4747  0.0734
 5191SOL    HW127035   4.507   3.751   7.033 -0.7850 -2.4821  3.3082
 5191SOL    HW227036   4.532   3.607   7.060 -0.0741 -1.2222 -0.5137
 5192SOL     OW27037   2.471   0.721   7.494 -0.8546 -0.1437  0.0738
 5192SOL    HW127038   2.510   0.697   7.578  0.1192 -0.2290 -0.4015
 5192SOL    HW227039   2.440   0.637   7.462  0.0441 -1.3459  2.3872
 5193SOL     OW27040   2.330   4.080  10.754  0.2132  0.7269  0.1009
 5193SOL    HW127041   2.387   4.118  10.687 -1.5828  0.2261 -1.7024
 5193SOL    HW227042   2.278   4.154  10.785  0.0796  1.0426 -0.8566
 5194SOL     OW27043   4.195   0.760   7.367  0.1053  0.2765 -1.0317
 5194SOL    HW127044   4.165   0.720   7.449  0.7152  1.0303 -0.4420
 5194SOL    HW227045   4.266   0.812   7.404  0.8458 -2.4326  1.3873
 5195SOL     OW27046   4.697   2.658  17.021 -0.2071 -0.1493 -0.7851
 5195SOL    HW127047   4.682   2.566  16.998 -0.9222 -0.0055 -0.8743
 5195SOL    HW227048   0.071   2.652  17.006 -0.0230  2.1780 -0.4301
 5196SOL     OW27049   1.995   2.594   3.674 -0.0926 -0.4572 -0.4264
 5196SOL    HW127050   1.927   2.532   3.649  0.0884 -0.3568 -1.1469
 5196SOL    HW227051   2.077   2.551   3.652 -0.0960 -0.8210  0.2568
 5197SOL     OW27052   3.927   2.683   0.359  0.4279 -0.1208  0.7251
 5197SOL    HW127053   3.905   2.768   0.396  0.5657  1.0872 -1.9141
 5197SOL    HW227054   4.002   2.648   0.408  0.8859  0.1284  0.2094
 5198SOL     OW27055   1.464   4.221  16.700  0.3021  0.1196 -0.1305
 5198SOL    HW127056   1.446   4.131  16.724  0.1468  0.4419  0.9696
 5198SOL    HW227057   1.547   4.209  16.653 -0.5890  0.7617 -1.8647
 5199SOL     OW27058   0.586   1.889   8.359  0.0797  0.0585  0.3067
 5199SOL    HW127059   0.636   1.817   8.398 -3.2002 -1.2964  2.0000
 5199SOL    HW227060   0.649   1.951   8.322  0.0904  0.0262  0.2703
 5200SOL     OW27061   1.657   1.352   8.676 -0.1261  0.4983  0.7216
 5200SOL    HW127062   1.582   1.398   8.716 -0.5084  0.6603 -0.1629
 5200SOL    HW227063   1.705   1.434   8.664  0.7985 -0.6192 -3.4769
 5201SOL     OW27064   0.077   2.384  10.941 -0.2804  0.5372 -0.0375
 5201SOL    HW127065   0.076   2.472  10.904 -0.5596  0.4184 -0.3091
 5201SOL    HW227066   0.154   2.391  10.998  0.1712 -1.0298 -0.4751
 5202SOL     OW27067   0.858   1.998   5.582  0.3357 -0.3903  0.1601
 5202SOL    HW127068   0.856   2.093   5.596  2.6818 -0.1087 -1.4725
 5202SOL    HW227069   0.930   1.975   5.642  2.2429  1.2691 -1.5053
 5203SOL     OW27070   4.178   4.366   2.903  0.2379  0.2687 -0.4230
 5203SOL    HW127071   4.249   4.407   2.854 -0.7951 -0.3476 -2.4070
 5203SOL    HW227072   4.211   4.276   2.905 -1.8846 -0.5540 -2.2759
 5204SOL     OW27073   2.904   2.765   5.382 -0.5216  0.2223  0.8478
 5204SOL    HW127074   2.852   2.703   5.434 -3.2649  2.2063  0.4367
 5204SOL    HW227075   2.963   2.703   5.339  1.3931  0.9558  2.4484
 5205SOL     OW27076   2.131   1.431   3.194 -0.3277  0.3777 -0.2189
 5205SOL    HW127077   2.159   1.350   3.153 -1.2802 -0.0099 -0.0898
 5205SOL    HW227078   2.212   1.483   3.194 -0.9254  1.3178  1.0385
 5206SOL     OW27079   1.109   2.520   3.387  0.0365  0.0003 -0.3042
 5206SOL    HW127080   1.180   2.487   3.442  0.0256 -0.4204 -0.5412
 5206SOL    HW227081   1.096   2.615   3.394 -0.3961 -0.2642  2.1616
 5207SOL     OW27082   1.823   3.832  13.041  1.1403  0.5616 -0.2704
 5207SOL    HW127083   1.859   3.759  13.092 -1.0327  0.2132  0.7713
 5207SOL    HW227084   1.766   3.779  12.986  0.3389  1.5025 -0.3516
 5208SOL     OW27085   2.231   1.133   4.206 -0.2219 -0.3233 -0.1018
 5208SOL    HW127086   2.299   1.177   4.258  1.2544 -1.0486 -1.4062
 5208SOL    HW227087   2.156   1.173   4.250  2.0402  1.9877  1.6499
 5209SOL     OW27088   3.126   2.707  13.580 -0.1287 -0.4020  0.0489
 5209SOL    HW127089   3.076   2.700  13.498  0.7262  0.0675 -0.5117
 5209SOL    HW227090   3.210   2.679  13.545 -0.4111 -0.4376 -0.6071
 5210SOL     OW27091   2.106   0.412   4.645  0.2473 -0.2350  0.2234
 5210SOL    HW127092   2.092   0.486   4.586 -1.4766 -0.4687  0.3548
 5210SOL    HW227093   2.023   0.401   4.692  0.0464  1.4144  0.2623
 5211SOL     OW27094   1.514   2.998   6.373  0.3101 -0.0540  0.3088
 5211SOL    HW127095   1.525   3.003   6.468 -1.1669  1.3672  0.4088
 5211SOL    HW227096   1.599   2.962   6.347  0.7274 -1.0926  3.1153
 5212SOL     OW27097   1.039   0.197   5.201  0.2485  0.0375  0.1262
 5212SOL    HW127098   1.016   0.274   5.149 -1.2459  0.2598  1.1074
 5212SOL    HW227099   1.135   0.200   5.197  0.2640 -1.1651 -0.2659
 5213SOL     OW27100   3.536   2.819  12.134  0.0710  0.1866  0.3918
 5213SOL    HW127101   3.619   2.855  12.167  0.8862  1.4190 -2.9761
 5213SOL    HW227102   3.502   2.768  12.207  1.8978 -0.6884  0.6433
 5214SOL     OW27103   1.373   2.475  15.955 -0.1553  0.2721  0.0481
 5214SOL    HW127104   1.436   2.404  15.941 -0.0044  0.3296  0.4429
 5214SOL    HW227105   1.321   2.471  15.875  0.8675 -1.1488 -0.5474
 5215SOL     OW27106   1.415   4.268  11.363 -0.3747 -0.1760 -0.5790
 5215SOL    HW127107   1.355   4.343  11.368  0.1605  0.1911  0.4959
 5215SOL    HW227108   1.487   4.300  11.309  0.4321 -0.5071  0.2935
 5216SOL     OW27109   3.532   1.859  11.464  0.2992  0.5115  0.1992
 5216SOL    HW127110   3.550   1.921  11.534 -0.2405  0.7195  0.1547
 5216SOL    HW227111   3.481   1.793  11.509  0.5250 -0.9759 -1.7286
 5217SOL     OW27112   4.297   2.757   0.528  0.8466  0.1907 -0.3928
 5217SOL    HW127113   4.305   2.810   0.449  3.1203 -2.7141 -2.1077
 5217SOL    HW227114   4.239   2.685   0.502 -2.4311  1.3926  3.5915
 5218SOL     OW27115   3.426   2.637   2.616 -0.3398 -0.7254  0.3180
 5218SOL    HW127116   3.508   2.594   2.638 -1.8001 -3.9754 -0.6312
 5218SOL    HW227117   3.463   2.711   2.567  0.5291 -1.3095  0.0998
 5219SOL     OW27118   2.872   1.310  17.094  0.4220  0.8070 -0.0044
 5219SOL    HW127119   2.893   1.224  17.057 -0.9839  0.4956 -0.0782
 5219SOL    HW227120   2.854   1.280  17.183  2.7628  0.5790  0.3954
 5220SOL     OW27121   1.646   0.142   3.524 -0.1617 -0.0025  0.4405
 5220SOL    HW127122   1.728   0.126   3.478  0.1619 -0.1167  1.0706
 5220SOL    HW227123   1.606   0.205   3.464  1.9113  1.3033  0.4467
 5221SOL     OW27124   0.142   0.344  15.282 -0.2521  0.6977  0.1596
 5221SOL    HW127125   0.170   0.424  15.328 -2.3244  2.0274 -0.9227
 5221SOL    HW227126   0.199   0.280  15.325 -1.5076  0.0096  0.7765
 5222SOL     OW27127   3.388   0.983   3.663  0.0582 -0.3878  0.2000
 5222SOL    HW127128   3.344   0.904   3.694 -0.1931 -0.1879  0.3572
 5222SOL    HW227129   3.474   0.943   3.671 -1.0187 -2.6845  0.4369
 5223SOL     OW27130   2.377   2.638   7.961 -0.1458  0.0044  0.1453
 5223SOL    HW127131   2.314   2.585   8.009  0.3503 -0.2024  0.5648
 5223SOL    HW227132   2.353   2.729   7.975  0.3459  0.3792 -1.4342
 5224SOL     OW27133   0.939   4.122   3.910  0.4435 -0.1198 -0.1736
 5224SOL    HW127134   0.898   4.204   3.939  0.7757 -0.2245  0.5908
 5224SOL    HW227135   0.931   4.131   3.815 -0.5769 -0.3107 -0.1031
 5225SOL     OW27136   2.653   2.380  17.385  0.3033 -0.4525 -0.3012
 5225SOL    HW127137   2.688   2.357  17.299 -1.3165 -2.6079 -0.3855
 5225SOL    HW227138   2.615   2.467  17.376  0.1229 -0.4728  0.2417
 5226SOL     OW27139   4.075   3.643   2.747  0.4441 -0.0941 -0.2444
 5226SOL    HW127140   4.008   3.591   2.702 -0.6154  1.3364 -0.3007
 5226SOL    HW227141   4.019   3.715   2.774 -0.1097 -0.4776 -0.3778
 5227SOL     OW27142   1.056   4.417   4.631  0.4297  0.3153  0.3591
 5227SOL    HW127143   0.980   4.369   4.664  0.6186 -0.5853 -0.5134
 5227SOL    HW227144   1.017   4.502   4.612  3.3060  1.9222  1.7766
 5228SOL     OW27145   1.430   1.168  12.707 -0.4750 -0.0733  0.0690
 5228SOL    HW127146   1.447   1.186  12.614  2.7137  0.2134  0.7294
 5228SOL    HW227147   1.348   1.216  12.716 -0.5881 -0.2452 -0.0320
 5229SOL     OW27148   2.606   2.056   6.739  0.3187  0.6116 -0.4309
 5229SOL    HW127149   2.671   2.112   6.697 -0.8708  1.5374 -1.0643
 5229SOL    HW227150   2.559   2.020   6.664 -1.1914  0.4023  0.6168
 5230SOL     OW27151   1.006   0.768   2.039 -0.0275 -0.1982  0.4113
 5230SOL    HW127152   0.928   0.813   2.007  0.8894  0.4143 -0.9810
 5230SOL    HW227153   1.055   0.842   2.074  2.7791 -1.9647  0.1926
 5231SOL     OW27154   0.156   4.060  11.623 -0.4049 -0.0916  0.1464
 5231SOL    HW127155   0.111   4.131  11.578  0.6819 -1.5568 -3.1803
 5231SOL    HW227156   0.240   4.076  11.581 -0.1649 -0.9465  0.3141
 5232SOL     OW27157   3.697   0.643  12.445  0.3780  0.4787 -0.1831
 5232SOL    HW127158   3.605   0.656  12.470  0.1254  0.3299 -1.0288
 5232SOL    HW227159   3.731   0.662  12.533  1.1420 -2.2483  0.0926
 5233SOL     OW27160   2.802   2.637   1.516  0.0194  0.3849 -0.5105
 5233SOL    HW127161   2.734   2.661   1.453  0.8819 -0.3227 -1.7111
 5233SOL    HW227162   2.751   2.590   1.582  0.7089  1.3165  0.6852
 5234SOL     OW27163   4.292   3.854   7.915 -0.3273  0.6327  0.9368
 5234SOL    HW127164   4.227   3.915   7.949 -1.6006 -0.3044  0.1839
 5234SOL    HW227165   4.380   3.892   7.925  0.0073  0.1168 -0.0552
 5235SOL     OW27166   3.271   3.666   9.826 -0.0452 -0.5761 -0.0028
 5235SOL    HW127167   3.328   3.684   9.900  0.3783  0.0091 -0.4702
 5235SOL    HW227168   3.331   3.612   9.774  0.7994 -0.1039  0.4821
 5236SOL     OW27169   2.246   2.722   6.580  0.0129  0.2078 -0.4975
 5236SOL    HW127170   2.208   2.787   6.639  1.0208 -0.6524  1.1249
 5236SOL    HW227171   2.256   2.772   6.499  1.4218  1.6931  0.5862
 5237SOL     OW27172   1.102   0.261   1.701  0.5744  0.1981 -0.3459
 5237SOL    HW127173   1.060   0.290   1.782 -1.1868 -0.7566 -0.9212
 5237SOL    HW227174   1.157   0.193   1.738 -0.5794 -0.9161 -0.7030
 5238SOL     OW27175   2.767   4.308   0.346 -0.6804 -0.1535 -0.0202
 5238SOL    HW127176   2.817   4.245   0.397 -1.2616 -0.2232  0.4626
 5238SOL    HW227177   2.690   4.251   0.339 -0.4325 -0.4951  0.0379
 5239SOL     OW27178   2.673   1.374   6.172  0.1020 -0.3217 -0.2399
 5239SOL    HW127179   2.608   1.304   6.171  1.2647 -1.4063  0.9565
 5239SOL    HW227180   2.627   1.440   6.120  0.3936  0.3403  0.3410
 5240SOL     OW27181   4.541   4.098   3.144  0.2068  0.8272  0.4065
 5240SOL    HW127182   4.583   4.121   3.061  1.8955 -0.7631  0.8132
 5240SOL    HW227183   4.504   4.178   3.181 -1.1440  1.1128 -1.5275
 5241SOL     OW27184   4.010   1.832   3.561  0.1194  0.1098  0.3945
 5241SOL    HW127185   3.997   1.789   3.646  0.4754 -0.9569 -0.0951
 5241SOL    HW227186   4.041   1.914   3.601  1.7323  0.2507 -1.1344
 5242SOL     OW27187   1.278   4.694   6.608  0.7774  0.4425  0.2509
 5242SOL    HW127188   1.319   4.608   6.596  0.3444  0.4566 -1.2848
 5242SOL    HW227189   1.189   4.658   6.609  0.5927  0.9057 -0.0120
 5243SOL     OW27190   2.557   0.911   8.441  0.1592 -0.0949 -0.0890
 5243SOL    HW127191   2.508   0.986   8.474  2.7881  1.0684  1.1741
 5243SOL    HW227192   2.597   0.932   8.357  0.8598  0.2013  0.3130
 5244SOL     OW27193   2.817   4.275   3.272  0.4641 -0.3360 -0.4688
 5244SOL    HW127194   2.729   4.248   3.296 -0.8350  1.3327 -3.3654
 5244SOL    HW227195   2.849   4.186   3.256 -1.3716 -0.7654 -1.7312
 5245SOL     OW27196   4.426   1.305  11.419 -0.1523  0.6315  0.9125
 5245SOL    HW127197   4.343   1.281  11.378  0.2072  0.5797  0.2247
 5245SOL    HW227198   4.486   1.240  11.385 -0.1740  0.3409  1.4303
 5246SOL     OW27199   3.906   3.609   5.956  0.6301 -0.1425 -0.0505
 5246SOL    HW127200   3.901   3.576   5.866  2.2529  1.1716 -0.6471
 5246SOL    HW227201   3.822   3.592   5.997 -0.1803  0.0267 -1.6657
 5247SOL     OW27202   1.585   4.544   7.559  0.3266  0.0151  0.2459
 5247SOL    HW127203   1.671   4.544   7.602  1.5204 -0.5577 -2.1613
 5247SOL    HW227204   1.554   4.459   7.589  1.1360 -0.8558 -1.4156
 5248SOL     OW27205   2.041   2.953   2.786 -0.3955 -0.5359  0.0840
 5248SOL    HW127206   2.099   2.947   2.862 -2.3341 -0.5610  1.5696
 5248SOL    HW227207   1.964   2.899   2.805 -0.7041  1.2355  4.0134
 5249SOL     OW27208   4.027   2.709   6.577 -0.0582 -0.0326  0.3486
 5249SOL    HW127209   4.066   2.680   6.659  1.2669  0.9057  0.0420
 5249SOL    HW227210   4.052   2.800   6.567 -1.3712  0.2195 -0.6945
 5250SOL     OW27211   0.095   3.373   5.841  0.0150 -0.0799  0.5389
 5250SOL    HW127212   0.149   3.348   5.766  1.1005  1.2820  0.8721
 5250SOL    HW227213   0.113   3.466   5.850 -1.5264  0.2861 -0.0614
 5251SOL     OW27214   3.383   1.810  16.171 -0.5327  0.1007 -0.0827
 5251SOL    HW127215   3.299   1.784  16.209  0.6854 -1.5016  1.4689
 5251SOL    HW227216   3.364   1.888  16.118 -0.0690 -0.8513 -1.6469
 5252SOL     OW27217   2.564   1.852   0.353 -0.3500  0.6780 -0.5102
 5252SOL    HW127218   2.639   1.799   0.326 -1.3774 -0.8410 -0.3710
 5252SOL    HW227219   2.557   1.811   0.439 -0.0699  1.1481 -0.2617
 5253SOL     OW27220   0.920   2.144   1.864 -0.2515  0.4558 -0.1594
 5253SOL    HW127221   1.000   2.188   1.892 -0.0335  0.1307 -0.2669
 5253SOL    HW227222   0.882   2.206   1.803  1.9844  1.0289 -0.9556
 5254SOL     OW27223   2.589   0.191  15.715 -0.0857 -0.1864 -0.2733
 5254SOL    HW127224   2.545   0.272  15.741  1.6649  0.8728 -0.6298
 5254SOL    HW227225   2.523   0.123  15.727 -0.1080  0.1812  1.6045
 5255SOL     OW27226   1.011   3.933   1.715 -0.0763 -0.7192 -0.0182
 5255SOL    HW127227   0.929   3.951   1.670 -1.1815 -2.0499  1.4661
 5255SOL    HW227228   1.008   3.838   1.700 -0.5503 -0.6808 -0.1575
 5256SOL     OW27229   1.068   4.549   3.985 -0.2511 -0.0900 -0.6451
 5256SOL    HW127230   1.086   4.624   3.928  0.8545  0.1037 -0.0318
 5256SOL    HW227231   1.154   4.515   4.010 -0.5082  2.6446  3.9665
 5257SOL     OW27232   4.104   3.950   3.386  0.2116 -0.0459 -0.2182
 5257SOL    HW127233   4.067   3.964   3.299 -0.8052 -0.4587  0.1551
 5257SOL    HW227234   4.193   3.930   3.358  1.1325  3.6755  0.0949
 5258SOL     OW27235   1.615   0.846   2.454 -0.7806  0.2910 -0.2779
 5258SOL    HW127236   1.570   0.861   2.371  0.3736  0.4227 -0.8862
 5258SOL    HW227237   1.557   0.888   2.517  0.4284 -1.6275  2.1479
 5259SOL     OW27238   4.577   3.994  16.455  0.5089 -0.6703 -0.3600
 5259SOL    HW127239   4.497   4.021  16.500 -0.0442 -1.6614 -0.7513
 5259SOL    HW227240   4.574   4.037  16.370 -1.5463 -2.0127 -0.9549
 5260SOL     OW27241   2.791   3.624   8.542 -0.1798 -0.2152  0.1648
 5260SOL    HW127242   2.774   3.701   8.596 -1.4710 -0.6050  0.2989
 5260SOL    HW227243   2.886   3.633   8.530  0.1235 -0.8792  2.1529
 5261SOL     OW27244   2.927   2.328   5.939  0.1948  0.5306  0.0016
 5261SOL    HW127245   2.968   2.276   6.007 -0.6069 -1.3333 -0.9203
 5261SOL    HW227246   2.973   2.297   5.861  3.2819 -0.7038  2.3569
 5262SOL     OW27247   3.132   4.644   5.744  0.0753  0.3034 -0.0885
 5262SOL    HW127248   3.158   4.679   5.659 -2.7075  1.6614 -0.3964
 5262SOL    HW227249   3.049   4.687   5.768  0.0615 -0.1267  0.6410
 5263SOL     OW27250   0.042   3.270   3.178 -0.2333  0.7803 -0.2617
 5263SOL    HW127251   0.040   3.354   3.223 -1.0606  1.0796 -0.8517
 5263SOL    HW227252   0.128   3.233   3.196 -1.3485 -0.5680  2.3133
 5264SOL     OW27253   3.450   1.923   4.131  0.1726 -0.0220  0.5963
 5264SOL    HW127254   3.363   1.962   4.127  0.3597  0.5748  2.3756
 5264SOL    HW227255   3.442   1.855   4.198  0.0531  0.8082  1.4211
 5265SOL     OW27256   2.564   1.518   9.857 -0.3627 -0.0363 -0.0763
 5265SOL    HW127257   2.528   1.597   9.816  1.4899  0.2817 -1.0952
 5265SOL    HW227258   2.593   1.551   9.942 -0.2609 -0.3898  0.0243
 5266SOL     OW27259   4.001   3.470   6.508  0.4349  0.2117 -0.6820
 5266SOL    HW127260   4.096   3.464   6.495  0.2565  0.8972 -2.2846
 5266SOL    HW227261   4.000   3.473   6.604 -0.8254  0.8407 -0.7079
 5267SOL     OW27262   3.911   3.014   2.862  0.0673  0.0022  0.5191
 5267SOL    HW127263   3.967   3.086   2.891  0.8278 -1.3672  2.5167
 5267SOL    HW227264   3.966   2.938   2.883  1.5234  0.4945 -1.4312
 5268SOL     OW27265   4.008   2.209   2.369 -0.0557 -0.4598 -0.0175
 5268SOL    HW127266   4.005   2.242   2.459 -0.2052  0.9282 -0.5403
 5268SOL    HW227267   4.013   2.286   2.313  1.5358 -0.5332  0.0105
 5269SOL     OW27268   2.141   1.283  11.338  0.0840 -0.9107  0.4009
 5269SOL    HW127269   2.236   1.297  11.340 -0.3663  2.1199  0.0590
 5269SOL    HW227270   2.111   1.332  11.414  1.4554  1.3548 -0.5304
 5270SOL     OW27271   2.556   1.554   4.534 -0.1137  0.2940  0.1170
 5270SOL    HW127272   2.626   1.553   4.469 -1.3109  1.3928 -1.1847
 5270SOL    HW227273   2.595   1.491   4.595 -1.8264  0.0809  0.9955
 5271SOL     OW27274   2.586   0.812  11.682  0.7367 -0.5584  0.1626
 5271SOL    HW127275   2.643   0.800  11.759  0.0847 -0.5514  0.6439
 5271SOL    HW227276   2.653   0.832  11.616  0.6511 -0.6200  0.0571
 5272SOL     OW27277   3.012   2.382  17.000 -0.0346  0.3791  0.6810
 5272SOL    HW127278   3.040   2.311  16.941 -1.4706 -1.3328  2.0709
 5272SOL    HW227279   3.041   2.457  16.947  0.9427 -0.1429  0.4673
 5273SOL     OW27280   4.225   0.119  14.383  0.2402 -0.4638  0.1049
 5273SOL    HW127281   4.308   0.112  14.336  0.5843  0.9554  0.4935
 5273SOL    HW227282   4.240   0.170  14.462 -0.8280 -0.3180  0.2100
 5274SOL     OW27283   2.543   4.342  10.844  0.0086 -0.4272 -1.0686
 5274SOL    HW127284   2.500   4.300  10.769  1.8177 -2.3445 -1.0433
 5274SOL    HW227285   2.485   4.319  10.916  0.0217  0.1909 -0.8666
 5275SOL     OW27286   3.614   1.130  14.003  0.2284  0.9111  0.3729
 5275SOL    HW127287   3.590   1.141  14.095 -2.8072 -0.6484 -0.2425
 5275SOL    HW227288   3.556   1.201  13.977 -1.3970  0.2409  2.1447
 5276SOL     OW27289   2.456   4.380   5.422  0.0742  0.4293  0.0664
 5276SOL    HW127290   2.373   4.353   5.383 -0.3171  0.2684  1.0033
 5276SOL    HW227291   2.432   4.459   5.471 -2.7027  0.0276 -0.6678
 5277SOL     OW27292   2.749   2.072   2.866 -1.1115  0.7416 -0.4964
 5277SOL    HW127293   2.814   2.141   2.882  1.0912 -2.1203  3.1612
 5277SOL    HW227294   2.705   2.104   2.788 -1.1646  0.9819 -0.3696
 5278SOL     OW27295   1.003   3.733   6.155 -0.3851  0.3241  0.4883
 5278SOL    HW127296   0.925   3.696   6.113  1.3862 -0.0873 -2.4476
 5278SOL    HW227297   0.989   3.827   6.141 -1.0957 -0.2675 -2.8717
 5279SOL     OW27298   4.282   1.833   1.505  0.0697  0.4385  0.2449
 5279SOL    HW127299   4.340   1.789   1.567  0.2792  0.3148 -0.0353
 5279SOL    HW227300   4.233   1.759   1.470 -0.3746  0.6058  0.5144
 5280SOL     OW27301   4.616   4.640   8.842  0.1516 -0.3052  0.2516
 5280SOL    HW127302   4.589   4.569   8.901 -1.5853 -0.3946 -0.6458
 5280SOL    HW227303   4.543   4.626   8.782  0.0629  0.9932  0.0532
 5281SOL     OW27304   4.051   4.673  15.652 -0.4184  0.2352  0.4574
 5281SOL    HW127305   4.060   4.698  15.559 -2.1023 -0.4885  0.0993
 5281SOL    HW227306   3.970   4.624  15.642  0.2613 -0.5033 -1.5057
 5282SOL     OW27307   1.961   1.612  12.296  0.2610 -0.1249  0.0738
 5282SOL    HW127308   1.881   1.623  12.245  1.2796  1.4376 -1.1921
 5282SOL    HW227309   1.998   1.700  12.296 -1.5820  0.6320  1.1320
 5283SOL     OW27310   4.447   0.222  14.539 -0.0746  0.8178 -0.0629
 5283SOL    HW127311   4.453   0.190  14.449 -1.2534 -1.4794  0.6795
 5283SOL    HW227312   4.480   0.312  14.532  0.6570  0.5592  0.0068
 5284SOL     OW27313   4.579   0.718   8.675  0.5030 -0.1811  0.0796
 5284SOL    HW127314   4.500   0.770   8.661  0.1717 -0.3070  1.4282
 5284SOL    HW227315   4.607   0.690   8.588 -0.9937  0.9381 -0.7548
 5285SOL     OW27316   2.840   0.945   7.968 -0.2414  0.0840 -0.3633
 5285SOL    HW127317   2.917   0.987   7.929 -0.1386  0.3662  0.1553
 5285SOL    HW227318   2.793   0.900   7.898 -1.1098 -0.2148  0.4093
 5286SOL     OW27319   3.618   3.088  14.625  0.0471 -0.6819 -0.1840
 5286SOL    HW127320   3.539   3.141  14.615 -0.8442 -2.0520 -0.4849
 5286SOL    HW227321   3.590   2.996  14.624 -0.1534 -0.5808 -4.0826
 5287SOL     OW27322   3.967   1.380   7.991  0.0523  0.1887  0.0581
 5287SOL    HW127323   4.041   1.321   7.982 -0.7670 -0.8129 -0.0523
 5287SOL    HW227324   3.962   1.385   8.087 -0.4873  0.3575  0.0223
 5288SOL     OW27325   2.734   4.660  14.944 -0.7564  0.4240  0.4762
 5288SOL    HW127326   2.826   4.645  14.966 -0.4673  1.0999 -0.2668
 5288SOL    HW227327   2.689   4.585  14.982 -0.2647  0.3819  0.9761
 5289SOL     OW27328   0.105   0.506   3.800 -0.7868 -0.4658  0.0951
 5289SOL    HW127329   0.036   0.487   3.737 -0.6684 -2.5535  0.6215
 5289SOL    HW227330   0.128   0.418   3.829  0.8397  0.2561  0.9853
 5290SOL     OW27331   4.334   1.481   7.472 -1.0048 -0.3476  0.4241
 5290SOL    HW127332   4.302   1.522   7.553 -0.3779  0.8197  0.0712
 5290SOL    HW227333   4.415   1.447   7.510 -0.5125  1.0362  0.6230
 5291SOL     OW27334   2.414   3.129   7.356  0.3026 -0.3794  0.8029
 5291SOL    HW127335   2.361   3.145   7.278 -0.8357 -2.1953  1.2117
 5291SOL    HW227336   2.455   3.044   7.342 -0.3452 -0.6160  0.3373
 5292SOL     OW27337   1.914   0.895  12.034 -0.1710 -0.1461  0.4584
 5292SOL    HW127338   1.949   0.982  12.015 -0.0642  0.1529  2.0022
 5292SOL    HW227339   1.882   0.870  11.948  1.1517  0.7191 -0.2919
 5293SOL     OW27340   1.189   3.787   4.543  0.1149  0.2401 -0.3334
 5293SOL    HW127341   1.241   3.745   4.474  0.4836  0.0897  0.0402
 5293SOL    HW227342   1.256   3.828   4.598 -1.0554 -0.0640  1.3147
 5294SOL     OW27343   1.585   2.804   3.104  0.1919 -0.3675  0.3691
 5294SOL    HW127344   1.555   2.815   3.014 -1.4311  2.2101  1.2133
 5294SOL    HW227345   1.561   2.886   3.148  0.5102 -0.6953  1.1528
 5295SOL     OW27346   2.270   1.006   4.987  0.2839 -0.5695  0.4580
 5295SOL    HW127347   2.345   1.051   5.026 -0.5419 -0.3257  1.7665
 5295SOL    HW227348   2.315   0.930   4.951  0.3861 -0.3907  0.2067
 5296SOL     OW27349   3.003   0.744   0.269  0.4452 -0.2268 -0.1087
 5296SOL    HW127350   2.941   0.672   0.285  0.4267 -0.1544  0.1525
 5296SOL    HW227351   3.026   0.771   0.358 -1.6393 -0.3613  0.4759
 5297SOL     OW27352   2.302   4.076   2.736  0.2329 -0.0540 -0.1054
 5297SOL    HW127353   2.330   3.995   2.779 -0.8679  0.4206  1.5252
 5297SOL    HW227354   2.283   4.130   2.813  0.1870  0.1169 -0.2359
 5298SOL     OW27355   4.274   1.886   9.076 -0.0221  0.3672  0.6023
 5298SOL    HW127356   4.309   1.870   9.164  0.7538 -0.7646  0.0713
 5298SOL    HW227357   4.258   1.795   9.052 -1.3457  1.0452 -1.1325
 5299SOL     OW27358   3.914   2.790   6.949  0.3899  0.8749 -0.9214
 5299SOL    HW127359   3.971   2.728   6.904  1.6556  0.0095  1.8793
 5299SOL    HW227360   3.927   2.757   7.037 -2.2483  0.4051 -0.6982
 5300SOL     OW27361   1.192   4.465   2.767  0.1239  0.1650 -0.0181
 5300SOL    HW127362   1.249   4.394   2.739  0.9550  0.4319  0.9890
 5300SOL    HW227363   1.105   4.442   2.735  0.2324 -0.3877  0.0952
 5301SOL     OW27364   0.600   4.193   0.388  0.4830  0.3035  0.1811
 5301SOL    HW127365   0.557   4.213   0.471 -0.2554 -2.5951  0.4916
 5301SOL    HW227366   0.579   4.267   0.330  1.3637  0.3783 -0.0440
 5302SOL     OW27367   3.700   1.789   9.060 -0.2126  0.7606  0.3852
 5302SOL    HW127368   3.735   1.718   9.006 -0.4079  1.7363 -1.0104
 5302SOL    HW227369   3.655   1.731   9.122 -0.4572  2.9658  2.2924
 5303SOL     OW27370   0.957   4.532  16.294 -0.2480 -0.2892 -0.6595
 5303SOL    HW127371   0.972   4.569  16.380  1.2755 -2.2957 -0.0456
 5303SOL    HW227372   0.902   4.601  16.256  0.5345 -0.4733 -2.1564
 5304SOL     OW27373   4.215   3.700   8.161 -0.4493  0.0076 -0.1499
 5304SOL    HW127374   4.282   3.746   8.111 -0.0375 -0.3704  0.0598
 5304SOL    HW227375   4.218   3.614   8.120  1.8038  0.4778 -0.9583
 5305SOL     OW27376   4.567   4.047   1.007 -0.2774  0.1858 -0.0467
 5305SOL    HW127377   4.510   4.059   1.083  0.0247  2.0972 -0.1276
 5305SOL    HW227378   4.601   4.136   1.005 -1.2664  0.5583 -0.1670
 5306SOL     OW27379   4.479   0.882   8.922  0.6769 -0.6818  0.2741
 5306SOL    HW127380   4.524   0.802   8.895  3.0236  1.1698 -1.3121
 5306SOL    HW227381   4.387   0.856   8.913  0.2730  0.2920  1.6499
 5307SOL     OW27382   1.782   0.921  14.120 -0.1814  0.3276 -0.0311
 5307SOL    HW127383   1.719   0.987  14.091 -1.7102 -0.8169  0.6989
 5307SOL    HW227384   1.741   0.903  14.205 -1.0002  1.4919 -0.1761
 5308SOL     OW27385   3.035   0.231  11.477  0.2411  0.3549 -0.5026
 5308SOL    HW127386   3.059   0.148  11.517 -1.5189 -0.1862 -0.5626
 5308SOL    HW227387   3.110   0.288  11.496  0.2391  0.2893 -0.3035
 5309SOL     OW27388   2.011   1.628  17.298 -0.1182  0.6504 -0.5681
 5309SOL    HW127389   2.001   1.711  17.344  1.2136 -0.5348  1.8529
 5309SOL    HW227390   1.921   1.613  17.266  0.3474 -3.5194  0.1197
 5310SOL     OW27391   4.336   3.859   3.195  0.4224  0.5392  0.2305
 5310SOL    HW127392   4.386   3.939   3.179  0.9956 -0.2066 -1.6922
 5310SOL    HW227393   4.367   3.821   3.112 -1.7008 -0.3570 -0.1572
 5311SOL     OW27394   1.637   1.648  12.301 -0.2373 -0.3200 -0.4070
 5311SOL    HW127395   1.554   1.607  12.278  0.4011 -0.4126 -2.5151
 5311SOL    HW227396   1.693   1.573  12.283 -1.7379 -1.5637  0.0319
 5312SOL     OW27397   2.109   1.090   4.479 -1.0623  0.1508  0.0144
 5312SOL    HW127398   2.050   1.034   4.428  0.2790 -0.2743 -1.0629
 5312SOL    HW227399   2.166   1.015   4.498 -3.2450 -1.3377  0.7469
 5313SOL     OW27400   0.397   2.835   9.107  0.3801 -0.4614 -0.4937
 5313SOL    HW127401   0.338   2.900   9.070  2.2268  1.5341  0.0873
 5313SOL    HW227402   0.461   2.890   9.151 -0.9442 -0.1252  0.9752
 5314SOL     OW27403   2.320   4.267   8.509 -0.7010  0.4510  0.1821
 5314SOL    HW127404   2.321   4.260   8.604  0.4023  0.3074  0.1621
 5314SOL    HW227405   2.413   4.248   8.493 -0.9068  0.6053 -1.2692
 5315SOL     OW27406   3.838   4.423   5.354  0.8447 -0.1522  0.4403
 5315SOL    HW127407   3.793   4.507   5.344  2.2445  0.4890 -0.5022
 5315SOL    HW227408   3.767   4.359   5.359  1.0384 -0.4468 -0.6095
 5316SOL     OW27409   2.027   2.940   7.027 -0.0753 -0.2548 -0.4472
 5316SOL    HW127410   2.020   2.844   7.033 -0.2178 -0.0928  1.9329
 5316SOL    HW227411   1.962   2.966   7.092  0.9820 -0.9224  0.8770
 5317SOL     OW27412   4.248   0.702   3.512 -0.2611 -0.2866 -0.4712
 5317SOL    HW127413   4.174   0.675   3.567  1.2025 -0.8099  1.2347
 5317SOL    HW227414   4.217   0.789   3.488  0.4939  0.7310  2.1867
 5318SOL     OW27415   1.354   1.374   4.895  0.1429 -0.2500 -0.5187
 5318SOL    HW127416   1.445   1.367   4.865  1.0232 -4.6172  3.0995
 5318SOL    HW227417   1.357   1.468   4.915  0.9764 -0.3636 -0.1378
 5319SOL     OW27418   4.439   1.019   9.227 -0.3660  0.3409  0.0368
 5319SOL    HW127419   4.502   1.060   9.167 -1.1658  1.4434 -0.0425
 5319SOL    HW227420   4.393   1.097   9.257 -0.1211  1.0435 -1.4214
 5320SOL     OW27421   1.979   1.237   2.501  0.5125 -0.3812  0.5505
 5320SOL    HW127422   1.885   1.220   2.491  0.3618  0.7945  0.0675
 5320SOL    HW227423   2.007   1.145   2.506 -1.8098 -1.1673 -0.8086
 5321SOL     OW27424   4.224   1.333   6.151  0.0199  0.2650 -0.1683
 5321SOL    HW127425   4.254   1.387   6.224 -1.2180  0.2975  0.3089
 5321SOL    HW227426   4.197   1.400   6.088 -0.9969  0.9423  0.9788
 5322SOL     OW27427   4.400   0.154  12.650 -0.2287 -0.0740  0.0082
 5322SOL    HW127428   4.454   0.079  12.676  1.8551  1.7427  0.9310
 5322SOL    HW227429   4.363   0.186  12.733 -0.6630  3.1379 -1.4212
 5323SOL     OW27430   2.826   1.392   7.193  0.0192  0.4060 -0.7000
 5323SOL    HW127431   2.892   1.461   7.184  1.6363 -1.0398  0.0989
 5323SOL    HW227432   2.745   1.442   7.186 -0.0978 -0.0716 -2.7600
 5324SOL     OW27433   2.510   0.909   0.445 -0.0912 -0.3926  0.1412
 5324SOL    HW127434   2.473   0.872   0.525  0.8060  1.4390  1.3909
 5324SOL    HW227435   2.600   0.878   0.437 -0.4224 -1.5924  0.9475
 5325SOL     OW27436   2.364   3.045   8.089  0.4652  0.0113  0.0598
 5325SOL    HW127437   2.306   2.969   8.088 -2.1998  1.9973  0.4250
 5325SOL    HW227438   2.321   3.083   8.166 -1.7639 -0.2016 -1.0681
 5326SOL     OW27439   2.361   2.025   8.102 -0.4362  0.1817  0.1399
 5326SOL    HW127440   2.285   2.027   8.160 -0.7021  1.3599 -0.2461
 5326SOL    HW227441   2.437   2.010   8.158  1.5363  1.5164 -2.2079
 5327SOL     OW27442   2.550   4.671   5.746 -0.0980 -0.1532 -0.6392
 5327SOL    HW127443   2.519   4.700   5.832  1.1966 -3.5888  0.9894
 5327SOL    HW227444   2.645   4.682   5.755 -0.1847 -1.0978  1.3235
 5328SOL     OW27445   1.379   3.466  10.919  0.2957  0.1088 -0.2147
 5328SOL    HW127446   1.332   3.513  10.850 -2.0599  0.5801  1.6953
 5328SOL    HW227447   1.445   3.532  10.942  0.1231  0.7798 -1.6640
 5329SOL     OW27448   1.529   3.568   4.974  0.2796 -0.0042  0.0248
 5329SOL    HW127449   1.508   3.483   5.012 -0.8059  0.2781  0.0450
 5329SOL    HW227450   1.535   3.616   5.057 -0.7107  0.7048 -0.3222
 5330SOL     OW27451   4.369   3.630   3.590  0.6377 -0.6928  0.1298
 5330SOL    HW127452   4.408   3.548   3.561 -0.5612 -0.9792 -0.6520
 5330SOL    HW227453   4.373   3.625   3.686 -0.2933 -1.2018  0.1339
 5331SOL     OW27454   3.339   2.719   3.079 -0.3303 -0.3470 -0.2342
 5331SOL    HW127455   3.359   2.774   3.155 -2.1100  1.9311 -1.4154
 5331SOL    HW227456   3.384   2.640   3.110  0.8292  0.1321 -0.6834
 5332SOL     OW27457   1.691   1.073  14.725 -0.4199  0.0508  0.8242
 5332SOL    HW127458   1.691   0.992  14.776 -0.0349 -0.2410  0.3683
 5332SOL    HW227459   1.740   1.122  14.790  0.4330 -1.3380  1.2351
 5333SOL     OW27460   4.212   1.423   3.807  0.4285  0.5965 -0.5331
 5333SOL    HW127461   4.152   1.489   3.770  1.6948  2.4949  0.7825
 5333SOL    HW227462   4.231   1.362   3.737 -1.2137 -0.6732  0.1374
 5334SOL     OW27463   1.011   3.538   6.368 -0.0718  0.3143  0.5270
 5334SOL    HW127464   1.022   3.593   6.291  0.0228 -1.6584 -0.8834
 5334SOL    HW227465   1.101   3.506   6.376  0.6823  2.5966  1.0201
 5335SOL     OW27466   2.162   1.488   6.419  0.4547  0.3141  0.3305
 5335SOL    HW127467   2.085   1.457   6.467  1.2899 -1.5169  0.4823
 5335SOL    HW227468   2.221   1.511   6.490  0.0039 -1.8604  1.4091
 5336SOL     OW27469   4.191   2.273   2.856  0.2920 -0.2976  0.3971
 5336SOL    HW127470   4.180   2.304   2.946 -1.2137 -1.6608  0.6854
 5336SOL    HW227471   4.186   2.178   2.868  1.0582 -0.2217  1.2840
 5337SOL     OW27472   1.547   3.676   2.276  0.4981 -0.5505  0.3078
 5337SOL    HW127473   1.596   3.604   2.316 -0.4479 -0.2175  2.0908
 5337SOL    HW227474   1.515   3.632   2.197 -1.7545  0.7831  0.4870
 5338SOL     OW27475   3.686   2.825   8.121  0.4535  0.1982  0.3491
 5338SOL    HW127476   3.758   2.816   8.183  0.4494  0.0180  0.3289
 5338SOL    HW227477   3.704   2.745   8.071  2.2034  1.0540 -0.3935
 5339SOL     OW27478   3.114   2.858   1.234 -0.1303  0.6157  0.2764
 5339SOL    HW127479   3.124   2.834   1.326 -2.0848 -1.0870  0.0306
 5339SOL    HW227480   3.046   2.926   1.243 -0.9803 -0.3958  1.4216
 5340SOL     OW27481   0.105   3.925  13.573 -0.0849  0.2764  0.1449
 5340SOL    HW127482   0.184   3.905  13.624 -1.8436 -3.5444  1.3164
 5340SOL    HW227483   0.084   3.838  13.540  0.8207  0.0007  0.2808
 5341SOL     OW27484   0.243   2.767  12.211  0.1818  0.1229  0.0410
 5341SOL    HW127485   0.152   2.781  12.184 -0.1904  1.2601  1.8333
 5341SOL    HW227486   0.239   2.691  12.268 -2.1942 -0.8641 -1.4572
 5342SOL     OW27487   2.053   0.559   5.313  0.2319  0.4957  0.2338
 5342SOL    HW127488   2.115   0.598   5.375  1.6288 -0.9047 -0.2883
 5342SOL    HW227489   2.065   0.619   5.239  0.8825 -0.7840 -0.6953
 5343SOL     OW27490   1.701   4.654   3.009 -0.2519  0.8101  0.0548
 5343SOL    HW127491   1.742   4.569   3.022 -0.8153  0.5157 -0.0795
 5343SOL    HW227492   1.651   4.629   2.932  1.6896  1.5639 -1.4551
 5344SOL     OW27493   2.919   1.522   6.703  0.1041  0.7780 -0.1824
 5344SOL    HW127494   2.885   1.453   6.646  0.0476 -0.5208  1.4174
 5344SOL    HW227495   2.931   1.479   6.787  1.4807  2.0026  0.2321
 5345SOL     OW27496   2.814   1.501   9.653 -0.1300 -0.2235  0.6484
 5345SOL    HW127497   2.746   1.560   9.686 -1.4364 -0.7581 -1.0812
 5345SOL    HW227498   2.826   1.443   9.729 -1.3476  0.8338  1.6533
 5346SOL     OW27499   0.598   4.699   7.606 -0.1218 -0.1282  0.2506
 5346SOL    HW127500   0.579   4.678   7.515  0.9122 -0.2314  0.0527
 5346SOL    HW227501   0.570   0.069   7.611  2.2585  0.7185 -1.7667
 5347SOL     OW27502   3.215   2.352   9.581 -0.4412  0.1099 -0.3685
 5347SOL    HW127503   3.294   2.304   9.602 -2.2562 -2.3608  0.7937
 5347SOL    HW227504   3.247   2.440   9.561 -0.6509 -0.1387 -1.8192
 5348SOL     OW27505   2.487   1.149  13.020  0.4421  0.5079 -0.3207
 5348SOL    HW127506   2.537   1.178  12.944  0.6889  0.1309 -0.3003
 5348SOL    HW227507   2.468   1.056  13.010 -0.1777  0.8714 -2.4595
 5349SOL     OW27508   4.292   1.044   3.382  0.2672  0.1280 -0.1815
 5349SOL    HW127509   4.320   1.073   3.295 -0.6329  2.9154  0.4383
 5349SOL    HW227510   4.203   1.012   3.369  0.2769  0.3516 -0.7759
 5350SOL     OW27511   1.428   1.036  10.276  0.6117  0.1705  0.3263
 5350SOL    HW127512   1.425   1.029  10.180  2.0411 -0.3699  0.3193
 5350SOL    HW227513   1.437   0.950  10.316 -0.1201 -0.1320 -0.1685
 5351SOL     OW27514   2.940   3.220  14.028  0.0989  0.9541 -0.1628
 5351SOL    HW127515   2.861   3.233  13.975 -0.1771  1.3118  0.3418
 5351SOL    HW227516   2.901   3.166  14.097 -1.3300  2.0775 -0.0949
 5352SOL     OW27517   1.086   4.472  10.693  0.3694 -0.2749 -0.1751
 5352SOL    HW127518   1.135   4.456  10.613 -0.1017 -0.3886 -0.4404
 5352SOL    HW227519   1.107   4.562  10.717  1.1890 -0.6542  0.5562
 5353SOL     OW27520   2.480   4.279   1.396  0.3885 -0.0068 -0.2728
 5353SOL    HW127521   2.526   4.300   1.314  1.8454 -0.6506  0.3921
 5353SOL    HW227522   2.424   4.356   1.388 -1.3063 -0.9895  2.1901
 5354SOL     OW27523   1.360   4.393   5.133  0.4744 -1.0358  0.3759
 5354SOL    HW127524   1.371   4.484   5.159 -1.4941 -0.5985 -0.3187
 5354SOL    HW227525   1.286   4.390   5.072  0.8131 -0.4400 -0.0580
 5355SOL     OW27526   2.003   1.181   1.849 -0.3599 -0.1186 -0.1185
 5355SOL    HW127527   2.081   1.187   1.794 -1.2470 -0.4586 -1.4238
 5355SOL    HW227528   1.952   1.108   1.813  0.2754 -0.9956  0.7571
 5356SOL     OW27529   4.178   3.663  14.677  0.4146  0.7128  0.6285
 5356SOL    HW127530   4.210   3.715  14.750  2.7905 -1.5988  1.2508
 5356SOL    HW227531   4.096   3.707  14.659  0.8225  1.8508  1.5758
 5357SOL     OW27532   2.780   1.283   2.073  0.1432  0.5000  0.0029
 5357SOL    HW127533   2.870   1.311   2.088  0.9197 -2.2659  0.5032
 5357SOL    HW227534   2.793   1.244   1.986 -0.9569 -2.0034  0.9589
 5358SOL     OW27535   3.182   1.773   5.022 -0.5098  0.1936  0.4553
 5358SOL    HW127536   3.146   1.836   4.960 -1.9840  1.5120  2.6170
 5358SOL    HW227537   3.251   1.736   4.968  0.5825  2.1724  0.4858
 5359SOL     OW27538   2.245   0.443  12.997 -0.0812  0.1387  0.1576
 5359SOL    HW127539   2.313   0.468  12.934 -0.5534  0.1255 -0.3489
 5359SOL    HW227540   2.165   0.435  12.946  0.7121  0.3111 -1.1024
 5360SOL     OW27541   2.242   4.525  11.300  0.1003  0.0413 -0.1807
 5360SOL    HW127542   2.299   4.533  11.377 -1.8261 -0.8247  1.3290
 5360SOL    HW227543   2.307   4.489  11.239  1.7270  1.4914  0.7182
 5361SOL     OW27544   2.318   1.013   1.629 -0.3264  0.2814 -0.3508
 5361SOL    HW127545   2.299   0.946   1.695 -0.1860 -1.5189 -2.1588
 5361SOL    HW227546   2.293   0.961   1.553  2.4706 -0.8348 -0.4943
 5362SOL     OW27547   1.920   3.005   8.857 -0.2688 -0.2950 -0.3641
 5362SOL    HW127548   1.978   3.081   8.850  0.0649 -0.4046  1.0908
 5362SOL    HW227549   1.986   2.936   8.843  0.7885  0.0201  2.9906
 5363SOL     OW27550   2.067   4.026  13.160 -0.1732  0.1262  0.0996
 5363SOL    HW127551   2.057   4.051  13.252 -0.0510  0.4998  0.0119
 5363SOL    HW227552   2.155   4.055  13.134 -0.5488  1.2640  0.0820
 5364SOL     OW27553   3.963   2.673   4.352 -0.3988 -0.0471 -0.3216
 5364SOL    HW127554   3.988   2.581   4.348  0.4114  0.1248  0.6826
 5364SOL    HW227555   3.921   2.691   4.268 -1.3532 -2.0382 -0.2643
 5365SOL     OW27556   4.103   1.161  13.967  0.2948 -0.3305 -0.4916
 5365SOL    HW127557   4.016   1.153  14.006  0.3880  1.2641  0.0684
 5365SOL    HW227558   4.090   1.253  13.943 -1.6256 -1.0772 -2.2765
 5366SOL     OW27559   0.109   2.355   7.644 -0.7334  0.2292 -0.5933
 5366SOL    HW127560   0.174   2.382   7.709  0.3771 -2.1252 -0.7296
 5366SOL    HW227561   0.041   2.417   7.669  0.5052  0.2493  2.8806
 5367SOL     OW27562   0.364   0.583  10.825 -0.0001  0.1417  0.3533
 5367SOL    HW127563   0.433   0.524  10.857  0.2968  0.5907  0.5424
 5367SOL    HW227564   0.284   0.547  10.861 -1.2686  3.6108  0.9996
 5368SOL     OW27565   1.066   1.401  10.855  0.0975 -0.3856  0.2361
 5368SOL    HW127566   1.108   1.386  10.939  1.9774  1.3737 -0.3850
 5368SOL    HW227567   1.050   1.312  10.825  1.5461 -0.9277  1.1072
 5369SOL     OW27568   3.022   0.733   8.092 -0.1655  0.1203 -0.6492
 5369SOL    HW127569   3.003   0.657   8.037 -2.0463  1.4464 -1.8337
 5369SOL    HW227570   2.958   0.800   8.067 -2.3141 -1.4510  0.6683
 5370SOL     OW27571   1.367   1.712  13.254  0.1813 -0.8891  0.0919
 5370SOL    HW127572   1.356   1.621  13.227  1.2502 -1.3040  1.0785
 5370SOL    HW227573   1.460   1.723  13.274 -0.4095 -2.2513  3.5006
 5371SOL     OW27574   2.668   2.322   6.863 -0.0830 -0.1431 -0.2974
 5371SOL    HW127575   2.652   2.239   6.908 -1.7333  1.1656  1.5086
 5371SOL    HW227576   2.745   2.355   6.909 -0.5631 -1.0289  1.1327
 5372SOL     OW27577   1.370   1.217   5.793  0.4592 -0.4625  0.2903
 5372SOL    HW127578   1.410   1.206   5.707  1.7029  1.8317  0.5769
 5372SOL    HW227579   1.284   1.259   5.782  1.3399  1.0445 -0.7641
 5373SOL     OW27580   2.728   2.369   3.399 -0.1952  0.5252  0.1451
 5373SOL    HW127581   2.712   2.293   3.344 -0.2121  0.6306  0.0035
 5373SOL    HW227582   2.805   2.342   3.449 -0.7867  1.0898  1.3658
 5374SOL     OW27583   4.528   3.178  14.352 -0.8835  0.5740  0.5649
 5374SOL    HW127584   4.561   3.265  14.332 -1.8796  0.4042 -1.8112
 5374SOL    HW227585   4.449   3.163  14.300 -1.9327  2.5522  1.5835
 5375SOL     OW27586   4.669   1.129  16.831  0.2455  0.8207  0.2895
 5375SOL    HW127587   4.583   1.121  16.871  0.2572  0.1357  0.1761
 5375SOL    HW227588   4.672   1.065  16.759  0.6740 -0.9884  1.8971
 5376SOL     OW27589   3.901   2.028   5.105  0.3734 -0.5271  0.0247
 5376SOL    HW127590   3.892   1.943   5.146  0.9958 -0.1861  0.8779
 5376SOL    HW227591   3.901   2.082   5.184 -0.8607  1.2072 -1.1477
 5377SOL     OW27592   1.746   2.745   9.321  0.2201 -0.5572 -0.6378
 5377SOL    HW127593   1.763   2.815   9.384  0.6646 -0.9323 -0.3363
 5377SOL    HW227594   1.759   2.792   9.239 -3.3483  0.4096 -0.6323
 5378SOL     OW27595   2.765   4.514   1.606 -0.1813 -0.1321 -0.3885
 5378SOL    HW127596   2.859   4.502   1.593 -0.1980  0.0951 -0.7533
 5378SOL    HW227597   2.753   4.605   1.579 -0.6092 -0.3001 -0.7710
 5379SOL     OW27598   3.193   4.160   7.007  0.6287 -0.3784  0.5881
 5379SOL    HW127599   3.112   4.201   6.976  0.7460 -2.0156 -1.8996
 5379SOL    HW227600   3.256   4.226   6.978  0.1490  0.5116  1.6058
 5380SOL     OW27601   2.920   0.990   6.788 -0.0520 -0.1919 -0.1429
 5380SOL    HW127602   2.898   0.900   6.765 -2.4370  0.6583 -1.1930
 5380SOL    HW227603   2.973   0.973   6.866 -0.3654 -3.0847 -0.5770
 5381SOL     OW27604   1.011   0.948  16.864  0.0994 -0.0134  0.6436
 5381SOL    HW127605   1.029   1.032  16.821 -1.1371  2.2525  4.4965
 5381SOL    HW227606   1.010   0.981  16.954 -3.4545  0.2036  0.5032
 5382SOL     OW27607   2.146   2.871   8.781 -0.0480 -0.3775  0.1310
 5382SOL    HW127608   2.202   2.863   8.858  2.1842 -0.2130 -1.4800
 5382SOL    HW227609   2.198   2.927   8.724 -0.0908 -1.7947 -1.3183
 5383SOL     OW27610   3.250   3.921   5.327 -0.3868  0.5865 -0.8435
 5383SOL    HW127611   3.244   3.912   5.232  0.7747  0.2218 -0.8916
 5383SOL    HW227612   3.342   3.901   5.345 -0.2493  0.2980 -1.8164
 5384SOL     OW27613   1.229   3.390   2.512 -0.0356 -0.4270 -0.2577
 5384SOL    HW127614   1.242   3.374   2.606 -0.6527 -2.3968 -0.5081
 5384SOL    HW227615   1.267   3.313   2.469  1.9763  0.1840  0.4116
 5385SOL     OW27616   0.583   3.089  10.904 -0.3088 -0.3622 -0.1915
 5385SOL    HW127617   0.504   3.111  10.953  0.1819  0.0872  0.3860
 5385SOL    HW227618   0.652   3.132  10.953  0.3504 -1.6205 -0.0094
 5386SOL     OW27619   0.104   2.228  12.689  0.0063  0.0979 -0.3107
 5386SOL    HW127620   0.140   2.140  12.677 -0.7221 -0.2015 -0.3674
 5386SOL    HW227621   0.146   2.259  12.769  1.4612 -1.3861 -0.4997
 5387SOL     OW27622   0.001   2.024   1.123  0.3978 -0.3491 -0.1423
 5387SOL    HW127623   0.036   2.047   1.036 -1.4172 -2.1347 -1.3408
 5387SOL    HW227624   4.698   1.934   1.100  0.9837 -0.6715  0.5088
 5388SOL     OW27625   1.575   1.700  11.057  0.5564  0.0158 -0.3643
 5388SOL    HW127626   1.571   1.634  11.127  1.0588 -0.3624 -0.6983
 5388SOL    HW227627   1.483   1.693  11.033  0.6389 -1.4476 -0.2753
 5389SOL     OW27628   3.164   1.584   0.858  0.1841 -0.0191  0.0510
 5389SOL    HW127629   3.132   1.583   0.948 -0.0675  1.2031 -0.0210
 5389SOL    HW227630   3.253   1.617   0.864  1.3546 -2.8849 -1.3483
 5390SOL     OW27631   1.362   1.479  16.919 -0.1354 -0.3073 -0.2955
 5390SOL    HW127632   1.416   1.447  16.991 -1.5619 -1.3111  0.3214
 5390SOL    HW227633   1.327   1.557  16.961  2.6167  0.0461  1.3886
 5391SOL     OW27634   3.326   3.763   8.371  0.2925  0.0918  0.2793
 5391SOL    HW127635   3.236   3.795   8.376 -0.1284 -1.0519  0.0408
 5391SOL    HW227636   3.308   3.685   8.318  0.5741 -0.0329  0.3651
 5392SOL     OW27637   3.440   2.651  11.888 -0.6627 -0.3834  0.0102
 5392SOL    HW127638   3.361   2.639  11.940  0.2761  0.3348  1.5767
 5392SOL    HW227639   3.499   2.675  11.960  0.4279  2.9859 -2.0172
 5393SOL     OW27640   3.443   3.662  10.046 -0.0406  0.1065  0.1691
 5393SOL    HW127641   3.531   3.648  10.081 -0.3980  0.3479  1.1654
 5393SOL    HW227642   3.440   3.756  10.064  0.9654  0.2874 -0.6506
 5394SOL     OW27643   1.665   0.707   7.770 -0.1560 -0.0741  0.0022
 5394SOL    HW127644   1.688   0.747   7.853 -1.4863  0.3397  0.1673
 5394SOL    HW227645   1.609   0.771   7.727 -0.4029 -0.2229  0.0993
 5395SOL     OW27646   3.868   4.529  11.284  0.1423  0.1008  0.0735
 5395SOL    HW127647   3.919   4.461  11.241  0.2575 -0.0000  0.3719
 5395SOL    HW227648   3.897   4.608  11.237  0.6827  0.2604  0.6890
 5396SOL     OW27649   1.645   0.105   4.677  0.4631  0.2567  0.3535
 5396SOL    HW127650   1.556   0.088   4.646  1.5194 -0.6266 -2.2111
 5396SOL    HW227651   1.675   0.015   4.694 -0.3100 -0.3510 -1.4342
 5397SOL     OW27652   2.895   2.158   4.762  0.3840 -0.0016  0.0647
 5397SOL    HW127653   2.964   2.219   4.736  1.5090 -1.5968 -0.6378
 5397SOL    HW227654   2.859   2.224   4.821 -0.6508 -0.7415  0.2440
 5398SOL     OW27655   1.172   4.301   1.293  0.0050 -0.3317  0.1575
 5398SOL    HW127656   1.187   4.231   1.230  2.2559  0.2898 -0.0060
 5398SOL    HW227657   1.263   4.330   1.302 -0.0967 -0.0643  0.3268
 5399SOL     OW27658   3.405   1.883   0.670  0.3983 -0.4537 -0.0841
 5399SOL    HW127659   3.465   1.852   0.738  0.3251 -1.6692 -0.5681
 5399SOL    HW227660   3.343   1.811   0.653  1.0246 -1.2828  1.1533
 5400SOL     OW27661   0.940   3.061   0.480  0.0462 -0.3886  0.2652
 5400SOL    HW127662   0.888   3.005   0.422  1.5952 -1.0512 -0.4874
 5400SOL    HW227663   0.926   3.142   0.432 -2.0553 -1.2348 -0.5635
 5401SOL     OW27664   3.530   4.679   7.287  0.1732  0.4941 -0.0182
 5401SOL    HW127665   3.609   0.008   7.266  0.5148 -0.3091 -0.6337
 5401SOL    HW227666   3.572   4.604   7.330  1.7716  2.0117  1.0965
 5402SOL     OW27667   0.414   2.348  10.599 -0.0627  0.5287 -0.2110
 5402SOL    HW127668   0.454   2.314  10.519 -0.5454 -2.4117  0.8126
 5402SOL    HW227669   0.327   2.311  10.608  0.0222  0.5802  0.8128
 5403SOL     OW27670   2.458   0.739   7.782 -0.9502 -0.1766 -0.3360
 5403SOL    HW127671   2.371   0.707   7.757 -1.0581 -1.0746  1.1968
 5403SOL    HW227672   2.463   0.698   7.868 -0.9815 -0.7961 -0.6264
 5404SOL     OW27673   4.489   4.681   0.645 -0.1964  0.1560 -0.2106
 5404SOL    HW127674   4.406   4.638   0.628  0.2715 -0.9877  0.3718
 5404SOL    HW227675   4.518   4.683   0.554  2.7142 -0.5308  0.7078
 5405SOL     OW27676   0.625   4.332   6.374 -0.2919  0.5988  0.3107
 5405SOL    HW127677   0.563   4.394   6.413 -1.1867 -1.2547  1.8338
 5405SOL    HW227678   0.634   4.269   6.445  0.3575  1.0775  0.6531
 5406SOL     OW27679   0.779   3.982   8.496  0.6663 -0.0593 -0.0401
 5406SOL    HW127680   0.854   4.033   8.467  0.9990 -1.3777 -1.5055
 5406SOL    HW227681   0.745   3.964   8.409  1.5529 -0.4826 -0.3007
 5407SOL     OW27682   0.413   3.346   1.068 -1.0072 -0.5599  0.2557
 5407SOL    HW127683   0.337   3.347   1.011 -1.7453 -0.0676  1.2572
 5407SOL    HW227684   0.388   3.385   1.152 -2.4695  1.8680 -1.3351
 5408SOL     OW27685   1.600   3.379  17.068 -0.3050  0.2466  0.1701
 5408SOL    HW127686   1.648   3.414  17.143 -0.9126 -1.2328  1.2426
 5408SOL    HW227687   1.556   3.302  17.105  1.5630 -0.0249  1.8768
 5409SOL     OW27688   1.535   0.938   4.309 -0.2175  0.5580 -0.1314
 5409SOL    HW127689   1.522   0.872   4.241 -1.9291 -0.9751  1.6845
 5409SOL    HW227690   1.445   0.963   4.328 -0.2819  1.2584 -1.3379
 5410SOL     OW27691   2.815   4.415   2.171 -0.2431  0.0398  0.2597
 5410SOL    HW127692   2.764   4.456   2.102 -0.4471 -0.6939 -0.0297
 5410SOL    HW227693   2.895   4.398   2.121  0.4995 -0.1539  1.5057
 5411SOL     OW27694   0.531   1.879   4.972 -0.0084  0.1487  0.0756
 5411SOL    HW127695   0.530   1.975   4.976  1.2691  0.1243  1.0485
 5411SOL    HW227696   0.540   1.869   4.877 -2.3354  4.7133 -0.6506
 5412SOL     OW27697   3.136   4.224   2.419  0.6797  0.3826 -0.0842
 5412SOL    HW127698   3.222   4.201   2.385  0.3362  1.0491 -1.3942
 5412SOL    HW227699   3.151   4.309   2.460  0.4067  0.8262 -0.9105
 5413SOL     OW27700   3.333   3.176   1.351 -0.2940 -0.3423 -0.5053
 5413SOL    HW127701   3.396   3.196   1.421 -0.0026 -0.1398 -0.8261
 5413SOL    HW227702   3.386   3.115   1.300 -0.5969 -0.8130 -0.2547
 5414SOL     OW27703   3.488   1.927   4.611  0.3525  0.5794 -0.1849
 5414SOL    HW127704   3.441   1.980   4.547  1.4439  0.9554 -0.6799
 5414SOL    HW227705   3.497   1.984   4.687 -0.7300 -0.3384  0.6427
 5415SOL     OW27706   3.453   1.520   9.704  0.3302 -0.6674 -0.0368
 5415SOL    HW127707   3.370   1.474   9.714 -0.7933  1.4120  0.2836
 5415SOL    HW227708   3.416   1.608   9.710  0.6049 -0.5562  0.0418
 5416SOL     OW27709   3.241   1.883   7.867  0.2165 -0.1298 -0.2337
 5416SOL    HW127710   3.262   1.841   7.784 -0.8337  1.2970 -1.2379
 5416SOL    HW227711   3.147   1.866   7.876  0.3013 -0.1538  0.6226
 5417SOL     OW27712   4.488   2.771   9.551 -0.0595 -0.1560  0.0104
 5417SOL    HW127713   4.514   2.720   9.474 -4.3081 -0.1240 -1.4237
 5417SOL    HW227714   4.485   2.857   9.509  1.9846 -0.5109 -0.8596
 5418SOL     OW27715   2.010   3.220   4.179  0.3599 -0.1426  0.2437
 5418SOL    HW127716   1.918   3.211   4.154  0.3459  2.9525 -0.7869
 5418SOL    HW227717   2.050   3.145   4.136  2.0092  0.9162 -0.0753
 5419SOL     OW27718   0.789   1.446   1.351 -0.3087 -0.7314 -0.1707
 5419SOL    HW127719   0.705   1.486   1.327 -0.0580  0.7019  1.3334
 5419SOL    HW227720   0.823   1.432   1.263 -0.2831 -2.2531  0.0899
 5420SOL     OW27721   0.047   3.874   7.302  0.7548 -0.7013  0.4735
 5420SOL    HW127722   0.126   3.928   7.314  0.2495 -0.0964  1.0859
 5420SOL    HW227723   4.698   3.933   7.331  0.2786 -2.2118  2.4615
 5421SOL     OW27724   0.350   1.627  13.679  0.2930 -0.2650 -0.0289
 5421SOL    HW127725   0.309   1.641  13.764 -1.5355 -1.7721 -0.6866
 5421SOL    HW227726   0.284   1.669  13.624 -0.9597 -0.3196  1.4501
 5422SOL     OW27727   1.423   0.679   3.305  0.2914  0.2137  1.0281
 5422SOL    HW127728   1.487   0.700   3.373 -0.4926 -0.6322  2.0160
 5422SOL    HW227729   1.356   0.746   3.321 -2.2995 -1.7951 -1.6299
 5423SOL     OW27730   4.029   2.666  17.007  0.2480 -0.1346 -0.6598
 5423SOL    HW127731   4.111   2.620  17.024  0.7939  1.9929  2.4478
 5423SOL    HW227732   4.022   2.676  16.912  0.6437  0.9470 -0.5688
 5424SOL     OW27733   4.498   3.240   9.243 -0.1425  0.5577  0.1427
 5424SOL    HW127734   4.557   3.261   9.171 -0.3223 -0.7711 -0.3867
 5424SOL    HW227735   4.417   3.274   9.205 -1.7668 -1.8170  1.4291
 5425SOL     OW27736   2.150   3.916   1.082  0.0075 -0.1972 -0.2810
 5425SOL    HW127737   2.241   3.939   1.097 -0.0364  1.4383 -2.5487
 5425SOL    HW227738   2.131   3.951   0.995 -0.8797 -2.1523 -0.8879
 5426SOL     OW27739   1.405   3.159   4.814  0.1262 -0.0914 -0.0628
 5426SOL    HW127740   1.326   3.212   4.801  0.5685 -0.0316 -2.5376
 5426SOL    HW227741   1.441   3.175   4.727  0.2037 -2.7977 -0.5228
 5427SOL     OW27742   0.223   0.901  12.522  0.4077  0.7716 -0.5433
 5427SOL    HW127743   0.310   0.910  12.482  1.1114  0.3444  0.8682
 5427SOL    HW227744   0.229   0.940  12.610 -0.8859  1.7463 -0.8939
 5428SOL     OW27745   1.392   4.463  15.739  0.4712  0.2229 -0.4642
 5428SOL    HW127746   1.465   4.434  15.684 -0.3516 -2.1895 -0.2906
 5428SOL    HW227747   1.443   4.518  15.797  0.3871 -0.9003  0.6804
 5429SOL     OW27748   0.460   0.869   4.928  0.0447 -0.1090 -0.5645
 5429SOL    HW127749   0.463   0.909   5.014  0.2109  0.1356 -0.6843
 5429SOL    HW227750   0.370   0.843   4.909 -0.1608  0.2409 -0.0581
 5430SOL     OW27751   3.167   2.263   8.453 -0.4439  0.3355 -0.5303
 5430SOL    HW127752   3.161   2.337   8.514 -3.3238 -0.9294  0.6717
 5430SOL    HW227753   3.261   2.242   8.450 -0.3773  0.3075  1.4214
 5431SOL     OW27754   0.315   2.022   5.668  0.2645 -0.4396 -0.2844
 5431SOL    HW127755   0.293   2.115   5.655  1.1087 -0.2887 -0.6417
 5431SOL    HW227756   0.410   2.023   5.657  0.0616 -1.5116 -1.9587
 5432SOL     OW27757   2.714   2.557   7.680  0.1496  0.1510  0.7008
 5432SOL    HW127758   2.722   2.652   7.686 -0.5540  0.2118  0.6302
 5432SOL    HW227759   2.623   2.550   7.708  0.2816 -1.2332  0.7760
 5433SOL     OW27760   2.686   1.882  11.122  0.0683 -0.7888  0.3490
 5433SOL    HW127761   2.641   1.956  11.082  0.4852 -0.8009 -0.1364
 5433SOL    HW227762   2.683   1.824  11.046 -0.2841  2.1627 -1.8858
 5434SOL     OW27763   4.435   1.028   8.007  0.1447 -0.0794 -0.2497
 5434SOL    HW127764   4.510   1.081   7.981 -0.7868  1.7727  0.8486
 5434SOL    HW227765   4.445   1.022   8.102  0.7631  1.0719 -0.2380
 5435SOL     OW27766   3.026   4.195   5.953 -0.3631  0.1353 -0.1243
 5435SOL    HW127767   3.093   4.262   5.963  0.2020 -0.4262 -0.1699
 5435SOL    HW227768   3.080   4.118   5.972 -0.8710 -0.0791  0.4391
 5436SOL     OW27769   1.495   2.480   9.614  0.4994  0.3953  0.0610
 5436SOL    HW127770   1.521   2.445   9.529 -1.4704  0.4495 -0.5678
 5436SOL    HW227771   1.456   2.401   9.650 -0.4496  0.2932 -1.1812
 5437SOL     OW27772   2.538   1.270   6.868  0.3876  0.7192 -0.1055
 5437SOL    HW127773   2.495   1.283   6.784 -0.1911  0.0254  0.0805
 5437SOL    HW227774   2.621   1.311   6.844  0.2049  0.1655 -1.6746
 5438SOL     OW27775   2.644   0.176   9.105  0.2672  0.2226  0.0611
 5438SOL    HW127776   2.609   0.140   9.186 -1.2963  1.0902 -0.2313
 5438SOL    HW227777   2.730   0.213   9.127  0.1492  0.1051  0.7088
 5439SOL     OW27778   0.608   2.599   1.414  0.3194  0.6300  0.3169
 5439SOL    HW127779   0.547   2.564   1.479 -0.2752  1.8001  0.3972
 5439SOL    HW227780   0.582   2.690   1.430  1.7509  0.8293  1.4805
 5440SOL     OW27781   2.405   3.383   6.679  0.0584  0.1363 -0.6551
 5440SOL    HW127782   2.339   3.314   6.679  0.9544 -0.7222  0.4958
 5440SOL    HW227783   2.379   3.418   6.764 -0.7470 -0.8530 -0.4935
 5441SOL     OW27784   2.743   0.115  13.555  0.4890  0.6853  0.3214
 5441SOL    HW127785   2.697   0.032  13.564 -2.4227  2.0567 -1.6288
 5441SOL    HW227786   2.764   0.133  13.646  1.4842 -0.7347  0.3724
 5442SOL     OW27787   4.552   2.563   5.048 -0.2028  0.9255  0.2362
 5442SOL    HW127788   4.590   2.651   5.047  1.7408  0.0704  0.5002
 5442SOL    HW227789   4.459   2.585   5.039 -0.2815 -0.3057 -1.9364
 5443SOL     OW27790   1.540   2.042  13.876 -0.4245  0.1540 -0.2768
 5443SOL    HW127791   1.522   2.126  13.920 -2.0331 -0.2755 -0.1231
 5443SOL    HW227792   1.578   2.065  13.791  2.9501  2.1007  1.7431
 5444SOL     OW27793   4.077   0.543   4.213 -0.9370 -0.0095  0.3613
 5444SOL    HW127794   4.109   0.485   4.282  1.6413  3.6111  2.2005
 5444SOL    HW227795   3.985   0.519   4.203 -1.0982  1.5550 -1.8487
 5445SOL     OW27796   4.545   4.425   6.316 -0.1553 -0.1724 -0.3456
 5445SOL    HW127797   4.592   4.342   6.316 -2.8590 -1.6694  2.3233
 5445SOL    HW227798   4.459   4.400   6.348 -0.2080  2.1084  1.2784
 5446SOL     OW27799   3.137   1.744   2.164 -0.0929 -0.3653  0.6278
 5446SOL    HW127800   3.200   1.725   2.095 -0.0972  1.2204  0.2025
 5446SOL    HW227801   3.184   1.727   2.246  0.2074 -1.1872  0.2830
 5447SOL     OW27802   2.321   3.275  12.632 -0.3951 -0.2005 -0.0915
 5447SOL    HW127803   2.306   3.358  12.588  0.0314 -0.6872 -1.1340
 5447SOL    HW227804   2.326   3.313  12.720  0.1891 -1.1358  0.2881
 5448SOL     OW27805   1.686   0.864   4.545  0.2085 -0.1603  0.3424
 5448SOL    HW127806   1.650   0.860   4.457  0.0549 -0.1207  0.4026
 5448SOL    HW227807   1.646   0.945   4.576 -1.3712 -0.8315  0.0341
 5449SOL     OW27808   2.168   3.272   4.919 -0.2285  0.4797  0.5517
 5449SOL    HW127809   2.216   3.317   4.989  1.9488  0.9664 -1.2656
 5449SOL    HW227810   2.103   3.337   4.893 -0.1880  0.1895 -0.2601
 5450SOL     OW27811   4.022   2.577  12.757 -0.4769 -0.4171  0.6320
 5450SOL    HW127812   4.099   2.631  12.774 -0.0859  0.3789 -3.5469
 5450SOL    HW227813   4.033   2.493  12.801 -1.1404 -1.3477 -0.9586
 5451SOL     OW27814   1.598   1.251   1.017 -0.1922 -0.3180  0.3043
 5451SOL    HW127815   1.682   1.282   1.051  1.3538 -1.2647 -2.5359
 5451SOL    HW227816   1.590   1.188   1.088 -0.4329  2.7182  2.9726
 5452SOL     OW27817   0.606   4.539   8.151  0.0558  0.0641 -0.4108
 5452SOL    HW127818   0.629   4.573   8.064  0.7852  2.2749  0.6386
 5452SOL    HW227819   0.540   4.603   8.178  3.0752  2.0899  2.2372
 5453SOL     OW27820   2.954   3.382   7.344 -0.0434  0.2140  0.0961
 5453SOL    HW127821   2.858   3.380   7.339 -0.0295  2.7280 -1.5457
 5453SOL    HW227822   2.980   3.458   7.291 -1.7854  1.9999  1.8085
 5454SOL     OW27823   1.511   0.848   1.382 -0.7515  0.5208 -0.0968
 5454SOL    HW127824   1.529   0.935   1.347  0.6000 -0.4215 -1.6997
 5454SOL    HW227825   1.592   0.806   1.353 -2.4412 -1.9237 -1.2364
 5455SOL     OW27826   1.877   4.320   1.282 -0.1049 -0.0756 -0.0972
 5455SOL    HW127827   1.936   4.366   1.342  1.0841 -0.3244 -1.0910
 5455SOL    HW227828   1.867   4.250   1.347 -1.4705 -2.0619 -2.4472
 5456SOL     OW27829   3.031   2.353   5.524  0.2138  0.6723  0.0321
 5456SOL    HW127830   3.044   2.298   5.447 -0.5368  3.6284 -2.2142
 5456SOL    HW227831   2.943   2.380   5.498  0.3096  1.2723  0.3383
 5457SOL     OW27832   3.359   0.997  12.391 -0.0442 -0.8615  0.2985
 5457SOL    HW127833   3.385   0.974  12.302  1.5386  0.5156  0.4204
 5457SOL    HW227834   3.267   0.970  12.382  0.4178 -2.6340  0.9210
 5458SOL     OW27835   2.200   0.744  17.455  0.1738  0.2792 -0.2681
 5458SOL    HW127836   2.244   0.806  17.514  1.5537  0.7607 -1.7843
 5458SOL    HW227837   2.113   0.779  17.437 -0.2393 -0.6448 -0.0394
 5459SOL     OW27838   1.980   2.648   9.127  0.2451  0.6793  0.4968
 5459SOL    HW127839   1.990   2.651   9.032 -0.1871  0.5381  0.4480
 5459SOL    HW227840   1.948   2.734   9.153 -1.0434  0.3500  0.0095
 5460SOL     OW27841   2.565   2.051   9.598 -0.1942 -0.0639  0.0048
 5460SOL    HW127842   2.608   2.124   9.553  1.4301 -0.3199  1.1479
 5460SOL    HW227843   2.612   2.048   9.681  0.4765  1.2402 -0.3169
 5461SOL     OW27844   3.888   2.747  13.442 -0.4825  0.4026  0.2325
 5461SOL    HW127845   3.978   2.744  13.407 -1.5749 -1.1858 -2.4583
 5461SOL    HW227846   3.862   2.837  13.425  0.2882  1.0211  2.3285
 5462SOL     OW27847   3.625   1.053   4.460  0.3356  0.5307  0.6814
 5462SOL    HW127848   3.719   1.045   4.450  0.3231 -0.0177  0.9778
 5462SOL    HW227849   3.620   1.010   4.546 -1.4945  0.8800  0.7521
 5463SOL     OW27850   3.856   1.778  16.894 -0.2983  0.0848 -0.5201
 5463SOL    HW127851   3.903   1.714  16.842 -2.2750  0.5722 -2.8854
 5463SOL    HW227852   3.886   1.858  16.851  0.3598  0.8372  1.3238
 5464SOL     OW27853   2.159   2.571   3.295  0.3586  0.1310 -0.4036
 5464SOL    HW127854   2.103   2.562   3.217  0.8196 -2.1940 -0.4443
 5464SOL    HW227855   2.106   2.630   3.349  0.0407 -2.5264  2.1912
 5465SOL     OW27856   0.155   3.141  10.502 -0.2337 -0.4773 -0.0664
 5465SOL    HW127857   0.228   3.114  10.448  1.4320  0.2741  1.7954
 5465SOL    HW227858   0.092   3.149  10.430 -1.2789 -0.7180  0.8107
 5466SOL     OW27859   3.322   3.930   3.251  0.2359  0.4701 -0.8904
 5466SOL    HW127860   3.384   3.869   3.292  2.7871  2.3585 -1.9926
 5466SOL    HW227861   3.371   4.012   3.260  1.4460 -0.3399 -0.0336
 5467SOL     OW27862   0.159   2.362   8.508 -0.6096 -0.0843 -0.2995
 5467SOL    HW127863   0.129   2.353   8.598  0.0479 -0.1833 -0.0880
 5467SOL    HW227864   0.250   2.381   8.531  0.0281 -1.8505 -1.3310
 5468SOL     OW27865   2.275   0.126  12.318  0.2091 -0.3516 -0.1771
 5468SOL    HW127866   2.254   0.046  12.269  0.7108 -0.4466 -0.2325
 5468SOL    HW227867   2.282   0.184  12.242 -2.7956 -2.3964 -2.0259
 5469SOL     OW27868   4.480   1.551   5.033  0.2782  0.3235 -0.2198
 5469SOL    HW127869   4.497   1.538   5.126  0.8727  1.9966 -0.0923
 5469SOL    HW227870   4.560   1.599   5.011 -0.1770  0.7256 -1.0192
 5470SOL     OW27871   3.757   3.156   2.691  0.0649  0.2730  0.1394
 5470SOL    HW127872   3.740   3.079   2.636  4.3910  1.4871 -2.8642
 5470SOL    HW227873   3.828   3.118   2.743 -0.0332  2.1699  1.6339
 5471SOL     OW27874   4.382   2.013  12.863 -0.6313  0.5900 -0.1793
 5471SOL    HW127875   4.347   2.043  12.780 -1.0545 -1.9198 -0.9207
 5471SOL    HW227876   4.357   2.078  12.928  1.8615  1.3804 -0.0067
 5472SOL     OW27877   0.380   1.889   5.340 -0.5760  0.5911 -0.2827
 5472SOL    HW127878   0.436   1.948   5.390 -1.3846  0.2513  1.0203
 5472SOL    HW227879   0.384   1.809   5.391 -2.2809  0.3801 -0.4799
 5473SOL     OW27880   0.567   4.678   8.721  0.0121 -0.0200  0.0083
 5473SOL    HW127881   0.585   4.622   8.797  0.2959  0.0637 -0.0010
 5473SOL    HW227882   0.599   4.631   8.644 -0.9339  0.1656 -0.4976
 5474SOL     OW27883   4.113   3.193   3.483  0.6298  0.2172 -0.7926
 5474SOL    HW127884   4.087   3.272   3.436 -1.7910 -0.9883 -1.4547
 5474SOL    HW227885   4.031   3.170   3.526  0.2528  1.9999 -0.5591
 5475SOL     OW27886   0.648   3.069   8.824  0.4153 -0.6856 -0.4609
 5475SOL    HW127887   0.673   3.161   8.823 -1.3757 -0.1828  0.8118
 5475SOL    HW227888   0.686   3.033   8.904 -0.3474 -0.6960 -0.0976
 5476SOL     OW27889   3.758   3.374   6.461  0.2716 -0.3666  0.6424
 5476SOL    HW127890   3.775   3.281   6.470  3.0743  0.2294  1.4797
 5476SOL    HW227891   3.846   3.401   6.488 -0.5031  1.5371  1.2798
 5477SOL     OW27892   3.800   2.806   0.121 -0.3179 -0.8568  0.1923
 5477SOL    HW127893   3.708   2.794   0.141 -0.4307  0.5931  0.5659
 5477SOL    HW227894   3.853   2.768   0.192  1.6694 -0.3515 -1.0118
 5478SOL     OW27895   0.548   3.995   5.837 -0.4753 -0.3574  0.3102
 5478SOL    HW127896   0.459   4.019   5.812 -0.0514 -0.0313 -0.8899
 5478SOL    HW227897   0.598   4.071   5.809 -0.7223  1.3571  4.4069
 5479SOL     OW27898   2.600   0.258   8.161  0.2971  0.6261  0.1535
 5479SOL    HW127899   2.566   0.200   8.229  0.2136  0.2651 -0.1941
 5479SOL    HW227900   2.588   0.347   8.194 -1.2287 -0.2292  1.9529
 5480SOL     OW27901   2.985   0.661  15.408  0.0193 -0.7115 -0.4312
 5480SOL    HW127902   2.960   0.621  15.325  1.9046 -0.2115 -1.2337
 5480SOL    HW227903   2.984   0.753  15.380 -0.6346  0.3289  2.9753
 5481SOL     OW27904   2.927   1.139   2.489 -0.2936  0.1945  0.2006
 5481SOL    HW127905   2.962   1.225   2.512  0.7730  0.1956 -1.5044
 5481SOL    HW227906   2.926   1.099   2.576  0.6521 -1.3091 -0.4845
 5482SOL     OW27907   0.850   0.985   7.224 -0.4629  0.0392  0.0227
 5482SOL    HW127908   0.796   1.020   7.154 -1.2538 -0.6447  0.2975
 5482SOL    HW227909   0.922   1.048   7.223 -0.8705  0.5093  0.5997
 5483SOL     OW27910   0.401   2.066  12.886 -0.5958 -0.0350  0.4552
 5483SOL    HW127911   0.468   2.039  12.949  0.5150  0.2682 -0.5883
 5483SOL    HW227912   0.328   2.008  12.909 -0.5822  0.3080  1.3468
 5484SOL     OW27913   3.561   1.119   7.910  0.0965  0.0099  0.1087
 5484SOL    HW127914   3.643   1.124   7.859  1.2705 -1.2249  1.8695
 5484SOL    HW227915   3.576   1.192   7.970  1.7741  0.0866 -0.3847
 5485SOL     OW27916   0.944   2.813  13.108 -0.1871  0.0960  0.7943
 5485SOL    HW127917   1.027   2.821  13.061  0.1965  0.0713  1.4745
 5485SOL    HW227918   0.937   2.718  13.119 -2.0400  0.3279  1.6706
 5486SOL     OW27919   0.180   2.158  13.611  0.5849  0.4377 -0.6361
 5486SOL    HW127920   0.189   2.105  13.690  1.4804 -1.8259 -2.2634
 5486SOL    HW227921   0.088   2.186  13.609  0.1522 -0.9742 -0.5229
 5487SOL     OW27922   3.072   4.507   3.302 -0.2225 -0.2725 -0.2624
 5487SOL    HW127923   3.002   4.506   3.367 -1.6666 -1.4742 -1.8459
 5487SOL    HW227924   3.074   4.602   3.288 -2.8121 -0.5492 -2.5045
 5488SOL     OW27925   0.393   1.646   8.206  0.3107 -0.6531 -0.8713
 5488SOL    HW127926   0.382   1.739   8.188  1.0726 -0.5346 -0.7163
 5488SOL    HW227927   0.347   1.636   8.290  1.8137 -0.7394 -0.0583
 5489SOL     OW27928   0.189   1.812   5.089  0.2396 -0.5003  0.2043
 5489SOL    HW127929   0.235   1.792   5.007  0.5930 -0.3183  0.3571
 5489SOL    HW227930   0.228   1.898   5.107 -0.1527 -0.0604 -1.1193
 5490SOL     OW27931   0.053   4.511   7.118  0.1137  0.5113 -0.3503
 5490SOL    HW127932   0.128   4.459   7.090 -0.6486 -1.8241  1.8973
 5490SOL    HW227933   0.022   4.549   7.036 -3.2496 -0.2724  0.5268
 5491SOL     OW27934   3.471   4.622  13.142  0.2258  0.3840 -0.0699
 5491SOL    HW127935   3.398   4.675  13.173  0.4291  0.3805  0.4045
 5491SOL    HW227936   3.432   4.537  13.122  0.5767  0.2811 -0.3198
 5492SOL     OW27937   2.168   3.149   8.241  0.3626 -0.2800 -0.0563
 5492SOL    HW127938   2.166   3.239   8.272  1.1903 -1.4106  3.2566
 5492SOL    HW227939   2.077   3.128   8.263  0.1473  1.9136  1.1203
 5493SOL     OW27940   0.996   2.434   4.662 -0.1464 -0.6014 -0.0354
 5493SOL    HW127941   0.930   2.376   4.699 -1.6976  0.6246 -0.8656
 5493SOL    HW227942   1.049   2.376   4.608  1.4387 -1.6522  2.6622
 5494SOL     OW27943   3.054   4.064   1.357  0.3368  0.2319  0.8931
 5494SOL    HW127944   3.016   3.987   1.313 -3.4820  2.1088  0.8993
 5494SOL    HW227945   2.978   4.122   1.363  1.6883  1.8240  2.4618
 5495SOL     OW27946   3.270   3.130  15.196  0.6211 -0.1181  0.1908
 5495SOL    HW127947   3.253   3.077  15.117  1.1691  1.7728 -1.2036
 5495SOL    HW227948   3.354   3.159  15.159  0.6962 -1.6483 -0.8610
 5496SOL     OW27949   1.294   0.481   1.337 -0.7789 -0.3493  0.1893
 5496SOL    HW127950   1.294   0.570   1.303  0.3529 -0.1009  0.8230
 5496SOL    HW227951   1.258   0.432   1.263  1.9058  0.2332 -1.5231
 5497SOL     OW27952   3.074   2.483   7.998 -0.3380 -0.0168 -0.1430
 5497SOL    HW127953   2.993   2.452   7.957 -0.4904 -0.3439  0.3992
 5497SOL    HW227954   3.064   2.431   8.078  2.2857 -0.8037 -0.3333
 5498SOL     OW27955   1.801   1.747  13.838  0.2506  0.7185 -0.3055
 5498SOL    HW127956   1.722   1.786  13.875  0.5013 -0.8393  1.8769
 5498SOL    HW227957   1.833   1.675  13.893 -1.6724  0.6956  0.7837
 5499SOL     OW27958   1.722   4.641   2.581  0.8697 -0.7444 -0.1655
 5499SOL    HW127959   1.719   4.545   2.586  0.6041 -0.5969  2.7781
 5499SOL    HW227960   1.653   4.674   2.524  0.2387  2.9641  2.7587
 5500SOL     OW27961   2.520   3.172  17.612 -0.2741 -0.5613 -0.2474
 5500SOL    HW127962   2.527   3.133  17.525 -1.0715  0.1434 -0.6310
 5500SOL    HW227963   2.490   3.097  17.663 -0.3964 -2.3304 -2.9059
 5501SOL     OW27964   1.499   2.352  12.235 -0.1645 -0.1313 -0.2962
 5501SOL    HW127965   1.436   2.338  12.306 -0.5104  1.0006 -0.3849
 5501SOL    HW227966   1.585   2.328  12.270 -1.1772  0.5281  2.5875
 5502SOL     OW27967   4.025   0.084   8.917 -0.5918  0.1986  0.2229
 5502SOL    HW127968   4.082   0.104   8.844  0.7685 -1.3096  0.8869
 5502SOL    HW227969   3.991   4.717   8.901  0.6994 -0.0853 -0.8533
 5503SOL     OW27970   1.990   2.161  16.560 -0.1350  0.1893  0.1695
 5503SOL    HW127971   1.930   2.090  16.584 -1.3409  0.6700 -1.3477
 5503SOL    HW227972   1.952   2.197  16.479  0.0706  1.4257  0.6205
 5504SOL     OW27973   1.767   1.932   8.685  0.1688 -0.0449  0.0892
 5504SOL    HW127974   1.679   1.934   8.648  0.0496  1.7774  0.4543
 5504SOL    HW227975   1.773   2.016   8.730 -1.6141  1.8969 -3.3240
 5505SOL     OW27976   0.529   4.222   4.629  0.1393  0.0195 -0.3323
 5505SOL    HW127977   0.525   4.309   4.590 -1.5507  1.0369  2.0990
 5505SOL    HW227978   0.484   4.238   4.712 -4.0275 -2.1000 -2.1689
 5506SOL     OW27979   4.676   0.153   1.651 -0.3205 -0.4100  0.0154
 5506SOL    HW127980   4.695   0.247   1.655 -2.5046  0.0150  0.1086
 5506SOL    HW227981   4.582   0.147   1.663 -0.3644 -1.2718 -0.7696
 5507SOL     OW27982   3.895   4.127   4.285 -0.7515  0.4745 -0.1654
 5507SOL    HW127983   3.957   4.126   4.212  0.6911 -1.2535  1.0548
 5507SOL    HW227984   3.819   4.085   4.245 -1.3497 -0.7233  2.2599
 5508SOL     OW27985   1.092   0.882   5.133 -0.4135  0.2711 -0.1433
 5508SOL    HW127986   1.061   0.939   5.062  1.4589  0.3870 -0.8744
 5508SOL    HW227987   1.010   0.834   5.140  0.2206 -0.7547  0.1787
 5509SOL     OW27988   3.477   3.347   7.571  0.1701  0.5325 -0.1659
 5509SOL    HW127989   3.453   3.265   7.527 -0.5194 -0.2004  1.5783
 5509SOL    HW227990   3.572   3.341   7.576  0.1355 -2.1527 -2.6837
 5510SOL     OW27991   2.708   0.021   6.822  0.1242 -0.3845 -0.8425
 5510SOL    HW127992   2.667   0.058   6.744 -1.3422 -0.5782 -0.1507
 5510SOL    HW227993   2.777   0.087   6.833  0.6108 -0.6946 -2.0429
 5511SOL     OW27994   1.377   0.736   1.051 -0.2774  0.7511 -0.3053
 5511SOL    HW127995   1.451   0.757   1.108  0.3543 -2.0492 -0.0676
 5511SOL    HW227996   1.419   0.722   0.966  0.2942 -1.4556  0.3342
 5512SOL     OW27997   1.072   0.167  14.843  0.1802  0.5733 -0.5599
 5512SOL    HW127998   1.049   0.236  14.906  0.3701  1.2924 -1.2652
 5512SOL    HW227999   1.133   0.219  14.790  1.2543  0.5321  0.6299
 5513SOL     OW28000   2.473   4.610   2.541  0.0504  0.0095 -0.2642
 5513SOL    HW128001   2.487   4.534   2.597  1.1714  0.2611 -0.1901
 5513SOL    HW228002   2.492   4.568   2.457 -0.2189  0.7442 -0.6916
 5514SOL     OW28003   1.607   0.319  13.612 -0.4297 -0.2830 -0.1044
 5514SOL    HW128004   1.685   0.371  13.632 -2.3256  2.0764  1.2201
 5514SOL    HW228005   1.548   0.350  13.680 -0.7069  1.5614 -1.1601
 5515SOL     OW28006   0.727   2.483   0.088  0.2858  0.6333 -0.4699
 5515SOL    HW128007   0.664   2.495   0.158  0.2929 -1.1695 -0.1650
 5515SOL    HW228008   0.802   2.522   0.133  0.1526  2.3360 -1.7284
 5516SOL     OW28009   3.619   3.333   4.876  0.2774 -0.4089  0.3543
 5516SOL    HW128010   3.641   3.255   4.826 -1.2416 -0.3213 -0.4417
 5516SOL    HW228011   3.616   3.314   4.970 -0.0692 -2.5195 -0.0855
 5517SOL     OW28012   2.740   1.103  13.283 -0.4793  0.1511 -0.1704
 5517SOL    HW128013   2.772   1.013  13.272  1.2548  0.7270  0.2036
 5517SOL    HW228014   2.794   1.113  13.361 -2.4759 -0.0704  1.2273
 5518SOL     OW28015   3.195   0.188   2.694 -0.6270 -0.4937  0.1728
 5518SOL    HW128016   3.275   0.217   2.649 -0.2211 -2.6148 -0.4975
 5518SOL    HW228017   3.218   0.095   2.704 -0.7104 -0.5693 -0.3764
 5519SOL     OW28018   4.547   1.381   8.403  0.3495 -0.1498 -0.0677
 5519SOL    HW128019   4.515   1.469   8.425 -0.6482 -0.2177 -1.2142
 5519SOL    HW228020   4.620   1.403   8.345 -0.6274  1.4080 -0.7383
 5520SOL     OW28021   0.862   0.753  10.923 -0.4922  0.0993 -0.0019
 5520SOL    HW128022   0.893   0.732  11.011  2.6409 -0.9972 -1.3884
 5520SOL    HW228023   0.933   0.812  10.900 -0.9314  0.3498 -0.7241
 5521SOL     OW28024   3.524   2.980   5.189 -0.4407  0.1076  0.0644
 5521SOL    HW128025   3.468   2.930   5.130  1.4606 -0.7929 -0.9842
 5521SOL    HW228026   3.486   2.940   5.268  0.4271 -2.1802 -0.6559
 5522SOL     OW28027   1.007   1.488  14.983 -0.1914  0.0307 -0.3586
 5522SOL    HW128028   1.009   1.581  14.960  0.2552  0.1638  0.2183
 5522SOL    HW228029   1.064   1.480  15.059 -0.4526  1.4200 -0.0075
 5523SOL     OW28030   3.135   0.735  15.623 -0.4523 -0.0410  0.1020
 5523SOL    HW128031   3.213   0.687  15.594 -1.2982 -3.8720  4.1705
 5523SOL    HW228032   3.069   0.701  15.564 -0.5642  1.9782 -0.9236
 5524SOL     OW28033   4.548   0.475   5.629  0.0949  0.2207 -0.4375
 5524SOL    HW128034   4.513   0.530   5.699  1.6597  0.8802 -0.1666
 5524SOL    HW228035   4.546   0.548   5.567 -1.7621  0.6485  0.1255
 5525SOL     OW28036   2.396   1.044   2.364  0.3871  0.0214 -0.0348
 5525SOL    HW128037   2.476   1.075   2.406 -0.3909 -0.2957  1.6913
 5525SOL    HW228038   2.360   1.127   2.332 -0.7369 -0.6598 -0.5110
 5526SOL     OW28039   2.591   0.210   5.380 -0.1028 -0.3627 -0.1670
 5526SOL    HW128040   2.507   0.165   5.376  0.3689 -1.2720  0.2907
 5526SOL    HW228041   2.644   0.135   5.406 -0.3708 -0.9446 -1.2732
 5527SOL     OW28042   2.597   3.261   9.415  0.1066  0.2149  0.1767
 5527SOL    HW128043   2.542   3.339   9.414  1.2240  1.0445  1.6471
 5527SOL    HW228044   2.602   3.244   9.509 -0.9465 -0.7974  0.0387
 5528SOL     OW28045   2.933   0.194   9.107 -0.1994 -0.6027  0.0005
 5528SOL    HW128046   2.884   0.112   9.100  1.9243 -1.7941 -1.0456
 5528SOL    HW228047   2.947   0.217   9.015 -0.8935 -0.2160 -0.0038
 5529SOL     OW28048   2.933   2.836   2.483 -0.4764  0.2104 -0.2904
 5529SOL    HW128049   2.935   2.784   2.564  0.1064  0.7135  0.0210
 5529SOL    HW228050   2.856   2.891   2.497 -0.3162  0.9553 -2.3322
 5530SOL     OW28051   2.056   3.178   8.559 -0.1452  0.2561 -0.1098
 5530SOL    HW128052   2.130   3.127   8.592  0.9110  0.7870 -1.6645
 5530SOL    HW228053   2.035   3.128   8.481  0.3808  0.0181 -0.0941
 5531SOL     OW28054   3.770   2.045   0.319 -0.2549 -0.5999 -0.1666
 5531SOL    HW128055   3.701   2.077   0.378  2.1460  2.3938  0.9978
 5531SOL    HW228056   3.840   2.038   0.383  1.7219 -1.3020 -2.4084
 5532SOL     OW28057   2.977   1.422   2.769  0.5897 -0.3161 -0.0545
 5532SOL    HW128058   2.909   1.388   2.711  2.5907  2.8516 -4.2201
 5532SOL    HW228059   3.025   1.477   2.708  1.4783 -2.2528 -1.0810
 5533SOL     OW28060   1.670   2.511   6.201  0.7721 -0.6937  0.8239
 5533SOL    HW128061   1.639   2.462   6.277 -1.4401 -0.9190 -0.2093
 5533SOL    HW228062   1.694   2.446   6.135  0.4450  0.4474 -0.4129
 5534SOL     OW28063   0.890   4.243  13.782 -0.4844  0.0608 -0.3591
 5534SOL    HW128064   0.857   4.292  13.707  0.8539 -0.4352 -1.2645
 5534SOL    HW228065   0.843   4.284  13.855 -0.0422  0.7342 -0.4558
 5535SOL     OW28066   1.223   2.429   7.977 -0.0059  0.3238  1.0501
 5535SOL    HW128067   1.235   2.335   7.992  0.7813  0.5808  2.0501
 5535SOL    HW228068   1.137   2.434   8.019 -1.1295  1.5906 -1.4524
 5536SOL     OW28069   4.432   4.287   8.466  0.4571 -0.4833 -0.3164
 5536SOL    HW128070   4.513   4.329   8.435 -1.5910  2.3727 -1.7763
 5536SOL    HW228071   4.444   4.278   8.560 -2.0631  1.9418  0.2529
 5537SOL     OW28072   4.360   1.649   6.517  0.4033  0.2540  0.5097
 5537SOL    HW128073   4.379   1.578   6.455 -1.2614  0.1689  0.1011
 5537SOL    HW228074   4.278   1.622   6.558  0.1941 -0.6671 -0.4964
 5538SOL     OW28075   0.732   4.479   4.233  0.4622  0.0857 -0.0462
 5538SOL    HW128076   0.741   4.533   4.312  1.8569  1.6393 -1.2543
 5538SOL    HW228077   0.707   4.543   4.166 -0.6829  0.5515  0.8114
 5539SOL     OW28078   2.089   3.434  10.660 -0.2625 -0.6350  0.4452
 5539SOL    HW128079   2.143   3.370  10.613 -0.7200 -1.0024  0.4241
 5539SOL    HW228080   2.128   3.412  10.745 -0.7428  1.5350  1.2091
 5540SOL     OW28081   0.682   0.601   2.490 -0.7790 -0.2685 -0.0952
 5540SOL    HW128082   0.674   0.585   2.395 -0.4336  0.7525 -0.2892
 5540SOL    HW228083   0.634   0.682   2.505 -2.0478 -0.4773 -2.9216
 5541SOL     OW28084   3.838   4.242   9.071 -0.5624 -0.2804  0.0927
 5541SOL    HW128085   3.832   4.338   9.072 -1.2650 -0.3382  2.0283
 5541SOL    HW228086   3.831   4.212   8.981 -1.1130  1.3302 -0.4064
 5542SOL     OW28087   0.479   1.773   7.171 -0.7958 -0.5511  0.1491
 5542SOL    HW128088   0.475   1.686   7.212 -0.1029 -1.3051 -1.4274
 5542SOL    HW228089   0.544   1.762   7.102  0.0440  0.0415  0.8361
 5543SOL     OW28090   1.859   2.668  11.402 -0.1563 -0.4292 -0.5073
 5543SOL    HW128091   1.910   2.601  11.358  0.3767 -0.3852  0.0490
 5543SOL    HW228092   1.919   2.713  11.461 -1.6603 -0.6389  1.2066
 5544SOL     OW28093   0.134   2.528  17.658  0.3831  0.0664 -0.2270
 5544SOL    HW128094   0.078   2.588   0.021 -1.1816 -0.7682 -1.0054
 5544SOL    HW228095   0.169   2.572  17.580 -1.8866 -1.0872 -1.8864
 5545SOL     OW28096   0.777   4.497   5.875  0.4365  0.1786  0.3430
 5545SOL    HW128097   0.776   4.567   5.941 -1.4308  0.9509 -0.5146
 5545SOL    HW228098   0.836   4.531   5.808  2.0271 -1.2176  1.0406
 5546SOL     OW28099   1.098   2.364  11.539 -0.4129  0.0655  0.6400
 5546SOL    HW128100   1.015   2.361  11.492 -0.1389  0.1487  0.1521
 5546SOL    HW228101   1.076   2.381  11.630 -0.5342  2.0228  0.2330
 5547SOL     OW28102   0.371   4.530   8.392 -0.1182  0.3599 -0.0158
 5547SOL    HW128103   0.441   4.585   8.428  0.3665 -0.9715  1.0469
 5547SOL    HW228104   0.352   4.566   8.306 -2.0261  3.6769  1.7762
 5548SOL     OW28105   2.485   1.725   7.237 -0.4577 -0.4815 -0.3154
 5548SOL    HW128106   2.534   1.799   7.272 -1.1569  0.1946 -0.7329
 5548SOL    HW228107   2.447   1.759   7.155  1.8276 -1.0988 -1.6049
 5549SOL     OW28108   2.517   0.476   0.531 -0.1778 -0.3646 -0.6299
 5549SOL    HW128109   2.543   0.563   0.561 -1.8700  0.2267 -0.8608
 5549SOL    HW228110   2.432   0.463   0.575  0.0129  0.1560 -0.1032
 5550SOL     OW28111   1.612   3.507  15.501 -0.3172 -0.6338  0.1030
 5550SOL    HW128112   1.551   3.539  15.568  1.1644 -2.3993  2.3051
 5550SOL    HW228113   1.553   3.446  15.458 -0.1597 -0.6341 -0.1129
 5551SOL     OW28114   2.099   2.119  14.733  0.3221  0.1974  0.1785
 5551SOL    HW128115   2.006   2.128  14.750  0.6340 -0.6245  2.3496
 5551SOL    HW228116   2.145   2.170  14.800 -1.5145 -0.0970  1.6668
 5552SOL     OW28117   4.189   3.262   4.092 -0.6202 -0.4424  0.0872
 5552SOL    HW128118   4.252   3.254   4.020  0.3016  0.0042  0.8606
 5552SOL    HW228119   4.200   3.174   4.128  0.3545 -0.7030 -0.8604
 5553SOL     OW28120   0.032   1.710  12.880  0.4455  0.1768  0.4138
 5553SOL    HW128121   0.083   1.721  12.800  1.9338  2.7787  1.6941
 5553SOL    HW228122   0.097   1.695  12.949 -1.3778 -3.3186  1.3244
 5554SOL     OW28123   3.037   1.302   0.474  0.2473 -0.4050 -0.9176
 5554SOL    HW128124   3.093   1.271   0.402  2.8117  2.2950 -0.0853
 5554SOL    HW228125   3.058   1.239   0.543  0.7461  1.2778  0.4470
 5555SOL     OW28126   3.712   1.318   3.057 -0.2299 -0.5116 -0.0424
 5555SOL    HW128127   3.626   1.282   3.036 -0.1634 -0.1586 -0.9117
 5555SOL    HW228128   3.768   1.253   3.015  1.8972  1.6258 -0.5130
 5556SOL     OW28129   1.458   4.057   2.958  0.3252 -0.2534 -0.1935
 5556SOL    HW128130   1.442   4.148   2.934  2.7077 -0.0287 -0.9239
 5556SOL    HW228131   1.369   4.023   2.959 -1.4628  4.5433  1.3233
 5557SOL     OW28132   3.111   4.292   9.111  0.0102  0.4085  0.3424
 5557SOL    HW128133   3.031   4.265   9.066  1.2754  2.7545 -3.2822
 5557SOL    HW228134   3.180   4.284   9.046 -2.8145 -1.5056 -2.4240
 5558SOL     OW28135   2.502   3.819   3.469  0.3736 -0.8715 -0.2239
 5558SOL    HW128136   2.485   3.887   3.535 -1.6558 -1.0882 -0.5258
 5558SOL    HW228137   2.581   3.784   3.511 -0.6439 -1.5697  1.1003
 5559SOL     OW28138   3.827   4.598   2.678  0.1721 -0.1980 -0.6478
 5559SOL    HW128139   3.878   4.527   2.640  0.2361 -0.1539 -0.6447
 5559SOL    HW228140   3.845   4.594   2.771  1.1159 -0.1525 -0.8289
 5560SOL     OW28141   2.469   1.308   9.738 -0.1949  0.2045  0.3096
 5560SOL    HW128142   2.498   1.391   9.776  0.7703 -0.2520  0.5795
 5560SOL    HW228143   2.468   1.251   9.815  1.0581 -0.3398 -0.0818
 5561SOL     OW28144   1.378   4.103   3.553 -0.4806 -0.1054  0.1717
 5561SOL    HW128145   1.371   4.192   3.589 -2.9772 -0.7330  1.2715
 5561SOL    HW228146   1.354   4.120   3.462  0.1924 -3.3957 -0.6269
 5562SOL     OW28147   2.677   2.117   0.351 -0.1054 -0.1312  0.0098
 5562SOL    HW128148   2.611   2.047   0.343  1.7674 -1.8258 -0.4873
 5562SOL    HW228149   2.719   2.094   0.434 -2.3895  1.2408  1.5599
 5563SOL     OW28150   0.927   2.100  11.832  0.3784 -0.0125  0.0501
 5563SOL    HW128151   0.847   2.144  11.804  0.8466 -0.3566 -1.8524
 5563SOL    HW228152   0.995   2.146  11.781 -0.4106  1.4767  0.3224
 5564SOL     OW28153   1.022   1.022  16.455  0.1091 -0.2499 -0.1885
 5564SOL    HW128154   1.003   1.000  16.364 -1.5787 -1.2416  0.4127
 5564SOL    HW228155   0.965   1.097  16.474  0.3098 -0.6333  1.9063
 5565SOL     OW28156   3.615   2.225   2.536 -0.1924 -0.4256 -0.0187
 5565SOL    HW128157   3.671   2.190   2.467  1.5322  1.0861  0.5975
 5565SOL    HW228158   3.622   2.164   2.610  0.5600 -0.0230  0.2483
 5566SOL     OW28159   1.963   2.536  16.035  0.3635  0.6240  0.8683
 5566SOL    HW128160   1.957   2.455  15.984 -0.7469  0.9991  0.3985
 5566SOL    HW228161   1.961   2.597  15.961 -1.4347  0.3660  0.7002
 5567SOL     OW28162   2.158   4.125   7.333 -0.1021  0.5273 -0.1927
 5567SOL    HW128163   2.202   4.085   7.409 -1.2447 -0.7343 -0.1821
 5567SOL    HW228164   2.092   4.060   7.306  1.9159 -1.7943  0.4010
 5568SOL     OW28165   3.343   1.486   3.931  0.1333  0.6619  0.1762
 5568SOL    HW128166   3.327   1.462   4.022  0.3065  0.1763  0.0823
 5568SOL    HW228167   3.438   1.486   3.920  0.0249  0.0396 -0.8257
 5569SOL     OW28168   0.239   0.325  12.016 -0.0152  0.1673 -0.0290
 5569SOL    HW128169   0.217   0.381  11.941  2.4328  1.3480  0.1245
 5569SOL    HW228170   0.247   0.388  12.087 -0.6185 -1.5554  1.5643
 5570SOL     OW28171   4.285   3.489  15.290 -0.6690  0.5261 -1.0248
 5570SOL    HW128172   4.366   3.477  15.241 -1.6815 -2.3807 -1.9604
 5570SOL    HW228173   4.313   3.530  15.372 -2.7988 -0.6944  0.3165
 5571SOL     OW28174   2.700   2.388   4.257 -0.4714 -0.3139 -0.1712
 5571SOL    HW128175   2.795   2.390   4.266 -0.7063  1.0200  2.3666
 5571SOL    HW228176   2.681   2.304   4.298 -1.3253  1.3214  2.8357
 5572SOL     OW28177   2.813   3.027   0.832 -0.2496 -0.1146  0.5664
 5572SOL    HW128178   2.799   2.932   0.842  0.0584 -0.3651 -1.3565
 5572SOL    HW228179   2.815   3.057   0.923  3.2137  0.7352  0.2213
 5573SOL     OW28180   3.116   3.526   6.648  0.3176 -0.3474 -0.8553
 5573SOL    HW128181   3.128   3.443   6.601 -0.2759 -0.6463 -0.4744
 5573SOL    HW228182   3.154   3.590   6.587  0.1789  0.7470  0.2101
 5574SOL     OW28183   3.519   4.137  10.956 -0.6417 -0.2426  0.0841
 5574SOL    HW128184   3.523   4.050  10.996 -0.8873  0.5466  1.8653
 5574SOL    HW228185   3.452   4.185  11.005  0.0181  1.1494 -0.4058
 5575SOL     OW28186   1.683   1.823  13.063 -0.0258 -0.3920 -0.7132
 5575SOL    HW128187   1.664   1.849  13.153  0.4792  0.6154 -0.8892
 5575SOL    HW228188   1.633   1.742  13.058  2.3219 -1.8893  0.3752
 5576SOL     OW28189   2.604   2.866  11.838  0.1979  0.2909  0.3619
 5576SOL    HW128190   2.690   2.898  11.865  1.0550 -0.8834 -0.9752
 5576SOL    HW228191   2.557   2.945  11.813  2.8362  1.4894 -0.8284
 5577SOL     OW28192   0.966   1.447   5.645  0.1472  0.3781  0.1381
 5577SOL    HW128193   0.981   1.490   5.561  0.9128 -0.0723  0.0481
 5577SOL    HW228194   0.889   1.391   5.640  1.0377 -0.7012 -1.5034
 5578SOL     OW28195   0.299   1.938   1.245 -0.1367  0.0615  0.2267
 5578SOL    HW128196   0.354   1.867   1.211  2.1312  2.3403 -0.8667
 5578SOL    HW228197   0.258   1.965   1.163  1.0403 -0.6698 -0.5936
 5579SOL     OW28198   1.249   1.422   8.732 -0.4801 -1.0496  0.2577
 5579SOL    HW128199   1.209   1.499   8.772  0.5339  0.4850 -1.6885
 5579SOL    HW228200   1.329   1.433   8.783 -0.2421 -0.9163 -0.1454
 5580SOL     OW28201   3.496   4.683   7.631 -0.4534  0.6713 -0.1946
 5580SOL    HW128202   3.592   4.686   7.634 -0.4041  0.9175 -2.3847
 5580SOL    HW228203   3.474   0.055   7.638 -1.1669  0.5408 -0.7572
 5581SOL     OW28204   4.610   3.844   6.672  0.2563  0.1233 -0.8487
 5581SOL    HW128205   4.627   3.830   6.579  3.1418 -1.6216 -0.0633
 5581SOL    HW228206   4.619   3.756   6.708  0.4984 -0.9229 -3.4846
 5582SOL     OW28207   1.826   1.686   7.385  0.3383  0.4790 -0.0847
 5582SOL    HW128208   1.806   1.694   7.292 -0.9224 -0.6566  0.0854
 5582SOL    HW228209   1.848   1.593   7.390  0.5930  0.4253 -2.2862
 5583SOL     OW28210   1.854   4.288   4.487  0.5647 -0.0355  0.1777
 5583SOL    HW128211   1.803   4.267   4.566 -0.3801 -1.9551 -0.9263
 5583SOL    HW228212   1.872   4.379   4.511  1.8224  0.0403 -1.0880
 5584SOL     OW28213   3.298   4.558   6.112 -0.0584 -0.3859  0.2687
 5584SOL    HW128214   3.367   4.519   6.166  0.9514  0.5112 -0.3866
 5584SOL    HW228215   3.352   4.588   6.038  1.8160  0.5736  2.0307
 5585SOL     OW28216   4.648   1.367   4.399 -0.1940  0.3449 -0.6313
 5585SOL    HW128217   4.609   1.454   4.401 -2.8562 -0.8522 -0.6203
 5585SOL    HW228218   4.690   1.373   4.313 -0.9934  2.8783 -0.8415
 5586SOL     OW28219   1.884   2.378   7.897  0.3960 -0.4453  0.2255
 5586SOL    HW128220   1.965   2.330   7.916  0.8042  0.7153  1.4465
 5586SOL    HW228221   1.860   2.412   7.984  0.8997 -0.2102  0.2714
 5587SOL     OW28222   1.370   3.146   8.712  0.1632  0.0674  0.2434
 5587SOL    HW128223   1.381   3.072   8.652  0.2736 -0.4618  0.9217
 5587SOL    HW228224   1.275   3.140   8.725 -0.0922 -0.8590 -2.0977
 5588SOL     OW28225   3.052   2.013   4.017  0.0525  0.0911  0.1104
 5588SOL    HW128226   2.964   2.008   4.053 -0.5475  2.4889 -0.9920
 5588SOL    HW228227   3.058   1.920   3.995 -3.2536 -0.3371  1.0377
 5589SOL     OW28228   3.827   4.347   4.444 -0.5711  0.3367  0.1477
 5589SOL    HW128229   3.910   4.333   4.491  0.6897 -0.0756 -2.1938
 5589SOL    HW228230   3.828   4.277   4.378  1.2305  1.3571 -0.9328
 5590SOL     OW28231   0.151   1.927   8.860 -0.0494 -0.2085  0.1286
 5590SOL    HW128232   0.245   1.924   8.882 -0.2251 -1.9442  0.6813
 5590SOL    HW228233   0.139   1.832   8.864  3.6203 -0.6397  1.3163
 5591SOL     OW28234   0.284   3.054   0.636  0.3664 -0.8155 -1.0436
 5591SOL    HW128235   0.216   3.019   0.578 -1.4461  2.2874 -0.7920
 5591SOL    HW228236   0.232   3.077   0.712  1.0362 -0.2828 -0.7477
 5592SOL     OW28237   1.323   2.501  11.434 -0.4660 -0.8194  0.0386
 5592SOL    HW128238   1.410   2.469  11.457 -0.1067 -1.2933 -2.0034
 5592SOL    HW228239   1.260   2.438  11.469 -0.2427 -1.3991 -0.5953
 5593SOL     OW28240   3.876   3.641  14.796  0.3232 -0.0095 -0.2519
 5593SOL    HW128241   3.869   3.729  14.759 -2.4932  0.0553  0.4810
 5593SOL    HW228242   3.882   3.578  14.724 -1.5939  2.2122 -2.3394
 5594SOL     OW28243   2.013   3.475   4.815 -0.5572  0.0020 -0.3408
 5594SOL    HW128244   2.074   3.530   4.766  0.0860  1.2067  1.7833
 5594SOL    HW228245   1.934   3.480   4.763 -1.1387  0.2169  0.5564
 5595SOL     OW28246   1.745   4.468   8.110  0.7440  0.0186 -0.1972
 5595SOL    HW128247   1.763   4.529   8.039  1.7954 -1.1546 -0.9526
 5595SOL    HW228248   1.835   4.451   8.138  0.0142 -0.9150  1.5582
 5596SOL     OW28249   3.022   0.697   1.438 -0.0091 -0.6402 -0.2075
 5596SOL    HW128250   3.025   0.792   1.424 -0.6251 -0.5950 -0.0202
 5596SOL    HW228251   3.066   0.691   1.523 -1.0049  0.5307  0.3945
 5597SOL     OW28252   3.324   4.068   5.747  0.0477  0.3340 -0.0623
 5597SOL    HW128253   3.370   4.045   5.828 -2.1112  1.6872  1.5505
 5597SOL    HW228254   3.262   3.997   5.735  1.1138 -0.5760 -0.1768
 5598SOL     OW28255   4.251   1.312   8.410  0.0599 -0.2628  0.1144
 5598SOL    HW128256   4.207   1.364   8.477  1.8764 -0.2647  1.3223
 5598SOL    HW228257   4.341   1.341   8.426  0.1247 -0.8512  0.8323
 5599SOL     OW28258   1.471   2.803  11.947 -0.6415  0.0304  0.2892
 5599SOL    HW128259   1.389   2.776  11.989 -1.4261  0.4256 -0.9906
 5599SOL    HW228260   1.493   2.729  11.889 -2.0372  1.0888 -1.6143
 5600SOL     OW28261   2.083   1.982  10.380 -0.6150 -0.1198 -0.1405
 5600SOL    HW128262   2.123   1.931  10.450  1.1475  0.1214 -0.9757
 5600SOL    HW228263   2.004   1.928  10.367 -1.4834  1.1265 -0.0133
 5601SOL     OW28264   2.247   0.794   6.440  0.3183 -0.1086  0.1490
 5601SOL    HW128265   2.257   0.744   6.359  0.4994 -0.2563  0.2626
 5601SOL    HW228266   2.293   0.877   6.426 -0.6457  0.2798 -0.6719
 5602SOL     OW28267   2.383   0.090   6.282  0.4635 -0.4647 -0.1524
 5602SOL    HW128268   2.445   0.021   6.304  2.7700  2.0504  1.1596
 5602SOL    HW228269   2.435   0.170   6.293  1.0446 -0.5994 -1.9384
 5603SOL     OW28270   0.661   1.169   3.954  0.2346 -0.1192 -0.3051
 5603SOL    HW128271   0.671   1.229   4.028  0.3090 -2.1056  1.2885
 5603SOL    HW228272   0.581   1.126   3.984 -0.5837  0.5435 -1.5685
 5604SOL     OW28273   1.304   4.150   8.021  0.2694 -0.7182 -0.1348
 5604SOL    HW128274   1.348   4.133   8.105  0.1562 -1.6558 -0.2695
 5604SOL    HW228275   1.371   4.185   7.962  0.2113 -0.5740 -0.1135
 5605SOL     OW28276   0.949   2.912   8.823 -0.3189 -0.6990 -0.5985
 5605SOL    HW128277   0.899   2.938   8.901  0.8495  1.0848 -0.4651
 5605SOL    HW228278   1.001   2.833   8.840  1.6691  1.0239  1.2739
 5606SOL     OW28279   4.148   4.465   1.811  0.1260  0.1489 -0.1188
 5606SOL    HW128280   4.167   4.387   1.864  2.2955  1.5167  1.1291
 5606SOL    HW228281   4.066   4.433   1.774 -1.1510  2.0163  1.1262
 5607SOL     OW28282   0.765   2.298   7.528 -0.3637  0.6394 -0.6416
 5607SOL    HW128283   0.730   2.211   7.507  0.5285  0.7656 -2.6442
 5607SOL    HW228284   0.697   2.327   7.589  0.8419  0.2861  0.8768
 5608SOL     OW28285   2.937   0.737   6.698 -0.0279 -0.0765  0.9289
 5608SOL    HW128286   2.914   0.659   6.648 -1.3887  0.5028  0.6609
 5608SOL    HW228287   3.027   0.751   6.669 -1.3953  2.2590 -2.1637
 5609SOL     OW28288   1.731   3.952   9.764 -0.2568  0.1317 -0.2773
 5609SOL    HW128289   1.823   3.936   9.785 -0.0325  0.5376 -0.9641
 5609SOL    HW228290   1.686   3.938   9.848  2.6101  1.2291  1.4486
 5610SOL     OW28291   2.535   2.846   8.498 -0.5047  0.2785  0.2759
 5610SOL    HW128292   2.550   2.939   8.479 -2.4324  0.6065  0.3851
 5610SOL    HW228293   2.580   2.807   8.423 -0.5487 -0.7029  0.7712
 5611SOL     OW28294   1.709   1.070   8.726 -0.5584  0.1825 -0.1426
 5611SOL    HW128295   1.658   1.146   8.753  0.9617  0.6567  1.4290
 5611SOL    HW228296   1.738   1.096   8.638 -1.1571  0.2571 -0.3167
 5612SOL     OW28297   2.217   2.187   8.744  0.4635 -0.1092  0.3868
 5612SOL    HW128298   2.166   2.268   8.755  0.8337  0.1382  0.2982
 5612SOL    HW228299   2.148   2.123   8.760 -0.1444  0.2950 -0.5820
 5613SOL     OW28300   4.420   2.922   9.099  0.2563 -0.0275  0.1763
 5613SOL    HW128301   4.355   2.911   9.168 -1.3926  1.2559 -1.1387
 5613SOL    HW228302   4.403   3.010   9.064  0.9174  0.0188 -0.0170
 5614SOL     OW28303   1.997   1.772   1.089 -0.8942 -0.5122  0.2850
 5614SOL    HW128304   1.999   1.841   1.155 -2.4340  0.3732 -0.5895
 5614SOL    HW228305   2.091   1.758   1.082 -0.7707 -0.2598  1.5098
 5615SOL     OW28306   0.263   0.588   6.724  0.1832 -0.6383  0.4408
 5615SOL    HW128307   0.248   0.571   6.631  0.4650  1.1199  0.0675
 5615SOL    HW228308   0.353   0.557   6.729 -0.3453 -2.2759 -0.0817
 5616SOL     OW28309   4.006   1.613  16.705  0.2087 -0.5008 -0.2367
 5616SOL    HW128310   3.984   1.684  16.644 -0.5813 -0.1544  0.4558
 5616SOL    HW228311   4.045   1.551  16.644  1.6704  0.3662 -0.1778
 5617SOL     OW28312   2.061   3.320  10.234  0.1160  0.3486  0.0787
 5617SOL    HW128313   2.071   3.405  10.276 -0.0191 -0.9514  2.7407
 5617SOL    HW228314   2.030   3.268  10.309 -0.0076 -0.6056 -0.6264
 5618SOL     OW28315   0.392   1.416   4.810 -0.4967  0.3075 -0.4081
 5618SOL    HW128316   0.345   1.351   4.863  0.0828 -0.3474 -0.7099
 5618SOL    HW228317   0.376   1.380   4.723 -2.0863 -1.2964  0.5498
 5619SOL     OW28318   0.163   4.671   0.355 -0.1553  0.3476  0.3840
 5619SOL    HW128319   0.237   4.626   0.313 -0.5482  0.6923 -0.6933
 5619SOL    HW228320   0.199   0.037   0.373 -2.0442  0.9745  1.2050
 5620SOL     OW28321   4.310   2.684  11.767 -0.1947  0.5615 -0.2233
 5620SOL    HW128322   4.302   2.764  11.715 -1.6308  1.5517  1.5300
 5620SOL    HW228323   4.310   2.728  11.852 -0.6702 -0.9875  0.5821
 5621SOL     OW28324   2.261   0.975   8.904 -0.2142  0.0835 -0.5330
 5621SOL    HW128325   2.249   0.938   8.816  0.1162 -2.9522  0.6759
 5621SOL    HW228326   2.254   0.893   8.953  2.1146 -0.4052 -1.0013
 5622SOL     OW28327   4.255   3.030   2.278 -0.5508 -0.1290  0.2969
 5622SOL    HW128328   4.312   2.996   2.210 -4.2345 -1.7332 -1.9752
 5622SOL    HW228329   4.276   2.974   2.353 -2.3629 -1.1146  0.0606
 5623SOL     OW28330   0.222   1.472   6.180  0.2922  0.0912 -0.3633
 5623SOL    HW128331   0.308   1.453   6.218  0.6786 -0.3671 -1.4567
 5623SOL    HW228332   0.216   1.413   6.105  0.8845 -0.1128 -0.2505
 5624SOL     OW28333   2.371   4.509   3.906  0.6067 -0.3367 -0.1682
 5624SOL    HW128334   2.344   4.508   3.814  0.2531  2.4296 -0.0755
 5624SOL    HW228335   2.289   4.515   3.954  0.3870  3.8091 -1.0827
 5625SOL     OW28336   1.958   0.811   6.865 -0.1839  0.4188  0.1195
 5625SOL    HW128337   2.010   0.885   6.836 -0.5936  1.0898  1.0945
 5625SOL    HW228338   2.001   0.794   6.949 -1.7914 -0.8642  0.6855
 5626SOL     OW28339   2.328   4.228   0.240 -0.0874 -0.0905 -0.4554
 5626SOL    HW128340   2.274   4.285   0.295 -1.9983 -0.8367 -1.5657
 5626SOL    HW228341   2.294   4.248   0.153  0.3399  1.6836 -0.2141
 5627SOL     OW28342   2.445   3.888   4.229 -0.6592 -0.0971  0.2361
 5627SOL    HW128343   2.395   3.966   4.254 -1.9905 -0.2543 -1.8758
 5627SOL    HW228344   2.476   3.920   4.144  1.9878  2.0839  2.0182
 5628SOL     OW28345   2.855   2.831  13.306  1.1221 -0.6667 -0.3861
 5628SOL    HW128346   2.915   2.868  13.242 -1.6393 -0.2410 -2.7399
 5628SOL    HW228347   2.773   2.868  13.273 -0.4042 -4.3901 -0.8247
 5629SOL     OW28348   4.510   0.363   4.010 -0.0506 -0.1486 -0.4069
 5629SOL    HW128349   4.415   0.360   4.022 -0.2557  0.2105 -1.9045
 5629SOL    HW228350   4.521   0.286   3.953  0.2616 -0.2888 -0.1560
 5630SOL     OW28351   3.315   3.975   2.237 -0.2832 -0.4915 -0.1138
 5630SOL    HW128352   3.352   3.897   2.278  2.7076  0.4500 -0.9740
 5630SOL    HW228353   3.388   3.996   2.178 -2.1086 -0.9808 -2.5453
 5631SOL     OW28354   1.453   1.808   7.285  0.3691  0.1387  0.3428
 5631SOL    HW128355   1.433   1.731   7.232 -1.1570  0.7734  0.0064
 5631SOL    HW228356   1.485   1.860   7.211 -1.6447 -0.3896 -0.8873
 5632SOL     OW28357   3.417   1.282   5.940  0.2785  0.6539  0.4154
 5632SOL    HW128358   3.473   1.277   5.863 -1.4684  0.5246 -0.8471
 5632SOL    HW228359   3.493   1.305   5.994 -0.5542 -3.2066  3.2548
 5633SOL     OW28360   0.787   0.668  13.103 -0.2757  0.3446 -0.3864
 5633SOL    HW128361   0.701   0.638  13.132 -0.5417  0.0312 -1.4706
 5633SOL    HW228362   0.784   0.680  13.008 -0.8078  1.5074 -0.2182
 5634SOL     OW28363   2.650   4.285   4.517  0.0100  0.0264 -0.1392
 5634SOL    HW128364   2.585   4.354   4.507  0.7393  0.9453  1.6310
 5634SOL    HW228365   2.716   4.309   4.452 -1.4772  1.0783 -1.2617
 5635SOL     OW28366   4.039   2.457   5.427 -0.3667  0.5495  0.6023
 5635SOL    HW128367   4.099   2.491   5.494 -1.0508 -0.4642  1.7226
 5635SOL    HW228368   4.063   2.525   5.364  0.3421  0.9767  1.3339
 5636SOL     OW28369   1.371   3.245   1.138  0.0820  0.0452  0.0676
 5636SOL    HW128370   1.327   3.295   1.208 -0.4668 -2.2278  1.3652
 5636SOL    HW228371   1.428   3.314   1.106 -0.8327  0.7877  0.0250
 5637SOL     OW28372   2.164   2.888   5.274  0.3314  0.6311 -0.0951
 5637SOL    HW128373   2.127   2.940   5.202  1.4483 -0.2067 -1.2782
 5637SOL    HW228374   2.187   2.805   5.232 -0.2126  0.6973 -0.5279
 5638SOL     OW28375   0.209   2.917   3.392 -0.4187  0.0641 -0.1510
 5638SOL    HW128376   0.151   2.889   3.463 -2.2050  0.7078 -1.3628
 5638SOL    HW228377   0.253   2.837   3.365 -2.8274 -0.4756 -2.4582
 5639SOL     OW28378   2.047   2.402   9.885 -0.2397 -0.0903 -0.4260
 5639SOL    HW128379   2.049   2.322   9.937  1.4311  0.3808  0.2430
 5639SOL    HW228380   1.953   2.405   9.866 -0.3975  1.3066  0.5446
 5640SOL     OW28381   1.361   1.497   6.639 -0.2945 -0.2545  0.1983
 5640SOL    HW128382   1.357   1.402   6.629  0.5290 -0.3894  1.1378
 5640SOL    HW228383   1.276   1.509   6.597 -1.3468  1.1350  2.7335
 5641SOL     OW28384   0.399   3.776   5.077  0.6693 -0.1876 -0.3535
 5641SOL    HW128385   0.488   3.772   5.042  0.8609  0.3371  0.0651
 5641SOL    HW228386   0.347   3.736   5.008 -0.1521 -3.5261  2.2102
 5642SOL     OW28387   0.801   3.922   8.768  0.3239  1.0750 -0.2384
 5642SOL    HW128388   0.892   3.915   8.795 -0.0353  0.2856  0.7806
 5642SOL    HW228389   0.816   3.961   8.682 -1.0480  0.9449 -0.5371
 5643SOL     OW28390   2.851   0.914   4.255  0.5148  0.0375 -0.5101
 5643SOL    HW128391   2.842   0.956   4.170 -0.7927  3.0982  1.1314
 5643SOL    HW228392   2.770   0.864   4.263 -0.1201  1.0270 -0.7486
 5644SOL     OW28393   4.390   1.697  13.913 -0.5573 -0.1148  0.0092
 5644SOL    HW128394   4.415   1.616  13.957 -1.9544 -1.2410 -1.2527
 5644SOL    HW228395   4.467   1.752  13.930  0.1254 -0.9032 -0.5267
 5645SOL     OW28396   4.694   3.610   7.310  0.4673 -0.4178  0.3093
 5645SOL    HW128397   4.662   3.619   7.400 -1.4429 -1.6868 -0.2551
 5645SOL    HW228398   0.002   3.700   7.290  0.0271 -0.6297 -1.2417
 5646SOL     OW28399   1.838   3.151   7.506  0.4684 -0.0867  0.6998
 5646SOL    HW128400   1.810   3.166   7.416  1.3015  0.1694  0.4851
 5646SOL    HW228401   1.927   3.176   7.482 -0.0799 -0.7345 -1.9324
 5647SOL     OW28402   0.075   1.535   5.615  0.3006 -0.4197  0.2136
 5647SOL    HW128403   0.108   1.625   5.609 -3.6924  1.1105  1.1847
 5647SOL    HW228404   0.077   1.523   5.710  0.7812 -3.6363 -0.2205
 5648SOL     OW28405   1.740   2.293  10.047 -0.1977  0.3145  1.4009
 5648SOL    HW128406   1.667   2.330   9.998  2.7714  3.0663 -0.9821
 5648SOL    HW228407   1.754   2.208  10.003 -1.0630  1.2315 -0.6396
 5649SOL     OW28408   4.435   1.029   1.499 -0.1073  0.2619  0.5521
 5649SOL    HW128409   4.359   1.005   1.445 -0.8204 -0.0322  1.6958
 5649SOL    HW228410   4.385   1.081   1.562 -0.1500  1.6740 -0.6274
 5650SOL     OW28411   1.309   2.673   0.424  0.1891  0.7046 -0.0490
 5650SOL    HW128412   1.378   2.702   0.483  0.6141  0.2373 -0.3139
 5650SOL    HW228413   1.253   2.627   0.486  1.4962 -2.9573 -1.5894
 5651SOL     OW28414   2.762   4.196   6.215 -0.1893  0.1801  0.6276
 5651SOL    HW128415   2.743   4.103   6.226 -0.9597  0.2138 -0.4130
 5651SOL    HW228416   2.675   4.233   6.197  0.0552 -1.4109 -3.8327
 5652SOL     OW28417   1.138   0.075   3.862 -0.4466  0.1477  0.1006
 5652SOL    HW128418   1.083   0.146   3.895 -1.6928 -1.1386  0.7728
 5652SOL    HW228419   1.192   0.120   3.796 -2.0454  0.0603 -1.2728
 5653SOL     OW28420   3.322   2.155   0.400 -0.2820 -0.2256  0.1912
 5653SOL    HW128421   3.404   2.108   0.419 -0.4304 -0.5896 -0.0749
 5653SOL    HW228422   3.265   2.080   0.382  2.2621 -2.0167 -0.4667
 5654SOL     OW28423   0.408   3.362  17.014 -0.3542  0.1602 -0.2930
 5654SOL    HW128424   0.324   3.319  16.996 -2.0859  3.1985  0.5022
 5654SOL    HW228425   0.460   3.296  16.970 -3.5714 -1.2690 -1.9833
 5655SOL     OW28426   3.402   3.059   8.029  0.3302  0.1213  0.5793
 5655SOL    HW128427   3.378   3.031   7.941  2.0139 -0.4650  0.2997
 5655SOL    HW228428   3.464   3.130   8.010 -0.8224  0.6213 -1.3076
 5656SOL     OW28429   2.796   1.255   5.528  0.1682 -0.4368  0.3138
 5656SOL    HW128430   2.834   1.250   5.615  3.0363 -1.3793 -0.9633
 5656SOL    HW228431   2.764   1.344   5.537 -0.8408 -0.6187 -1.4561
 5657SOL     OW28432   3.948   2.552   8.763 -0.4321 -0.3777 -0.4296
 5657SOL    HW128433   3.947   2.551   8.859 -1.0352  1.4583 -0.4136
 5657SOL    HW228434   3.861   2.590   8.751  0.8018  2.2173 -1.1370
 5658SOL     OW28435   4.338   3.540   3.886  0.0616  0.3807 -0.2210
 5658SOL    HW128436   4.260   3.596   3.895  1.4755  2.0715  1.4402
 5658SOL    HW228437   4.289   3.461   3.863 -0.3977  0.9201 -1.0929
 5659SOL     OW28438   3.227   2.284   7.677  0.0333 -0.8481 -0.0734
 5659SOL    HW128439   3.231   2.375   7.710  0.3600 -0.3957 -1.3845
 5659SOL    HW228440   3.299   2.250   7.730 -0.1584 -1.0527  0.0557
 5660SOL     OW28441   4.272   4.637   1.625 -0.0376 -0.2735  0.6036
 5660SOL    HW128442   4.362   4.607   1.633 -0.5299 -1.7159  0.7722
 5660SOL    HW228443   4.227   4.585   1.693  0.9567 -1.1893  0.5597
 5661SOL     OW28444   2.077   3.628   5.261  0.6080  0.2904  0.2521
 5661SOL    HW128445   2.029   3.597   5.337 -1.8621  2.2103 -0.5066
 5661SOL    HW228446   2.111   3.716   5.274 -1.1932  1.2357 -1.4190
 5662SOL     OW28447   0.203   3.902  14.235  0.5235 -0.1961  0.2650
 5662SOL    HW128448   0.200   3.968  14.304  0.0905 -0.9693  0.9957
 5662SOL    HW228449   0.177   3.948  14.156  1.0742  1.1852  0.8881
 5663SOL     OW28450   0.489   3.204   7.819 -0.0707  0.4320 -0.0212
 5663SOL    HW128451   0.532   3.247   7.893  1.1085  0.0620 -0.5002
 5663SOL    HW228452   0.510   3.260   7.745  1.8453 -1.9544 -1.2723
 5664SOL     OW28453   1.064   0.316  17.535  0.5207 -0.4880  0.7307
 5664SOL    HW128454   0.989   0.343  17.589  0.1621 -1.3589  0.6856
 5664SOL    HW228455   1.033   0.334  17.446 -0.8790 -1.2937  1.0482
 5665SOL     OW28456   1.443   4.001   8.628  0.0676 -0.6816  0.1598
 5665SOL    HW128457   1.470   4.092   8.616 -3.7499  0.9055  3.1660
 5665SOL    HW228458   1.527   3.955   8.630 -0.3130 -1.4200 -1.1929
 5666SOL     OW28459   1.947   0.934  11.225  0.2033 -0.3815 -0.3746
 5666SOL    HW128460   1.975   0.949  11.135 -1.4319 -0.1508 -0.8426
 5666SOL    HW228461   1.852   0.930  11.221  0.1841 -1.2922  0.9683
 5667SOL     OW28462   3.072   3.778   3.571  0.6046  0.2838  0.1395
 5667SOL    HW128463   3.076   3.739   3.658  1.1769 -0.9917 -0.4437
 5667SOL    HW228464   3.105   3.865   3.591 -0.2718  0.0439  2.6342
 5668SOL     OW28465   3.468   0.007   2.333  0.4507 -0.1795 -0.0310
 5668SOL    HW128466   3.489   4.699   2.422  1.9171 -0.4484 -0.4574
 5668SOL    HW228467   3.552   0.046   2.309  0.1303  1.2036  1.0687
 5669SOL     OW28468   3.428   3.179   8.903 -0.1189  0.7630 -0.5656
 5669SOL    HW128469   3.403   3.267   8.933  0.4893  0.7013  0.1258
 5669SOL    HW228470   3.408   3.190   8.810  0.9177  0.7726 -0.7824
 5670SOL     OW28471   2.176   0.091   4.101 -0.1797  0.2334 -0.5777
 5670SOL    HW128472   2.174   0.014   4.159  1.2853  0.7894  0.2113
 5670SOL    HW228473   2.169   0.053   4.013  0.2144  0.6551 -0.7888
 5671SOL     OW28474   1.233   2.351   3.645  0.8501  0.2028  0.0604
 5671SOL    HW128475   1.278   2.273   3.676  0.2004 -0.7149 -1.3360
 5671SOL    HW228476   1.244   2.418   3.712  1.1806  0.5316 -0.3208
 5672SOL     OW28477   3.368   1.322  10.540  0.4439 -0.3222 -0.2546
 5672SOL    HW128478   3.438   1.380  10.570  1.2464 -1.5190  0.1802
 5672SOL    HW228479   3.358   1.363  10.454  0.3737 -2.2780 -1.1867
 5673SOL     OW28480   0.851   3.604   4.396  0.5124 -0.3252  0.1953
 5673SOL    HW128481   0.879   3.677   4.341  0.7542  0.6356  1.5996
 5673SOL    HW228482   0.808   3.643   4.471 -0.6364  3.3429 -2.3503
 5674SOL     OW28483   4.188   2.440   8.667  0.4590  0.1473  0.1270
 5674SOL    HW128484   4.116   2.468   8.723  0.6709  1.0386 -0.0399
 5674SOL    HW228485   4.179   2.346   8.678 -1.3796 -0.2260 -4.5389
 5675SOL     OW28486   1.535   2.511  10.257  0.4005 -0.2052 -0.3656
 5675SOL    HW128487   1.556   2.604  10.249 -0.1105 -0.1538 -1.0872
 5675SOL    HW228488   1.529   2.499  10.162  2.5266 -0.8165 -0.4184
 5676SOL     OW28489   1.480   3.917   4.587 -0.0135 -0.0535  0.5731
 5676SOL    HW128490   1.500   3.851   4.653 -0.4533 -1.1376 -0.3865
 5676SOL    HW228491   1.475   3.858   4.512 -0.0793  0.2640  0.3277
 5677SOL     OW28492   3.268   3.052   9.446  0.4514 -0.2385  0.0528
 5677SOL    HW128493   3.172   3.060   9.444  0.5765  1.2768  0.4939
 5677SOL    HW228494   3.298   3.143   9.445  0.0428 -0.0857  1.6922
 5678SOL     OW28495   2.143   3.399   3.494  0.2496  0.2028  0.0991
 5678SOL    HW128496   2.161   3.384   3.401  4.7949 -2.6111  1.4227
 5678SOL    HW228497   2.197   3.478   3.493  3.1816 -1.7962 -1.3508
 5679SOL     OW28498   0.889   3.066  16.838 -0.0597 -0.0203  0.7556
 5679SOL    HW128499   0.864   3.137  16.780 -2.4031  0.5337  2.4531
 5679SOL    HW228500   0.880   3.109  16.922  0.8778  1.6842 -0.0223
 5680SOL     OW28501   4.348   2.518   6.916  0.0716 -0.3652  0.1855
 5680SOL    HW128502   4.333   2.434   6.873 -0.3311  0.0627 -0.5118
 5680SOL    HW228503   4.443   2.510   6.923  0.1804 -0.0310 -0.9604
 5681SOL     OW28504   4.157   1.573   1.546 -0.0130  0.5632 -0.0347
 5681SOL    HW128505   4.177   1.547   1.636 -0.7443 -1.5847 -0.4898
 5681SOL    HW228506   4.169   1.485   1.509  1.1497  0.1833  1.2512
 5682SOL     OW28507   0.927   2.467   1.492 -0.8564 -0.1775 -0.3119
 5682SOL    HW128508   0.866   2.475   1.565 -1.4389  1.6260 -1.0012
 5682SOL    HW228509   0.870   2.459   1.416 -2.1098  1.7182  0.4378
 5683SOL     OW28510   3.877   0.085   5.221  0.0102  0.9669  0.8929
 5683SOL    HW128511   3.811   0.105   5.156 -0.8934  0.7669  1.7432
 5683SOL    HW228512   3.863   4.716   5.250  2.9784 -0.9649 -3.7561
 5684SOL     OW28513   2.704   1.895   7.073 -0.0597  0.8302  0.1373
 5684SOL    HW128514   2.770   1.958   7.044  1.9574 -0.4932  1.8117
 5684SOL    HW228515   2.633   1.946   7.111  1.4488  2.8732  0.1824
 5685SOL     OW28516   2.876   4.623  10.150 -0.9996 -0.1182  0.4244
 5685SOL    HW128517   2.905   4.712  10.133 -0.6725 -0.2438  0.3191
 5685SOL    HW228518   2.821   4.637  10.227 -0.8144 -0.5590  0.6388
 5686SOL     OW28519   0.749   3.368   9.573  0.0083 -0.5044 -0.6922
 5686SOL    HW128520   0.667   3.407   9.543  0.0356 -0.6765 -0.9951
 5686SOL    HW228521   0.743   3.376   9.668 -0.5773 -0.9868 -0.6925
 5687SOL     OW28522   0.047   1.740   8.205 -0.2440  0.0608 -0.6454
 5687SOL    HW128523   0.086   1.819   8.244 -2.5013  1.1932 -0.7009
 5687SOL    HW228524   0.071   1.683   8.277  0.0890  0.0072 -0.7977
 5688SOL     OW28525   3.178   4.054   4.444  0.0374 -0.5544 -0.2615
 5688SOL    HW128526   3.199   4.143   4.471 -0.4092 -1.1004  1.9232
 5688SOL    HW228527   3.091   4.045   4.484  0.7014  0.9883  1.5432
 5689SOL     OW28528   1.448   2.478   7.201  0.2286  0.1625 -0.6094
 5689SOL    HW128529   1.379   2.432   7.248  0.7296 -0.8530 -0.8684
 5689SOL    HW228530   1.447   2.429   7.118  2.9829 -2.4999  0.9626
 5690SOL     OW28531   1.300   1.905   7.040 -0.7312 -0.0220 -0.0873
 5690SOL    HW128532   1.249   1.986   7.033 -0.0999  0.5221  1.6018
 5690SOL    HW228533   1.391   1.929   7.054 -0.1426 -1.5510 -1.2611
 5691SOL     OW28534   0.884   2.150  12.111 -0.8454 -0.5871 -0.4438
 5691SOL    HW128535   0.874   2.056  12.130 -0.4790 -0.9479 -2.0297
 5691SOL    HW228536   0.947   2.146  12.039 -0.1118  1.3963  0.0769
 5692SOL     OW28537   1.516   1.672   1.083  0.1952 -0.7264  0.4880
 5692SOL    HW128538   1.596   1.687   1.032 -0.1962 -1.6927 -0.4342
 5692SOL    HW228539   1.553   1.633   1.162 -1.2076  0.1388  1.5765
 5693SOL     OW28540   1.197   2.274   2.764 -0.1280  0.0266 -0.2134
 5693SOL    HW128541   1.147   2.276   2.682 -1.5305  0.6215  0.6606
 5693SOL    HW228542   1.235   2.359   2.784  1.8344 -0.8153 -0.4025
 5694SOL     OW28543   4.343   0.346   1.844 -0.0808 -0.8436  0.0593
 5694SOL    HW128544   4.418   0.385   1.888  0.3032 -2.2948  0.6998
 5694SOL    HW228545   4.319   0.289   1.917 -2.6093 -2.4457 -2.0144
 5695SOL     OW28546   1.379   0.070   4.591  0.1933  0.0978 -0.3170
 5695SOL    HW128547   1.328   0.022   4.656  1.6736 -0.6618  0.2796
 5695SOL    HW228548   1.343   0.157   4.605  1.7579  0.6982 -0.0497
 5696SOL     OW28549   1.424   0.929   1.747 -0.1024 -0.3836  0.2035
 5696SOL    HW128550   1.371   1.008   1.741  1.0305  0.1018 -3.9599
 5696SOL    HW228551   1.380   0.877   1.679 -0.3516  1.2910 -0.8954
 5697SOL     OW28552   4.360   3.438   2.655  0.1561 -0.0756  0.8370
 5697SOL    HW128553   4.284   3.428   2.711 -1.6441  0.5583 -1.5001
 5697SOL    HW228554   4.323   3.422   2.568  0.2549  0.8469  0.6320
 5698SOL     OW28555   1.185   4.696   1.669 -0.1861 -0.0849  0.7828
 5698SOL    HW128556   1.279   4.684   1.654 -0.0424  0.6756  1.0723
 5698SOL    HW228557   1.157   4.613   1.630  0.9156 -0.4021  0.6772
 5699SOL     OW28558   2.414   3.337  11.642 -0.5931 -0.0104  0.6358
 5699SOL    HW128559   2.322   3.324  11.666  0.2406 -1.5608  2.9999
 5699SOL    HW228560   2.415   3.428  11.611  2.3573 -0.4792 -0.5660
 5700SOL     OW28561   3.771   2.955  13.307 -0.0307 -0.1943  0.3824
 5700SOL    HW128562   3.707   2.928  13.241 -0.5345 -0.6884  1.0859
 5700SOL    HW228563   3.772   3.051  13.305 -1.1653 -0.1782  0.3899
 5701SOL     OW28564   2.858   2.703  13.003 -0.3746 -0.0998 -0.2201
 5701SOL    HW128565   2.892   2.625  13.047 -1.5249  0.0860  0.9882
 5701SOL    HW228566   2.775   2.727  13.044  0.0810 -1.0201  1.2426
 5702SOL     OW28567   1.983   0.905   5.256  0.4006  0.5866  0.1902
 5702SOL    HW128568   1.977   0.832   5.195 -0.9031  0.0128  0.9915
 5702SOL    HW228569   2.077   0.906   5.276  0.4046 -1.1837  0.3404
 5703SOL     OW28570   0.754   1.264   5.690 -0.1304  0.6737  0.0286
 5703SOL    HW128571   0.793   1.181   5.662 -3.3219 -0.6300 -0.5736
 5703SOL    HW228572   0.745   1.247   5.784 -0.3101 -1.6963 -0.4325
 5704SOL     OW28573   1.711   1.160  10.357  0.2156 -0.7332  0.0559
 5704SOL    HW128574   1.632   1.123  10.316  0.3912  0.1467 -1.0748
 5704SOL    HW228575   1.672   1.228  10.412  1.6626 -1.0712  1.4962
 5705SOL     OW28576   4.123   3.726   6.992 -0.7227  0.1810 -0.0844
 5705SOL    HW128577   4.033   3.720   7.024 -0.4589  0.6106  0.7391
 5705SOL    HW228578   4.172   3.719   7.074 -0.8803  0.8541  0.0683
 5706SOL     OW28579   4.419   2.164   1.366  0.1088  0.5606 -0.3016
 5706SOL    HW128580   4.331   2.159   1.403 -0.3046  0.8615 -1.2393
 5706SOL    HW228581   4.464   2.106   1.428  4.0587  0.1879 -3.5347
 5707SOL     OW28582   0.082   3.678  10.086 -0.4665  0.2508  0.2527
 5707SOL    HW128583   0.005   3.732  10.105  0.5191  1.8402 -0.3278
 5707SOL    HW228584   0.158   3.723  10.122  0.5454 -0.4214 -1.0753
 5708SOL     OW28585   2.043   3.104   9.563 -0.3014  0.2541  0.0970
 5708SOL    HW128586   2.013   3.194   9.555 -1.6978 -0.2714 -0.4925
 5708SOL    HW228587   2.091   3.110   9.646 -0.2054 -0.4430  0.0888
 5709SOL     OW28588   0.992   1.297   4.377 -0.4740 -0.3035 -0.3232
 5709SOL    HW128589   1.000   1.352   4.299 -0.3048 -0.7914 -0.6474
 5709SOL    HW228590   1.007   1.360   4.447 -2.2851 -2.4564  1.9873
 5710SOL     OW28591   0.765   2.496   5.061  0.2506 -1.0097 -0.0699
 5710SOL    HW128592   0.787   2.403   5.060  2.1060 -0.5595 -0.8913
 5710SOL    HW228593   0.853   2.529   5.076 -1.0295  1.9699  0.9616
 5711SOL     OW28594   0.896   4.385   1.326 -0.1662 -0.0125  0.0940
 5711SOL    HW128595   0.830   4.317   1.341 -0.4078  0.2095  0.0404
 5711SOL    HW228596   0.972   4.333   1.353  0.6946  1.6527  0.8636
 5712SOL     OW28597   3.706   2.761   2.099 -0.6677 -0.1271 -0.7263
 5712SOL    HW128598   3.725   2.839   2.151 -2.9517 -1.5254  2.1855
 5712SOL    HW228599   3.791   2.719   2.085 -0.4790  0.0822 -0.1913
 5713SOL     OW28600   3.649   3.612   8.036  0.7516  0.1095  0.7861
 5713SOL    HW128601   3.616   3.647   8.119  0.8160 -3.1170  2.1673
 5713SOL    HW228602   3.657   3.521   8.065 -1.1355  0.0829  1.2174
 5714SOL     OW28603   2.800   0.820   2.852  0.5881 -0.9249 -0.2155
 5714SOL    HW128604   2.859   0.747   2.833  1.5808  0.2548 -1.7101
 5714SOL    HW228605   2.846   0.852   2.929  1.8063 -0.5911 -1.0733
 5715SOL     OW28606   0.635   2.639   6.219 -1.3204 -0.4358  0.1545
 5715SOL    HW128607   0.721   2.643   6.177 -1.4315  2.1337  0.2060
 5715SOL    HW228608   0.647   2.702   6.290 -0.3236 -0.6593  0.1881
 5716SOL     OW28609   0.314   3.135  17.615  0.6048 -0.5567 -0.0946
 5716SOL    HW128610   0.343   3.049  17.647  1.3225  0.1627  1.1794
 5716SOL    HW228611   0.389   3.184  17.648 -0.5026  1.8674 -1.2213
 5717SOL     OW28612   0.592   0.992   4.373 -0.5507  0.0643 -0.1221
 5717SOL    HW128613   0.520   1.047   4.404  0.3285  1.0309  0.2397
 5717SOL    HW228614   0.658   1.002   4.443 -1.9371 -0.9859  1.3375
 5718SOL     OW28615   1.184   0.891   2.183  0.0176  0.8018 -0.1831
 5718SOL    HW128616   1.233   0.969   2.159  2.9995 -0.9481  0.1611
 5718SOL    HW228617   1.245   0.823   2.212 -0.2077 -0.2665 -2.2332
 5719SOL     OW28618   0.898   0.825   6.186 -0.0549 -0.3590 -0.3715
 5719SOL    HW128619   0.922   0.869   6.104 -0.8096  1.3314  0.3065
 5719SOL    HW228620   0.973   0.767   6.201  0.3320  0.6966  1.7099
 5720SOL     OW28621   3.513   0.585  16.453 -0.7665  0.1758  0.3668
 5720SOL    HW128622   3.496   0.498  16.415 -0.3858  0.1696  0.2088
 5720SOL    HW228623   3.432   0.630  16.429 -1.2868  0.1085  1.9973
 5721SOL     OW28624   3.231   3.300  11.449 -0.0424 -0.3817 -0.0586
 5721SOL    HW128625   3.165   3.241  11.487 -1.6591  0.7174 -1.1730
 5721SOL    HW228626   3.205   3.303  11.357 -0.5183 -0.2653  0.0806
 5722SOL     OW28627   1.783   0.182  17.366 -0.1501  0.5903 -0.6650
 5722SOL    HW128628   1.845   0.204  17.297  1.9353  0.8773  1.3285
 5722SOL    HW228629   1.706   0.237  17.351 -0.9832 -0.3649  0.1459
 5723SOL     OW28630   2.932   4.230   6.977  0.0202 -0.2349  0.4445
 5723SOL    HW128631   2.937   4.170   6.902  1.3384 -0.0061  0.3445
 5723SOL    HW228632   2.842   4.231   7.009 -0.0878 -0.8416  0.1571
 5724SOL     OW28633   1.954   3.570   3.195 -0.3049 -0.4157  0.1171
 5724SOL    HW128634   1.890   3.617   3.249  0.3269 -0.5426  0.9895
 5724SOL    HW228635   1.993   3.509   3.258  0.0344  1.2814  1.5719
 5725SOL     OW28636   1.546   0.912  15.933 -0.3943 -0.0265 -0.2291
 5725SOL    HW128637   1.595   0.990  15.909 -0.2970 -0.5743 -1.7805
 5725SOL    HW228638   1.467   0.957  15.962  0.3479  2.6068 -2.3817
 5726SOL     OW28639   0.214   1.021  14.255  0.6683 -0.3484 -0.2883
 5726SOL    HW128640   0.300   1.061  14.264  0.6727 -0.6534  1.0446
 5726SOL    HW228641   0.168   1.094  14.214 -0.3616 -0.4674  0.6688
 5727SOL     OW28642   2.028   0.584  10.982  0.0632 -0.6968  0.2983
 5727SOL    HW128643   1.937   0.613  10.981 -0.2267 -1.5475  1.4489
 5727SOL    HW228644   2.023   0.513  10.917  1.3318  0.8960 -1.5201
 5728SOL     OW28645   0.828   2.831   3.195 -0.4033 -0.4689  0.4088
 5728SOL    HW128646   0.769   2.905   3.203 -0.3948 -0.3863 -0.2580
 5728SOL    HW228647   0.783   2.748   3.179  0.9554 -0.7799 -1.9400
 5729SOL     OW28648   3.347   0.725   6.399 -0.1737  0.2221  0.1676
 5729SOL    HW128649   3.431   0.765   6.424  1.9464 -2.9066 -1.8761
 5729SOL    HW228650   3.360   0.635   6.430 -0.8684  0.5047  1.2606
 5730SOL     OW28651   2.443   3.037  17.066  0.1389 -0.8350  0.2233
 5730SOL    HW128652   2.381   3.047  16.994  1.4704 -0.8133 -0.8998
 5730SOL    HW228653   2.380   3.043  17.139 -0.5787 -0.4671 -0.4244
 5731SOL     OW28654   4.364   2.813   6.746  0.4116  1.4251 -0.4724
 5731SOL    HW128655   4.304   2.888   6.740 -0.8591  0.6464  2.4693
 5731SOL    HW228656   4.387   2.814   6.653  1.1187  0.1317 -0.3086
 5732SOL     OW28657   2.409   4.131  17.191  0.2422 -0.2746 -0.1101
 5732SOL    HW128658   2.502   4.141  17.213  0.8248 -4.3291 -0.5835
 5732SOL    HW228659   2.409   4.106  17.099 -0.4359 -1.3410  0.1739
 5733SOL     OW28660   3.597   2.441  15.896  0.1094  0.0282 -0.1136
 5733SOL    HW128661   3.542   2.427  15.819  0.0229 -0.3639  0.0179
 5733SOL    HW228662   3.627   2.530  15.879  0.6679  0.1314  1.3809
 5734SOL     OW28663   0.759   0.400   3.218  0.4864 -0.3818  0.1273
 5734SOL    HW128664   0.708   0.407   3.137 -1.0468  2.7766  1.3633
 5734SOL    HW228665   0.705   0.341   3.271  2.3312 -1.0707  1.2022
 5735SOL     OW28666   4.308   4.609   9.038 -0.8030 -0.3568 -0.4846
 5735SOL    HW128667   4.290   4.536   8.980 -0.5640  0.6314 -1.8164
 5735SOL    HW228668   4.356   4.567   9.109 -2.5493  1.0446  1.5469
 5736SOL     OW28669   3.177   1.153   5.448 -0.4458  0.1950 -0.1224
 5736SOL    HW128670   3.106   1.186   5.393  1.4135  4.2814 -0.0587
 5736SOL    HW228671   3.213   1.231   5.490 -3.2007  2.3749 -1.8089
 5737SOL     OW28672   2.911   2.227  11.408  0.1621 -0.3169  0.1486
 5737SOL    HW128673   2.920   2.160  11.341 -0.0149 -0.7386  0.5500
 5737SOL    HW228674   2.883   2.169  11.478 -0.9283 -0.6559 -0.5828
 5738SOL     OW28675   4.609   2.786   6.299 -0.0991 -0.4714  0.0964
 5738SOL    HW128676   4.663   2.850   6.253  1.5790  0.4690  3.3809
 5738SOL    HW228677   4.522   2.793   6.260 -1.1263 -1.1294  2.2209
 5739SOL     OW28678   1.198   0.950   4.593 -0.2344 -0.2405  0.4242
 5739SOL    HW128679   1.237   1.018   4.537  1.3932 -2.7902 -1.5575
 5739SOL    HW228680   1.106   0.960   4.567 -0.9566 -0.5129  2.9396
 5740SOL     OW28681   1.165   4.436  17.044 -0.3347  0.4455  0.3687
 5740SOL    HW128682   1.134   4.370  16.982 -2.2398  2.7292 -1.0950
 5740SOL    HW228683   1.215   4.375  17.099  1.1447  0.2368 -1.2112
 5741SOL     OW28684   2.730   1.969   0.883  0.1678  0.6703  0.2217
 5741SOL    HW128685   2.794   2.022   0.931 -0.4709  1.3416  0.3368
 5741SOL    HW228686   2.759   1.878   0.883  0.9824  0.9139 -1.5072
 5742SOL     OW28687   0.940   0.273   4.518 -0.3436  0.3490  0.6903
 5742SOL    HW128688   0.926   0.262   4.424 -1.4967  1.7719  0.6869
 5742SOL    HW228689   1.023   0.320   4.521  0.0472 -0.4734  2.7805
 5743SOL     OW28690   3.958   1.774  13.966  0.2462 -0.0429 -0.7333
 5743SOL    HW128691   3.945   1.705  13.900 -2.2843  0.3504 -0.6312
 5743SOL    HW228692   3.879   1.765  14.019  1.1821 -0.0823  0.6548
 5744SOL     OW28693   3.113   0.129   1.710  0.7841  0.0546  0.1641
 5744SOL    HW128694   3.128   0.040   1.742  2.0177 -1.1971 -3.8939
 5744SOL    HW228695   3.203   0.163   1.711  0.5143  0.7689  0.1624
 5745SOL     OW28696   1.356   1.605   8.487 -0.1349 -0.0437  0.3795
 5745SOL    HW128697   1.320   1.597   8.576  0.8934  0.3201  0.8277
 5745SOL    HW228698   1.302   1.678   8.458 -0.4589 -0.0461  0.9706
 5746SOL     OW28699   1.450   1.408   7.601 -0.0840  0.9148 -0.1313
 5746SOL    HW128700   1.476   1.319   7.573 -1.2938  0.0702  1.4762
 5746SOL    HW228701   1.524   1.419   7.661 -1.4578  1.6014  1.4051
 5747SOL     OW28702   3.896   3.175   4.054  0.0430  0.1043 -0.2232
 5747SOL    HW128703   3.990   3.171   4.069  0.2294 -0.1095 -1.4487
 5747SOL    HW228704   3.866   3.240   4.118 -0.8701 -0.9372  0.4187
 5748SOL     OW28705   1.203   4.443  16.618 -0.0385  0.0448 -0.5466
 5748SOL    HW128706   1.225   4.364  16.667 -0.1559 -0.7545 -1.7871
 5748SOL    HW228707   1.262   4.512  16.647  1.4739 -2.0949  1.4754
 5749SOL     OW28708   2.928   0.403   3.408 -0.5401 -0.2183  0.0650
 5749SOL    HW128709   2.928   0.418   3.503  2.2597 -0.1198  0.0530
 5749SOL    HW228710   3.010   0.353   3.407  1.7075  3.4201  2.4807
 5750SOL     OW28711   3.193   3.147   4.251  0.0737 -0.2179 -0.4702
 5750SOL    HW128712   3.131   3.172   4.320  0.3182 -0.2669 -0.2356
 5750SOL    HW228713   3.154   3.064   4.222  0.7881 -0.0681 -1.8920
 5751SOL     OW28714   1.210   3.856   3.284  0.0087 -0.0614 -0.0490
 5751SOL    HW128715   1.226   3.764   3.305 -4.2067 -0.6180  0.5921
 5751SOL    HW228716   1.154   3.839   3.209 -0.5460 -1.2096  0.6317
 5752SOL     OW28717   2.917   1.537   6.153 -0.0583  0.4864 -0.6871
 5752SOL    HW128718   2.931   1.535   6.058  2.8112  0.1882 -0.2434
 5752SOL    HW228719   2.827   1.504   6.157 -0.1815  0.9508  0.3643
 5753SOL     OW28720   1.636   1.362  10.961  0.2225  0.2252 -0.5679
 5753SOL    HW128721   1.622   1.309  10.883 -0.8146 -0.4041  0.0545
 5753SOL    HW228722   1.558   1.340  11.013  0.7144 -0.0549  0.0539
 5754SOL     OW28723   3.028   3.607   7.169  0.8501  0.1287  0.1769
 5754SOL    HW128724   3.000   3.680   7.114 -0.3455  0.2916  1.0219
 5754SOL    HW228725   3.021   3.540   7.100  1.9260  0.2315 -0.0376
 5755SOL     OW28726   0.546   2.618  10.362  0.2900 -0.3051 -0.1506
 5755SOL    HW128727   0.619   2.674  10.335  0.9332 -0.2852  1.6687
 5755SOL    HW228728   0.505   2.655  10.440  1.7695  0.9509  0.0103
 5756SOL     OW28729   1.395   0.115  12.161  0.9354 -0.6951  0.1470
 5756SOL    HW128730   1.309   0.114  12.121  1.8884 -1.4341 -1.8803
 5756SOL    HW228731   1.447   0.151  12.089 -2.7846  0.0454 -2.1646
 5757SOL     OW28732   3.924   1.787  17.156  0.9015  0.2738  0.6279
 5757SOL    HW128733   3.985   1.861  17.154 -0.8887  1.7404 -0.9374
 5757SOL    HW228734   3.893   1.790  17.065  2.3669 -2.2088  0.0698
 5758SOL     OW28735   3.597   0.810   6.073 -0.2231 -0.1887  0.3071
 5758SOL    HW128736   3.671   0.797   6.014  0.8439  1.2623  1.3414
 5758SOL    HW228737   3.581   0.716   6.087 -0.4605 -0.2669 -0.4506
 5759SOL     OW28738   3.547   3.880  15.802 -0.0045 -0.1054 -0.0213
 5759SOL    HW128739   3.536   3.930  15.883  1.6627  0.3415 -0.0726
 5759SOL    HW228740   3.604   3.809  15.830 -0.7023 -0.2385  1.0638
 5760SOL     OW28741   4.347   0.916  12.109  0.0661 -0.2499 -0.3623
 5760SOL    HW128742   4.409   0.855  12.069 -0.8141 -0.9867 -0.6034
 5760SOL    HW228743   4.366   0.905  12.202 -2.9967  0.0959  0.3096
 5761SOL     OW28744   3.456   0.488   3.278 -0.2568  0.4511  0.2736
 5761SOL    HW128745   3.406   0.433   3.218  0.5723  0.4028 -0.3760
 5761SOL    HW228746   3.454   0.430   3.354 -0.2125 -2.4440 -1.9273
 5762SOL     OW28747   0.706   4.283   8.608 -0.5593 -0.5039 -0.0508
 5762SOL    HW128748   0.780   4.221   8.605  0.3276  0.5490  0.2042
 5762SOL    HW228749   0.632   4.226   8.590 -1.9458  0.7511  1.7160
 5763SOL     OW28750   1.856   0.285  13.025 -0.0282  0.3459 -0.9857
 5763SOL    HW128751   1.916   0.326  12.963  2.7940 -2.0609  0.1964
 5763SOL    HW228752   1.851   0.195  12.993  0.3255 -0.0901  0.1706
 5764SOL     OW28753   3.173   1.653  16.293 -0.7466  0.5967  0.2590
 5764SOL    HW128754   3.096   1.651  16.235 -0.1357 -2.3953 -0.4273
 5764SOL    HW228755   3.146   1.707  16.367 -2.7011 -0.5432  0.3878
 5765SOL     OW28756   1.886   2.006   0.137 -0.1077 -0.8801 -0.0804
 5765SOL    HW128757   1.821   2.064   0.177 -0.3711  0.1974 -2.1148
 5765SOL    HW228758   1.903   1.948   0.212 -2.7880 -2.1880 -0.4916
 5766SOL     OW28759   2.264   0.275   9.322  0.4391 -0.0977 -0.2315
 5766SOL    HW128760   2.178   0.304   9.292  0.4293  1.7968  1.5817
 5766SOL    HW228761   2.316   0.323   9.259  0.2442  1.6216  0.9235
 5767SOL     OW28762   3.466   4.074   8.429 -0.0627 -0.3790  0.7156
 5767SOL    HW128763   3.389   4.130   8.425 -0.2253 -0.5664  1.1880
 5767SOL    HW228764   3.454   4.035   8.343  1.3773  4.1597 -1.4876
 5768SOL     OW28765   3.853   1.047   7.409  0.0370 -0.5580  0.3137
 5768SOL    HW128766   3.871   1.140   7.396 -0.0106 -0.1842  3.0210
 5768SOL    HW228767   3.917   1.002   7.353  0.1447  0.8863 -0.7181
 5769SOL     OW28768   1.083   2.836   7.633  0.4282 -0.2653  0.2018
 5769SOL    HW128769   1.057   2.782   7.559  1.0425  1.2820 -1.1438
 5769SOL    HW228770   1.081   2.775   7.707  0.1989 -0.4368  0.0527
 5770SOL     OW28771   3.252   4.198   2.006  0.5829  0.1707  0.1364
 5770SOL    HW128772   3.244   4.112   1.964 -1.7424  0.6516 -0.4547
 5770SOL    HW228773   3.346   4.212   2.007  0.7993 -1.0390 -2.1213
 5771SOL     OW28774   1.090   2.106   2.944  0.1444  0.1153  0.2122
 5771SOL    HW128775   1.001   2.100   2.908  0.9639 -1.3058 -1.5838
 5771SOL    HW228776   1.137   2.146   2.871 -1.1288 -3.5582 -2.6634
 5772SOL     OW28777   2.129   3.989   0.825 -0.1184  0.5729  0.1974
 5772SOL    HW128778   2.194   4.018   0.761  1.5729 -1.0222  1.2081
 5772SOL    HW228779   2.097   3.914   0.775  0.1041  0.4108  0.2998
 5773SOL     OW28780   2.996   2.005   6.349  0.1724  0.4646 -0.2341
 5773SOL    HW128781   2.960   1.918   6.365  1.5080 -0.0390  0.0242
 5773SOL    HW228782   3.081   1.996   6.393  0.2468 -0.1608 -0.5046
 5774SOL     OW28783   0.930   0.470   0.268 -0.1740 -0.1561  0.2824
 5774SOL    HW128784   1.000   0.522   0.308 -0.4026  1.4339 -1.3626
 5774SOL    HW228785   0.918   0.403   0.335  0.0978  0.2801  0.7694
 5775SOL     OW28786   0.729   2.561   8.040  0.4428  0.5267 -0.3851
 5775SOL    HW128787   0.675   2.524   7.970  1.5073  0.0013 -0.9190
 5775SOL    HW228788   0.665   2.570   8.110 -0.0291 -2.4643 -0.4443
 5776SOL     OW28789   0.476   1.370   5.627  0.6593  0.0870  0.4708
 5776SOL    HW128790   0.559   1.329   5.652 -0.3090 -1.0076  1.9420
 5776SOL    HW228791   0.452   1.428   5.700  2.6276  1.0412  0.3485
 5777SOL     OW28792   2.597   2.109  11.295  0.3189  0.3660  0.2119
 5777SOL    HW128793   2.622   2.200  11.279 -1.2665  0.7287 -0.2351
 5777SOL    HW228794   2.590   2.072  11.206 -0.2417 -1.5361  1.0418
 5778SOL     OW28795   1.278   3.581   6.907  0.0022  0.1161 -0.0550
 5778SOL    HW128796   1.262   3.590   7.002 -0.4240  0.4834 -0.1598
 5778SOL    HW228797   1.322   3.663   6.885  1.3285 -0.3714  0.7686
 5779SOL     OW28798   4.157   0.330   7.872  0.1491  0.0724 -0.4739
 5779SOL    HW128799   4.188   0.396   7.933 -0.7813  0.6639 -0.6343
 5779SOL    HW228800   4.208   0.251   7.890 -1.8658 -1.2224 -0.4420
 5780SOL     OW28801   0.077   3.104  15.958 -0.1529 -0.3929  0.1086
 5780SOL    HW128802   0.052   3.040  16.025  1.7015 -0.5972  0.5954
 5780SOL    HW228803   0.154   3.060  15.923 -0.5536 -0.3514 -0.8203
 5781SOL     OW28804   4.534   1.537   9.108 -0.5281 -0.1900 -0.9749
 5781SOL    HW128805   4.439   1.546   9.104 -0.4176  1.6913  0.6190
 5781SOL    HW228806   4.548   1.602   9.176  0.9144 -1.0664 -0.4358
 5782SOL     OW28807   2.658   3.471   4.374  0.5116 -0.5025 -0.1920
 5782SOL    HW128808   2.578   3.425   4.349 -0.2232 -0.3148  1.7974
 5782SOL    HW228809   2.629   3.520   4.451  3.1615 -0.5120  0.7883
 5783SOL     OW28810   0.405   1.389   4.042 -0.5126 -0.1551 -0.0507
 5783SOL    HW128811   0.325   1.420   4.001  0.0608  2.3808  0.7269
 5783SOL    HW228812   0.451   1.321   3.993 -0.3742 -0.8099  0.9804
 5784SOL     OW28813   1.549   1.918   1.232 -0.2431  0.3882 -0.4721
 5784SOL    HW128814   1.469   1.947   1.186  1.3699  0.0071 -3.5131
 5784SOL    HW228815   1.521   1.846   1.289 -1.6411  1.7111  0.5248
 5785SOL     OW28816   0.510   0.506   3.340 -0.1137 -0.1693 -0.1520
 5785SOL    HW128817   0.540   0.565   3.271  0.6035  0.2486  0.5277
 5785SOL    HW228818   0.545   0.420   3.318  0.1697 -0.1267  0.1306
 5786SOL     OW28819   2.657   4.062   4.666  0.0913 -0.6273 -0.3208
 5786SOL    HW128820   2.663   4.135   4.604  0.0392 -1.1653 -0.9641
 5786SOL    HW228821   2.751   4.049   4.676  0.2372  2.1345  1.7104
 5787SOL     OW28822   4.646   0.972   4.196 -0.1715 -0.1355  0.3031
 5787SOL    HW128823   4.552   0.959   4.186 -0.0831  0.9718 -2.0130
 5787SOL    HW228824   4.647   1.019   4.279 -1.2634 -0.0869  0.2803
 5788SOL     OW28825   4.073   0.930   4.268  0.2169 -0.0331  0.2592
 5788SOL    HW128826   3.994   0.957   4.313  0.6609 -0.9226  1.5608
 5788SOL    HW228827   4.116   0.876   4.335  2.7223  2.1781  0.4485
 5789SOL     OW28828   2.072   0.310   2.412 -0.5162  0.2972 -0.1377
 5789SOL    HW128829   1.986   0.282   2.444 -0.6869  1.0091  0.0381
 5789SOL    HW228830   2.061   0.303   2.318 -0.2062 -0.8548 -0.0860
 5790SOL     OW28831   2.709   1.554   1.862  0.2190  0.6851  0.5016
 5790SOL    HW128832   2.793   1.514   1.882 -0.2571 -0.6950 -0.2941
 5790SOL    HW228833   2.686   1.595   1.946 -0.2342  0.4231  0.5050
 5791SOL     OW28834   1.984   0.888   6.449 -0.2005 -0.2620 -0.4385
 5791SOL    HW128835   2.077   0.878   6.470 -0.3539  2.1310  1.3988
 5791SOL    HW228836   1.980   0.824   6.378 -0.3815 -0.0611 -0.6101
 5792SOL     OW28837   0.075   2.807   8.122  0.5123 -0.2100 -0.0244
 5792SOL    HW128838   0.058   2.811   8.216  0.0421  0.3571 -0.1355
 5792SOL    HW228839   0.101   2.899   8.117 -0.8640  0.0756 -1.6122
 5793SOL     OW28840   2.038   1.165   7.045  0.0358  0.3279 -0.0145
 5793SOL    HW128841   2.040   1.110   6.966  0.2521 -0.3263  0.4502
 5793SOL    HW228842   2.105   1.232   7.034 -1.0660  1.6661  1.5245
 5794SOL     OW28843   2.206   0.099  10.196  0.6219  0.3535  0.4991
 5794SOL    HW128844   2.117   0.121  10.168  0.1802 -1.5308  0.4150
 5794SOL    HW228845   2.184   0.027  10.255  1.6652 -1.0302 -0.7984
 5795SOL     OW28846   0.838   2.903   7.443 -0.1650  0.5144 -0.3829
 5795SOL    HW128847   0.921   2.876   7.405 -0.5608 -2.6805  1.0269
 5795SOL    HW228848   0.817   2.834   7.506  1.4379 -2.9945 -3.7263
 5796SOL     OW28849   1.536   2.347  10.910 -0.4939 -0.2968  0.0788
 5796SOL    HW128850   1.614   2.323  10.861 -1.7105 -1.6855 -1.1615
 5796SOL    HW228851   1.569   2.408  10.976  0.6477 -0.4827 -0.3174
 5797SOL     OW28852   2.043   1.714   6.286  0.2163 -0.1943 -0.0356
 5797SOL    HW128853   2.082   1.635   6.322 -0.7084 -1.2381 -1.3421
 5797SOL    HW228854   1.989   1.748   6.357  2.1575  4.4269 -0.7634
 5798SOL     OW28855   3.382   3.248   2.624 -0.1303  0.0610 -0.2962
 5798SOL    HW128856   3.322   3.173   2.633  1.9078 -1.3872  1.2315
 5798SOL    HW228857   3.420   3.240   2.537  1.6221  0.9540  0.3895
 5799SOL     OW28858   2.895   2.633   1.258  0.1750 -0.4306  0.1552
 5799SOL    HW128859   2.900   2.728   1.254 -0.6135 -0.4081 -0.2152
 5799SOL    HW228860   2.857   2.615   1.344 -0.8355  1.4510  0.0854
 5800SOL     OW28861   3.541   1.665  17.135  0.2349 -0.8733 -0.4131
 5800SOL    HW128862   3.589   1.643  17.055 -1.0215  2.7055 -2.1691
 5800SOL    HW228863   3.613   1.659  17.197  0.1063  0.5185 -0.1334
 5801SOL     OW28864   0.054   1.192   3.355  0.0209 -0.3396 -0.4658
 5801SOL    HW128865   0.014   1.197   3.442 -1.5291  0.2490 -1.2063
 5801SOL    HW228866   0.145   1.174   3.378  0.5408  2.2889 -0.5113
 5802SOL     OW28867   0.514   3.695   5.533  0.5536 -0.0868  0.4819
 5802SOL    HW128868   0.602   3.733   5.526  0.5389 -0.1746 -0.2528
 5802SOL    HW228869   0.539   3.603   5.539 -0.1424 -0.3752 -1.0652
 5803SOL     OW28870   0.304   0.315   3.920  0.1331 -0.1162  0.1718
 5803SOL    HW128871   0.319   0.409   3.912  4.2013 -0.5124  3.0062
 5803SOL    HW228872   0.361   0.302   3.996 -1.1106  0.2543  1.1619
 5804SOL     OW28873   0.496   0.173  12.007 -0.3185  0.0780  0.1270
 5804SOL    HW128874   0.543   0.208  11.932 -1.0767  1.1872  0.1571
 5804SOL    HW228875   0.416   0.226  12.002 -0.0581  0.6324  1.7701
 5805SOL     OW28876   0.243   2.004   6.525 -0.4125 -0.3721 -0.1978
 5805SOL    HW128877   0.159   2.049   6.517  1.6776  3.2335 -1.6738
 5805SOL    HW228878   0.229   1.915   6.558  0.4198 -1.0905 -1.7552
 5806SOL     OW28879   3.109   0.701   6.929 -0.1971 -0.0502 -0.1779
 5806SOL    HW128880   3.046   0.743   6.987  3.2794  1.6536  2.3868
 5806SOL    HW228881   3.048   0.663   6.866  2.1958 -0.6128 -2.1786
 5807SOL     OW28882   3.268   3.410   4.139 -0.4740  0.3171 -0.3214
 5807SOL    HW128883   3.236   3.321   4.150 -2.3523  0.6688 -3.0936
 5807SOL    HW228884   3.286   3.413   4.045  3.1246  0.3133  0.3502
 5808SOL     OW28885   0.502   4.667  12.157 -0.1392 -0.2363  0.1756
 5808SOL    HW128886   0.487   0.040  12.142  0.8898 -0.3371 -1.4887
 5808SOL    HW228887   0.521   4.631  12.070 -3.4663 -1.5379 -0.0079
 5809SOL     OW28888   1.835   2.627   7.750 -0.7834  0.5918  0.2910
 5809SOL    HW128889   1.892   2.604   7.677  0.6566 -0.9027  1.9048
 5809SOL    HW228890   1.847   2.550   7.804 -0.0493 -0.2344 -1.0394
 5810SOL     OW28891   4.288   4.042   3.667 -0.1411 -0.7314 -0.6116
 5810SOL    HW128892   4.295   3.978   3.738 -1.4546 -0.5293 -0.2888
 5810SOL    HW228893   4.283   3.983   3.593 -1.3850 -0.8403 -0.4414
 5811SOL     OW28894   4.237   2.262   4.596  0.7650  0.1093  0.4379
 5811SOL    HW128895   4.199   2.174   4.599 -0.6941  0.7607  1.0424
 5811SOL    HW228896   4.317   2.248   4.546  1.1782 -2.3988  1.8305
 5812SOL     OW28897   4.611   1.691   9.322 -0.7326  0.3648  0.2920
 5812SOL    HW128898   4.704   1.713   9.317 -0.4874 -0.4288  1.3472
 5812SOL    HW228899   4.606   1.675   9.416  1.1137 -0.2772  0.2841
 5813SOL     OW28900   1.459   2.973   9.901  0.2465 -0.7244 -0.6695
 5813SOL    HW128901   1.457   3.010   9.989 -1.6704 -1.6293 -0.3429
 5813SOL    HW228902   1.383   3.006   9.852 -1.9120 -1.6670  2.0885
 5814SOL     OW28903   1.242   3.551   1.882  0.2016  0.8355 -0.2562
 5814SOL    HW128904   1.184   3.534   1.956 -0.8464 -0.0799 -1.3039
 5814SOL    HW228905   1.312   3.594   1.932 -0.3299  1.9980 -0.5264
 5815SOL     OW28906   0.147   2.099   9.490 -1.0910 -0.2400 -0.5639
 5815SOL    HW128907   0.201   2.091   9.411  1.4617 -0.5910  1.2353
 5815SOL    HW228908   0.198   2.044   9.550 -0.8588 -0.8058 -1.2742
 5816SOL     OW28909   1.145   0.419   8.512 -0.4259  0.2957 -0.4552
 5816SOL    HW128910   1.067   0.408   8.568 -0.8289  0.5058 -0.9704
 5816SOL    HW228911   1.138   0.343   8.455  1.7142  0.0702 -0.4005
 5817SOL     OW28912   0.748   1.005   5.251  0.5767 -0.1078  0.3554
 5817SOL    HW128913   0.687   1.029   5.321 -1.0317  2.4764 -1.9259
 5817SOL    HW228914   0.784   1.089   5.221 -1.3493  0.1638 -1.2538
 5818SOL     OW28915   1.013   3.676   4.007  0.6901  0.4384  0.5576
 5818SOL    HW128916   0.944   3.614   4.030 -0.1652  1.0700 -0.3013
 5818SOL    HW228917   0.988   3.701   3.918  2.9653  0.9908  0.0648
 5819SOL     OW28918   2.790   3.833   2.563  0.4171  0.2459  0.0865
 5819SOL    HW128919   2.775   3.889   2.639 -0.9611 -1.1668  0.8706
 5819SOL    HW228920   2.861   3.871   2.512  1.0510 -2.7686 -1.3315
 5820SOL     OW28921   4.054   0.361  13.629  0.4486  0.3229 -0.1041
 5820SOL    HW128922   4.092   0.329  13.711  2.0834  0.5180 -0.8029
 5820SOL    HW228923   4.031   0.281  13.582  0.7437  0.7429 -0.9527
 5821SOL     OW28924   2.471   4.145   6.347  0.2376 -0.2642  0.1298
 5821SOL    HW128925   2.461   4.206   6.420  3.4180  1.0121 -0.5221
 5821SOL    HW228926   2.402   4.170   6.285  0.1943 -0.5091  0.0785
 5822SOL     OW28927   4.290   3.833   6.667  0.1213 -0.1772 -0.0710
 5822SOL    HW128928   4.365   3.846   6.726  0.8684  0.6921 -1.2151
 5822SOL    HW228929   4.294   3.738   6.658 -1.0421 -0.3584  1.3042
 5823SOL     OW28930   2.603   2.784   4.163 -0.1090  0.3754  0.2190
 5823SOL    HW128931   2.507   2.784   4.158 -0.0425  1.4845 -1.2071
 5823SOL    HW228932   2.626   2.707   4.112  0.8187  0.8929 -0.1446
 5824SOL     OW28933   2.081   2.467   2.468  0.0887  0.6132  0.0166
 5824SOL    HW128934   2.141   2.525   2.515  0.5586 -0.3938  0.6487
 5824SOL    HW228935   2.105   2.490   2.378 -1.9568 -1.4805 -1.0401
 5825SOL     OW28936   3.491   4.406   8.667 -0.4415 -0.6931 -0.1210
 5825SOL    HW128937   3.419   4.375   8.612 -1.7846 -0.9691  1.8267
 5825SOL    HW228938   3.449   4.477   8.716  2.6322  1.1711 -0.1819
 5826SOL     OW28939   2.431   3.494   2.157  0.0441 -0.1262  0.0138
 5826SOL    HW128940   2.465   3.483   2.246 -0.5643 -0.4245  0.2119
 5826SOL    HW228941   2.350   3.444   2.171  0.8350 -1.0387  1.3763
 5827SOL     OW28942   2.993   4.011  10.544 -0.7300 -0.8155 -0.0510
 5827SOL    HW128943   2.903   3.986  10.524 -0.9044 -1.2097  1.2668
 5827SOL    HW228944   2.973   4.037  10.634 -0.1962 -0.0173 -0.1616
 5828SOL     OW28945   1.247   2.348   5.881  0.1736 -0.0611 -0.2363
 5828SOL    HW128946   1.195   2.428   5.872  1.1444  0.9000  2.3984
 5828SOL    HW228947   1.194   2.287   5.831 -1.8308  1.9029 -0.4975
 5829SOL     OW28948   3.732   1.203  11.382  0.3365  0.7900  0.3962
 5829SOL    HW128949   3.738   1.182  11.475  1.0192 -3.1494 -0.5597
 5829SOL    HW228950   3.639   1.203  11.363 -0.1518  2.5174  2.6824
 5830SOL     OW28951   2.582   4.423   7.808  0.1137  0.2429  0.0712
 5830SOL    HW128952   2.555   4.508   7.773 -0.8734 -0.5391 -1.0488
 5830SOL    HW228953   2.646   4.434   7.879  0.0884  1.6601 -0.1217
 5831SOL     OW28954   1.204   0.260   3.361 -0.2168 -0.1927  0.8672
 5831SOL    HW128955   1.165   0.213   3.287  2.0057  0.8458 -0.9627
 5831SOL    HW228956   1.119   0.295   3.388 -0.5634 -1.2153  1.0810
 5832SOL     OW28957   1.310   1.482  14.702 -0.6735  0.2259 -0.0329
 5832SOL    HW128958   1.221   1.453  14.724 -0.3991  1.0254  2.0936
 5832SOL    HW228959   1.285   1.563  14.657 -1.6124  0.9768  1.8556
 5833SOL     OW28960   2.603   0.968   1.006 -0.2698  0.3193  0.0079
 5833SOL    HW128961   2.616   0.963   1.100 -0.0221  1.1912  0.0254
 5833SOL    HW228962   2.650   1.049   0.985 -0.0718  0.1309 -0.2673
 5834SOL     OW28963   1.583   3.070   6.626  0.4097 -0.3482 -0.1311
 5834SOL    HW128964   1.520   3.061   6.697  1.3214  2.1296  0.9743
 5834SOL    HW228965   1.656   3.019   6.662 -0.0685  0.0828  1.4619
 5835SOL     OW28966   2.737   1.763   5.722  0.8026  0.2396 -0.3197
 5835SOL    HW128967   2.829   1.785   5.733  0.6539  0.0780  1.2099
 5835SOL    HW228968   2.709   1.814   5.797 -3.1418 -0.0050 -1.6335
 5836SOL     OW28969   3.564   1.853   0.877  0.3659 -0.3044 -0.1056
 5836SOL    HW128970   3.638   1.913   0.889 -0.7204  1.2205 -1.0751
 5836SOL    HW228971   3.572   1.820   0.966 -0.4964  0.3262  0.2011
 5837SOL     OW28972   1.417   0.486   8.640  0.2697  0.4133  0.3651
 5837SOL    HW128973   1.353   0.433   8.593  0.3035  0.2221  0.5359
 5837SOL    HW228974   1.494   0.430   8.632 -0.5759 -0.9791  1.9638
 5838SOL     OW28975   2.634   1.330   0.032  0.2451 -0.5167  0.1834
 5838SOL    HW128976   2.601   1.418   0.013  0.5300 -0.3567  0.4341
 5838SOL    HW228977   2.638   1.284  17.634 -0.2316  2.0213 -1.2394
 5839SOL     OW28978   4.040   3.619   9.015  0.9249 -0.5556 -0.0037
 5839SOL    HW128979   4.013   3.642   9.103 -2.0626 -1.6796 -0.6282
 5839SOL    HW228980   4.028   3.703   8.969 -0.9767 -1.7307 -1.6203
 5840SOL     OW28981   0.549   3.136   6.706 -0.3573 -0.2819  0.0217
 5840SOL    HW128982   0.643   3.135   6.687 -0.4594  0.1998 -0.5012
 5840SOL    HW228983   0.542   3.041   6.706  0.0724 -0.3128 -0.3582
 5841SOL     OW28984   2.359   2.822   7.111 -0.2121  0.1323  0.5802
 5841SOL    HW128985   2.372   2.791   7.201 -1.0952  1.7304  1.2612
 5841SOL    HW228986   2.424   2.768   7.065 -0.2615  1.0368 -0.5343
 5842SOL     OW28987   3.230   2.412   1.137  0.5090 -0.2482  0.2569
 5842SOL    HW128988   3.223   2.384   1.045  0.2996 -0.8047  0.4443
 5842SOL    HW228989   3.324   2.430   1.139  0.3170  0.9497 -0.9978
 5843SOL     OW28990   1.296   1.702  15.645 -0.2190  0.6636 -0.2542
 5843SOL    HW128991   1.366   1.637  15.649  0.2449  1.1203 -0.8979
 5843SOL    HW228992   1.257   1.684  15.560 -2.4623  0.5015  0.8163
 5844SOL     OW28993   1.930   3.451   1.679  0.4613  0.2328 -0.3442
 5844SOL    HW128994   2.011   3.496   1.653  2.1453 -1.7477  1.4754
 5844SOL    HW228995   1.884   3.521   1.726  1.0170  0.8316 -0.6787
 5845SOL     OW28996   3.606   3.943  11.122 -0.0587  0.0025  0.0830
 5845SOL    HW128997   3.568   3.859  11.097 -0.8288  0.3300  0.1540
 5845SOL    HW228998   3.666   3.918  11.193  1.1627 -0.1971 -1.0167
 5846SOL     OW28999   4.343   1.718  15.158 -0.6265  0.4300  0.0241
 5846SOL    HW129000   4.318   1.658  15.227 -1.2664 -0.6793 -1.1750
 5846SOL    HW229001   4.402   1.660  15.109 -0.2617  0.4860  0.3943
 5847SOL     OW29002   3.107   0.705   0.677 -0.0059 -0.3245  0.0744
 5847SOL    HW129003   3.177   0.646   0.647  1.2924  0.4702  1.5104
 5847SOL    HW229004   3.149   0.744   0.754  0.1188  1.0851 -0.7146
 5848SOL     OW29005   2.806   2.621  15.449 -0.4908 -0.6733  0.0380
 5848SOL    HW129006   2.734   2.643  15.390 -1.2773 -0.3120  1.1170
 5848SOL    HW229007   2.773   2.642  15.537 -0.1316 -1.0244  0.2557
 5849SOL     OW29008   1.007   2.362   7.411 -0.1598 -0.1992 -0.0008
 5849SOL    HW129009   0.924   2.316   7.426 -0.0954 -0.5136 -0.6471
 5849SOL    HW229010   1.066   2.286   7.408 -1.3623 -1.1306  0.0508
 5850SOL     OW29011   4.325   1.088   2.776 -0.3427 -0.4846  0.4492
 5850SOL    HW129012   4.339   0.996   2.800 -2.1804 -0.7957  0.2755
 5850SOL    HW229013   4.274   1.113   2.853 -2.5720 -1.4067 -0.7247
 5851SOL     OW29014   2.094   3.399   9.704  0.4125  0.2264 -0.7275
 5851SOL    HW129015   2.097   3.468   9.771 -1.9981  0.9773 -1.3630
 5851SOL    HW229016   2.182   3.406   9.666 -0.0879 -0.0449 -1.9490
 5852SOL     OW29017   2.453   3.395  13.418  0.2319  0.3423 -0.3453
 5852SOL    HW129018   2.411   3.318  13.456 -0.1571  1.7005  1.9354
 5852SOL    HW229019   2.449   3.368  13.326 -1.6489  0.1747 -0.1998
 5853SOL     OW29020   4.182   2.074   1.472  0.5730 -0.2066 -0.0580
 5853SOL    HW129021   4.209   1.983   1.482  0.7274 -0.2567 -0.8938
 5853SOL    HW229022   4.140   2.082   1.557  0.0179  1.1162 -0.4593
 5854SOL     OW29023   2.592   2.566   4.443 -0.4241  0.0850 -0.2096
 5854SOL    HW129024   2.586   2.660   4.462  0.2649  0.7230 -3.1801
 5854SOL    HW229025   2.643   2.565   4.362 -0.0081 -0.2378  0.0603
 5855SOL     OW29026   2.179   1.026   7.674 -0.0388 -0.2386  0.2296
 5855SOL    HW129027   2.128   0.946   7.656 -2.7794  1.1089  1.9363
 5855SOL    HW229028   2.257   1.004   7.724 -1.4253 -2.9159  1.2802
 5856SOL     OW29029   3.792   3.394  15.896 -0.3035  0.1876 -0.4630
 5856SOL    HW129030   3.821   3.403  15.987 -0.2327  1.8304 -0.6459
 5856SOL    HW229031   3.752   3.308  15.889  0.4933 -0.1981 -0.2492
 5857SOL     OW29032   1.522   1.895   8.262  0.3867  0.1792 -0.3373
 5857SOL    HW129033   1.446   1.952   8.248 -0.3955 -0.6818  0.4267
 5857SOL    HW229034   1.499   1.832   8.194 -2.7880  1.6219 -0.6239
 5858SOL     OW29035   2.236   2.740  14.988 -0.0818 -0.0811 -0.0009
 5858SOL    HW129036   2.233   2.667  15.050 -0.4080 -0.2861 -0.2607
 5858SOL    HW229037   2.145   2.768  14.980 -0.0886 -0.3277 -0.7335
 5859SOL     OW29038   2.702   3.433   8.688 -0.2328  0.5261 -0.3944
 5859SOL    HW129039   2.762   3.367   8.654 -0.3526  0.0099  0.3779
 5859SOL    HW229040   2.728   3.508   8.634 -1.1816  1.2790  0.1962
 5860SOL     OW29041   1.533   4.275   6.267 -0.3168 -0.6166 -0.0286
 5860SOL    HW129042   1.548   4.337   6.195  1.7095  0.1013  1.0123
 5860SOL    HW229043   1.598   4.305   6.331 -0.8436 -0.1379  0.2862
 5861SOL     OW29044   3.986   1.409  12.679  0.0868 -0.1012  0.2714
 5861SOL    HW129045   3.959   1.501  12.675 -1.4706 -0.5944 -0.1690
 5861SOL    HW229046   4.080   1.405  12.701 -0.2491  0.4557  1.8181
 5862SOL     OW29047   2.424   3.476  16.074 -0.0432 -1.2198  0.4029
 5862SOL    HW129048   2.375   3.556  16.093 -0.8931 -1.7928  0.5965
 5862SOL    HW229049   2.505   3.487  16.124 -0.0530  0.5532  0.0606
 5863SOL     OW29050   1.102   1.417  16.592 -0.4422  0.0912  0.4603
 5863SOL    HW129051   1.180   1.386  16.638  0.7059 -0.6400 -1.9331
 5863SOL    HW229052   1.030   1.397  16.650 -0.4992  2.1827  1.1066
 5864SOL     OW29053   3.843   2.063  17.498  0.6079  0.2982  0.0195
 5864SOL    HW129054   3.788   2.002  17.449  0.5562  1.0092 -0.8196
 5864SOL    HW229055   3.929   2.021  17.491  2.2276  3.3573  1.4253
 5865SOL     OW29056   1.166   0.700  10.371 -0.1164  0.1804 -0.1383
 5865SOL    HW129057   1.114   0.716  10.449 -1.1766  0.6172 -0.9349
 5865SOL    HW229058   1.241   0.654  10.409 -1.7469 -1.3579  1.1752
 5866SOL     OW29059   1.512   3.175   5.955  0.2585  0.0022  0.2135
 5866SOL    HW129060   1.585   3.117   5.933  0.8934  0.3936  1.3345
 5866SOL    HW229061   1.437   3.124   5.923 -0.5099  0.2190  1.6845
 5867SOL     OW29062   2.920   2.674   9.598 -0.0337 -0.1187  0.4051
 5867SOL    HW129063   2.869   2.615   9.654  0.4248 -1.3447 -0.4554
 5867SOL    HW229064   2.843   2.721   9.567  0.1863 -0.1949 -0.2492
 5868SOL     OW29065   1.667   0.673   5.576  0.4484  0.7999 -0.3182
 5868SOL    HW129066   1.596   0.611   5.564  0.0442  1.4048 -1.0458
 5868SOL    HW229067   1.737   0.627   5.530  1.4372  1.5468  0.4348
 5869SOL     OW29068   0.365   2.634   1.127 -0.0333 -0.0069 -0.2674
 5869SOL    HW129069   0.278   2.594   1.116 -0.7672  1.1683  1.2496
 5869SOL    HW229070   0.359   2.698   1.198  2.6790 -1.4901  1.2742
 5870SOL     OW29071   3.520   1.774   7.713 -0.2804 -0.6920 -0.0005
 5870SOL    HW129072   3.532   1.748   7.621 -0.4586 -0.1392 -0.1771
 5870SOL    HW229073   3.558   1.700   7.760 -0.4015 -1.0486 -0.4625
 5871SOL     OW29074   4.066   2.371   4.383 -0.0415  0.3469  0.1756
 5871SOL    HW129075   4.115   2.310   4.328 -0.3938 -0.3191  0.6009
 5871SOL    HW229076   4.140   2.406   4.432  1.0686 -0.4827 -0.9188
 5872SOL     OW29077   1.544   3.722   5.820  0.5310  0.1640  0.6023
 5872SOL    HW129078   1.512   3.676   5.743  0.6252 -2.8338  2.3304
 5872SOL    HW229079   1.536   3.649   5.882  0.0044  0.1086  0.4628
 5873SOL     OW29080   2.453   3.804   2.762  0.0478  0.4353 -0.1136
 5873SOL    HW129081   2.458   3.804   2.666  0.4696  3.8105 -0.0780
 5873SOL    HW229082   2.365   3.775   2.784  0.3293  0.4942  1.0972
 5874SOL     OW29083   0.607   1.341  12.067 -0.1673  0.7317  0.1758
 5874SOL    HW129084   0.564   1.421  12.098  0.9133  0.9042  1.2104
 5874SOL    HW229085   0.579   1.272  12.127 -0.5371  0.5147 -0.2491
 5875SOL     OW29086   1.704   4.328   9.006  0.2836  0.7957 -0.5461
 5875SOL    HW129087   1.716   4.320   9.101 -1.1495 -2.8852 -0.6906
 5875SOL    HW229088   1.713   4.236   8.982  3.0171  1.2636 -1.3153
 5876SOL     OW29089   2.679   0.288   3.014 -0.7113  0.4976 -0.2052
 5876SOL    HW129090   2.604   0.235   2.988 -0.9955  1.3865 -1.2146
 5876SOL    HW229091   2.641   0.375   3.030  0.6140  1.1368 -0.5126
 5877SOL     OW29092   2.298   3.193   0.766 -0.2110  0.5925  0.0254
 5877SOL    HW129093   2.220   3.176   0.714  1.0876 -1.3399 -1.2654
 5877SOL    HW229094   2.251   3.173   0.847  1.3614 -0.5234  0.6591
 5878SOL     OW29095   4.373   3.176   8.968 -0.1923 -0.2657 -0.4730
 5878SOL    HW129096   4.468   3.185   8.973 -0.5507  2.5648  1.3893
 5878SOL    HW229097   4.349   3.240   8.901  1.2181  1.5469  0.7717
 5879SOL     OW29098   4.315   3.903   5.874 -0.2854 -0.0283  0.3807
 5879SOL    HW129099   4.298   3.962   5.947  0.4859 -0.2637  0.7480
 5879SOL    HW229100   4.274   3.827   5.914 -0.4056 -0.6366 -0.8889
 5880SOL     OW29101   3.734   0.709  16.346  0.6853 -0.5746 -0.6225
 5880SOL    HW129102   3.663   0.664  16.391  0.4090  0.2962 -0.1755
 5880SOL    HW229103   3.798   0.640  16.358  0.6376 -0.4744  0.1969
 5881SOL     OW29104   1.447   4.273   7.218 -0.1132  0.2965 -0.1909
 5881SOL    HW129105   1.392   4.343   7.252 -0.4697  0.6757 -1.5513
 5881SOL    HW229106   1.377   4.209   7.208  0.1178  0.1505 -0.8764
 5882SOL     OW29107   2.627   0.455  11.155 -0.4151  0.2634  0.1454
 5882SOL    HW129108   2.592   0.530  11.203 -0.8010  0.6715 -0.7813
 5882SOL    HW229109   2.683   0.411  11.219 -0.8292  0.4951  0.6771
 5883SOL     OW29110   2.197   4.435   5.801 -0.6091  0.0716  0.0416
 5883SOL    HW129111   2.262   4.494   5.762 -1.1929 -0.4577 -1.7431
 5883SOL    HW229112   2.116   4.476   5.773  0.2726  1.6573 -0.1867
 5884SOL     OW29113   3.991   3.466   1.889 -0.3228  0.0536  0.1587
 5884SOL    HW129114   3.898   3.480   1.903 -0.3357  0.7190 -0.5964
 5884SOL    HW229115   4.000   3.372   1.872 -0.7509  0.3251 -1.5565
 5885SOL     OW29116   2.710   4.084   1.331 -0.0907  0.2214  0.1540
 5885SOL    HW129117   2.673   4.091   1.243  2.3212 -1.3229 -1.0007
 5885SOL    HW229118   2.665   4.007   1.365  0.9982 -0.4622  0.0416
 5886SOL     OW29119   2.595   0.195  17.654  0.0078  0.0721  0.6712
 5886SOL    HW129120   2.647   0.116  17.638  0.5237  0.8051 -1.2480
 5886SOL    HW229121   2.515   0.192  17.602  0.3249 -1.3665  0.2745
 5887SOL     OW29122   0.801   4.638   2.456 -0.3997  0.2772  0.2666
 5887SOL    HW129123   0.761   4.689   2.526 -0.4721  1.6482 -0.7714
 5887SOL    HW229124   0.743   4.669   2.387 -1.0868 -0.1613  0.6528
 5888SOL     OW29125   2.100   3.925   3.520 -0.1599  0.3212  0.2250
 5888SOL    HW129126   2.097   3.913   3.615  0.5142  0.4226  0.2589
 5888SOL    HW229127   2.015   3.962   3.495 -0.2447  0.4130  0.6474
 5889SOL     OW29128   0.932   2.362   3.582 -0.3712 -0.0440  0.5265
 5889SOL    HW129129   0.981   2.388   3.504 -1.1724 -2.2099 -0.7031
 5889SOL    HW229130   1.003   2.366   3.647 -0.5597 -2.3854  0.8661
 5890SOL     OW29131   3.072   0.368   3.756 -0.1201 -0.2396 -0.5448
 5890SOL    HW129132   3.099   0.299   3.817 -1.0455  0.0862  0.2288
 5890SOL    HW229133   3.156   0.414   3.752  0.1768 -0.6350  1.3002
 5891SOL     OW29134   4.209   0.733  14.971  0.1464  0.1693 -0.1665
 5891SOL    HW129135   4.271   0.672  14.931 -0.1264 -0.9571  1.1674
 5891SOL    HW229136   4.127   0.685  14.984  1.2345 -1.3256  1.1850
 5892SOL     OW29137   2.439   3.817   0.018 -0.6662 -0.0598  0.6917
 5892SOL    HW129138   2.347   3.799  17.685 -0.4037 -0.8505  0.1590
 5892SOL    HW229139   2.457   3.730   0.051 -1.0515 -0.5044 -0.2740
 5893SOL     OW29140   1.931   1.511   4.906  0.0650  0.2955  0.1434
 5893SOL    HW129141   1.860   1.472   4.956 -1.8757  2.4574 -0.9186
 5893SOL    HW229142   1.913   1.605   4.913  0.3152  0.1881  2.0808
 5894SOL     OW29143   1.938   4.569   5.961 -0.3724 -0.2712 -0.1340
 5894SOL    HW129144   1.914   4.576   5.868 -0.3862  1.0396 -0.0420
 5894SOL    HW229145   1.886   4.493   5.986 -3.2714  1.6037 -0.3829
 5895SOL     OW29146   4.238   2.949   3.301 -0.3583 -0.4692  0.3184
 5895SOL    HW129147   4.187   2.922   3.377 -1.0753  0.8214  0.2898
 5895SOL    HW229148   4.175   3.012   3.265 -1.4198 -2.0968 -0.6595
 5896SOL     OW29149   4.671   0.897  16.346 -0.1484  0.0548 -0.2691
 5896SOL    HW129150   4.692   0.803  16.348 -1.2856 -0.2638 -2.8481
 5896SOL    HW229151   4.648   0.904  16.253 -2.5120 -1.0109  0.2425
 5897SOL     OW29152   4.011   4.040  16.763 -0.2330  0.1890  0.2585
 5897SOL    HW129153   3.976   4.046  16.852  1.4855 -0.2606  0.9533
 5897SOL    HW229154   4.103   4.060  16.779  0.5654 -1.3994 -2.3688
 5898SOL     OW29155   1.088   1.076  17.626 -0.5051  0.1698 -0.6720
 5898SOL    HW129156   1.017   1.129  17.661 -0.5440  0.4996 -1.2496
 5898SOL    HW229157   1.152   1.090   0.010 -0.9428  0.6327 -0.3646
 5899SOL     OW29158   3.375   0.941   1.631 -0.1023 -0.5631 -0.1293
 5899SOL    HW129159   3.464   0.908   1.619  0.8218  1.9590 -0.2277
 5899SOL    HW229160   3.382   0.975   1.720 -1.2485  1.4416 -0.8207
 5900SOL     OW29161   4.252   3.566   0.389 -0.4274 -0.3179  0.2301
 5900SOL    HW129162   4.347   3.570   0.396 -0.6023 -1.0471  2.9426
 5900SOL    HW229163   4.235   3.563   0.483 -1.1323  0.5613  0.1325
 5901SOL     OW29164   4.071   2.290   8.439 -0.1969  0.1155  0.1785
 5901SOL    HW129165   4.124   2.306   8.517  0.1613  0.8748 -0.2229
 5901SOL    HW229166   4.109   2.357   8.382  2.3519 -0.9023  0.6889
 5902SOL     OW29167   2.861   1.281   3.731  0.5581  0.1796  0.1795
 5902SOL    HW129168   2.910   1.285   3.649  0.7345 -2.2771  0.1658
 5902SOL    HW229169   2.926   1.319   3.791  0.1419  1.0213  0.1013
 5903SOL     OW29170   2.576   3.101   8.457  0.4136  0.0661 -0.6255
 5903SOL    HW129171   2.577   3.166   8.387  0.1040  3.6468  2.6801
 5903SOL    HW229172   2.626   3.149   8.524  0.6916  1.8976 -2.1303
 5904SOL     OW29173   0.034   0.824  10.079  0.4315  0.3668 -0.0195
 5904SOL    HW129174   0.117   0.807  10.036 -0.2300  0.2267 -1.2323
 5904SOL    HW229175   0.051   0.909  10.120 -2.0256  0.0694  1.5907
 5905SOL     OW29176   2.464   1.224   3.099 -0.4823  0.1996 -0.7621
 5905SOL    HW129177   2.519   1.282   3.047  3.2837 -1.0659  1.8047
 5905SOL    HW229178   2.511   1.141   3.093 -0.2436  0.2390  0.5132
 5906SOL     OW29179   4.582   2.762   7.839  1.0057  0.5293  0.4233
 5906SOL    HW129180   4.631   2.843   7.852  1.2519  0.0702  2.4060
 5906SOL    HW229181   4.515   2.813   7.792  0.6861 -1.5466 -1.3488
 5907SOL     OW29182   3.270   4.244   2.703  0.0233  0.3532  0.7164
 5907SOL    HW129183   3.317   4.240   2.786  2.9040 -0.8841 -0.9806
 5907SOL    HW229184   3.195   4.293   2.737 -0.0781  1.4252 -1.0518
 5908SOL     OW29185   4.222   2.810   2.045 -0.1958  0.1829 -0.6157
 5908SOL    HW129186   4.272   2.730   2.035  0.2370  0.5445 -1.2642
 5908SOL    HW229187   4.301   2.864   2.046 -0.7036  0.9236  1.3282
 5909SOL     OW29188   2.874   1.170   0.922  0.7039 -0.2577 -0.5011
 5909SOL    HW129189   2.800   1.218   0.885 -2.3510 -2.0516  3.2222
 5909SOL    HW229190   2.893   1.214   1.005  1.9114 -2.8882  0.6394
 5910SOL     OW29191   3.926   1.146   1.063 -0.5793 -0.4717 -0.9835
 5910SOL    HW129192   4.010   1.191   1.057 -0.8055 -0.1288 -1.5760
 5910SOL    HW229193   3.952   1.054   1.066 -1.0528 -0.5445  1.5902
 5911SOL     OW29194   3.334   0.569   8.434 -0.3766 -0.0609 -0.1305
 5911SOL    HW129195   3.279   0.640   8.402  0.7584  1.9581  2.4547
 5911SOL    HW229196   3.355   0.520   8.354  0.6066 -2.0210  1.3374
 5912SOL     OW29197   2.987   0.484   5.079 -0.1072  0.7613 -0.3124
 5912SOL    HW129198   3.025   0.547   5.140 -1.9276  1.2729  0.3093
 5912SOL    HW229199   2.897   0.516   5.084 -0.0909  0.9605 -1.3868
 5913SOL     OW29200   3.523   0.659   3.563  0.3326  0.0633 -0.1447
 5913SOL    HW129201   3.516   0.564   3.559 -0.0376  0.0158  1.6567
 5913SOL    HW229202   3.483   0.661   3.650 -0.3908 -0.0886 -0.4786
 5914SOL     OW29203   0.530   1.289  14.015  0.1065  0.5999  0.0335
 5914SOL    HW129204   0.502   1.218  14.073  0.6371 -0.1497 -0.6227
 5914SOL    HW229205   0.564   1.352  14.077 -0.5120 -0.6760  1.6654
 5915SOL     OW29206   3.510   0.169  15.013 -0.1000 -0.4143  0.7002
 5915SOL    HW129207   3.536   0.125  14.932 -0.5837  1.9477 -0.7348
 5915SOL    HW229208   3.586   0.220  15.041 -2.0492  3.3469 -0.8995
 5916SOL     OW29209   1.835   1.563   0.745 -0.5724 -0.0731 -0.5443
 5916SOL    HW129210   1.871   1.629   0.686  0.4459  1.5851  1.9430
 5916SOL    HW229211   1.798   1.498   0.685  1.4072  0.9199 -2.8310
 5917SOL     OW29212   0.093   1.290   7.109  0.2869 -0.3096  0.4285
 5917SOL    HW129213   0.085   1.287   7.014  1.9271  1.5150  0.2370
 5917SOL    HW229214   0.129   1.376   7.131  1.7164 -0.8532  0.2168
 5918SOL     OW29215   4.588   1.118   7.476  0.2723  0.7956  0.1577
 5918SOL    HW129216   4.595   1.167   7.394 -0.7856  0.2104 -0.2718
 5918SOL    HW229217   4.592   1.190   7.540  0.6381  0.7157  0.2260
 5919SOL     OW29218   2.858   4.454   1.877  0.0105 -0.2053 -0.4536
 5919SOL    HW129219   2.949   4.433   1.896  0.1116 -0.8606 -1.6863
 5919SOL    HW229220   2.862   4.544   1.843 -1.3165 -0.0482 -0.1904
 5920SOL     OW29221   3.924   3.765  13.598  0.1526 -0.2851  0.5884
 5920SOL    HW129222   3.950   3.787  13.688 -0.2343 -0.2350  0.6903
 5920SOL    HW229223   3.840   3.722  13.615 -1.9875  2.8744 -2.0687
 5921SOL     OW29224   0.358   2.907   7.247  0.3119  0.2321  0.6328
 5921SOL    HW129225   0.325   2.867   7.327  0.4845 -1.2696 -0.0439
 5921SOL    HW229226   0.432   2.959   7.276  0.2246  2.0157 -2.2817
 5922SOL     OW29227   0.006   4.122   5.685  0.0488 -0.5433  0.6057
 5922SOL    HW129228   0.025   4.151   5.596 -0.3360  0.5317  0.8818
 5922SOL    HW229229   4.636   4.094   5.676  0.3803 -1.0595 -1.2433
 5923SOL     OW29230   0.943   3.238   5.076 -0.6951  0.7826  0.4162
 5923SOL    HW129231   1.022   3.273   5.035 -0.3438  1.9403  2.1082
 5923SOL    HW229232   0.900   3.226   4.991  0.5930 -0.1938 -0.1048
 5924SOL     OW29233   2.560   2.508   3.168 -0.2290  0.0312 -0.6765
 5924SOL    HW129234   2.569   2.428   3.117 -0.3837 -0.8902  0.7546
 5924SOL    HW229235   2.534   2.562   3.094 -0.6368 -0.9581 -1.2448
 5925SOL     OW29236   3.478   2.039   6.221 -0.6311  0.1304 -0.0521
 5925SOL    HW129237   3.448   1.950   6.205 -1.3399  0.2013  0.8458
 5925SOL    HW229238   3.531   2.031   6.300  0.5012 -0.1768 -0.8552
 5926SOL     OW29239   1.958   1.869   7.549  0.0853  0.1008  0.3997
 5926SOL    HW129240   2.048   1.837   7.536  0.7549  1.3612  1.9224
 5926SOL    HW229241   1.910   1.810   7.491  0.6722 -0.2251  0.2453
 5927SOL     OW29242   3.835   0.672  12.947 -0.5457  0.2039  0.7529
 5927SOL    HW129243   3.867   0.750  12.901 -0.2881 -1.2819 -1.6133
 5927SOL    HW229244   3.759   0.715  12.987 -2.4368  0.4718 -3.1270
 5928SOL     OW29245   4.265   0.097  16.962  0.5383 -0.0779  0.0204
 5928SOL    HW129246   4.197   0.158  16.991  0.3659 -0.5173  0.5383
 5928SOL    HW229247   4.240   0.081  16.871  1.2364  1.9341 -0.5296
 5929SOL     OW29248   1.416   1.050   8.208 -0.1771  0.3481  0.0195
 5929SOL    HW129249   1.413   1.135   8.252  0.7543  0.3433  0.1004
 5929SOL    HW229250   1.329   1.016   8.226 -0.2861  0.3115 -0.5695
 5930SOL     OW29251   2.852   1.537   5.048 -0.5174  0.9410 -0.4447
 5930SOL    HW129252   2.851   1.441   5.048  0.4362  0.9351 -1.3466
 5930SOL    HW229253   2.833   1.559   4.957 -0.8469 -2.1517 -1.1222
 5931SOL     OW29254   2.391   0.576  14.441  0.1530  0.2362  0.7851
 5931SOL    HW129255   2.389   0.569  14.345  2.7690 -0.3847  0.7833
 5931SOL    HW229256   2.430   0.663  14.453  1.5368 -0.0388 -1.7317
 5932SOL     OW29257   3.435   2.156   5.653 -0.2190  0.0016 -0.2817
 5932SOL    HW129258   3.409   2.181   5.742 -1.2752 -0.5480 -0.4372
 5932SOL    HW229259   3.421   2.242   5.615 -0.0203 -0.6638 -1.8646
 5933SOL     OW29260   4.167   0.574  10.453  0.1678 -0.2498  0.3291
 5933SOL    HW129261   4.209   0.516  10.516 -2.2631  0.2244  2.3985
 5933SOL    HW229262   4.205   0.531  10.377 -1.9713  0.4622 -1.1402
 5934SOL     OW29263   2.584   3.511  17.430  0.4708 -0.2869 -0.2095
 5934SOL    HW129264   2.663   3.556  17.460  0.8571 -1.3791  0.4380
 5934SOL    HW229265   2.519   3.576  17.457 -0.9070 -0.7351 -2.4998
 5935SOL     OW29266   3.984   1.746  15.334 -0.1150 -0.2108 -0.0116
 5935SOL    HW129267   4.039   1.788  15.399 -1.9634  1.1489  0.6811
 5935SOL    HW229268   3.937   1.677  15.381  2.3604 -2.1355 -0.3888
 5936SOL     OW29269   4.333   4.397   4.812  0.3654 -1.0053  0.4565
 5936SOL    HW129270   4.329   4.373   4.905 -1.1943  1.1927  0.9632
 5936SOL    HW229271   4.253   4.354   4.782 -0.3535  0.8893 -0.3662
 5937SOL     OW29272   0.785   0.705   6.945 -1.5242 -0.1186 -0.1450
 5937SOL    HW129273   0.790   0.733   6.854 -0.1219  0.0207 -0.0231
 5937SOL    HW229274   0.839   0.626   6.941  0.8503  1.5320 -0.5589
 5938SOL     OW29275   1.476   3.365   6.245 -0.5513  0.5769  0.5453
 5938SOL    HW129276   1.516   3.434   6.191  0.8681  0.0967  0.9794
 5938SOL    HW229277   1.551   3.307   6.261 -0.8073 -0.1421 -0.8247
 5939SOL     OW29278   2.491   3.100   6.284 -0.2880 -0.3602  0.4781
 5939SOL    HW129279   2.558   3.163   6.258 -0.7389  0.2742  0.8290
 5939SOL    HW229280   2.417   3.134   6.233 -1.2137 -0.6379  1.6447
 5940SOL     OW29281   3.444   3.853   0.925  0.1798 -0.2309  0.1318
 5940SOL    HW129282   3.441   3.768   0.969 -0.5648 -1.6259 -2.6081
 5940SOL    HW229283   3.413   3.918   0.987 -0.3552  0.2075 -0.5907
 5941SOL     OW29284   3.507   3.964   2.027  0.6100 -0.1225  0.5581
 5941SOL    HW129285   3.589   4.014   2.028  1.5809 -1.7301  0.4120
 5941SOL    HW229286   3.539   3.881   2.062 -0.1122 -0.8532 -0.4980
 5942SOL     OW29287   3.287   4.709  13.312 -0.0597 -0.2343  0.2753
 5942SOL    HW129288   3.229   4.654  13.259 -0.0812  2.0305 -2.0872
 5942SOL    HW229289   3.229   0.024  13.379 -1.1238 -1.1711 -0.1404
 5943SOL     OW29290   4.616   1.865   5.026 -0.3751  0.1139  0.6324
 5943SOL    HW129291   4.545   1.843   5.087 -2.3557 -0.7461 -1.9862
 5943SOL    HW229292   4.683   1.904   5.082 -0.4566 -1.3495  1.7637
 5944SOL     OW29293   2.203   0.094   3.310 -0.3008  0.0172  0.0610
 5944SOL    HW129294   2.278   0.092   3.251 -0.2676 -0.1740  0.1114
 5944SOL    HW229295   2.132   0.115   3.249 -0.3599  0.3195  0.2331
 5945SOL     OW29296   1.798   2.178   8.795 -0.4882 -0.6973 -0.1263
 5945SOL    HW129297   1.869   2.180   8.860 -1.2076  1.5676  0.5772
 5945SOL    HW229298   1.753   2.260   8.816  0.1593 -0.1227 -1.0017
 5946SOL     OW29299   2.101   4.101  11.493  0.7279 -0.2313  0.1607
 5946SOL    HW129300   2.009   4.124  11.509  0.6662  0.1858 -0.7737
 5946SOL    HW229301   2.102   4.013  11.531  3.0883 -1.1386 -2.0273
 5947SOL     OW29302   3.457   2.118  15.110  0.2685  0.3556  0.4027
 5947SOL    HW129303   3.366   2.105  15.083  0.5585 -0.4324 -0.1966
 5947SOL    HW229304   3.441   2.184  15.177  2.6944  1.0266  0.3271
 5948SOL     OW29305   3.526   1.374  11.321  0.0833 -0.1259  0.2171
 5948SOL    HW129306   3.446   1.364  11.372 -0.2077  1.9661  0.1941
 5948SOL    HW229307   3.510   1.453  11.269 -0.1195  0.3062  0.9408
 5949SOL     OW29308   1.036   3.364   3.982  0.2814  0.7395  0.0248
 5949SOL    HW129309   0.986   3.337   3.905 -0.4991  2.1408  0.0393
 5949SOL    HW229310   0.979   3.431   4.020 -1.7416 -1.2081  0.4194
 5950SOL     OW29311   0.280   3.922  16.539 -0.0610  0.3620  0.2272
 5950SOL    HW129312   0.270   4.009  16.500  0.9841 -0.3032 -1.5124
 5950SOL    HW229313   0.375   3.917  16.549 -0.3824 -1.2073  2.5292
 5951SOL     OW29314   1.217   0.784   6.685  0.2930 -0.4185 -0.3861
 5951SOL    HW129315   1.288   0.743   6.734  0.6716  2.1574  1.2073
 5951SOL    HW229316   1.182   0.714   6.629 -0.1001 -1.1435  0.7814
 5952SOL     OW29317   4.170   4.591  14.656  0.2089  0.5245 -0.5212
 5952SOL    HW129318   4.208   4.586  14.744 -0.4733 -0.6464 -0.2896
 5952SOL    HW229319   4.227   4.651  14.608  1.6840 -0.1634  0.3851
 5953SOL     OW29320   4.109   0.055   5.579  0.5966  0.1795  0.5758
 5953SOL    HW129321   4.079   4.685   5.574  1.8968 -0.3005  1.6215
 5953SOL    HW229322   4.204   0.056   5.580  0.6000 -0.2341  1.1608
 5954SOL     OW29323   3.227   1.653   2.975  0.9292  0.4835 -0.0414
 5954SOL    HW129324   3.158   1.588   2.992  0.3568  1.7353  2.4500
 5954SOL    HW229325   3.302   1.612   3.020  1.6184  1.3204 -0.4386
 5955SOL     OW29326   2.092   4.360  16.532 -0.2297  0.1092 -0.0662
 5955SOL    HW129327   2.100   4.437  16.476  0.5363 -0.4176 -0.6806
 5955SOL    HW229328   2.012   4.389  16.576 -1.0012  2.2910 -2.9015
 5956SOL     OW29329   3.980   0.235  11.374  0.0170  0.2652  0.4393
 5956SOL    HW129330   4.031   0.218  11.453 -0.4061  0.7472  0.8173
 5956SOL    HW229331   4.052   0.262  11.317  0.3421 -3.1033 -0.7228
 5957SOL     OW29332   1.141   0.058  14.305 -0.2362  1.1269 -0.0212
 5957SOL    HW129333   1.133   0.124  14.374 -4.3226  2.2094 -1.5378
 5957SOL    HW229334   1.234   0.073  14.285 -0.3165  1.3648 -0.2141
 5958SOL     OW29335   0.109   0.330   2.092 -0.2081 -0.0867 -0.2676
 5958SOL    HW129336   0.198   0.324   2.129  0.3872 -2.4518 -2.0744
 5958SOL    HW229337   0.116   0.256   2.031 -0.3905  1.5339 -2.2447
 5959SOL     OW29338   0.725   2.259   0.639  0.5996  0.2376 -0.3690
 5959SOL    HW129339   0.689   2.347   0.654 -2.0775 -1.0238  0.5934
 5959SOL    HW229340   0.820   2.273   0.644  0.7300 -0.8120  0.0762
 5960SOL     OW29341   3.292   4.295   4.231 -0.1577 -0.1719 -0.0156
 5960SOL    HW129342   3.296   4.302   4.327 -0.3220 -0.6437  0.0287
 5960SOL    HW229343   3.325   4.205   4.224 -0.9874 -0.5401  0.7051
 5961SOL     OW29344   3.703   0.348  15.091  0.2543  0.4359  0.0318
 5961SOL    HW129345   3.676   0.431  15.132  0.0740 -0.4181  1.6645
 5961SOL    HW229346   3.737   0.373  15.006 -1.4883 -2.2664 -1.4585
 5962SOL     OW29347   2.645   2.558   4.045 -0.2557  0.4768  0.4049
 5962SOL    HW129348   2.626   2.499   3.972  0.0956 -0.7237  1.2894
 5962SOL    HW229349   2.654   2.492   4.114  1.8168  0.6516  0.2963
 5963SOL     OW29350   3.965   0.522   6.090  0.6384  0.5015  0.2650
 5963SOL    HW129351   4.053   0.543   6.123  1.6254 -0.7192 -1.5590
 5963SOL    HW229352   3.934   0.608   6.061 -0.5505 -0.4485 -1.2578
 5964SOL     OW29353   2.951   3.080   2.761 -0.1568  0.4448  0.2203
 5964SOL    HW129354   2.859   3.061   2.781 -0.4556 -2.9592 -4.3862
 5964SOL    HW229355   2.937   3.135   2.685  0.2453  1.1459  0.6558
 5965SOL     OW29356   4.445   2.766   3.165 -0.8365 -0.4003  0.2451
 5965SOL    HW129357   4.473   2.849   3.125  0.2551 -1.2764 -0.7786
 5965SOL    HW229358   4.375   2.798   3.222 -1.3290  1.9558 -1.6483
 5966SOL     OW29359   0.225   0.939   6.362 -0.4433  0.5326  0.9098
 5966SOL    HW129360   0.152   0.992   6.395 -0.2669  1.6574 -0.4743
 5966SOL    HW229361   0.189   0.853   6.383  1.3822 -0.6009 -0.5711
 5967SOL     OW29362   1.680   3.103   9.728 -0.0281 -0.8307 -0.0405
 5967SOL    HW129363   1.759   3.085   9.779 -0.0450  0.7189  0.5485
 5967SOL    HW229364   1.620   3.065   9.792 -1.3064 -0.9231 -1.2913
 5968SOL     OW29365   4.334   3.241   6.571  0.3731  0.7065  0.1673
 5968SOL    HW129366   4.310   3.334   6.572 -2.7519 -0.0983 -0.4996
 5968SOL    HW229367   4.336   3.216   6.663  0.6865  2.5670  0.6707
 5969SOL     OW29368   2.984   0.946   5.588 -0.2440  0.4638 -0.4907
 5969SOL    HW129369   3.054   1.004   5.559  1.0289 -1.2624 -0.8136
 5969SOL    HW229370   3.045   0.877   5.611  0.3847  1.4675  0.7988
 5970SOL     OW29371   4.034   0.738   2.926 -0.7557 -0.0354 -0.1650
 5970SOL    HW129372   4.124   0.764   2.905 -0.8489 -0.5406 -1.1885
 5970SOL    HW229373   4.013   0.794   3.000 -1.3358 -1.6265  0.8749
 5971SOL     OW29374   4.459   2.303   4.172 -0.0196  0.3046 -0.0814
 5971SOL    HW129375   4.553   2.302   4.155 -0.2323 -1.3967 -1.2645
 5971SOL    HW229376   4.426   2.322   4.084 -2.6506  0.4671  0.9499
 5972SOL     OW29377   1.227   3.181   4.449  0.4844  0.1865  0.0854
 5972SOL    HW129378   1.190   3.096   4.473 -0.0588  0.2624 -0.4844
 5972SOL    HW229379   1.182   3.179   4.364 -0.3337  1.3341  0.4927
 5973SOL     OW29380   3.237   2.748   5.490 -0.2492  0.0818  0.4351
 5973SOL    HW129381   3.189   2.706   5.561 -0.2962 -2.7524 -1.2630
 5973SOL    HW229382   3.293   2.801   5.546  1.8094  0.0181 -1.5762
 5974SOL     OW29383   4.151   0.820   8.179 -0.2558  0.9768  0.5628
 5974SOL    HW129384   4.061   0.788   8.186  1.1524 -3.4663 -1.5118
 5974SOL    HW229385   4.155   0.910   8.211 -0.5095  1.1289  0.1708
 5975SOL     OW29386   2.755   1.819   4.286  0.0775  0.2820  0.6076
 5975SOL    HW129387   2.756   1.756   4.214  0.6960  1.6239 -0.5348
 5975SOL    HW229388   2.775   1.900   4.239 -0.3532 -0.2011 -0.4153
 5976SOL     OW29389   0.493   4.687   3.633  0.2780 -0.3585 -0.1734
 5976SOL    HW129390   0.519   0.055   3.657  1.3910 -0.3018 -1.5967
 5976SOL    HW229391   0.400   4.704   3.644  0.5202  1.0812 -0.3726
 5977SOL     OW29392   4.005   0.467  15.609  0.0048 -0.6410  0.3845
 5977SOL    HW129393   4.022   0.377  15.581  0.6150 -1.1715  2.5015
 5977SOL    HW229394   4.095   0.490  15.629  0.4509 -0.7437 -1.4617
 5978SOL     OW29395   0.537   2.804  15.744  0.2923 -0.1244 -0.5271
 5978SOL    HW129396   0.454   2.798  15.791  0.0301  0.2464 -0.9484
 5978SOL    HW229397   0.503   2.829  15.659  0.2105  2.2310  0.1885
 5979SOL     OW29398   1.754   2.310  10.726 -1.1046 -0.0016  0.3743
 5979SOL    HW129399   1.733   2.392  10.683  0.1037 -0.2862 -0.7627
 5979SOL    HW229400   1.849   2.309  10.711 -0.9654 -1.2686  1.2932
 5980SOL     OW29401   3.437   0.187   2.597  0.0895 -0.2631 -0.1163
 5980SOL    HW129402   3.508   0.216   2.654  0.6515 -0.9048 -0.4999
 5980SOL    HW229403   3.474   0.108   2.559 -1.2261 -1.4165  0.9714
 5981SOL     OW29404   3.007   3.250   5.934 -0.4404 -0.1187 -1.1052
 5981SOL    HW129405   3.000   3.284   6.023  0.7789  1.1136 -1.4718
 5981SOL    HW229406   3.086   3.292   5.900  0.7113 -1.5874 -0.2343
 5982SOL     OW29407   4.694   4.696   2.443  1.0078 -0.0137 -0.2467
 5982SOL    HW129408   0.037   4.708   2.513  1.5998 -0.2635 -0.7448
 5982SOL    HW229409   0.018   4.635   2.384  0.9388 -1.5121  1.2529
 5983SOL     OW29410   1.239   1.007   6.210  0.0336  0.0025  0.6870
 5983SOL    HW129411   1.321   1.006   6.258  1.2513  1.5699 -1.3630
 5983SOL    HW229412   1.180   0.997   6.285 -1.1845 -1.0707 -0.4272
 5984SOL     OW29413   0.893   1.804   2.765  0.4890  0.8116 -0.0936
 5984SOL    HW129414   0.919   1.712   2.754 -2.5074 -0.2948  1.9868
 5984SOL    HW229415   0.799   1.798   2.748  0.3963 -0.1713  0.8022
 5985SOL     OW29416   1.920   1.876  14.215  0.5447 -0.0121  0.2015
 5985SOL    HW129417   1.945   1.797  14.168  0.3860  0.2587 -0.3336
 5985SOL    HW229418   1.834   1.846  14.246  1.4409 -0.7160  2.0278
 5986SOL     OW29419   3.598   4.647  17.236 -0.0748 -0.2703 -0.0484
 5986SOL    HW129420   3.636   4.675  17.153 -0.6818  1.7491  0.3546
 5986SOL    HW229421   3.505   4.636  17.216  0.1706 -0.4070 -1.0971
 5987SOL     OW29422   4.637   1.509   5.277 -0.1211  0.4493  0.0703
 5987SOL    HW129423   4.697   1.583   5.288 -0.7118  0.6910  1.7663
 5987SOL    HW229424   4.633   1.468   5.363  1.1936 -0.1406 -0.1548
 5988SOL     OW29425   2.217   3.697   3.206  0.4841  0.4587  0.5813
 5988SOL    HW129426   2.248   3.763   3.268  0.8029  0.7069  0.1556
 5988SOL    HW229427   2.126   3.717   3.183  1.1483  0.1278 -2.3639
 5989SOL     OW29428   1.677   0.322   0.748  0.2006  0.2978 -0.2443
 5989SOL    HW129429   1.659   0.411   0.718 -1.1701  0.0313 -0.1963
 5989SOL    HW229430   1.740   0.341   0.819 -0.8459 -1.4765  1.1539
 5990SOL     OW29431   1.051   2.320   9.791 -0.1976  0.0921 -0.1773
 5990SOL    HW129432   1.004   2.292   9.870  2.3287 -1.0427  0.9288
 5990SOL    HW229433   1.130   2.266   9.792 -0.8779 -0.9026 -0.5622
 5991SOL     OW29434   3.527   2.762   0.120 -0.1769 -0.1536  0.3892
 5991SOL    HW129435   3.494   2.829   0.060 -2.0688 -0.5034  1.0321
 5991SOL    HW229436   3.556   2.695   0.059  1.0593  1.8322 -1.1670
 5992SOL     OW29437   1.679   1.849   6.502  0.5560 -0.5538 -0.2238
 5992SOL    HW129438   1.766   1.810   6.511 -0.6362 -3.5759 -1.6498
 5992SOL    HW229439   1.625   1.770   6.500  2.0829 -1.5935 -0.3518
 5993SOL     OW29440   2.336   3.810   8.285 -0.0951 -0.2250  0.1680
 5993SOL    HW129441   2.268   3.869   8.319  0.5160  2.1634 -2.7912
 5993SOL    HW229442   2.415   3.862   8.298 -0.7254  0.8264 -0.1745
 5994SOL     OW29443   4.089   2.978  14.268 -0.5395  0.1739 -0.3015
 5994SOL    HW129444   4.118   2.894  14.305 -1.2944  0.1771  0.2931
 5994SOL    HW229445   3.995   2.960  14.264 -0.4749  0.3546 -2.5419
 5995SOL     OW29446   3.335   3.629   4.347 -0.1123  0.6507 -0.1038
 5995SOL    HW129447   3.242   3.652   4.352 -1.4010 -4.4070 -0.6360
 5995SOL    HW229448   3.326   3.543   4.305  1.3796  0.8614 -0.8488
 5996SOL     OW29449   1.927   4.207   6.841 -0.3127 -0.4583  0.2613
 5996SOL    HW129450   2.018   4.232   6.827 -0.5801  0.5595  0.3403
 5996SOL    HW229451   1.896   4.285   6.888 -0.9743 -2.2431  2.8244
 5997SOL     OW29452   4.140   2.641   6.824 -0.4331  0.2233 -0.1166
 5997SOL    HW129453   4.219   2.601   6.859 -1.1867  0.0275  1.3547
 5997SOL    HW229454   4.190   2.712   6.784 -1.2025 -0.0225 -1.5164
 5998SOL     OW29455   4.605   3.758  12.244 -0.4997 -0.2506 -0.3732
 5998SOL    HW129456   4.543   3.793  12.308  0.6105  0.5514  0.2533
 5998SOL    HW229457   4.607   3.827  12.178  1.0055 -2.0862 -2.2605
 5999SOL     OW29458   4.503   1.110   5.743 -0.3984  0.0672 -0.0193
 5999SOL    HW129459   4.410   1.117   5.766  0.6538  2.5016  3.4402
 5999SOL    HW229460   4.507   1.134   5.650 -3.4795  0.7259  0.0173
 6000SOL     OW29461   0.161   4.317  17.581 -0.5741  0.0750  0.3691
 6000SOL    HW129462   0.102   4.392  17.571 -1.0346 -0.2310  0.8175
 6000SOL    HW229463   0.237   4.362  17.542  0.4845 -2.4283 -0.4778
 6001SOL     OW29464   3.765   1.992   4.294  0.3285 -0.4913  0.7589
 6001SOL    HW129465   3.692   2.051   4.275 -0.0227 -1.3273 -0.5221
 6001SOL    HW229466   3.786   2.008   4.386  0.2074  0.6501  0.5878
 6002SOL     OW29467   3.489   3.239   2.382  0.4737 -0.1395  0.3075
 6002SOL    HW129468   3.472   3.176   2.312  1.8920 -0.4471  0.2519
 6002SOL    HW229469   3.581   3.261   2.368 -0.1827  3.1464  1.1411
 6003SOL     OW29470   0.343   0.682   8.647  0.0394 -0.2344  0.1856
 6003SOL    HW129471   0.377   0.660   8.734  0.6339  0.0675  0.0232
 6003SOL    HW229472   0.252   0.709   8.663 -0.4437 -1.5687 -0.2586
 6004SOL     OW29473   2.673   2.773  15.676  0.9789  0.1239 -0.2961
 6004SOL    HW129474   2.578   2.784  15.674  0.6440 -3.0956 -1.7377
 6004SOL    HW229475   2.695   2.832  15.748 -1.9513 -0.5326  1.1270
 6005SOL     OW29476   2.417   4.329   3.568 -0.6928  0.1082  0.1937
 6005SOL    HW129477   2.476   4.320   3.643 -0.6813 -0.2286  0.1451
 6005SOL    HW229478   2.341   4.371   3.606  0.1769  1.2744  0.6587
 6006SOL     OW29479   0.752   0.945   3.573 -0.4102  0.1216  0.6527
 6006SOL    HW129480   0.682   0.917   3.514  1.1203 -2.4967  0.0674
 6006SOL    HW229481   0.773   0.876   3.636 -0.2591  0.0073  0.4788
 6007SOL     OW29482   2.000   3.682   2.090 -0.2416  1.0097 -0.2003
 6007SOL    HW129483   2.079   3.735   2.097  1.1347 -1.0120 -0.4392
 6007SOL    HW229484   1.986   3.676   1.996 -0.9144 -1.8128  0.0557
 6008SOL     OW29485   4.479   3.431   8.234 -0.1238  0.4847 -0.5950
 6008SOL    HW129486   4.563   3.391   8.212  0.1453 -0.0544  1.4228
 6008SOL    HW229487   4.461   3.483   8.156  2.0132  1.5215 -0.4084
 6009SOL     OW29488   4.102   1.137   4.666 -0.2562  0.2307  0.2136
 6009SOL    HW129489   4.170   1.142   4.599 -1.0721 -0.4204 -0.6692
 6009SOL    HW229490   4.089   1.225   4.701  0.0531  1.4547 -2.7571
 6010SOL     OW29491   2.225   4.646   5.165  0.2473 -0.3603  0.4613
 6010SOL    HW129492   2.236   4.597   5.083  2.5733  1.1114 -0.1155
 6010SOL    HW229493   2.192   4.579   5.225  4.1793 -2.5620  0.1314
 6011SOL     OW29494   3.473   1.107   9.486 -0.7162  0.9043  0.2504
 6011SOL    HW129495   3.380   1.086   9.496 -0.4665 -0.7598 -0.9632
 6011SOL    HW229496   3.494   1.142   9.572  0.2540  0.9543 -0.0166
 6012SOL     OW29497   3.190   0.140   3.874 -0.3769 -0.0422  0.5789
 6012SOL    HW129498   3.184   0.054   3.832  1.1085  0.7935 -1.3579
 6012SOL    HW229499   3.179   0.118   3.967 -2.4151 -0.0619  0.3266
 6013SOL     OW29500   1.185   3.773   8.046  0.0252  0.4455  0.4911
 6013SOL    HW129501   1.234   3.782   8.127  0.4366 -1.2250  0.4311
 6013SOL    HW229502   1.202   3.684   8.016 -1.8265  0.1753  0.2132
 6014SOL     OW29503   0.743   3.510   4.948  0.4619  0.7440  0.1973
 6014SOL    HW129504   0.813   3.535   4.888  1.5307  1.2749  1.6812
 6014SOL    HW229505   0.758   3.415   4.951  1.5627  0.9058 -0.2614
 6015SOL     OW29506   1.605   1.433   4.815  0.5718  0.4631 -0.3232
 6015SOL    HW129507   1.677   1.405   4.871 -0.7306  1.0314  1.6494
 6015SOL    HW229508   1.623   1.527   4.821  1.8036  0.3304 -2.0488
 6016SOL     OW29509   4.042   2.282   7.529 -0.7453  0.0563  0.1145
 6016SOL    HW129510   4.106   2.321   7.469  0.1361 -3.1413 -0.9839
 6016SOL    HW229511   4.071   2.313   7.615 -0.3855  0.3799 -0.1188
 6017SOL     OW29512   0.942   2.613   8.324 -0.1819  0.0767  0.4562
 6017SOL    HW129513   0.889   2.692   8.313  0.2809  0.6534  2.2741
 6017SOL    HW229514   0.971   2.611   8.415 -0.9046  0.4020  0.6954
 6018SOL     OW29515   0.886   0.350  11.272  0.3885  0.1513  0.5414
 6018SOL    HW129516   0.920   0.263  11.292  0.5302 -0.2536 -1.5358
 6018SOL    HW229517   0.808   0.351  11.327 -0.8816 -0.8294 -1.2445
 6019SOL     OW29518   3.397   3.044   7.136  0.3656 -0.2569 -0.0988
 6019SOL    HW129519   3.485   3.009   7.125  0.1387 -0.7708 -0.2969
 6019SOL    HW229520   3.387   3.100   7.059  0.2585  1.1754  0.9487
 6020SOL     OW29521   0.894   4.531   8.330 -0.1473 -0.1896  0.3022
 6020SOL    HW129522   0.814   4.481   8.311 -1.1634  1.5305  0.0597
 6020SOL    HW229523   0.915   4.509   8.421 -2.0165  1.5703  1.1662
 6021SOL     OW29524   0.456   3.679   6.101 -0.1333 -0.3371 -0.1078
 6021SOL    HW129525   0.442   3.584   6.100  0.5909 -0.4112 -2.0378
 6021SOL    HW229526   0.376   3.710   6.059  1.2537  2.1725 -0.8599
 6022SOL     OW29527   2.328   0.290  14.500 -0.3115 -0.1353 -0.4093
 6022SOL    HW129528   2.375   0.372  14.483 -0.1742  0.3612  2.4649
 6022SOL    HW229529   2.285   0.312  14.582  1.1545 -0.9739  0.5830
 6023SOL     OW29530   0.277   2.899  13.816 -0.4071  0.3091  0.4584
 6023SOL    HW129531   0.345   2.836  13.791 -0.9432  0.9065 -2.5579
 6023SOL    HW229532   0.315   2.980  13.782  2.1748 -1.2275 -0.3340
 6024SOL     OW29533   3.884   2.145   4.861  0.4644  0.1500 -0.8177
 6024SOL    HW129534   3.969   2.167   4.899  0.4380 -0.0775 -0.6217
 6024SOL    HW229535   3.836   2.133   4.943  1.8277  0.8457  0.0862
 6025SOL     OW29536   1.436   3.161   5.284 -0.3315  0.6156 -0.3320
 6025SOL    HW129537   1.366   3.104   5.316 -0.9999  0.7863 -1.5210
 6025SOL    HW229538   1.451   3.127   5.196 -1.4555  0.0055 -0.2858
 6026SOL     OW29539   2.811   2.587   8.263 -0.0468 -0.0970  0.0911
 6026SOL    HW129540   2.822   2.495   8.287  2.7528  0.3208  0.3650
 6026SOL    HW229541   2.850   2.627   8.341  0.4788 -0.3701 -0.0295
 6027SOL     OW29542   4.252   4.646   2.011 -0.3536  0.5674  0.3418
 6027SOL    HW129543   4.212   4.619   2.093 -2.5324 -1.1134 -1.2828
 6027SOL    HW229544   4.186   4.612   1.950 -0.4215  3.8596 -1.4270
 6028SOL     OW29545   4.241   4.160   6.679  0.2706  0.6075 -0.4219
 6028SOL    HW129546   4.337   4.164   6.670  0.0023  1.9055 -2.6557
 6028SOL    HW229547   4.232   4.124   6.767 -1.5595  1.8443 -0.1118
 6029SOL     OW29548   1.479   3.154  17.133  0.4163 -0.0856  0.5339
 6029SOL    HW129549   1.403   3.154  17.076  2.5739  0.1558 -2.3250
 6029SOL    HW229550   1.435   3.136  17.216 -4.0012  1.5840 -1.4602
 6030SOL     OW29551   3.864   0.611   3.896 -0.2821  0.0200 -0.1003
 6030SOL    HW129552   3.810   0.652   3.964 -1.6634 -0.0272 -1.1683
 6030SOL    HW229553   3.819   0.530   3.869 -1.1192  0.0004  1.3357
 6031SOL     OW29554   0.037   0.382   8.668 -0.8080 -0.1031 -0.0041
 6031SOL    HW129555   0.075   0.412   8.750  0.9643  2.3812 -1.7287
 6031SOL    HW229556   0.100   0.406   8.600  0.2583  0.3244  1.1401
 6032SOL     OW29557   2.206   0.396   1.360 -0.2526 -0.2954  0.0394
 6032SOL    HW129558   2.279   0.399   1.421  0.0848 -1.7304 -0.3039
 6032SOL    HW229559   2.243   0.355   1.282  1.0936 -0.8482  0.9797
 6033SOL     OW29560   0.652   0.333  16.260  0.7744  0.1626 -0.2544
 6033SOL    HW129561   0.597   0.353  16.335 -1.1494  0.7823 -1.8415
 6033SOL    HW229562   0.681   0.244  16.282 -1.8308 -0.4094  0.8244
 6034SOL     OW29563   3.441   1.098   4.281 -0.5179 -0.1169 -0.3922
 6034SOL    HW129564   3.510   1.062   4.336 -0.1446  2.0506  0.5656
 6034SOL    HW229565   3.399   1.160   4.340  0.4104 -0.9305  1.1173
 6035SOL     OW29566   0.628   0.011   2.266  0.0612  0.4483 -0.4888
 6035SOL    HW129567   0.607   4.689   2.183  2.5696  0.3479 -1.0680
 6035SOL    HW229568   0.540   0.028   2.301 -0.2659  0.7073 -1.4408
 6036SOL     OW29569   0.733   3.066   5.918 -0.0811 -0.5074 -0.1133
 6036SOL    HW129570   0.654   3.025   5.953 -2.5073  2.6764 -1.8716
 6036SOL    HW229571   0.794   3.054   5.990  1.3924  0.0778 -1.2728
 6037SOL     OW29572   1.127   1.273   8.159  0.1570  0.1550  0.0103
 6037SOL    HW129573   1.048   1.221   8.142  1.5260 -1.6005 -0.9530
 6037SOL    HW229574   1.159   1.223   8.234 -1.7867 -2.4602 -0.9082
 6038SOL     OW29575   2.673   3.841   7.972  0.3945 -0.6973 -0.6986
 6038SOL    HW129576   2.620   3.761   7.975 -0.5171 -0.0551  0.2191
 6038SOL    HW229577   2.719   3.830   7.889  2.1207 -0.8719  0.2717
 6039SOL     OW29578   1.011   3.595   5.895  0.1375 -0.5273 -0.0591
 6039SOL    HW129579   0.937   3.534   5.898 -0.6095  0.4644  1.8983
 6039SOL    HW229580   1.032   3.595   5.989  1.3546 -3.6536 -0.3220
 6040SOL     OW29581   0.243   2.120  14.846 -0.7277 -0.0184 -0.4734
 6040SOL    HW129582   0.237   2.044  14.788  0.6727  0.1967 -0.8938
 6040SOL    HW229583   0.166   2.111  14.903 -0.1799 -0.0141  0.2658
 6041SOL     OW29584   2.396   0.019   3.128  0.1615 -0.0592  0.8686
 6041SOL    HW129585   2.385   4.646   3.112 -0.0067  0.3081 -1.0943
 6041SOL    HW229586   2.394   0.056   3.040  2.1637 -2.3339 -0.1351
 6042SOL     OW29587   1.194   2.610   0.710 -0.1223  0.5188  0.1725
 6042SOL    HW129588   1.154   2.564   0.784  1.5305 -0.3500  0.5328
 6042SOL    HW229589   1.192   2.700   0.741  0.5099  0.4290  0.4742
 6043SOL     OW29590   3.708   2.718   8.897  0.4574  0.5437 -0.1754
 6043SOL    HW129591   3.663   2.634   8.885  2.2158 -0.1742 -1.6173
 6043SOL    HW229592   3.631   2.775   8.906  1.0171  1.2827 -0.1099
 6044SOL     OW29593   2.535   1.409   8.543  0.1704  0.4082  0.5140
 6044SOL    HW129594   2.569   1.471   8.478  0.3833 -1.4539 -1.1736
 6044SOL    HW229595   2.614   1.364   8.572 -0.3365 -0.5585  0.3855
 6045SOL     OW29596   4.335   2.461   3.391  0.2192  0.1416  0.0478
 6045SOL    HW129597   4.275   2.476   3.317  1.2040  1.1985 -0.5324
 6045SOL    HW229598   4.298   2.510   3.464 -0.7135  1.4542 -1.2886
 6046SOL     OW29599   0.923   1.827  14.499  0.6453 -0.2285  0.1689
 6046SOL    HW129600   0.917   1.923  14.495 -0.9818 -0.3748 -0.7454
 6046SOL    HW229601   0.878   1.792  14.576  1.3041 -0.3220  0.5124
 6047SOL     OW29602   4.000   0.777   7.579 -0.3696  0.3331  0.1557
 6047SOL    HW129603   3.972   0.697   7.535  0.4564 -0.6319  1.3910
 6047SOL    HW229604   3.919   0.828   7.571 -1.0306 -0.4933  1.5090
 6048SOL     OW29605   4.250   3.066  15.137 -0.5936 -0.1181  0.3664
 6048SOL    HW129606   4.174   3.008  15.141 -2.1129  1.8643  0.3910
 6048SOL    HW229607   4.233   3.141  15.194 -0.2432  1.0619 -1.0849
 6049SOL     OW29608   4.211   3.696  13.774  0.2763 -0.0858 -0.0075
 6049SOL    HW129609   4.185   3.648  13.695 -0.5410  1.9674 -0.9874
 6049SOL    HW229610   4.146   3.662  13.835 -0.3263  0.2695 -0.4565
 6050SOL     OW29611   0.157   1.288  17.208 -0.5513 -0.3310  0.1011
 6050SOL    HW129612   0.136   1.195  17.215 -1.5102 -0.1667 -0.5906
 6050SOL    HW229613   0.102   1.307  17.283  1.4265  1.6296  1.0516
 6051SOL     OW29614   1.623   1.713   5.497  0.0470 -0.5076 -0.2356
 6051SOL    HW129615   1.552   1.706   5.433  0.1202 -1.3794 -0.2298
 6051SOL    HW229616   1.669   1.630   5.481 -0.7519 -0.8579 -0.7558
 6052SOL     OW29617   3.814   0.671   3.534 -0.0579  0.1423 -0.4876
 6052SOL    HW129618   3.724   0.703   3.536  0.0512  0.5760 -1.9760
 6052SOL    HW229619   3.834   0.711   3.448  1.2037  1.3994  0.3858
 6053SOL     OW29620   4.427   3.789   8.915 -0.5197  0.1016 -0.4870
 6053SOL    HW129621   4.458   3.702   8.941 -1.3185 -0.5001 -1.5404
 6053SOL    HW229622   4.348   3.757   8.872 -1.1221 -0.3369  0.9185
 6054SOL     OW29623   2.021   3.163  15.597 -0.2740  0.5135  0.3687
 6054SOL    HW129624   2.007   3.144  15.690 -3.3407 -0.0362 -0.1962
 6054SOL    HW229625   1.952   3.229  15.586 -1.3282 -0.7033 -0.2493
 6055SOL     OW29626   1.815   3.154   9.228 -0.2588  0.2990  0.1658
 6055SOL    HW129627   1.788   3.184   9.315 -0.2855 -2.9253  1.2495
 6055SOL    HW229628   1.779   3.222   9.171 -1.1512 -0.1708  0.1688
 6056SOL     OW29629   2.662   3.715  15.976 -1.1769 -0.3905 -0.5205
 6056SOL    HW129630   2.755   3.738  15.963 -0.9962  0.1603  1.7089
 6056SOL    HW229631   2.666   3.661  16.055  2.8241  0.4762 -0.0920
 6057SOL     OW29632   4.098   1.743   2.892  0.3543 -0.1392  0.1672
 6057SOL    HW129633   4.116   1.836   2.908 -2.0954  0.0584  1.8314
 6057SOL    HW229634   4.128   1.731   2.802 -1.4323 -0.0190 -0.4561
 6058SOL     OW29635   1.549   4.044   6.014  0.2833 -0.2284  0.3195
 6058SOL    HW129636   1.485   3.974   6.001 -2.3914  1.8717  2.2789
 6058SOL    HW229637   1.512   4.092   6.088 -3.8602 -1.0928 -1.2012
 6059SOL     OW29638   2.440   0.059   5.989 -0.1502  0.1518 -0.0400
 6059SOL    HW129639   2.411   0.028   6.074 -0.2511 -1.0701 -0.5217
 6059SOL    HW229640   2.356   0.038   5.949  0.0847 -1.4257  0.2794
 6060SOL     OW29641   0.631   2.084   7.819  0.0639  0.1289 -0.1393
 6060SOL    HW129642   0.544   2.123   7.810 -0.7151 -1.4381  0.5810
 6060SOL    HW229643   0.627   2.043   7.732  1.6964 -1.0231  0.3225
 6061SOL     OW29644   4.363   0.333   6.511 -0.0591 -0.0611 -0.3010
 6061SOL    HW129645   4.402   0.253   6.546 -0.2229  0.2954  0.6814
 6061SOL    HW229646   4.347   0.294   6.425 -0.4652 -0.4797 -0.0329
 6062SOL     OW29647   3.946   1.760   2.341  0.2418  0.1263 -0.1397
 6062SOL    HW129648   4.002   1.682   2.335  1.0093  0.7965 -1.7033
 6062SOL    HW229649   3.938   1.783   2.249 -0.5947 -0.7979 -0.3001
 6063SOL     OW29650   0.763   3.788   0.320  0.6742  0.2582  0.0858
 6063SOL    HW129651   0.813   3.741   0.386  0.7973  1.5790  0.9495
 6063SOL    HW229652   0.673   3.790   0.354  0.3398 -1.3100 -0.7120
 6064SOL     OW29653   3.056   0.770   4.227  0.3110 -0.4174 -0.2317
 6064SOL    HW129654   2.983   0.831   4.229  0.1715 -0.5305 -1.5386
 6064SOL    HW229655   3.109   0.811   4.158 -0.9655  1.4170 -0.1270
 6065SOL     OW29656   0.348   0.856   1.023 -0.2500  0.3701 -0.3592
 6065SOL    HW129657   0.257   0.880   1.041 -0.4335 -0.8162  0.2777
 6065SOL    HW229658   0.364   0.902   0.941 -2.8842 -1.3817 -1.8310
 6066SOL     OW29659   2.247   3.471   5.100  0.0107  0.3310  0.7042
 6066SOL    HW129660   2.178   3.504   5.156 -0.8223 -2.3866  1.2999
 6066SOL    HW229661   2.274   3.554   5.062 -0.6021  1.0040  1.7635
 6067SOL     OW29662   4.019   0.957   3.387  0.2326  0.3807  0.2279
 6067SOL    HW129663   3.978   0.881   3.346 -0.0539  0.6183  0.0766
 6067SOL    HW229664   3.957   0.997   3.448 -0.5252  1.7070 -1.4414
 6068SOL     OW29665   0.219   0.049   5.125 -0.4009 -0.1719 -0.0855
 6068SOL    HW129666   0.224   0.079   5.034 -0.1800  1.6500  0.5329
 6068SOL    HW229667   0.311   0.033   5.146  0.0860  1.5623 -0.9144
 6069SOL     OW29668   2.668   3.429  13.599  0.4620 -0.5332 -0.1835
 6069SOL    HW129669   2.629   3.412  13.513 -1.2327 -0.7900  0.6303
 6069SOL    HW229670   2.762   3.435  13.587  0.1748  0.8436 -1.7064
 6070SOL     OW29671   0.597   0.623   2.944  0.0471 -0.4384 -0.1340
 6070SOL    HW129672   0.627   0.545   2.898 -0.3464 -0.5822 -0.1458
 6070SOL    HW229673   0.502   0.614   2.934 -0.2151  0.8998  1.1504
 6071SOL     OW29674   1.534   2.014   3.168 -0.5463  0.4991  0.2173
 6071SOL    HW129675   1.616   2.064   3.163  1.7305 -3.1195  0.9988
 6071SOL    HW229676   1.566   1.937   3.215 -1.5538 -0.4776 -0.7114
 6072SOL     OW29677   1.034   2.244   9.144 -0.0755  0.0943 -0.3486
 6072SOL    HW129678   1.115   2.194   9.157  0.4226  1.7907  3.1001
 6072SOL    HW229679   1.060   2.328   9.182 -0.5778  1.2980 -2.7217
 6073SOL     OW29680   1.947   0.437   6.082  0.1616 -0.5284  0.2937
 6073SOL    HW129681   1.867   0.485   6.099  0.9866  2.1471 -3.4286
 6073SOL    HW229682   2.010   0.469   6.146  0.1507 -1.5377  0.8189
 6074SOL     OW29683   2.792   0.087   2.515 -0.4606  0.4971 -0.4507
 6074SOL    HW129684   2.818   4.719   2.490  0.1274  0.2871  0.8853
 6074SOL    HW229685   2.834   0.126   2.438 -2.3927 -1.3235 -2.3996
 6075SOL     OW29686   3.529   0.376   6.787 -0.5070  0.4021 -0.6608
 6075SOL    HW129687   3.497   0.333   6.866 -0.2783 -0.3971 -1.0031
 6075SOL    HW229688   3.612   0.334   6.767  0.3060  1.6624  0.0639
 6076SOL     OW29689   0.032   1.362  14.804  0.4104 -0.1556  0.3178
 6076SOL    HW129690   0.039   1.272  14.771  2.5696  0.2592 -0.3439
 6076SOL    HW229691   0.049   1.417  14.728  0.5583 -1.6788 -0.7555
 6077SOL     OW29692   4.019   2.923  14.613 -0.0972  0.1013  0.0604
 6077SOL    HW129693   4.051   2.869  14.541 -0.4372  1.6289 -1.2307
 6077SOL    HW229694   3.939   2.953  14.569 -0.5164 -1.0218  0.0452
 6078SOL     OW29695   3.485   0.724  14.290 -0.3854 -0.2145  0.2692
 6078SOL    HW129696   3.566   0.712  14.240 -1.3492  0.4063 -1.4543
 6078SOL    HW229697   3.480   0.819  14.288  0.4592 -0.1635  0.7828
 6079SOL     OW29698   4.411   4.070   2.421  0.3044 -0.2973  0.1302
 6079SOL    HW129699   4.369   4.155   2.408  0.6711 -0.2105 -0.4673
 6079SOL    HW229700   4.394   4.025   2.338 -0.7419 -0.3414  0.3668
 6080SOL     OW29701   3.205   3.973   4.015  0.0431 -0.2453  0.2594
 6080SOL    HW129702   3.190   3.878   4.018  0.5311 -0.3146  0.4526
 6080SOL    HW229703   3.121   4.011   4.040  0.0048  0.1732 -0.5159
 6081SOL     OW29704   2.166   1.342   7.326 -0.0650 -0.0036 -0.3359
 6081SOL    HW129705   2.212   1.374   7.404 -0.3266 -0.1338 -0.1293
 6081SOL    HW229706   2.090   1.300   7.366  0.3094 -0.0463  0.3242
 6082SOL     OW29707   4.025   2.998  10.065  0.1052 -0.6887  0.1408
 6082SOL    HW129708   4.043   3.090  10.046 -0.8707 -0.0794  2.1760
 6082SOL    HW229709   3.959   2.976  10.000  1.0690  0.4313 -1.1982
 6083SOL     OW29710   2.940   0.827  12.668  0.3334 -0.7222 -0.6037
 6083SOL    HW129711   2.895   0.768  12.607 -0.1894 -0.8962 -0.0538
 6083SOL    HW229712   2.952   0.778  12.750 -0.8130  0.4761  0.2805
 6084SOL     OW29713   3.264   0.037   4.940 -0.2872  0.0071 -0.3730
 6084SOL    HW129714   3.290   0.007   5.028  1.1470  1.7967 -0.1776
 6084SOL    HW229715   3.344   0.067   4.897 -0.0544 -2.3787 -1.5583
 6085SOL     OW29716   1.494   3.791   6.856  0.2658 -0.4033 -0.2257
 6085SOL    HW129717   1.547   3.730   6.806  2.5005  2.1421 -0.9795
 6085SOL    HW229718   1.550   3.811   6.931  0.2473 -0.2394 -0.2546
 6086SOL     OW29719   0.770   1.906  16.264  0.0222 -0.3788  0.8359
 6086SOL    HW129720   0.711   1.833  16.283 -0.6049 -0.0621  0.0397
 6086SOL    HW229721   0.853   1.859  16.254 -0.2577  0.0057 -3.2156
 6087SOL     OW29722   0.073   3.865   8.509  0.7621 -0.0131 -0.1166
 6087SOL    HW129723   0.082   3.960   8.519  0.3100 -0.1685  1.9312
 6087SOL    HW229724   0.142   3.847   8.445  0.3752 -2.6285  0.2041
 6088SOL     OW29725   2.627   3.473   5.629 -0.0888 -0.1243 -0.0114
 6088SOL    HW129726   2.564   3.537   5.662 -0.4073 -0.1078 -0.6599
 6088SOL    HW229727   2.698   3.521   5.587  2.2704 -3.2134  0.4397
 6089SOL     OW29728   2.337   2.911  11.533  0.0859 -0.2906  0.1785
 6089SOL    HW129729   2.338   2.819  11.560  0.3158  0.0245  1.2307
 6089SOL    HW229730   2.252   2.944  11.561  0.3624 -0.8470  1.6864
 6090SOL     OW29731   0.458   0.614   4.746 -0.4548  0.3219  0.2185
 6090SOL    HW129732   0.449   0.536   4.692  4.3995 -0.6697  0.8367
 6090SOL    HW229733   0.368   0.648   4.741 -1.1722 -1.8158 -1.2775
 6091SOL     OW29734   0.643   2.978   0.992 -0.4178  0.1703  0.2778
 6091SOL    HW129735   0.577   2.954   0.927 -0.1524 -1.3201  0.5786
 6091SOL    HW229736   0.697   2.900   1.001  1.1651  1.3626  1.2460
 6092SOL     OW29737   0.824   4.265   4.689  0.2856  0.0701  0.3158
 6092SOL    HW129738   0.741   4.271   4.641  0.8549 -0.8557 -0.7626
 6092SOL    HW229739   0.809   4.192   4.749 -0.2693 -0.9469 -1.0762
 6093SOL     OW29740   2.103   0.436  16.389  0.3712 -0.1554  0.2023
 6093SOL    HW129741   2.074   0.404  16.474 -0.6770 -1.1842 -0.5420
 6093SOL    HW229742   2.029   0.491  16.363  0.6348  1.5513  3.0601
 6094SOL     OW29743   4.456   2.849   5.327 -0.1359  0.0370 -0.5775
 6094SOL    HW129744   4.484   2.778   5.385  0.4733  1.3295  0.7228
 6094SOL    HW229745   4.479   2.809   5.243 -3.3201 -0.2135 -1.3554
 6095SOL     OW29746   4.263   2.019   2.933 -0.1212  0.5583 -0.5392
 6095SOL    HW129747   4.287   2.012   3.026 -1.9871 -0.3887 -0.1423
 6095SOL    HW229748   4.348   2.019   2.890 -0.4677 -2.8036 -1.1566
 6096SOL     OW29749   3.840   1.502   6.250 -0.0184  0.1244  0.3319
 6096SOL    HW129750   3.876   1.580   6.293  0.5804  1.6085 -2.8618
 6096SOL    HW229751   3.774   1.478   6.314 -0.6151  2.5559  0.6266
 6097SOL     OW29752   1.408   2.687   9.841  0.2805 -0.2349  0.3330
 6097SOL    HW129753   1.419   2.781   9.856  0.1785 -0.0970 -0.4200
 6097SOL    HW229754   1.318   2.669   9.868 -0.1737  0.2407 -0.8653
 6098SOL     OW29755   4.145   3.718   6.005 -0.1971 -0.0634  0.3742
 6098SOL    HW129756   4.091   3.640   6.017  0.2024 -0.2469  1.0059
 6098SOL    HW229757   4.118   3.762   6.086  0.1652  0.3903  0.2545
 6099SOL     OW29758   1.472   3.209  11.688  0.0377 -0.5184 -0.4949
 6099SOL    HW129759   1.419   3.162  11.624  1.0965  0.2922 -1.9567
 6099SOL    HW229760   1.414   3.284  11.706  0.0582 -0.5137 -0.4477
 6100SOL     OW29761   4.204   0.826  10.098 -0.0414 -0.3584  0.0752
 6100SOL    HW129762   4.257   0.864  10.028 -0.5222 -2.8312 -1.6310
 6100SOL    HW229763   4.257   0.751  10.126  0.3331 -0.2587 -0.3641
 6101SOL     OW29764   4.178   1.447   2.596  0.2268 -0.0486  0.3134
 6101SOL    HW129765   4.134   1.422   2.677  0.8546 -1.8157  0.1006
 6101SOL    HW229766   4.261   1.488   2.620  0.4632 -0.5642  0.3725
 6102SOL     OW29767   0.564   2.860   6.013 -0.1680  0.3297  0.1720
 6102SOL    HW129768   0.575   2.778   6.062 -2.6406  0.7750  1.4726
 6102SOL    HW229769   0.470   2.873   6.002 -0.4142 -1.9228 -0.5206
 6103SOL     OW29770   1.947   3.384  16.640  0.2299  0.2245 -0.1660
 6103SOL    HW129771   1.889   3.373  16.716  1.6470 -0.9075  0.7574
 6103SOL    HW229772   1.959   3.478  16.637 -2.7593  0.6247 -0.0847
 6104SOL     OW29773   1.442   4.613   9.346 -0.3276  0.4397 -0.1933
 6104SOL    HW129774   1.396   4.685   9.389  0.9025  1.3280 -0.3678
 6104SOL    HW229775   1.533   4.635   9.364 -0.0536  0.1934 -1.2899
 6105SOL     OW29776   4.095   2.253   6.575  0.2812  0.6176 -0.1509
 6105SOL    HW129777   4.052   2.323   6.526  0.8653 -0.7897 -2.6278
 6105SOL    HW229778   4.185   2.279   6.592  0.2796  0.6538 -0.2005
 6106SOL     OW29779   3.183   4.615   1.817 -0.3345  0.0598 -0.4962
 6106SOL    HW129780   3.109   4.555   1.811 -0.1750 -0.1323 -0.5315
 6106SOL    HW229781   3.260   4.559   1.820 -0.0944  0.4189  0.0809
 6107SOL     OW29782   0.720   0.626   4.588  0.1886 -0.0368 -0.2685
 6107SOL    HW129783   0.651   0.644   4.652 -0.2246 -0.8558 -0.4807
 6107SOL    HW229784   0.684   0.563   4.525 -1.5252  2.0375 -1.3626
 6108SOL     OW29785   0.242   0.085   3.568 -0.1022 -1.1563  0.5115
 6108SOL    HW129786   0.255   0.095   3.474 -0.1410  1.7444  0.8107
 6108SOL    HW229787   0.160   0.037   3.556 -1.2627  0.2467  2.7453
 6109SOL     OW29788   0.102   0.194  13.970  0.1128  0.0310  0.0852
 6109SOL    HW129789   0.013   0.221  13.947  0.1222 -0.5159 -0.5539
 6109SOL    HW229790   0.099   0.101  13.992 -1.7457 -0.0299 -0.4622
 6110SOL     OW29791   2.526   1.247   9.438 -0.3788 -0.0264  0.4186
 6110SOL    HW129792   2.502   1.228   9.529  0.5391  0.3371  0.7455
 6110SOL    HW229793   2.520   1.341   9.427  0.4537  0.1810  1.6158
 6111SOL     OW29794   1.740   0.846  14.910 -0.0359  0.0867 -0.2095
 6111SOL    HW129795   1.793   0.862  14.988  1.2788  1.4775 -1.3857
 6111SOL    HW229796   1.733   0.750  14.912  1.9732 -0.0472  0.4739
 6112SOL     OW29797   0.718   2.812   5.806  0.0223 -0.4494  0.4172
 6112SOL    HW129798   0.661   2.822   5.883  0.5394  1.1674  0.5833
 6112SOL    HW229799   0.744   2.904   5.811 -3.1400  0.4449  0.2976
 6113SOL     OW29800   2.926   3.430  16.390 -0.4370  0.3048  0.6933
 6113SOL    HW129801   2.971   3.426  16.474  0.8267  1.4761  0.0635
 6113SOL    HW229802   2.992   3.468  16.333 -0.7717 -0.8136 -0.4454
 6114SOL     OW29803   4.187   3.915  12.455 -0.3379  0.5786  0.9232
 6114SOL    HW129804   4.185   3.915  12.551 -1.9751  1.2585  0.8857
 6114SOL    HW229805   4.257   3.854  12.433 -0.1891  1.4321 -0.9486
 6115SOL     OW29806   1.793   4.062   1.701 -0.4476 -0.1766 -0.0821
 6115SOL    HW129807   1.844   4.020   1.770  2.2181  1.4130 -1.1086
 6115SOL    HW229808   1.726   4.109   1.751  1.4945  1.2963  1.0889
 6116SOL     OW29809   1.648   2.036   6.812 -0.5034  0.1685 -0.0505
 6116SOL    HW129810   1.561   2.045   6.773 -1.4372 -3.0452  1.2538
 6116SOL    HW229811   1.674   2.126   6.828  0.9229 -0.4915  1.2540
 6117SOL     OW29812   1.973   1.836   8.495  0.0031 -0.7134  0.3533
 6117SOL    HW129813   1.914   1.842   8.420 -0.8929  0.8536  1.1805
 6117SOL    HW229814   1.922   1.870   8.568  0.5043  1.5752 -0.3756
 6118SOL     OW29815   1.195   2.752   8.957 -0.1650 -0.1997  0.2594
 6118SOL    HW129816   1.238   2.681   9.005 -2.7205 -0.6983  1.7954
 6118SOL    HW229817   1.207   2.816   9.026  0.2133  1.7441 -1.6076
 6119SOL     OW29818   0.995   1.708   6.296 -0.1306  0.7662 -0.1417
 6119SOL    HW129819   0.990   1.708   6.200 -2.4819 -0.5948 -0.0331
 6119SOL    HW229820   0.909   1.749   6.311 -0.2075 -0.4859  2.8333
 6120SOL     OW29821   3.237   2.929  10.851 -0.3169 -0.8676 -0.0358
 6120SOL    HW129822   3.210   2.890  10.934  1.1965 -2.2480 -0.1894
 6120SOL    HW229823   3.201   3.018  10.855  2.7614  0.3847 -0.0486
 6121SOL     OW29824   3.197   2.472   2.604  0.3954 -0.1095  0.0404
 6121SOL    HW129825   3.236   2.397   2.560 -0.7073 -2.7427  3.4862
 6121SOL    HW229826   3.271   2.527   2.629  0.5474 -0.5625  0.5980
 6122SOL     OW29827   3.972   1.566   3.037 -0.2861  0.9343 -0.2475
 6122SOL    HW129828   4.025   1.634   2.996  1.7656 -0.9627 -0.7047
 6122SOL    HW229829   3.913   1.614   3.095 -1.5841 -1.4081  0.3687
 6123SOL     OW29830   3.735   1.770  14.739  0.1453 -0.2176  0.6029
 6123SOL    HW129831   3.788   1.741  14.665  2.4217  0.9111  1.7591
 6123SOL    HW229832   3.653   1.804  14.704 -0.1304 -0.8384  0.6634
 6124SOL     OW29833   4.249   3.711   7.233  0.5945  0.0807 -0.1953
 6124SOL    HW129834   4.272   3.786   7.288  1.5478 -0.7729  0.5754
 6124SOL    HW229835   4.275   3.641   7.293  0.4631  0.1342 -0.0765
 6125SOL     OW29836   0.575   0.888   1.320  0.1466  0.1056 -0.5494
 6125SOL    HW129837   0.595   0.909   1.229 -0.3812 -2.7932 -1.3360
 6125SOL    HW229838   0.664   0.861   1.345 -0.4146 -0.2573  1.0592
 6126SOL     OW29839   3.093   0.600   1.189 -0.1766 -0.4661 -0.4273
 6126SOL    HW129840   3.023   0.626   1.130 -0.7592  0.9128  0.8569
 6126SOL    HW229841   3.080   0.637   1.277  0.5630  0.4623 -0.7009
 6127SOL     OW29842   3.206   0.480   7.670 -0.3039  0.3665  0.0211
 6127SOL    HW129843   3.138   0.418   7.643  1.4695 -1.6019  0.0796
 6127SOL    HW229844   3.286   0.448   7.628 -0.4277  0.3956 -0.2339
 6128SOL     OW29845   2.870   3.540   6.492 -0.0827 -0.2603  0.4393
 6128SOL    HW129846   2.900   3.600   6.424  3.1164  0.2396  2.2989
 6128SOL    HW229847   2.946   3.520   6.547 -1.6832 -3.9084  1.3348
 6129SOL     OW29848   4.456   3.373   3.534  0.0976  0.2487 -0.0117
 6129SOL    HW129849   4.458   3.291   3.484  0.9843 -0.3406  1.0046
 6129SOL    HW229850   4.423   3.335   3.615 -1.8149  0.9467 -0.4622
 6130SOL     OW29851   3.592   1.059   8.556  0.0133 -0.2485  0.2899
 6130SOL    HW129852   3.621   0.988   8.499  1.6091  1.5072 -1.0882
 6130SOL    HW229853   3.647   1.134   8.534 -1.8189  1.1271  0.2953
 6131SOL     OW29854   1.743   1.124   4.293 -0.4661  0.7288 -0.6861
 6131SOL    HW129855   1.665   1.068   4.290  0.0036  0.1220 -1.5873
 6131SOL    HW229856   1.695   1.208   4.291 -1.7858 -0.0216 -0.6411
 6132SOL     OW29857   4.468   4.139  13.134  0.4058  0.1872  0.4025
 6132SOL    HW129858   4.421   4.175  13.209 -0.0727 -3.1675  1.7464
 6132SOL    HW229859   4.525   4.213  13.115 -0.9426  1.6953  2.3022
 6133SOL     OW29860   3.458   1.735   4.354 -0.4060  0.2460  0.2756
 6133SOL    HW129861   3.481   1.791   4.428 -0.1973  0.2582  0.2020
 6133SOL    HW229862   3.373   1.695   4.372 -1.1041  2.7249  2.3971
 6134SOL     OW29863   0.038   3.068   4.036  0.6059  0.3797 -0.8701
 6134SOL    HW129864   0.014   3.159   4.017 -1.5571 -0.1271 -0.5222
 6134SOL    HW229865   0.115   3.055   3.982  1.5644  2.1771  0.0558
 6135SOL     OW29866   2.904   0.033   7.565  0.5247  0.4141  0.0609
 6135SOL    HW129867   2.928   0.021   7.473 -1.1776 -0.6787 -0.2426
 6135SOL    HW229868   2.811   0.053   7.559  0.8730  1.4234 -2.1731
 6136SOL     OW29869   0.621   3.043   5.218 -0.2092 -0.1524 -0.4668
 6136SOL    HW129870   0.595   2.977   5.154 -0.7516 -1.8322  1.4662
 6136SOL    HW229871   0.714   3.020   5.226 -0.8252 -1.7734  2.2032
 6137SOL     OW29872   4.643   4.056  14.540  0.1112 -0.1198 -0.1049
 6137SOL    HW129873   4.695   4.049  14.460  0.0242 -0.9774 -0.0887
 6137SOL    HW229874   4.649   4.150  14.555 -0.6083 -0.4561  2.3287
 6138SOL     OW29875   2.236   0.771   7.335 -0.4356 -0.3008 -0.0697
 6138SOL    HW129876   2.205   0.680   7.339  1.6402 -0.8638  2.7131
 6138SOL    HW229877   2.323   0.762   7.374 -0.5145  0.4286  0.2509
 6139SOL     OW29878   1.626   2.001   3.530  0.1438 -0.8867 -0.2814
 6139SOL    HW129879   1.599   1.936   3.465 -0.4428 -0.8638 -0.0605
 6139SOL    HW229880   1.546   2.052   3.536  0.6029 -0.1439 -0.5052
 6140SOL     OW29881   2.079   0.765   2.680 -0.0378 -0.2527  0.1940
 6140SOL    HW129882   2.094   0.673   2.705  1.7582 -0.0073  0.0696
 6140SOL    HW229883   2.085   0.811   2.763 -1.0608  0.8523 -0.3499
 6141SOL     OW29884   0.354   1.192   6.699 -0.4655  0.5007 -0.3835
 6141SOL    HW129885   0.324   1.189   6.608 -0.0437 -1.1318 -0.4542
 6141SOL    HW229886   0.304   1.117   6.732  2.3300 -0.2746  2.0560
 6142SOL     OW29887   2.935   0.259   5.256 -0.5883 -0.0403  0.1660
 6142SOL    HW129888   2.845   0.279   5.231 -0.2066 -2.2793 -3.0148
 6142SOL    HW229889   2.969   0.337   5.211  1.2105  0.6474  2.7114
 6143SOL     OW29890   1.929   0.110  13.277 -0.0983 -0.1221  0.2093
 6143SOL    HW129891   1.840   0.127  13.308 -0.6016 -0.3953 -1.1008
 6143SOL    HW229892   1.949   0.198  13.248  2.3386 -0.3246  1.2479
 6144SOL     OW29893   1.918   0.705   6.260  0.4099  0.2436  0.4414
 6144SOL    HW129894   1.984   0.637   6.278  1.6231  1.1712 -0.4966
 6144SOL    HW229895   1.836   0.658   6.248  0.6309 -0.0733  0.1575
 6145SOL     OW29896   3.974   0.027   6.602 -0.0300  0.6855 -0.4766
 6145SOL    HW129897   4.040   4.704   6.548 -2.3118 -0.7903 -2.0623
 6145SOL    HW229898   3.894   4.696   6.596  0.6305 -0.4305  0.3234
 6146SOL     OW29899   4.711   0.357   9.817 -0.7754 -0.1095  0.3658
 6146SOL    HW129900   4.616   0.369   9.827 -0.9220  0.6085 -2.0345
 6146SOL    HW229901   0.013   0.433   9.870 -1.3904 -2.0723  3.4553
 6147SOL     OW29902   4.176   2.248   6.067 -0.0774  0.9339 -0.7045
 6147SOL    HW129903   4.206   2.307   5.998 -0.3890  0.7075 -1.0351
 6147SOL    HW229904   4.251   2.258   6.126 -1.3379 -1.5330  1.3072
 6148SOL     OW29905   4.183   0.850   5.037  0.1642 -0.1440  0.7358
 6148SOL    HW129906   4.142   0.922   5.085 -2.1116 -0.2543 -1.0218
 6148SOL    HW229907   4.274   0.854   5.068 -0.7416 -2.5701  3.6638
 6149SOL     OW29908   4.650   0.964   3.884  0.1570 -0.3598  0.0924
 6149SOL    HW129909   4.680   1.047   3.922 -3.6185 -0.2044  2.7460
 6149SOL    HW229910   4.560   0.983   3.858 -0.0743  0.8777  1.7799
 6150SOL     OW29911   3.262   1.945   7.293  0.2216 -0.1457  0.0123
 6150SOL    HW129912   3.332   1.925   7.232  0.8504 -0.8144  0.9535
 6150SOL    HW229913   3.275   2.038   7.312  1.2095 -0.0424 -1.1951
 6151SOL     OW29914   0.005   0.146   6.600 -0.0143  0.0640  0.6836
 6151SOL    HW129915   0.099   0.161   6.590 -0.3545  0.6844 -1.4098
 6151SOL    HW229916   4.704   0.109   6.515  2.6456  0.2354 -0.0711
 6152SOL     OW29917   0.451   3.061   0.346  0.9325  0.4395  0.1809
 6152SOL    HW129918   0.381   3.054   0.411  1.9246  1.3083  1.3218
 6152SOL    HW229919   0.503   2.985   0.373 -0.0091 -0.2526  0.0448
 6153SOL     OW29920   0.745   2.356   4.158 -0.2622 -0.1766  0.0808
 6153SOL    HW129921   0.707   2.342   4.071  0.3906 -1.7545  0.0490
 6153SOL    HW229922   0.683   2.298   4.202  1.6125 -1.6714  0.7313
 6154SOL     OW29923   1.792   3.226   8.142 -0.2799 -0.1432  0.2109
 6154SOL    HW129924   1.721   3.274   8.184  0.1520 -0.2188  1.0260
 6154SOL    HW229925   1.734   3.171   8.090  0.5455 -1.0555  0.2385
 6155SOL     OW29926   2.472   4.493   4.555 -0.4304  0.0899  0.0079
 6155SOL    HW129927   2.468   4.546   4.634 -0.8944  0.5404 -0.3144
 6155SOL    HW229928   2.442   4.554   4.487  0.2683 -0.3268 -0.6657
 6156SOL     OW29929   1.422   2.344   6.961 -0.2467  0.5933  0.0468
 6156SOL    HW129930   1.393   2.271   6.907 -0.2176  0.1770  0.5879
 6156SOL    HW229931   1.476   2.400   6.905  0.0478 -1.1814 -1.4602
 6157SOL     OW29932   0.657   3.020  12.047 -0.0108  0.6648  0.5624
 6157SOL    HW129933   0.596   3.025  12.121 -0.0115 -0.6626  0.6637
 6157SOL    HW229934   0.593   3.007  11.976  0.8693 -0.0842 -0.1031
 6158SOL     OW29935   3.904   1.362   9.483 -0.1045  0.3142 -0.4398
 6158SOL    HW129936   3.816   1.398   9.481 -1.3230 -2.5872  1.2270
 6158SOL    HW229937   3.914   1.322   9.396 -1.3239  0.1592 -0.5138
 6159SOL     OW29938   0.798   2.821   2.679  0.0189  0.2856 -0.4861
 6159SOL    HW129939   0.728   2.764   2.649 -0.0038  0.7420 -1.2993
 6159SOL    HW229940   0.748   2.872   2.744  0.0994 -1.8407  1.2321
 6160SOL     OW29941   0.887   1.970   4.800  0.2557  0.1406 -0.7851
 6160SOL    HW129942   0.890   2.060   4.766 -0.5256  0.3689 -0.2614
 6160SOL    HW229943   0.947   1.979   4.874 -1.1638  0.0829  0.3626
 6161SOL     OW29944   3.522   0.535   6.059  0.4636 -0.0874 -0.0205
 6161SOL    HW129945   3.580   0.460   6.054 -0.4990 -0.9976  2.2805
 6161SOL    HW229946   3.454   0.497   6.115 -0.2640 -1.5558 -1.9350
 6162SOL     OW29947   4.233   1.137   8.893  0.4553 -0.7414  0.0706
 6162SOL    HW129948   4.299   1.195   8.855 -0.2744 -0.9316 -1.4757
 6162SOL    HW229949   4.257   1.046   8.878  3.8990  0.6582 -2.9829
 6163SOL     OW29950   2.802   4.304   9.169 -0.2105 -0.4609  0.2863
 6163SOL    HW129951   2.708   4.316   9.181 -0.1461 -1.1907  1.5526
 6163SOL    HW229952   2.820   4.349   9.086 -0.0675 -0.5956  0.2427
 6164SOL     OW29953   2.410   2.015   6.055  0.1347 -0.6426 -0.1532
 6164SOL    HW129954   2.412   1.967   5.972  0.6599 -0.0581 -0.4785
 6164SOL    HW229955   2.388   1.940   6.110  0.2499 -0.4547  0.1534
 6165SOL     OW29956   2.137   0.506   2.672  0.2809 -0.1496 -0.3332
 6165SOL    HW129957   2.232   0.500   2.679  0.5107  1.7072 -1.9336
 6165SOL    HW229958   2.113   0.457   2.593  2.2877 -1.8055  0.1005
 6166SOL     OW29959   0.223   3.062   8.103 -0.2360 -0.1144 -0.7874
 6166SOL    HW129960   0.302   3.007   8.105 -0.0781  0.1488  0.4595
 6166SOL    HW229961   0.242   3.109   8.021 -2.1529 -1.4106 -1.9646
 6167SOL     OW29962   2.328   4.587   2.833 -0.3179 -0.1705  0.2586
 6167SOL    HW129963   2.422   4.602   2.825 -0.4353  1.7126  2.4091
 6167SOL    HW229964   2.302   4.580   2.741  0.3470 -0.1730  0.0736
 6168SOL     OW29965   1.786   3.253   8.700 -0.3968  0.4759  0.2782
 6168SOL    HW129966   1.866   3.305   8.694  1.3406 -2.3067 -0.5013
 6168SOL    HW229967   1.818   3.182   8.645  0.8868 -0.8638  2.7305
 6169SOL     OW29968   4.164   0.346  15.951  0.2823  0.3275 -0.2044
 6169SOL    HW129969   4.200   0.289  15.883 -0.0685  1.4578 -1.3456
 6169SOL    HW229970   4.077   0.371  15.919 -0.0884 -1.1233 -0.2950
 6170SOL     OW29971   4.223   0.206   7.440 -0.2046 -0.1588  0.3716
 6170SOL    HW129972   4.258   0.208   7.529  0.4283 -1.7531  0.1631
 6170SOL    HW229973   4.193   0.292   7.412 -0.8881 -0.3630  0.4806
 6171SOL     OW29974   2.064   0.929  10.988 -0.3517  0.0797  0.1296
 6171SOL    HW129975   2.152   0.964  11.007 -1.3547  3.4676 -1.5359
 6171SOL    HW229976   2.089   0.844  10.953 -3.1445 -0.5270 -0.3313
 6172SOL     OW29977   2.233   2.074   7.108 -0.2432 -0.0079  0.3244
 6172SOL    HW129978   2.177   2.092   7.183  1.4103  1.4744  1.2007
 6172SOL    HW229979   2.295   2.146   7.119  1.8373 -1.7789  0.2763
 6173SOL     OW29980   2.606   0.535  11.885  0.3318  0.0385  0.5185
 6173SOL    HW129981   2.537   0.541  11.818 -0.1818 -0.4209  1.0046
 6173SOL    HW229982   2.685   0.517  11.834 -1.3643 -0.7400 -1.8567
 6174SOL     OW29983   4.710   3.987   4.794  0.0579  0.2287  0.0137
 6174SOL    HW129984   0.050   3.984   4.868  0.6817  0.9463 -0.4741
 6174SOL    HW229985   0.010   4.072   4.755  0.0368  0.4878  0.5726
 6175SOL     OW29986   0.328   0.997   0.778  0.0813 -0.2807 -0.3547
 6175SOL    HW129987   0.318   1.084   0.741 -0.2790 -0.6593 -1.1295
 6175SOL    HW229988   0.407   0.967   0.733 -0.3632  0.2266 -1.4520
 6176SOL     OW29989   1.200   3.540   3.353 -0.2615 -0.8198 -0.2415
 6176SOL    HW129990   1.211   3.508   3.263  1.0986  1.6587 -0.9511
 6176SOL    HW229991   1.106   3.557   3.346  0.6924  4.9863  0.9942
 6177SOL     OW29992   2.487   3.030   6.849 -0.5791  0.6004  0.1184
 6177SOL    HW129993   2.565   3.064   6.806 -0.4303 -0.4250 -0.4329
 6177SOL    HW229994   2.520   2.970   6.916  0.3068  1.6885  0.6541
 6178SOL     OW29995   4.620   1.518   7.251  0.3942  0.4980  0.5725
 6178SOL    HW129996   4.670   1.478   7.322  2.1370 -3.4537 -2.8741
 6178SOL    HW229997   4.699   1.540   7.202  0.0439 -1.4091 -0.8671
 6179SOL     OW29998   0.252   2.007  12.628  0.3463 -0.1367  0.1309
 6179SOL    HW129999   0.249   1.914  12.648  0.2818 -0.4565 -1.4010
 6179SOL    HW230000   0.203   2.015  12.546  0.1599  0.8106  0.3292
 6180SOL     OW30001   2.014   3.630   6.404  0.5718  0.3608  0.0420
 6180SOL    HW130002   1.923   3.601   6.396  0.6804  0.6604 -2.4139
 6180SOL    HW230003   2.066   3.554   6.427 -0.6005 -0.6206 -0.5316
 6181SOL     OW30004   2.736   1.643  13.261  0.2550 -0.1060 -0.6577
 6181SOL    HW130005   2.775   1.731  13.258 -1.0570  0.3842 -3.5564
 6181SOL    HW230006   2.732   1.633  13.356  2.9784  1.4863 -0.3667
 6182SOL     OW30007   2.270   0.166   8.675  0.0471  0.5030 -0.1914
 6182SOL    HW130008   2.340   0.149   8.738 -0.3038  1.7641  0.5329
 6182SOL    HW230009   2.277   0.258   8.651 -0.2737  1.2498  2.5305
 6183SOL     OW30010   1.172   2.072   2.478 -0.3474  0.0014  0.1512
 6183SOL    HW130011   1.113   2.074   2.403  2.6483 -1.1739 -2.2307
 6183SOL    HW230012   1.258   2.107   2.453  0.2097 -2.8934 -1.9308
 6184SOL     OW30013   4.073   3.115   6.554 -0.4133 -0.6837 -0.2915
 6184SOL    HW130014   4.137   3.185   6.568  0.4166 -1.3058 -1.0014
 6184SOL    HW230015   4.084   3.064   6.635 -0.3622  2.1058  1.4729
 6185SOL     OW30016   3.970   2.155   7.926  0.3691 -0.0202 -0.4448
 6185SOL    HW130017   3.947   2.215   7.997 -2.2511 -1.5427  0.0084
 6185SOL    HW230018   4.023   2.210   7.868 -0.7087 -0.2657 -1.6661
 6186SOL     OW30019   1.829   2.988   1.357 -0.1860 -0.3639 -0.3254
 6186SOL    HW130020   1.882   3.056   1.399  1.6374 -1.1473 -1.3849
 6186SOL    HW230021   1.865   2.980   1.269  0.2632 -1.7088 -0.0056
 6187SOL     OW30022   1.763   2.453  12.565 -0.7460 -0.0811 -0.1764
 6187SOL    HW130023   1.677   2.427  12.599 -0.6170  1.0592  1.0279
 6187SOL    HW230024   1.805   2.369  12.545  1.5035  0.8542  0.7171
 6188SOL     OW30025   1.677   0.320   9.505 -0.1577 -0.0423 -0.4494
 6188SOL    HW130026   1.742   0.278   9.450 -0.6735  1.7987 -2.4903
 6188SOL    HW230027   1.706   0.411   9.512  2.5164 -0.9834  0.6843
 6189SOL     OW30028   3.228   2.800   8.443 -0.4115 -0.3366 -0.1872
 6189SOL    HW130029   3.209   2.755   8.361 -2.5631  1.1326 -0.5014
 6189SOL    HW230030   3.293   2.742   8.484 -0.1450 -0.1477 -0.3436
 6190SOL     OW30031   3.192   3.205  10.207  0.9273 -0.1402 -0.2590
 6190SOL    HW130032   3.223   3.294  10.194  1.1091 -0.0706  0.6414
 6190SOL    HW230033   3.101   3.233  10.201  1.4591  1.7629  0.6143
 6191SOL     OW30034   0.459   1.335   7.277  0.0374  0.0602 -1.0703
 6191SOL    HW130035   0.496   1.418   7.307 -1.0459  0.2519 -0.2971
 6191SOL    HW230036   0.448   1.361   7.185 -0.6284 -0.1073 -1.0386
 6192SOL     OW30037   2.493   2.072  11.038 -0.0192 -0.1499  0.6450
 6192SOL    HW130038   2.404   2.070  11.075 -1.5709  1.7631 -3.0528
 6192SOL    HW230039   2.466   2.080  10.947  3.8268  0.4856 -0.4294
 6193SOL     OW30040   0.146   3.596   8.335  0.0575 -0.2457  0.2782
 6193SOL    HW130041   0.239   3.598   8.313 -0.1963 -2.6691 -1.0500
 6193SOL    HW230042   0.140   3.553   8.420  1.3093  1.2590  1.1126
 6194SOL     OW30043   0.921   3.242   2.650 -0.3815  0.2114  0.3893
 6194SOL    HW130044   0.890   3.332   2.640  0.5719  0.4872 -0.0691
 6194SOL    HW230045   0.897   3.235   2.742  0.1217  0.6711  0.5540
 6195SOL     OW30046   1.592   2.233  12.507  0.0380 -0.4769 -0.1452
 6195SOL    HW130047   1.593   2.143  12.538 -0.3178 -0.4089  0.0633
 6195SOL    HW230048   1.674   2.236  12.458 -0.0569 -0.5464 -0.3117
 6196SOL     OW30049   2.097   3.583   0.272  0.0196  0.1848 -0.1210
 6196SOL    HW130050   2.051   3.502   0.293  0.5034  0.1229  0.7091
 6196SOL    HW230051   2.117   3.616   0.360  2.8835 -0.5575 -0.4760
 6197SOL     OW30052   4.136   4.449   7.010  0.0187 -0.2685  0.4610
 6197SOL    HW130053   4.188   4.436   7.090  2.5282  0.6711 -1.0162
 6197SOL    HW230054   4.185   4.524   6.977  0.0443 -0.4507  0.0849
 6198SOL     OW30055   2.935   2.417   6.333 -0.2707 -0.4135 -0.1757
 6198SOL    HW130056   2.844   2.427   6.362 -0.5896 -3.5341 -0.1827
 6198SOL    HW230057   2.980   2.434   6.415  0.5085  0.4996 -0.7933
 6199SOL     OW30058   0.227   0.921   1.405  0.2651 -0.1089  0.0062
 6199SOL    HW130059   0.151   0.950   1.455 -0.2892  0.0452 -0.9282
 6199SOL    HW230060   0.186   0.918   1.319 -1.1676 -2.8397  0.7907
 6200SOL     OW30061   0.596   1.150   6.216 -0.2802 -0.0351  0.0304
 6200SOL    HW130062   0.670   1.185   6.166 -0.9194  0.4186 -0.6028
 6200SOL    HW230063   0.631   1.143   6.305  2.1120 -0.1394 -0.9157
 6201SOL     OW30064   3.547   0.824   2.674  0.2990  0.4563  0.1716
 6201SOL    HW130065   3.634   0.820   2.714  0.7202  3.0519 -0.4886
 6201SOL    HW230066   3.547   0.760   2.603  1.6081  0.2209  0.3878
 6202SOL     OW30067   2.270   2.653  15.414  0.0069  0.3671  0.0634
 6202SOL    HW130068   2.321   2.683  15.490 -2.1603 -0.5995  1.8954
 6202SOL    HW230069   2.187   2.627  15.455  0.1305 -0.5001 -0.2340
 6203SOL     OW30070   2.680   1.457   3.893  0.2242 -0.1336  0.3438
 6203SOL    HW130071   2.594   1.442   3.852  0.7071 -0.0856 -0.6770
 6203SOL    HW230072   2.738   1.396   3.847 -0.4108 -0.5702  0.1071
 6204SOL     OW30073   2.966   2.034   7.003 -0.4228  0.1121 -0.1071
 6204SOL    HW130074   3.053   2.057   6.970  0.3735 -0.5130  1.5511
 6204SOL    HW230075   2.922   2.118   7.017 -3.8356 -1.5308 -0.9780
 6205SOL     OW30076   0.874   1.169   3.447  0.0901  0.0537 -0.1394
 6205SOL    HW130077   0.862   1.114   3.525 -0.5990  3.4050  2.1220
 6205SOL    HW230078   0.874   1.107   3.375 -0.6839 -0.7088  0.5203
 6206SOL     OW30079   1.647   3.106   2.913 -0.3091  0.6462 -0.3947
 6206SOL    HW130080   1.709   3.083   2.983 -0.5205  0.4547 -0.2710
 6206SOL    HW230081   1.710   3.121   2.843  0.2331 -0.8653 -0.2418
 6207SOL     OW30082   3.184   0.764  11.862 -0.9990 -0.1349  0.6013
 6207SOL    HW130083   3.278   0.766  11.881 -1.0742 -0.4559  1.0042
 6207SOL    HW230084   3.175   0.668  11.864 -1.1863 -0.1949 -2.3359
 6208SOL     OW30085   2.458   0.215   4.628  0.7037  0.0450  0.0724
 6208SOL    HW130086   2.504   0.297   4.614 -0.0684  0.2134 -1.4472
 6208SOL    HW230087   2.434   0.210   4.721  1.3764  0.1338  0.2504
 6209SOL     OW30088   0.939   4.067   6.352  0.1358  0.2839  0.1718
 6209SOL    HW130089   1.008   4.011   6.389  0.2865  1.0949  1.1394
 6209SOL    HW230090   0.941   4.147   6.405 -1.0329  0.4870 -0.0994
 6210SOL     OW30091   1.711   2.224   3.659 -0.0698 -0.6402  0.0948
 6210SOL    HW130092   1.706   2.135   3.624  1.3425 -0.2792 -1.0085
 6210SOL    HW230093   1.687   2.272   3.580  0.7042  0.9172  0.8013
 6211SOL     OW30094   4.291   3.537   9.061 -0.2585 -0.1794 -0.6722
 6211SOL    HW130095   4.206   3.581   9.058  0.1578  0.6938  0.6450
 6211SOL    HW230096   4.260   3.450   9.089  0.5635 -1.2051 -2.9703
 6212SOL     OW30097   3.505   0.011   6.425  0.2432 -0.5409 -0.2405
 6212SOL    HW130098   3.471   0.059   6.350  0.4741 -1.5734 -1.0086
 6212SOL    HW230099   3.436   4.671   6.452  0.8001 -0.8021  0.5995
 6213SOL     OW30100   2.684   0.534   2.369 -0.3838  0.0794  0.4321
 6213SOL    HW130101   2.599   0.490   2.375 -0.8108  0.7476 -0.7769
 6213SOL    HW230102   2.728   0.472   2.427 -1.4658 -1.4560 -0.4028
 6214SOL     OW30103   3.872   3.304   2.154 -0.1268  0.0150  0.4363
 6214SOL    HW130104   3.936   3.314   2.225  1.2664  2.6981 -1.2072
 6214SOL    HW230105   3.884   3.384   2.103 -3.6447  1.8605  2.4890
 6215SOL     OW30106   1.794   0.554   1.803  0.0262  0.5543  0.3418
 6215SOL    HW130107   1.854   0.541   1.730  0.2578 -0.0551  0.6367
 6215SOL    HW230108   1.831   0.632   1.844 -0.8337 -0.1251  2.4020
 6216SOL     OW30109   0.218   0.636   7.001  0.0792 -0.5410 -0.0704
 6216SOL    HW130110   0.302   0.599   7.026  0.6295  1.5391  1.0845
 6216SOL    HW230111   0.219   0.628   6.905 -1.9678 -1.0278 -0.0567
 6217SOL     OW30112   2.869   1.723   0.881 -0.2106  0.7647  0.1189
 6217SOL    HW130113   2.933   1.791   0.900  0.3923  0.9017 -2.3927
 6217SOL    HW230114   2.929   1.669   0.829 -2.2074 -0.0615 -1.3443
 6218SOL     OW30115   3.257   1.733   6.494 -0.1716 -0.6254  0.0153
 6218SOL    HW130116   3.224   1.663   6.550  0.3751 -0.0768  1.0380
 6218SOL    HW230117   3.215   1.806   6.539  0.8340 -0.5449  0.8468
 6219SOL     OW30118   4.074   2.732  13.215  0.0684 -0.3890  0.4226
 6219SOL    HW130119   3.981   2.744  13.197  0.2635  0.2856 -0.1106
 6219SOL    HW230120   4.098   2.670  13.145 -0.6396  2.0096 -1.9379
 6220SOL     OW30121   4.283   1.129   1.700  0.2115 -0.8390  0.4578
 6220SOL    HW130122   4.313   1.173   1.780 -2.5853  2.3400 -0.2630
 6220SOL    HW230123   4.290   1.037   1.727  0.8753 -1.0644 -0.5042
 6221SOL     OW30124   0.149   3.595   2.227 -0.2317  0.0784 -0.1630
 6221SOL    HW130125   0.064   3.569   2.265  0.6831  0.0137  1.8435
 6221SOL    HW230126   0.172   3.527   2.164  1.2826 -0.5133  1.0182
 6222SOL     OW30127   1.288   3.606   2.311  0.0578 -0.5364 -0.0430
 6222SOL    HW130128   1.271   3.541   2.380  0.1971 -1.7386 -1.1512
 6222SOL    HW230129   1.247   3.560   2.238 -0.1515 -1.6792  0.7893
 6223SOL     OW30130   3.476   1.293  13.819  0.0754  0.4902  0.7065
 6223SOL    HW130131   3.400   1.244  13.788  1.1515 -1.3276  0.9362
 6223SOL    HW230132   3.529   1.295  13.739 -0.6042  0.9622  0.2705
 6224SOL     OW30133   1.227   2.652  13.296  0.2189 -0.2078  0.4027
 6224SOL    HW130134   1.247   2.663  13.203 -0.4011 -1.7904  0.0792
 6224SOL    HW230135   1.181   2.733  13.318 -2.3902 -1.9480  1.2911
 6225SOL     OW30136   2.415   1.520   0.698  0.2583 -0.2512 -0.2166
 6225SOL    HW130137   2.355   1.571   0.753 -3.3466 -2.0090 -2.5390
 6225SOL    HW230138   2.379   1.431   0.698 -1.0834  0.3015 -1.5234
 6226SOL     OW30139   0.879   2.337   6.735  0.3512  0.6770 -0.2143
 6226SOL    HW130140   0.787   2.355   6.758  0.2047  0.0942 -0.3564
 6226SOL    HW230141   0.874   2.357   6.642 -0.7816 -0.7900 -0.4760
 6227SOL     OW30142   3.875   2.771   5.396  0.5004 -0.1811  0.2378
 6227SOL    HW130143   3.840   2.697   5.347 -2.5021  0.1077  1.9367
 6227SOL    HW230144   3.858   2.832   5.324 -1.4032  1.2659  1.8964
 6228SOL     OW30145   1.504   0.246   5.031 -0.1596  0.0750 -0.2113
 6228SOL    HW130146   1.538   0.228   5.118  0.5736  0.1239 -0.4931
 6228SOL    HW230147   1.514   0.159   4.994  0.0328  0.1528 -0.3403
 6229SOL     OW30148   3.070   3.166  16.307  0.0365 -0.2473  0.6164
 6229SOL    HW130149   3.136   3.135  16.245  1.7256  1.0451  1.7549
 6229SOL    HW230150   3.116   3.232  16.360 -0.9679  1.9787 -1.3022
 6230SOL     OW30151   1.892   0.581   9.017  0.3508  0.1253  0.5763
 6230SOL    HW130152   1.851   0.548   8.937 -0.2264 -0.4839  1.1249
 6230SOL    HW230153   1.838   0.545   9.087  1.0151  0.7226  1.3933
 6231SOL     OW30154   0.952   3.039   3.910 -0.1359 -0.0148 -0.0454
 6231SOL    HW130155   0.894   2.986   3.964 -1.3696 -1.6459 -2.9658
 6231SOL    HW230156   0.891   3.099   3.867  0.9742  2.1580  1.4188
 6232SOL     OW30157   1.772   2.116   5.123 -1.7910 -0.3285  0.0408
 6232SOL    HW130158   1.693   2.077   5.086 -1.3963 -1.2871  0.2235
 6232SOL    HW230159   1.794   2.161   5.041  1.6804  0.0456  1.1945
 6233SOL     OW30160   4.484   0.038  14.778  0.2668  0.1185 -0.4059
 6233SOL    HW130161   4.561   4.706  14.757 -0.7013 -1.0268 -1.0643
 6233SOL    HW230162   4.498   0.120  14.731 -0.0675  0.0357 -0.6457
 6234SOL     OW30163   2.469   0.644   8.446  0.0148  0.2082  0.2251
 6234SOL    HW130164   2.494   0.736   8.438 -0.7736  0.2092 -2.2645
 6234SOL    HW230165   2.374   0.658   8.447 -0.5401 -3.7358  1.4173
 6235SOL     OW30166   4.348   4.284  13.605  0.2307 -0.1314  0.0697
 6235SOL    HW130167   4.278   4.264  13.542  0.1856 -0.6999  0.2993
 6235SOL    HW230168   4.414   4.224  13.571  0.1045  0.5663 -1.4070
 6236SOL     OW30169   4.455   2.135   7.853  0.5419 -0.2404 -0.2958
 6236SOL    HW130170   4.368   2.102   7.829  0.4741 -1.3135  1.4940
 6236SOL    HW230171   4.430   2.199   7.920  2.7530  0.1354  0.1545
 6237SOL     OW30172   2.585   4.423   4.242 -0.0976 -0.1984 -0.5587
 6237SOL    HW130173   2.574   4.447   4.150  0.9023 -0.2333 -0.6862
 6237SOL    HW230174   2.629   4.502   4.274 -1.0093  1.2757 -2.9083
 6238SOL     OW30175   0.937   0.145  13.270 -0.1463 -0.0562 -0.5163
 6238SOL    HW130176   0.885   0.211  13.225 -0.3331  0.1180 -0.0522
 6238SOL    HW230177   0.880   0.119  13.343 -0.4845  0.0953 -0.7313
 6239SOL     OW30178   3.424   4.397  17.418  0.1448 -0.0023 -1.0439
 6239SOL    HW130179   3.329   4.404  17.429  0.4337  3.2115 -0.5981
 6239SOL    HW230180   3.458   4.441  17.496  0.7544  0.1340 -1.3803
 6240SOL     OW30181   1.873   3.456   4.448  0.3508  0.0399 -0.1125
 6240SOL    HW130182   1.919   3.372   4.456 -0.5350 -0.2718  1.8103
 6240SOL    HW230183   1.830   3.463   4.533  0.9507 -2.2613  0.3869
 6241SOL     OW30184   1.202   4.456   2.288 -0.3368 -0.2926  0.1907
 6241SOL    HW130185   1.168   4.380   2.334 -0.4862 -0.5310 -0.3079
 6241SOL    HW230186   1.295   4.435   2.293  0.2673  2.1007 -0.9985
 6242SOL     OW30187   0.006   3.940   8.959 -0.0168  0.0749  0.5423
 6242SOL    HW130188   4.642   3.932   8.915  0.6501  2.0663 -1.1264
 6242SOL    HW230189   0.055   4.004   8.907 -0.6948  0.7262  0.6973
 6243SOL     OW30190   1.473   0.748   7.460  0.4467  0.7067 -0.2165
 6243SOL    HW130191   1.490   0.793   7.544  1.2382  1.0639 -0.5661
 6243SOL    HW230192   1.501   0.658   7.477 -2.1444 -0.0276  0.0619
 6244SOL     OW30193   1.717   4.224   0.601 -0.2227 -0.1326  0.2431
 6244SOL    HW130194   1.631   4.265   0.595  0.2330  1.0668  1.7901
 6244SOL    HW230195   1.689   4.132   0.601  0.4508 -0.3472 -1.4702
 6245SOL     OW30196   1.976   2.643  10.140 -0.2065 -0.6466  0.1888
 6245SOL    HW130197   2.027   2.722  10.128  1.0717 -1.1531  2.2110
 6245SOL    HW230198   1.889   2.668  10.108 -0.4815 -0.6996  0.8981
 6246SOL     OW30199   2.052   0.308   1.594  0.0034 -0.1214 -0.3918
 6246SOL    HW130200   2.042   0.321   1.500  0.0193 -1.7005 -0.6033
 6246SOL    HW230201   2.065   0.396   1.630  0.3625 -1.5752  3.0084
 6247SOL     OW30202   3.168   0.553  14.397 -0.2910  0.2836 -0.2177
 6247SOL    HW130203   3.093   0.613  14.396 -2.1365 -2.0186  0.7148
 6247SOL    HW230204   3.121   0.471  14.413  0.0525  0.1299 -0.0012
 6248SOL     OW30205   1.574   1.225   6.498 -0.0689 -0.0747 -0.5168
 6248SOL    HW130206   1.529   1.219   6.582 -1.8236  0.6618 -1.4046
 6248SOL    HW230207   1.540   1.139   6.472  1.1421 -0.4858 -0.7339
 6249SOL     OW30208   3.895   1.206   1.427  0.0203 -0.4111  0.0875
 6249SOL    HW130209   3.918   1.147   1.355  0.3920  1.5379 -1.3925
 6249SOL    HW230210   3.974   1.259   1.440  0.5786 -1.1348 -0.2814
 6250SOL     OW30211   1.207   4.138   2.109 -0.2099 -0.3843  0.4120
 6250SOL    HW130212   1.290   4.179   2.131 -0.3967  0.7939 -1.0101
 6250SOL    HW230213   1.201   4.163   2.017 -1.7567 -2.0878  0.0496
 6251SOL     OW30214   3.381   2.335   4.576  0.3023 -0.0890 -0.3498
 6251SOL    HW130215   3.406   2.271   4.509  1.4874 -0.9122  0.8852
 6251SOL    HW230216   3.453   2.398   4.566  1.1070 -0.9209  0.2311
 6252SOL     OW30217   1.422   2.177   7.892 -0.2870 -0.4327  0.0530
 6252SOL    HW130218   1.411   2.248   7.828  0.1563 -2.0416 -1.8008
 6252SOL    HW230219   1.475   2.117   7.840 -1.9749 -0.6236 -1.4495
 6253SOL     OW30220   1.791   2.025   6.089  0.2171  0.2500  0.2899
 6253SOL    HW130221   1.707   2.015   6.133 -0.8421  0.6910 -1.6404
 6253SOL    HW230222   1.761   1.990   6.005  1.4459 -0.2422  0.0599
 6254SOL     OW30223   3.242   4.541   4.745  0.1321  0.1355 -0.0147
 6254SOL    HW130224   3.242   4.603   4.818 -0.8431 -0.8158  0.8060
 6254SOL    HW230225   3.322   4.500   4.779  1.3475  0.4024 -2.6288
 6255SOL     OW30226   3.490   2.873   8.685  0.6734  0.0330  0.4688
 6255SOL    HW130227   3.485   2.969   8.678  2.2220 -0.1859 -3.4239
 6255SOL    HW230228   3.565   2.853   8.630  0.5853 -0.7453  0.6358
 6256SOL     OW30229   0.490   4.714   5.169 -0.3080  0.3241  0.3990
 6256SOL    HW130230   0.571   0.037   5.146  0.3432 -1.9068 -1.5773
 6256SOL    HW230231   0.505   4.712   5.264 -0.9826  0.9495  0.5149
 6257SOL     OW30232   1.569   2.432   2.257  0.4094  0.4798 -0.7150
 6257SOL    HW130233   1.649   2.412   2.305  0.7100 -0.3846 -1.5761
 6257SOL    HW230234   1.570   2.527   2.252  0.1271  0.6313  2.1976
 6258SOL     OW30235   0.658   3.322   1.034  0.0331 -0.4224 -0.1636
 6258SOL    HW130236   0.565   3.341   1.043 -0.0443 -1.3626  1.0586
 6258SOL    HW230237   0.661   3.227   1.029 -2.6023 -0.5784  1.4161
 6259SOL     OW30238   1.654   2.742   2.507  0.1026 -0.2306 -0.3457
 6259SOL    HW130239   1.682   2.693   2.584  1.0617 -0.5758 -0.9181
 6259SOL    HW230240   1.564   2.714   2.496  0.2663 -1.5007  1.6960
 6260SOL     OW30241   0.373   2.442   2.374 -0.3603  0.9164  0.6727
 6260SOL    HW130242   0.428   2.427   2.451  2.9584  0.0211 -1.8710
 6260SOL    HW230243   0.295   2.460   2.426 -1.2863  1.2843 -0.8149
 6261SOL     OW30244   3.845   4.648   4.611  0.1265  0.0626  0.1330
 6261SOL    HW130245   3.905   4.588   4.566 -0.1948 -1.1162  1.2537
 6261SOL    HW230246   3.765   4.647   4.559 -0.8552 -1.8055  1.6718
 6262SOL     OW30247   1.972   1.192   9.465  0.1625  0.0375  0.3513
 6262SOL    HW130248   2.018   1.151   9.392 -0.0555  2.4489 -1.1319
 6262SOL    HW230249   2.030   1.165   9.536  1.9543  1.5280 -0.5622
 6263SOL     OW30250   2.018   4.562   5.619 -0.6428 -0.4013  0.0730
 6263SOL    HW130251   1.960   4.486   5.627 -0.1441 -0.8867 -0.9168
 6263SOL    HW230252   1.991   4.597   5.535 -2.1472  1.0730  1.1791
 6264SOL     OW30253   3.633   0.540   4.918  0.2283 -0.5081  0.4343
 6264SOL    HW130254   3.721   0.516   4.949  0.0819 -0.4274  0.9169
 6264SOL    HW230255   3.605   0.459   4.875 -1.2300  0.4104 -0.3470
 6265SOL     OW30256   1.835   3.364  15.557 -0.2594 -0.7957  0.4617
 6265SOL    HW130257   1.745   3.392  15.538  1.0402  3.1693  0.1948
 6265SOL    HW230258   1.887   3.445  15.560  1.7031 -2.0992  1.5151
 6266SOL     OW30259   0.038   1.597   9.553  0.6768 -0.3971 -0.1381
 6266SOL    HW130260   4.685   1.597   9.615  0.5063 -2.1180 -0.3265
 6266SOL    HW230261   0.118   1.591   9.605  0.2936  1.1404  0.6507
 6267SOL     OW30262   4.274   2.754   6.013 -0.3875 -0.4624  0.0933
 6267SOL    HW130263   4.327   2.835   6.012 -0.4745 -0.3978  0.4905
 6267SOL    HW230264   4.333   2.682   6.036 -1.4745 -0.5976  2.4870
 6268SOL     OW30265   3.120   3.831  10.923  0.0446 -0.0189 -0.0866
 6268SOL    HW130266   3.191   3.872  10.873  0.3381 -0.3281  0.0745
 6268SOL    HW230267   3.047   3.818  10.862  0.2997 -1.2315 -0.1312
 6269SOL     OW30268   4.305   3.636   8.448  0.7041  0.1807 -0.0943
 6269SOL    HW130269   4.393   3.603   8.432  1.1735  0.8812  0.9789
 6269SOL    HW230270   4.262   3.619   8.365  0.8450  0.2804 -0.1862
 6270SOL     OW30271   2.321   4.045   0.655  0.2359 -0.0525 -0.1542
 6270SOL    HW130272   2.403   3.997   0.660  0.5394  0.3698 -1.1463
 6270SOL    HW230273   2.359   4.131   0.640  0.0276 -0.3202 -2.1478
 6271SOL     OW30274   3.080   4.103   5.526  0.0622 -0.2777 -0.4722
 6271SOL    HW130275   3.152   4.053   5.486 -1.1177 -2.5896  0.2592
 6271SOL    HW230276   3.001   4.085   5.476 -0.0337  0.6797 -0.6651
 6272SOL     OW30277   3.935   1.467   5.042 -0.3319  0.0988 -0.5078
 6272SOL    HW130278   3.985   1.462   4.961  1.0661  0.6369  0.3306
 6272SOL    HW230279   3.895   1.380   5.041  0.8045 -0.4601  1.6856
 6273SOL     OW30280   2.760   2.215  10.412 -0.2171 -0.3052  0.0251
 6273SOL    HW130281   2.731   2.304  10.389 -1.6748 -0.6539  0.5859
 6273SOL    HW230282   2.843   2.239  10.454  0.0125 -1.4160  0.1923
 6274SOL     OW30283   2.001   0.704   5.084 -0.4278 -0.3027  0.9743
 6274SOL    HW130284   1.915   0.712   5.044 -0.7051 -0.4819  1.5278
 6274SOL    HW230285   2.050   0.669   5.009 -1.0758 -1.4334  1.0812
 6275SOL     OW30286   3.336   2.892   5.717  0.3340  0.3781 -0.0081
 6275SOL    HW130287   3.394   2.856   5.784  0.4431  0.7846  0.1166
 6275SOL    HW230288   3.265   2.937   5.764 -1.4155 -1.5865 -0.7900
 6276SOL     OW30289   1.822   2.979  11.079 -0.2486  0.0391 -0.7639
 6276SOL    HW130290   1.913   3.009  11.073 -0.3034  0.5453  0.6862
 6276SOL    HW230291   1.777   3.059  11.107  0.2289 -0.0386  0.2305
 6277SOL     OW30292   3.632   1.524   1.685 -0.5928  0.4572  0.2949
 6277SOL    HW130293   3.574   1.470   1.739 -0.6697 -0.7401 -0.9812
 6277SOL    HW230294   3.715   1.477   1.678  0.0617  1.2278  2.6709
 6278SOL     OW30295   3.687   0.972  17.385 -0.4636  0.0860  0.1207
 6278SOL    HW130296   3.717   1.013  17.466 -0.3726  0.5413 -0.1494
 6278SOL    HW230297   3.684   1.045  17.324  0.8268  0.9517  1.1040
 6279SOL     OW30298   1.745   1.734   0.960 -0.4612  0.4333 -0.2801
 6279SOL    HW130299   1.766   1.702   0.873 -0.2276  0.5667 -0.2718
 6279SOL    HW230300   1.831   1.739   1.001 -1.6130  0.8776  2.1114
 6280SOL     OW30301   2.449   2.347   4.475 -0.2371 -0.3106  0.0067
 6280SOL    HW130302   2.444   2.296   4.394 -0.7494  1.3040 -0.9630
 6280SOL    HW230303   2.513   2.415   4.457 -0.1616  0.0501  1.5706
 6281SOL     OW30304   0.908   2.584   0.432 -0.3972 -0.0617 -0.5172
 6281SOL    HW130305   0.838   2.609   0.493 -0.4666 -2.0133  0.1893
 6281SOL    HW230306   0.938   2.510   0.485  2.2159  0.2520 -1.5758
 6282SOL     OW30307   2.871   4.082   5.361 -0.2644 -0.2865  0.1321
 6282SOL    HW130308   2.789   4.103   5.316  0.7994 -1.9703 -2.6273
 6282SOL    HW230309   2.880   3.994   5.325  4.0538 -0.1379  0.8359
 6283SOL     OW30310   0.349   4.557   4.940 -0.1485  0.3751 -0.3212
 6283SOL    HW130311   0.411   4.581   5.009  0.2421  0.8106 -0.8264
 6283SOL    HW230312   0.315   4.645   4.921 -0.7607  0.1590 -0.2245
 6284SOL     OW30313   0.572   1.776   8.965 -0.5033  0.6241 -0.0166
 6284SOL    HW130314   0.534   1.722   9.035  0.3981  0.8368  0.6313
 6284SOL    HW230315   0.490   1.778   8.914 -0.5531  1.0998  0.0871
 6285SOL     OW30316   4.204   1.803   5.592  0.1640  0.2264  0.5663
 6285SOL    HW130317   4.132   1.795   5.655  1.2271  4.5067  2.2918
 6285SOL    HW230318   4.146   1.807   5.515 -1.2876  0.4260  1.6629
 6286SOL     OW30319   2.640   0.116  15.985  0.2717 -0.4396  0.8781
 6286SOL    HW130320   2.635   0.141  15.892  1.0470  0.0573  0.9752
 6286SOL    HW230321   2.697   0.186  16.015  0.6004  0.1686 -1.1607
 6287SOL     OW30322   2.613   1.162   3.717  0.3405  0.3537 -0.3444
 6287SOL    HW130323   2.638   1.131   3.804 -1.7748 -0.4041  0.0081
 6287SOL    HW230324   2.698   1.199   3.693 -0.6100  1.9535 -1.2505
 6288SOL     OW30325   2.300   3.367  13.699 -0.2460  0.0449 -0.6033
 6288SOL    HW130326   2.240   3.435  13.671  0.2742 -0.4929 -2.9760
 6288SOL    HW230327   2.332   3.418  13.773  1.7062 -0.3361 -1.1745
 6289SOL     OW30328   0.299   3.809   2.221 -0.3836 -0.1702  0.1377
 6289SOL    HW130329   0.243   3.732   2.218  0.1767 -0.6330  1.9871
 6289SOL    HW230330   0.246   3.866   2.276  1.4481  0.2843  1.4219
 6290SOL     OW30331   2.278   0.574  12.665  0.0018  0.0543  0.5538
 6290SOL    HW130332   2.345   0.640  12.683  0.9098 -1.0220  1.0909
 6290SOL    HW230333   2.195   0.620  12.674  0.3315  1.0678 -1.5762
 6291SOL     OW30334   3.686   4.478   6.822 -0.2378  0.0803  0.0910
 6291SOL    HW130335   3.633   4.547   6.782  1.3487  1.9176  1.1912
 6291SOL    HW230336   3.738   4.444   6.749  1.4400  1.6702  0.5395
 6292SOL     OW30337   0.373   2.510  15.741  0.7741 -0.5415 -0.2831
 6292SOL    HW130338   0.354   2.581  15.802 -0.5171  0.0887 -1.4384
 6292SOL    HW230339   0.321   2.539  15.666  1.5974 -0.6485 -0.8998
 6293SOL     OW30340   1.523   2.782  15.742  0.3088  0.4509  0.3756
 6293SOL    HW130341   1.458   2.754  15.678  0.0089  0.5684  0.6311
 6293SOL    HW230342   1.510   2.876  15.753  0.6044  0.4267  0.9290
 6294SOL     OW30343   0.711   1.250   8.337  0.5374  0.7006 -0.0260
 6294SOL    HW130344   0.635   1.298   8.304 -0.3007  0.3729  1.4039
 6294SOL    HW230345   0.681   1.215   8.421  0.0813 -0.1507 -0.5546
 6295SOL     OW30346   1.635   1.197   7.585  0.4808  0.1055 -0.1157
 6295SOL    HW130347   1.701   1.264   7.606  0.8065  0.1598 -1.3458
 6295SOL    HW230348   1.697   1.125   7.599  0.6930  0.1068 -1.0714
 6296SOL     OW30349   3.555   2.922   0.683  0.2004 -0.0781 -0.2581
 6296SOL    HW130350   3.531   2.905   0.592 -1.5456 -1.0661  0.3997
 6296SOL    HW230351   3.594   2.836   0.695  0.9391  0.2342 -0.4323
 6297SOL     OW30352   1.954   1.114  11.433  0.7438 -0.0502 -0.3258
 6297SOL    HW130353   2.005   1.173  11.376  0.0801  0.7993 -0.0408
 6297SOL    HW230354   1.981   1.033  11.390  1.9131  0.4458 -0.5357
 6298SOL     OW30355   2.694   0.214  16.518  0.5795 -0.2942  0.1244
 6298SOL    HW130356   2.687   0.143  16.582 -0.9016  2.5307  3.0899
 6298SOL    HW230357   2.660   0.290  16.565 -0.2786  0.5904 -1.9325
 6299SOL     OW30358   0.509   2.479   0.645 -0.4899 -0.4563 -0.2227
 6299SOL    HW130359   0.452   2.494   0.569 -1.2146  2.3594  0.8479
 6299SOL    HW230360   0.455   2.504   0.720  0.9189  0.5248  0.4692
 6300SOL     OW30361   3.592   0.193   8.312 -0.4511  0.6737 -0.4041
 6300SOL    HW130362   3.584   0.100   8.332  1.5905  0.0269 -2.6561
 6300SOL    HW230363   3.567   0.187   8.220  0.9237  0.2651 -0.7393
 6301SOL     OW30364   3.035   3.225  17.059 -0.4091  0.1844  0.0010
 6301SOL    HW130365   2.990   3.310  17.058 -0.0408  0.3444 -3.1074
 6301SOL    HW230366   3.032   3.208  17.153 -0.0315 -0.2920 -0.0782
 6302SOL     OW30367   0.318   3.360  11.009  0.1841  0.6048  0.4552
 6302SOL    HW130368   0.330   3.438  10.954 -0.5722  2.3806  2.7931
 6302SOL    HW230369   0.226   3.354  11.036 -0.0172  0.4396 -0.2841
 6303SOL     OW30370   4.108   3.520  13.261  0.1595  0.2383 -0.5028
 6303SOL    HW130371   4.046   3.539  13.190 -0.0258  0.4066 -0.2928
 6303SOL    HW230372   4.121   3.425  13.259 -0.4908  0.1811 -2.8633
 6304SOL     OW30373   1.518   0.343   4.592 -0.0699  0.4903 -0.4813
 6304SOL    HW130374   1.596   0.288   4.596 -0.0384  0.4591 -1.5526
 6304SOL    HW230375   1.537   0.401   4.666  0.6833  0.1981 -0.4384
 6305SOL     OW30376   0.849   0.322   2.559 -0.0793 -0.4958 -0.3365
 6305SOL    HW130377   0.846   0.307   2.465 -0.3712  0.0123 -0.4070
 6305SOL    HW230378   0.923   0.383   2.566 -1.2996  1.0658 -1.0877
 6306SOL     OW30379   0.166   2.745   9.902  0.6498 -0.0708 -0.3965
 6306SOL    HW130380   0.228   2.816   9.920 -1.3435  1.5423  0.0025
 6306SOL    HW230381   0.096   2.767   9.963 -0.1688 -3.4871 -0.0875
 6307SOL     OW30382   3.245   3.520  14.452  0.4860  0.0839  0.0075
 6307SOL    HW130383   3.209   3.603  14.484  1.2441 -0.0041  1.0898
 6307SOL    HW230384   3.164   3.486  14.414 -0.1267  2.0691 -0.5095
 6308SOL     OW30385   2.327   1.082   7.182  0.2599 -0.5360  0.3843
 6308SOL    HW130386   2.389   1.009   7.179 -0.8625 -1.5047  0.5472
 6308SOL    HW230387   2.297   1.091   7.092  2.4317 -1.9018 -0.4712
 6309SOL     OW30388   3.857   0.211   4.681  0.0371 -0.1525  0.1975
 6309SOL    HW130389   3.859   0.116   4.674  2.6683 -0.0475 -0.7591
 6309SOL    HW230390   3.915   0.229   4.755 -1.3951  0.1809  1.2349
 6310SOL     OW30391   0.546   2.041   0.627 -0.1187 -0.2932  0.0216
 6310SOL    HW130392   0.604   2.118   0.627 -0.1698 -0.2568 -1.3403
 6310SOL    HW230393   0.524   2.034   0.535 -1.6345 -0.9894  0.4458
 6311SOL     OW30394   1.313   0.176   3.589  0.4159 -0.4671  0.1694
 6311SOL    HW130395   1.349   0.259   3.620 -1.5816 -0.1620  1.6314
 6311SOL    HW230396   1.284   0.204   3.502  2.1693 -1.0849 -0.6249
 6312SOL     OW30397   1.411   1.508   6.252 -0.2733  0.4357 -0.5615
 6312SOL    HW130398   1.344   1.442   6.269 -0.4182  0.5702 -0.6111
 6312SOL    HW230399   1.413   1.505   6.156  0.1108 -1.2170 -0.5047
 6313SOL     OW30400   1.462   2.500   1.778 -0.4361  0.7833  0.1729
 6313SOL    HW130401   1.535   2.440   1.763  0.6078  1.3932  2.8499
 6313SOL    HW230402   1.453   2.555   1.700 -0.6826 -0.0230 -0.3688
 6314SOL     OW30403   3.131   2.920   7.334 -0.4798 -0.3695  0.3256
 6314SOL    HW130404   3.101   2.976   7.262  2.5829  0.0695 -0.6227
 6314SOL    HW230405   3.176   2.853   7.283  1.1758  1.0759 -0.1323
 6315SOL     OW30406   2.010   0.994   4.864 -0.2833  0.1950  0.1108
 6315SOL    HW130407   1.996   1.089   4.873 -3.0173  0.0417 -2.7655
 6315SOL    HW230408   2.102   0.986   4.887 -0.0713 -1.7400 -1.4667
 6316SOL     OW30409   3.902   2.130   6.765 -0.2452 -0.1205 -0.7787
 6316SOL    HW130410   3.952   2.170   6.836 -2.1476  1.2338 -0.1796
 6316SOL    HW230411   3.971   2.128   6.699  0.6989 -0.3952  0.2130
 6317SOL     OW30412   3.523   0.856  14.011  0.0371 -0.2651 -0.3317
 6317SOL    HW130413   3.545   0.948  14.002  2.9190 -0.7326  1.8999
 6317SOL    HW230414   3.611   0.822  14.027  0.2034 -0.5752 -1.9431
 6318SOL     OW30415   3.564   1.196   5.704  0.3912  0.0960  0.7919
 6318SOL    HW130416   3.543   1.103   5.701  1.8535 -0.1176 -2.8889
 6318SOL    HW230417   3.651   1.188   5.664 -1.1249  0.5752 -2.6868
 6319SOL     OW30418   0.024   4.625   3.293  0.2710 -0.3103 -0.0132
 6319SOL    HW130419   0.115   4.609   3.267  0.5800 -0.4963  1.1872
 6319SOL    HW230420   0.003   4.688   3.224 -1.1266 -1.5024 -0.6803
 6320SOL     OW30421   0.879   0.921   1.868 -0.3564  0.4030 -0.2213
 6320SOL    HW130422   0.801   0.941   1.818 -1.2436  0.0778  1.0394
 6320SOL    HW230423   0.931   0.886   1.796  0.8583  0.7957  0.4540
 6321SOL     OW30424   1.999   1.371   7.749 -0.8921  0.8891 -0.0717
 6321SOL    HW130425   2.071   1.400   7.694 -0.9320  0.3958 -0.3759
 6321SOL    HW230426   2.041   1.308   7.808  1.1166  0.8323 -1.5627
 6322SOL     OW30427   1.674   0.881  14.358  1.4136 -0.3074 -0.2525
 6322SOL    HW130428   1.708   0.810  14.413  1.3010  2.4148  3.3122
 6322SOL    HW230429   1.628   0.932  14.425 -2.3231 -2.5180 -1.1021
 6323SOL     OW30430   2.214   4.460  13.167  0.0332 -0.0380 -0.5493
 6323SOL    HW130431   2.120   4.481  13.168  0.0703  0.1540 -0.9173
 6323SOL    HW230432   2.224   4.429  13.257 -3.7277 -2.7992 -1.0776
 6324SOL     OW30433   2.335   1.210   7.494  0.4359  0.2321 -0.4504
 6324SOL    HW130434   2.256   1.172   7.532  0.8371  1.1176  1.2778
 6324SOL    HW230435   2.381   1.251   7.568 -1.1819  0.4277  0.4746
 6325SOL     OW30436   3.050   4.415   2.777  0.3419  0.2703 -0.1562
 6325SOL    HW130437   2.976   4.376   2.731  0.6369 -0.0664 -0.3462
 6325SOL    HW230438   3.016   4.416   2.867  0.7967 -1.3103  0.0497
 6326SOL     OW30439   3.404   4.434   0.402 -0.2799 -0.5751 -0.5599
 6326SOL    HW130440   3.309   4.423   0.399 -0.2986  0.0499 -2.2642
 6326SOL    HW230441   3.424   4.369   0.470  0.7760 -1.3885 -1.6653
 6327SOL     OW30442   0.918   3.820   8.114  0.0533 -0.2103 -0.1652
 6327SOL    HW130443   0.999   3.772   8.098 -0.4478 -1.0667 -0.1539
 6327SOL    HW230444   0.917   3.876   8.036  0.6472  0.9443  0.6759
 6328SOL     OW30445   2.942   4.395   6.626 -0.3427 -0.6765  0.5010
 6328SOL    HW130446   3.011   4.363   6.569 -0.5558  1.2788 -0.8447
 6328SOL    HW230447   2.994   4.442   6.691  0.5434  2.0678 -2.2103
 6329SOL     OW30448   1.660   3.968   0.161  0.7262  0.4332  0.4557
 6329SOL    HW130449   1.625   3.901   0.220 -1.5515  1.2154 -0.0028
 6329SOL    HW230450   1.633   4.048   0.205  1.9381  1.0084  0.1436
 6330SOL     OW30451   2.067   3.879  15.830 -0.8912  0.6324  0.0836
 6330SOL    HW130452   2.012   3.852  15.756 -1.4500 -1.5604  1.3226
 6330SOL    HW230453   2.151   3.905  15.793  0.0426 -1.0563  1.0707
 6331SOL     OW30454   1.428   2.636  12.766  0.7020  0.4271 -0.5822
 6331SOL    HW130455   1.389   2.639  12.853  0.9894  0.5716 -0.4561
 6331SOL    HW230456   1.504   2.691  12.788 -1.4778  4.3516 -2.9274
 6332SOL     OW30457   3.317   3.554  14.161 -0.6120 -0.1546 -0.1051
 6332SOL    HW130458   3.305   3.544  14.255 -0.9912 -0.8694 -0.2221
 6332SOL    HW230459   3.228   3.523  14.144 -1.8235  2.5302  1.4225
 6333SOL     OW30460   2.962   2.177   5.732 -0.3665 -0.0324  0.1709
 6333SOL    HW130461   2.954   2.090   5.693  0.7778 -1.2562  2.6268
 6333SOL    HW230462   2.986   2.232   5.658 -1.3550 -2.1013 -1.6786
 6334SOL     OW30463   3.228   2.720   5.062 -0.1855 -0.0620  0.6757
 6334SOL    HW130464   3.202   2.763   4.981 -0.1009  0.7250  1.0668
 6334SOL    HW230465   3.206   2.781   5.132  0.7541  0.4091  0.5505
 6335SOL     OW30466   3.114   0.807   2.581 -0.3893  0.1257 -0.0521
 6335SOL    HW130467   3.083   0.737   2.639  0.3875 -0.0639  0.1433
 6335SOL    HW230468   3.063   0.878   2.620 -1.0403 -0.1435 -0.4107
 6336SOL     OW30469   0.167   0.723   2.806 -0.5542  0.3688 -0.2352
 6336SOL    HW130470   0.096   0.660   2.804 -1.2403  1.1132  0.8909
 6336SOL    HW230471   0.117   0.802   2.785 -0.2856  1.2694  2.4864
 6337SOL     OW30472   0.144   2.421   2.545  0.4914 -0.0900  0.2040
 6337SOL    HW130473   0.059   2.461   2.533  0.1243 -0.0398  2.8034
 6337SOL    HW230474   0.134   2.328   2.523  0.5714  0.4541 -2.0728
 6338SOL     OW30475   2.693   0.990   0.217 -0.0244 -0.6207  0.5091
 6338SOL    HW130476   2.622   1.053   0.208  0.8954  0.0794 -1.9009
 6338SOL    HW230477   2.764   1.047   0.189 -1.2031  0.8580  0.5217
 6339SOL     OW30478   2.218   0.126   7.575 -0.6004  0.0001  0.5561
 6339SOL    HW130479   2.166   0.090   7.648 -0.0066  0.2537  1.1042
 6339SOL    HW230480   2.265   0.048   7.546  0.2758  0.6017  0.3654
 6340SOL     OW30481   3.027   2.463   6.876 -0.4957 -0.2600  0.2059
 6340SOL    HW130482   2.979   2.529   6.826 -1.3972 -0.9112  0.1963
 6340SOL    HW230483   3.015   2.386   6.820 -1.0348 -0.7400  0.9792
 6341SOL     OW30484   2.842   2.933   0.078  0.3655 -0.1485  0.1902
 6341SOL    HW130485   2.778   2.863   0.066  0.5531  0.1734 -2.8672
 6341SOL    HW230486   2.861   2.941  17.670  1.1923 -0.5365  0.3237
 6342SOL     OW30487   0.997   0.182   3.154 -0.5547  0.6769  0.3664
 6342SOL    HW130488   1.014   0.105   3.099 -2.3375  1.4110 -1.2078
 6342SOL    HW230489   0.902   0.197   3.147 -0.2555  2.6246  0.5700
 6343SOL     OW30490   0.095   2.629   4.536  0.0942 -0.1010 -0.3681
 6343SOL    HW130491   0.025   2.608   4.598  0.4136  0.6337  0.2295
 6343SOL    HW230492   0.052   2.618   4.451 -1.7014  0.0443  0.5096
 6344SOL     OW30493   3.544   0.136   5.817  0.1632  0.0993  0.2977
 6344SOL    HW130494   3.635   0.149   5.845 -0.3344  0.3376  1.7549
 6344SOL    HW230495   3.546   0.229   5.795 -2.5851 -0.5868 -2.7667
 6345SOL     OW30496   1.619   4.045   3.188 -0.4580 -0.3155 -0.6712
 6345SOL    HW130497   1.598   4.107   3.257 -0.8361 -1.8235  0.5688
 6345SOL    HW230498   1.578   4.085   3.111  0.0427  0.8302 -0.3479
 6346SOL     OW30499   0.026   0.699   7.485 -0.4084 -0.3997  0.1778
 6346SOL    HW130500   0.015   0.701   7.390 -0.6179 -1.3015  0.1806
 6346SOL    HW230501   0.056   0.788   7.502  0.5676 -0.7676  0.3922
 6347SOL     OW30502   2.212   1.709   0.841  0.0640  0.2367  0.7445
 6347SOL    HW130503   2.154   1.778   0.808 -1.4306 -1.2118  0.3194
 6347SOL    HW230504   2.241   1.741   0.926 -3.5406  1.8265  1.3733
 6348SOL     OW30505   1.287   2.876   5.119 -0.5197  0.2175  0.0742
 6348SOL    HW130506   1.357   2.927   5.079 -0.4743  1.0562  1.2359
 6348SOL    HW230507   1.214   2.920   5.074 -2.1766 -2.0423  0.5472
 6349SOL     OW30508   2.435   4.042   6.705  0.2385 -0.2016 -0.5189
 6349SOL    HW130509   2.399   3.981   6.640 -0.3241  0.0304 -0.4233
 6349SOL    HW230510   2.469   4.115   6.653 -1.2213 -0.7980 -2.3152
 6350SOL     OW30511   2.438   3.322   7.863  0.1343  0.2517 -0.1172
 6350SOL    HW130512   2.500   3.256   7.832 -0.6040 -0.8952  0.8470
 6350SOL    HW230513   2.401   3.283   7.942  0.3872 -0.7399 -0.4962
 6351SOL     OW30514   2.494   1.851   4.284 -0.3184  0.2958 -0.2028
 6351SOL    HW130515   2.496   1.919   4.350 -1.1472  1.6648 -1.5851
 6351SOL    HW230516   2.572   1.806   4.318  1.2947 -0.6288 -5.0629
 6352SOL     OW30517   2.685   3.829   8.698  0.1146  0.1732 -0.2630
 6352SOL    HW130518   2.692   3.885   8.776  0.8112 -2.3941  1.4966
 6352SOL    HW230519   2.590   3.818   8.693  0.3298 -1.2360 -0.9100
 6353SOL     OW30520   0.587   3.247   5.456 -0.1485  0.1068 -0.0533
 6353SOL    HW130521   0.646   3.208   5.391  1.1493  1.5366  0.2604
 6353SOL    HW230522   0.618   3.338   5.461  0.4198 -0.2182  2.2621
 6354SOL     OW30523   2.389   0.230   9.559 -0.1538  0.0994 -0.2082
 6354SOL    HW130524   2.335   0.209   9.636  0.9360  1.2634  0.8748
 6354SOL    HW230525   2.325   0.245   9.489  0.0879 -1.3472 -0.7415
 6355SOL     OW30526   1.058   2.582   5.839  0.0157  0.4001  0.7440
 6355SOL    HW130527   1.132   2.636   5.870  0.2583  2.1878 -2.9409
 6355SOL    HW230528   1.042   2.602   5.747  1.1549 -0.7054  0.3040
 6356SOL     OW30529   2.323   0.391  15.727 -0.0541 -0.0262  0.2971
 6356SOL    HW130530   2.236   0.352  15.736 -0.0935  0.8838  3.7444
 6356SOL    HW230531   2.348   0.388  15.819  1.1735 -1.7656 -0.1013
 6357SOL     OW30532   3.131   3.794  10.612  0.5116  0.3893 -0.1294
 6357SOL    HW130533   3.197   3.826  10.673  1.1730  1.1212 -1.2218
 6357SOL    HW230534   3.077   3.874  10.605  1.3259  1.0700  1.3319
 6358SOL     OW30535   4.517   4.114   6.615 -0.2373 -0.4533  0.7908
 6358SOL    HW130536   4.569   4.139   6.538 -0.0104 -3.9336 -0.1925
 6358SOL    HW230537   4.548   4.024   6.626  1.3068 -0.1774 -1.2370
 6359SOL     OW30538   4.532   2.302   5.181 -0.3879 -0.5452  0.0934
 6359SOL    HW130539   4.569   2.374   5.130  0.9012 -1.0222  0.3351
 6359SOL    HW230540   4.594   2.231   5.160  0.7050  1.6572 -4.0747
 6360SOL     OW30541   2.735   4.064   4.124 -0.5301  0.0291  0.2477
 6360SOL    HW130542   2.739   4.085   4.031  1.9111 -2.1686 -0.1500
 6360SOL    HW230543   2.643   4.083   4.140 -0.6730 -1.9256  1.7692
 6361SOL     OW30544   1.378   2.082   6.425  0.3178 -0.4300 -0.6737
 6361SOL    HW130545   1.324   2.003   6.427 -0.0766 -0.1341  0.4592
 6361SOL    HW230546   1.437   2.042   6.361  2.2957  2.4359 -0.6237
 6362SOL     OW30547   3.481   0.074   0.138 -0.2427 -0.4574 -0.3903
 6362SOL    HW130548   3.458   0.154   0.186  3.7519 -0.4085  1.4393
 6362SOL    HW230549   3.499   0.003   0.200 -2.4121  1.5004  2.4969
 6363SOL     OW30550   1.598   1.884  15.811 -0.2417 -0.2319  0.4976
 6363SOL    HW130551   1.572   1.927  15.892 -1.0758  2.7626 -1.4022
 6363SOL    HW230552   1.558   1.798  15.827  0.1664  0.1457  3.6847
 6364SOL     OW30553   1.205   0.972   3.653  0.1549 -0.2686  0.5699
 6364SOL    HW130554   1.195   1.067   3.651 -1.1597 -0.4078  1.1376
 6364SOL    HW230555   1.196   0.951   3.560  2.6995 -2.2850  0.7645
 6365SOL     OW30556   1.829   2.211  16.344 -0.8205 -0.7924 -0.3146
 6365SOL    HW130557   1.822   2.306  16.348  2.0461 -0.5954 -0.1118
 6365SOL    HW230558   1.824   2.198  16.250 -1.1976 -1.7823 -0.1621
 6366SOL     OW30559   0.066   4.570   3.999  0.2370 -0.1251 -0.2385
 6366SOL    HW130560   4.691   4.575   3.994  0.2517 -1.2855 -1.5982
 6366SOL    HW230561   0.093   4.653   3.961  0.8651  0.1341  0.7543
 6367SOL     OW30562   1.598   2.987   1.012 -0.1724  0.0508 -0.1062
 6367SOL    HW130563   1.626   2.931   1.084  2.5072  0.7550 -0.5788
 6367SOL    HW230564   1.653   3.063   1.033 -1.2180  0.1109  2.3452
 6368SOL     OW30565   2.531   0.154  12.664 -0.2821  0.2336 -0.5410
 6368SOL    HW130566   2.591   0.097  12.616  0.9031  1.0754 -0.0341
 6368SOL    HW230567   2.526   0.112  12.751  1.3784  1.8745  0.3365
 6369SOL     OW30568   2.410   0.562  11.013  0.3149  0.7110 -0.2745
 6369SOL    HW130569   2.486   0.513  11.044  0.8518  1.5855 -0.1904
 6369SOL    HW230570   2.450   0.647  10.992  2.1671 -0.1893 -0.4099
 6370SOL     OW30571   0.713   2.012   7.549  0.0976 -0.1676 -0.2300
 6370SOL    HW130572   0.803   1.984   7.565  0.3749  0.3928 -0.8412
 6370SOL    HW230573   0.682   1.953   7.480 -1.3999  2.8575 -2.1778
 6371SOL     OW30574   1.700   2.992   5.919  0.0632  0.4988  0.1459
 6371SOL    HW130575   1.689   2.897   5.916  0.0727  0.5121 -0.2982
 6371SOL    HW230576   1.764   3.010   5.851  0.0656  1.8858  0.5210
 6372SOL     OW30577   1.547   2.369   5.774  0.5580 -0.2020 -0.1920
 6372SOL    HW130578   1.468   2.318   5.791 -0.6364  1.7964  0.2877
 6372SOL    HW230579   1.510   2.453   5.749  0.3935  0.2344  1.5008
 6373SOL     OW30580   1.044   1.153   0.261  0.3338 -0.2238  0.1643
 6373SOL    HW130581   1.032   1.219   0.193 -0.9707  0.8519  1.4329
 6373SOL    HW230582   0.993   1.081   0.224  0.1113  1.5871 -3.0009
 6374SOL     OW30583   2.357   4.271   8.786 -0.2372  0.8012 -0.4407
 6374SOL    HW130584   2.335   4.203   8.850  4.1934 -0.5879 -0.4213
 6374SOL    HW230585   2.296   4.341   8.811 -1.4640 -0.0400 -1.0767
 6375SOL     OW30586   1.230   0.184  11.941  0.0016  0.0198 -0.1387
 6375SOL    HW130587   1.278   0.242  11.881  3.5672 -0.6665  2.0247
 6375SOL    HW230588   1.176   0.247  11.988 -0.9121 -1.2380  0.4883
 6376SOL     OW30589   0.342   0.401  12.439  0.1365 -0.3330  0.8168
 6376SOL    HW130590   0.314   0.334  12.501  1.4864 -1.5114  0.1595
 6376SOL    HW230591   0.263   0.431  12.394  0.8997 -0.7975 -0.8395
 6377SOL     OW30592   4.121   3.984   4.665  0.0453  0.7449  0.4827
 6377SOL    HW130593   4.031   4.014   4.650 -0.7767 -1.2133  1.5063
 6377SOL    HW230594   4.099   3.913   4.725  0.3451 -0.8891 -1.3365
 6378SOL     OW30595   3.652   1.564   6.793 -0.2918  0.1681  0.4494
 6378SOL    HW130596   3.577   1.621   6.777 -0.2117 -0.0262 -0.5960
 6378SOL    HW230597   3.626   1.474   6.775  0.1567  0.0069  0.5937
 6379SOL     OW30598   1.929   1.155  14.317 -0.6970  0.3080  0.3260
 6379SOL    HW130599   1.985   1.086  14.281 -1.8081 -0.5187  0.1443
 6379SOL    HW230600   1.846   1.126  14.278 -0.1995 -0.8512  0.1312
 6380SOL     OW30601   0.319   3.801  16.151 -0.2382  0.4514 -0.2221
 6380SOL    HW130602   0.245   3.856  16.176  0.0321 -0.0871  1.8101
 6380SOL    HW230603   0.386   3.867  16.169  0.1264 -0.0212  0.1788
 6381SOL     OW30604   2.786   1.992   8.318 -0.1131 -1.1303 -0.5509
 6381SOL    HW130605   2.875   1.965   8.340  0.5601 -0.5113 -2.4798
 6381SOL    HW230606   2.795   2.084   8.294 -0.5840 -0.7095  0.8547
 6382SOL     OW30607   2.098   2.636   5.763 -0.4893 -0.1521  0.1952
 6382SOL    HW130608   2.081   2.715   5.815 -0.3866 -0.8143  1.2246
 6382SOL    HW230609   2.009   2.616   5.734 -0.5041  1.2218 -0.7435
 6383SOL     OW30610   0.522   3.798   8.195 -0.0302 -0.0680 -0.2976
 6383SOL    HW130611   0.477   3.714   8.194 -0.2944  0.0972 -1.8230
 6383SOL    HW230612   0.593   3.769   8.252  1.4923  1.1944 -1.5586
 6384SOL     OW30613   1.445   3.787  14.296  0.2110  0.3363 -0.2024
 6384SOL    HW130614   1.512   3.788  14.227 -1.2448  1.8696 -1.6107
 6384SOL    HW230615   1.384   3.853  14.262 -0.9479 -0.5385  0.2135
 6385SOL     OW30616   4.185   1.765   2.651  0.1653 -0.8311 -0.4297
 6385SOL    HW130617   4.151   1.815   2.577  0.4276  1.8980  1.2861
 6385SOL    HW230618   4.275   1.790   2.631 -0.5478  1.8180 -0.2947
 6386SOL     OW30619   3.554   3.622   5.832  0.3036 -0.2010 -0.2978
 6386SOL    HW130620   3.546   3.528   5.818 -1.8557  0.1736 -1.4468
 6386SOL    HW230621   3.528   3.651   5.745  0.1610  1.4498  0.2906
 6387SOL     OW30622   2.232   3.655   4.723 -0.0034 -0.0267  0.4853
 6387SOL    HW130623   2.280   3.736   4.703  1.9254 -0.8449  1.7684
 6387SOL    HW230624   2.273   3.640   4.808 -0.5722  2.6813  1.2237
 6388SOL     OW30625   4.610   1.295   3.026 -0.4833  0.1790  0.1865
 6388SOL    HW130626   4.615   1.341   3.110 -0.9594 -0.7235  0.6993
 6388SOL    HW230627   4.648   1.211   3.053 -0.1871  0.6457  1.2259
 6389SOL     OW30628   3.781   4.093   5.275  0.2642 -0.0311 -0.1835
 6389SOL    HW130629   3.824   4.121   5.356  0.7525 -1.5393  0.0613
 6389SOL    HW230630   3.726   4.021   5.306 -0.6294 -0.0979 -1.9263
 6390SOL     OW30631   4.100   4.561   3.478  0.3120 -0.0035 -0.1688
 6390SOL    HW130632   4.018   4.571   3.527 -0.4414 -0.6887 -1.2751
 6390SOL    HW230633   4.060   4.544   3.392  0.7591 -1.3087 -0.1149
 6391SOL     OW30634   2.076   3.367   0.636 -1.0940  0.5576  0.5207
 6391SOL    HW130635   2.029   3.389   0.555  1.3486 -1.6267 -1.4952
 6391SOL    HW230636   2.118   3.452   0.651 -1.1351  0.5484  0.6846
 6392SOL     OW30637   1.700   1.057   9.384 -0.0155 -0.4195 -0.0200
 6392SOL    HW130638   1.791   1.063   9.357  0.2586  1.4650  1.2612
 6392SOL    HW230639   1.660   1.021   9.305 -3.2826  3.5034 -0.1470
 6393SOL     OW30640   1.958   2.220   3.776 -0.1601 -1.0546  0.1802
 6393SOL    HW130641   1.868   2.247   3.757 -0.1552 -1.9484 -1.1015
 6393SOL    HW230642   1.932   2.132   3.806  1.8971 -1.3141  1.2350
 6394SOL     OW30643   0.360   4.305  11.585  0.2210 -0.5566 -0.0522
 6394SOL    HW130644   0.322   4.306  11.673  1.0016  0.5892  0.2606
 6394SOL    HW230645   0.444   4.262  11.598 -0.2063 -1.1225  0.8421
 6395SOL     OW30646   3.142   4.658  11.394 -0.0578 -0.1054 -0.2913
 6395SOL    HW130647   3.229   4.674  11.358 -0.6235 -1.1615 -2.0981
 6395SOL    HW230648   3.164   4.575  11.437  0.4260  1.4679  2.5161
 6396SOL     OW30649   2.713   0.761  10.087 -0.2404  0.4018  0.3090
 6396SOL    HW130650   2.736   0.749   9.994 -0.3295  0.0267  0.3374
 6396SOL    HW230651   2.785   0.702  10.108  0.7560  2.1765  1.9045
 6397SOL     OW30652   3.855   2.214  10.336 -0.4492 -0.2465  0.3949
 6397SOL    HW130653   3.946   2.222  10.308 -0.1518  0.6730  1.6142
 6397SOL    HW230654   3.825   2.305  10.344  0.2807 -0.0764  1.2011
 6398SOL     OW30655   1.277   2.391   2.452  0.7580 -0.4500  0.0829
 6398SOL    HW130656   1.241   2.396   2.540  0.6643  1.3507 -0.0654
 6398SOL    HW230657   1.202   2.428   2.405 -0.3775 -0.7861  1.6291
 6399SOL     OW30658   3.458   4.046   3.689  0.1649  0.3106 -0.4502
 6399SOL    HW130659   3.416   3.968   3.653  0.2036 -0.0967  0.3886
 6399SOL    HW230660   3.386   4.090   3.735 -1.4763 -1.4967 -1.3117
 6400SOL     OW30661   4.361   3.446   0.625 -0.0226  0.0765 -0.1269
 6400SOL    HW130662   4.427   3.418   0.562  0.6549  1.1334  0.1247
 6400SOL    HW230663   4.389   3.406   0.707 -2.2131 -0.2349  0.4924
 6401SOL     OW30664   0.645   3.254   0.384 -0.4067 -0.3613 -0.3474
 6401SOL    HW130665   0.645   3.212   0.470  0.8369  0.0753 -0.1473
 6401SOL    HW230666   0.581   3.202   0.334  2.8619 -1.6611 -3.1498
 6402SOL     OW30667   1.407   4.040   6.989  0.4856  0.2096  0.1790
 6402SOL    HW130668   1.479   4.074   6.936  1.4052 -0.4765  1.0099
 6402SOL    HW230669   1.387   3.953   6.953  2.2220 -0.7876  1.6503
 6403SOL     OW30670   1.571   4.352   4.215 -0.3113 -0.1646  0.4052
 6403SOL    HW130671   1.580   4.279   4.154  1.6236 -0.8785  1.5407
 6403SOL    HW230672   1.659   4.351   4.252 -0.2101  1.4242  0.1908
 6404SOL     OW30673   4.190   3.374   0.953 -0.5063  0.2630  0.1199
 6404SOL    HW130674   4.183   3.454   1.005  0.3747  1.6618 -1.9248
 6404SOL    HW230675   4.275   3.386   0.911  0.3422 -0.4689  1.6198
 6405SOL     OW30676   0.956   2.331   3.262  0.3760  0.9894 -0.4569
 6405SOL    HW130677   1.017   2.395   3.300  1.4963 -0.7651  0.7377
 6405SOL    HW230678   0.963   2.356   3.170  1.2059  0.3032 -0.5855
 6406SOL     OW30679   3.746   2.455   2.316 -0.4387 -0.4452  0.8552
 6406SOL    HW130680   3.839   2.443   2.334 -0.8084 -2.1990  1.6203
 6406SOL    HW230681   3.746   2.499   2.231 -2.0445  1.4180  1.8335
 6407SOL     OW30682   3.872   0.761   3.284  0.2462 -0.1491  0.0553
 6407SOL    HW130683   3.903   0.691   3.226  2.4327  0.5190  0.4174
 6407SOL    HW230684   3.817   0.796   3.215  2.8962  2.0897 -0.9322
 6408SOL     OW30685   3.728   0.936   6.895  0.3033  0.1147  0.1245
 6408SOL    HW130686   3.770   0.950   6.810 -0.1489 -1.8242 -0.4101
 6408SOL    HW230687   3.704   1.026   6.916 -1.9835 -1.1068  2.6347
 6409SOL     OW30688   1.123   2.359   1.677  0.1245  0.2603 -0.0275
 6409SOL    HW130689   1.149   2.324   1.592 -2.4010  0.4312 -0.8609
 6409SOL    HW230690   1.029   2.366   1.657  0.0381 -1.4725 -0.2214
 6410SOL     OW30691   1.602   3.957   3.583 -0.1520  0.2663  0.4547
 6410SOL    HW130692   1.527   4.013   3.562  1.1392  0.6222 -3.2107
 6410SOL    HW230693   1.551   3.876   3.580 -0.1082  0.2372  0.4984
 6411SOL     OW30694   2.164   2.008   5.048  0.2978 -0.5040  0.3835
 6411SOL    HW130695   2.162   1.957   4.967 -0.5211  1.2604 -0.7198
 6411SOL    HW230696   2.119   1.943   5.102  1.2939 -0.7986  0.8528
 6412SOL     OW30697   1.597   0.607  12.932  0.3714  0.0542  0.0804
 6412SOL    HW130698   1.600   0.538  12.998 -0.7125 -0.9794 -0.9645
 6412SOL    HW230699   1.679   0.652  12.955 -0.2779  1.0030  0.5656
 6413SOL     OW30700   3.587   3.555   0.004 -0.6140 -0.3843 -0.6378
 6413SOL    HW130701   3.518   3.578  17.627 -1.4825  1.2458  0.9329
 6413SOL    HW230702   3.666   3.577  17.640 -0.7383 -1.5495 -1.3340
 6414SOL     OW30703   3.409   2.085   4.401  0.6208 -0.1541 -0.9291
 6414SOL    HW130704   3.334   2.071   4.343  0.0610 -0.1320 -0.2113
 6414SOL    HW230705   3.464   2.123   4.332  1.3130 -0.6452 -0.6511
 6415SOL     OW30706   1.086   4.487   5.278 -0.0454 -0.4662  0.3506
 6415SOL    HW130707   1.102   4.485   5.372 -1.8800 -0.4714  0.6551
 6415SOL    HW230708   1.027   4.415   5.254 -0.2520 -0.3974  0.6658
 6416SOL     OW30709   1.709   0.856   8.000 -0.6523 -0.0275 -0.3401
 6416SOL    HW130710   1.693   0.875   8.093  1.8674  3.8282 -0.6704
 6416SOL    HW230711   1.765   0.927   7.968 -0.1128 -0.6876 -0.8780
 6417SOL     OW30712   3.213   1.970  14.693  0.1381  0.7492 -0.3359
 6417SOL    HW130713   3.161   1.902  14.736  1.0229 -1.0845 -2.1744
 6417SOL    HW230714   3.293   1.920  14.683 -0.8156 -0.5035 -1.5843
 6418SOL     OW30715   0.771   4.047   1.602 -0.0203 -0.4324  0.2767
 6418SOL    HW130716   0.679   4.071   1.588  0.2834  0.6938  0.1600
 6418SOL    HW230717   0.810   4.116   1.548 -0.5637 -0.9000 -0.7065
 6419SOL     OW30718   4.644   0.370   2.331 -0.2091  0.3942  0.0591
 6419SOL    HW130719   4.697   0.361   2.252  0.8980 -1.1303  0.9572
 6419SOL    HW230720   4.678   0.452   2.366  0.5014  0.3212 -0.4655
 6420SOL     OW30721   0.479   2.977   3.628 -0.3323 -0.0155 -0.4607
 6420SOL    HW130722   0.495   2.931   3.710 -2.5698  1.5364  0.8468
 6420SOL    HW230723   0.459   2.901   3.573 -2.0445 -0.7833  1.2281
 6421SOL     OW30724   3.656   2.991   9.575  0.1815 -0.0101 -0.2626
 6421SOL    HW130725   3.710   2.927   9.530  4.2872  3.6571 -0.5978
 6421SOL    HW230726   3.619   2.940   9.647 -0.6171 -2.0571 -2.1572
 6422SOL     OW30727   1.460   2.593   3.431 -0.5317  0.1470 -0.2148
 6422SOL    HW130728   1.456   2.613   3.525  0.1152 -1.9179  0.2758
 6422SOL    HW230729   1.420   2.670   3.392  1.7975  0.8638 -1.1691
 6423SOL     OW30730   3.341   3.847   6.304  0.3575 -0.3733  0.4189
 6423SOL    HW130731   3.392   3.817   6.228 -0.7480 -1.0798 -0.0446
 6423SOL    HW230732   3.415   3.890   6.347 -0.5861  0.9175  0.7496
 6424SOL     OW30733   1.438   1.721   2.532  0.8099  0.4548 -0.5596
 6424SOL    HW130734   1.519   1.679   2.503  0.0021 -0.2780 -1.7241
 6424SOL    HW230735   1.444   1.801   2.479 -2.7798  1.1480  0.0730
 6425SOL     OW30736   3.286   4.192   9.824  0.4643  0.3803 -0.3116
 6425SOL    HW130737   3.254   4.204   9.734  0.7751 -0.3769 -0.5242
 6425SOL    HW230738   3.305   4.286   9.832 -0.9862  0.8257 -1.8663
 6426SOL     OW30739   3.970   1.774   5.757  0.0879 -0.2142  0.3827
 6426SOL    HW130740   3.938   1.857   5.792  2.1804 -0.0254  1.8479
 6426SOL    HW230741   3.895   1.715   5.750  1.0593 -1.1137 -2.4365
 6427SOL     OW30742   2.423   0.167   2.618 -0.7661 -0.1049  0.0624
 6427SOL    HW130743   2.429   0.072   2.608 -2.4444 -0.4056  1.8515
 6427SOL    HW230744   2.375   0.171   2.536 -0.0340  0.7008 -0.3280
 6428SOL     OW30745   1.030   2.209   5.187 -0.2206 -0.1094 -0.3705
 6428SOL    HW130746   1.077   2.293   5.192  0.7680 -0.6077 -1.2612
 6428SOL    HW230747   0.967   2.227   5.257  0.0309 -1.4490  0.1997
 6429SOL     OW30748   0.337   4.167  16.754 -0.2372  0.1838  0.3118
 6429SOL    HW130749   0.345   4.164  16.849 -0.2419  1.3913  0.3477
 6429SOL    HW230750   0.357   4.076  16.733 -2.2096  0.3329 -2.1932
 6430SOL     OW30751   0.872   1.253   2.450 -0.2793  0.1561 -0.1290
 6430SOL    HW130752   0.943   1.301   2.407  0.1135 -0.2038  0.1200
 6430SOL    HW230753   0.907   1.164   2.453  0.2276  0.2811 -2.2377
 6431SOL     OW30754   3.622   3.708   3.891  0.2287  0.3978  0.1445
 6431SOL    HW130755   3.697   3.686   3.946  0.0487  1.4055  0.8056
 6431SOL    HW230756   3.618   3.804   3.901  0.5882  0.4123  0.1544
 6432SOL     OW30757   1.077   2.848   7.267  0.5152  0.4219 -0.3103
 6432SOL    HW130758   1.035   2.837   7.182  1.3610 -0.8279 -0.5756
 6432SOL    HW230759   1.105   2.756   7.275 -0.3144 -0.1149 -3.7414
 6433SOL     OW30760   1.846   3.396  15.925 -0.1827  0.2242 -0.0905
 6433SOL    HW130761   1.876   3.367  16.011  0.7360  1.0374 -0.1401
 6433SOL    HW230762   1.800   3.320  15.889  1.5770 -1.7310  1.7772
 6434SOL     OW30763   3.610   3.150   6.728  0.3044  0.1639  0.2803
 6434SOL    HW130764   3.590   3.086   6.796 -1.9213  0.8272  0.2687
 6434SOL    HW230765   3.639   3.090   6.659  0.8080  0.7485 -0.0106
 6435SOL     OW30766   4.253   3.425   5.512 -0.1229  0.2898  0.5120
 6435SOL    HW130767   4.228   3.347   5.562  1.0131 -1.4909 -1.7107
 6435SOL    HW230768   4.316   3.469   5.570  0.1293  0.3164  0.2165
 6436SOL     OW30769   1.016   1.396   6.083 -0.4090 -0.1134  0.6124
 6436SOL    HW130770   1.089   1.369   6.139  0.4682  0.0882 -0.4336
 6436SOL    HW230771   1.032   1.489   6.101  0.1953  0.3173 -2.0855
 6437SOL     OW30772   1.877   2.620   4.432  0.4589  0.0739 -0.0360
 6437SOL    HW130773   1.812   2.641   4.365  1.4813  1.6387 -0.5230
 6437SOL    HW230774   1.824   2.585   4.504 -0.7828 -1.0387 -1.4739
 6438SOL     OW30775   1.184   0.180   9.261  0.6129  0.1351 -1.1611
 6438SOL    HW130776   1.183   0.276   9.259  1.2644  0.1413 -1.2712
 6438SOL    HW230777   1.250   0.157   9.196 -0.3728 -2.1508 -1.3373
 6439SOL     OW30778   3.415   1.903  11.203 -0.6471  0.0695 -0.1977
 6439SOL    HW130779   3.419   1.882  11.296 -0.6049 -0.9403 -0.4205
 6439SOL    HW230780   3.496   1.953  11.198 -1.1977  0.9342 -0.4314
 6440SOL     OW30781   3.497   1.586   7.053 -0.8002 -0.2294 -0.5736
 6440SOL    HW130782   3.519   1.590   7.146 -0.3578  1.3475 -0.7528
 6440SOL    HW230783   3.571   1.532   7.025  0.7767  1.0864  1.0586
 6441SOL     OW30784   0.796   3.500   7.166  0.1090 -0.2931 -0.0564
 6441SOL    HW130785   0.812   3.482   7.259  0.9596  1.0983  0.0570
 6441SOL    HW230786   0.860   3.437   7.132  1.8647  0.8306  1.1912
 6442SOL     OW30787   2.362   1.717  13.038 -0.2827 -0.1543  0.4236
 6442SOL    HW130788   2.426   1.727  13.108 -0.8057 -0.8900  0.9948
 6442SOL    HW230789   2.362   1.624  13.019 -0.9683 -0.0118 -0.2732
 6443SOL     OW30790   2.761   0.255   4.823  0.0755 -0.0242 -0.0197
 6443SOL    HW130791   2.801   0.169   4.814  0.5639  0.3037 -0.9853
 6443SOL    HW230792   2.677   0.241   4.867  0.6157 -2.3372  0.2562
 6444SOL     OW30793   0.898   4.428   2.647  0.3914  0.1016 -0.0814
 6444SOL    HW130794   0.834   4.378   2.698 -0.2367 -0.6578 -1.6282
 6444SOL    HW230795   0.847   4.466   2.576 -2.6406 -0.0854  1.9970
 6445SOL     OW30796   1.607   0.428   2.061  0.6007 -0.0214  0.0016
 6445SOL    HW130797   1.523   0.404   2.021  1.7784 -1.5420 -1.5452
 6445SOL    HW230798   1.647   0.476   1.989 -0.3171 -0.3789 -0.7579
 6446SOL     OW30799   3.143   1.141   0.662  0.2199 -0.0037 -0.3989
 6446SOL    HW130800   3.213   1.113   0.721 -2.1464 -1.0661  1.9336
 6446SOL    HW230801   3.065   1.088   0.678 -0.0410  0.6218  0.4423
 6447SOL     OW30802   0.332   2.033   3.213  0.3990  0.2904 -0.4343
 6447SOL    HW130803   0.395   2.087   3.167 -0.6370  0.4217 -1.6981
 6447SOL    HW230804   0.384   2.006   3.289  3.3907  2.1931 -1.8407
 6448SOL     OW30805   3.793   1.810   8.164 -0.3730  0.2875 -0.1389
 6448SOL    HW130806   3.822   1.743   8.226 -2.0802 -0.3065  0.0316
 6448SOL    HW230807   3.703   1.828   8.191 -0.5734 -0.1753 -0.4844
 6449SOL     OW30808   1.441   1.567   9.646  0.4426 -0.3805  0.2295
 6449SOL    HW130809   1.502   1.599   9.580 -0.3474  0.6143 -0.0234
 6449SOL    HW230810   1.501   1.528   9.710 -0.3100 -0.7931  0.6833
 6450SOL     OW30811   0.723   4.201   9.588 -0.0580 -0.4029 -0.2468
 6450SOL    HW130812   0.706   4.107   9.586 -0.9443 -0.2341 -0.9247
 6450SOL    HW230813   0.697   4.228   9.500 -0.1486  0.3191 -0.0064
 6451SOL     OW30814   2.609   2.961   6.533 -0.6748 -0.1258  0.7684
 6451SOL    HW130815   2.547   3.022   6.493  0.0970 -0.3508 -0.7887
 6451SOL    HW230816   2.629   2.907   6.457  0.5247 -0.4968  1.3372
 6452SOL     OW30817   3.197   3.986  12.946 -0.2633  0.6298  0.0253
 6452SOL    HW130818   3.221   4.078  12.943  2.3858 -0.1565 -2.9652
 6452SOL    HW230819   3.279   3.937  12.933 -1.4062 -1.4649  0.6604
 6453SOL     OW30820   4.023   3.989  13.460 -0.0468  0.0168 -0.3184
 6453SOL    HW130821   4.002   3.911  13.512  1.5852 -0.6271 -0.5972
 6453SOL    HW230822   4.040   4.056  13.526  0.4599  0.6747 -1.1272
 6454SOL     OW30823   0.894   2.928   6.108 -0.0688 -0.5890 -0.4487
 6454SOL    HW130824   0.971   2.985   6.117 -1.2729  0.9567  0.0342
 6454SOL    HW230825   0.888   2.888   6.194  0.7152  1.6345  0.6425
 6455SOL     OW30826   3.655   2.918   7.849 -0.6001  0.5466  0.2445
 6455SOL    HW130827   3.650   2.913   7.944 -1.7836  2.5648  0.2920
 6455SOL    HW230828   3.602   2.842   7.827  0.6815 -0.2192 -0.2401
 6456SOL     OW30829   4.319   1.455   5.533 -0.1719 -0.1470 -0.2710
 6456SOL    HW130830   4.368   1.533   5.559 -1.2287 -1.0252  4.3182
 6456SOL    HW230831   4.265   1.447   5.611 -0.5763  2.5357 -0.2535
 6457SOL     OW30832   2.500   2.539   9.116 -0.2507 -0.3505 -0.0324
 6457SOL    HW130833   2.565   2.563   9.183  0.0583  1.2555 -0.8968
 6457SOL    HW230834   2.434   2.608   9.124  1.1950  0.8242  1.8048
 6458SOL     OW30835   0.554   1.140   3.061  0.1058  0.3957 -0.1079
 6458SOL    HW130836   0.554   1.094   2.976 -0.5915  2.0550 -1.0026
 6458SOL    HW230837   0.550   1.227   3.021  2.5052  1.0123  1.0269
 6459SOL     OW30838   0.224   4.500  13.313 -0.4304 -0.8959 -0.6880
 6459SOL    HW130839   0.297   4.441  13.330 -0.9840 -1.6691 -0.9910
 6459SOL    HW230840   0.275   4.581  13.302  0.1636 -1.1224  0.4350
 6460SOL     OW30841   2.331   2.828   3.866 -0.3832 -0.6237  0.4321
 6460SOL    HW130842   2.259   2.891   3.863  2.1496  2.2057 -1.3273
 6460SOL    HW230843   2.405   2.886   3.849 -0.7863 -0.3700 -0.4708
 6461SOL     OW30844   3.275   0.411   2.413 -0.3102 -0.0340 -0.3440
 6461SOL    HW130845   3.296   0.458   2.333  1.6992 -1.5785 -0.7306
 6461SOL    HW230846   3.325   0.330   2.399 -1.3592 -0.9406  1.0925
 6462SOL     OW30847   3.825   4.179   7.386  0.0882  0.1721 -0.2122
 6462SOL    HW130848   3.921   4.182   7.378  0.2713 -0.8581  1.4607
 6462SOL    HW230849   3.811   4.272   7.374  0.7801  0.2637 -0.3588
 6463SOL     OW30850   2.755   1.522  16.964 -0.2593 -0.3268  0.5531
 6463SOL    HW130851   2.772   1.445  17.018  1.0450 -0.9464 -0.7428
 6463SOL    HW230852   2.829   1.581  16.974  0.3501 -0.9191 -0.4504
 6464SOL     OW30853   1.761   0.109   8.472  0.0797 -0.3770  0.6684
 6464SOL    HW130854   1.723   0.023   8.487 -2.7354  0.8472  0.6149
 6464SOL    HW230855   1.847   0.090   8.509  0.3456  0.4608  0.4941
 6465SOL     OW30856   2.557   2.902   7.357 -0.6614  0.8990 -0.0998
 6465SOL    HW130857   2.611   2.878   7.282 -0.3310 -0.0584  0.4402
 6465SOL    HW230858   2.516   2.819   7.383 -0.4266  0.7449 -0.2240
 6466SOL     OW30859   4.517   3.203  15.190 -0.4576  0.0080  0.1360
 6466SOL    HW130860   4.521   3.276  15.128  0.1165  0.3936  0.6227
 6466SOL    HW230861   4.611   3.190  15.202 -0.2458  0.4463 -1.0221
 6467SOL     OW30862   2.797   4.639   5.852 -0.1125  0.2510  0.0534
 6467SOL    HW130863   2.796   4.546   5.828 -0.2773  0.3003 -0.1385
 6467SOL    HW230864   2.814   4.629   5.945 -0.6430 -0.1399  0.1069
 6468SOL     OW30865   0.653   2.810   9.464  0.2927  0.3427 -0.8401
 6468SOL    HW130866   0.566   2.850   9.460  0.5102  0.6535 -2.5651
 6468SOL    HW230867   0.666   2.824   9.558 -2.0350  0.0409 -0.4687
 6469SOL     OW30868   4.648   1.327  10.789  0.0025  0.1342  0.0366
 6469SOL    HW130869   0.017   1.358  10.794 -0.0311 -0.1744  2.6482
 6469SOL    HW230870   4.636   1.319  10.694 -0.9151  1.2384  0.0525
 6470SOL     OW30871   1.670   1.751  16.534  0.0779 -0.3143  0.1964
 6470SOL    HW130872   1.664   1.665  16.491 -1.3107 -0.2056  0.1713
 6470SOL    HW230873   1.579   1.764  16.563 -0.5129  3.2233 -3.1844
 6471SOL     OW30874   1.860   4.055   2.911  0.2394  0.1441  0.0661
 6471SOL    HW130875   1.893   4.035   2.823  0.0363 -3.4123  0.7996
 6471SOL    HW230876   1.888   3.988   2.974  0.6421  0.1998 -0.0509
 6472SOL     OW30877   1.852   3.906   3.166  0.5316 -0.6190 -0.0784
 6472SOL    HW130878   1.798   3.847   3.220  0.6807  0.0581  0.8156
 6472SOL    HW230879   1.793   3.981   3.164  2.0322  0.5217 -1.1320
 6473SOL     OW30880   2.933   1.507   5.886 -0.2802  0.2108  0.8187
 6473SOL    HW130881   3.016   1.475   5.851 -2.8392 -3.6548 -1.5951
 6473SOL    HW230882   2.881   1.428   5.876  0.2865  0.1458 -1.7190
 6474SOL     OW30883   2.487   2.523   6.303 -0.0173 -0.2611  0.3741
 6474SOL    HW130884   2.397   2.516   6.270 -1.1715 -0.1215  3.5268
 6474SOL    HW230885   2.513   2.436   6.273  1.3114  0.7456 -1.3623
 6475SOL     OW30886   1.832   3.225   4.808  0.2695  0.0111 -0.4587
 6475SOL    HW130887   1.795   3.300   4.761 -1.0113 -0.7120 -0.6205
 6475SOL    HW230888   1.921   3.216   4.774  1.2086  0.4413  1.9407
 6476SOL     OW30889   4.693   0.136   7.239  0.5555 -0.3086  0.3640
 6476SOL    HW130890   4.661   0.226   7.229 -0.1503 -0.5249  0.6161
 6476SOL    HW230891   4.628   0.106   7.302  0.5623 -1.9841 -0.4275
 6477SOL     OW30892   1.029   0.196   7.981 -0.2857  0.4526 -0.2801
 6477SOL    HW130893   0.940   0.192   7.946 -0.7529  2.6521  0.6110
 6477SOL    HW230894   1.008   0.165   8.069  0.7954  0.2562 -0.0976
 6478SOL     OW30895   3.246   1.945   8.170 -0.3361  0.0414 -0.3400
 6478SOL    HW130896   3.216   1.986   8.251  0.6679 -1.6504  0.8990
 6478SOL    HW230897   3.185   1.872   8.160 -0.5675 -0.0620  1.7736
 6479SOL     OW30898   3.875   0.429   8.631  0.2678  0.5150 -0.0003
 6479SOL    HW130899   3.798   0.412   8.576  0.2926 -0.2618  0.1994
 6479SOL    HW230900   3.918   0.343   8.630  0.1154  0.4369  0.2488
 6480SOL     OW30901   2.212   4.106   6.222  0.3779  0.2305  0.0142
 6480SOL    HW130902   2.280   4.098   6.155  0.0996  1.8480 -0.4802
 6480SOL    HW230903   2.169   4.021   6.227  1.6824 -0.4522 -0.4533
 6481SOL     OW30904   1.065   2.599   7.844 -0.2554  0.4978  0.2856
 6481SOL    HW130905   1.134   2.549   7.888 -1.8396 -2.3426 -0.3957
 6481SOL    HW230906   1.032   2.527   7.790 -0.4202  0.5996  0.2529
 6482SOL     OW30907   3.137   0.217   3.411  0.4703  0.0983  0.2201
 6482SOL    HW130908   3.168   0.242   3.324  0.0484  1.2775  0.4056
 6482SOL    HW230909   3.199   0.145   3.425  2.6498  2.2317  1.4610
 6483SOL     OW30910   2.584   1.740   0.609 -0.4907 -0.3798 -0.3650
 6483SOL    HW130911   2.562   1.831   0.629 -0.8895 -0.7643  0.9476
 6483SOL    HW230912   2.529   1.698   0.676  0.5363 -0.9547  0.1212
 6484SOL     OW30913   2.629   1.278  15.392 -0.0938 -0.4454 -0.3537
 6484SOL    HW130914   2.563   1.215  15.360 -0.6309  0.2733 -0.6784
 6484SOL    HW230915   2.607   1.353  15.336 -0.5993 -1.5892 -1.7096
 6485SOL     OW30916   0.701   1.402   7.069 -0.5377  0.2298 -0.1222
 6485SOL    HW130917   0.684   1.309   7.055 -0.1531  0.5735 -2.7569
 6485SOL    HW230918   0.790   1.403   7.104 -0.3892  0.3249 -0.5093
 6486SOL     OW30919   2.106   3.943   3.083  0.1181  0.3990 -0.3244
 6486SOL    HW130920   2.172   3.941   3.152 -1.4804  3.2164  1.3266
 6486SOL    HW230921   2.023   3.941   3.131  0.2548  2.5957  0.0108
 6487SOL     OW30922   4.202   0.328   0.662  0.0044 -0.0876  0.3705
 6487SOL    HW130923   4.207   0.308   0.568 -0.5341  0.0038  0.3209
 6487SOL    HW230924   4.198   0.244   0.707  0.3902  0.1917  0.9228
 6488SOL     OW30925   3.682   3.022   4.041  0.5424 -0.0065  0.4485
 6488SOL    HW130926   3.672   3.038   4.135 -1.4002  1.3645  0.0039
 6488SOL    HW230927   3.766   3.067   4.033  1.7976 -1.8194  3.2914
 6489SOL     OW30928   1.844   2.519   5.672 -0.2064  0.2037  0.4703
 6489SOL    HW130929   1.824   2.440   5.722  0.4844 -0.2088  0.0911
 6489SOL    HW230930   1.845   2.481   5.584  0.6817 -1.7496  1.3208
 6490SOL     OW30931   3.205   3.871  13.830  0.8843  0.0660  0.0212
 6490SOL    HW130932   3.233   3.813  13.901 -2.2644  0.7572  1.8076
 6490SOL    HW230933   3.183   3.949  13.882  0.1651  0.8264 -1.4087
 6491SOL     OW30934   2.816   1.705   0.296  0.1730  0.5854 -0.0281
 6491SOL    HW130935   2.863   1.760   0.233  0.7509 -0.5652 -0.6005
 6491SOL    HW230936   2.862   1.625   0.273  1.7665  1.2758  0.7987
 6492SOL     OW30937   0.524   4.171  12.261  0.3528 -0.1756  0.2239
 6492SOL    HW130938   0.553   4.263  12.258 -1.5745  0.4757  1.2010
 6492SOL    HW230939   0.604   4.129  12.293 -0.1163 -0.6787  0.7240
 6493SOL     OW30940   3.961   4.335   2.668 -0.2481  0.4739 -0.0643
 6493SOL    HW130941   4.026   4.346   2.737 -0.9279  2.2892  0.2993
 6493SOL    HW230942   3.951   4.242   2.687  1.0893  0.1057 -1.2423
 6494SOL     OW30943   2.543   1.364   4.882  0.2013  0.1469 -0.3135
 6494SOL    HW130944   2.567   1.281   4.923  0.6308  1.0011  1.1715
 6494SOL    HW230945   2.605   1.369   4.809  1.5131  1.6116  0.8869
 6495SOL     OW30946   4.474   4.448  13.975  0.3305  0.1477 -0.1192
 6495SOL    HW130947   4.518   4.385  14.031  1.2337  1.7303  0.9314
 6495SOL    HW230948   4.396   4.467  14.027 -1.8487 -1.0726 -2.9195
 6496SOL     OW30949   2.728   0.899  10.732  0.0952 -0.3991 -0.4181
 6496SOL    HW130950   2.817   0.933  10.736  1.1423 -3.0998 -0.2416
 6496SOL    HW230951   2.703   0.900  10.639 -0.7642 -1.0377 -0.1894
 6497SOL     OW30952   2.560   2.660   6.933  0.2871 -0.0922 -0.0443
 6497SOL    HW130953   2.526   2.579   6.896 -0.8700  0.5355 -0.3876
 6497SOL    HW230954   2.598   2.697   6.853 -2.7374 -0.1195 -1.4804
 6498SOL     OW30955   3.514   2.856   4.784 -0.0190  0.0227 -0.3207
 6498SOL    HW130956   3.508   2.845   4.689  0.9615  0.2801 -0.4147
 6498SOL    HW230957   3.425   2.869   4.815 -0.1363 -0.1612 -0.5835
 6499SOL     OW30958   3.351   0.244  11.431 -0.2510  0.0394 -0.4985
 6499SOL    HW130959   3.399   0.181  11.379 -3.0941 -1.7450 -0.9545
 6499SOL    HW230960   3.407   0.322  11.423 -0.8041  0.4915  0.0145
 6500SOL     OW30961   1.894   2.374  10.235  0.1423  0.4497  0.3499
 6500SOL    HW130962   1.827   2.342  10.176  0.8292  1.6029 -1.0536
 6500SOL    HW230963   1.935   2.450  10.194  1.7286 -0.7238 -0.2218
 6501SOL     OW30964   2.293   3.668   6.842  0.4964  0.1822  0.2744
 6501SOL    HW130965   2.239   3.720   6.782  0.3078  1.3645  1.4625
 6501SOL    HW230966   2.383   3.694   6.822 -0.1807  2.6550  0.4177
 6502SOL     OW30967   3.005   0.250  11.208  0.6762 -0.6082  0.1007
 6502SOL    HW130968   2.911   0.262  11.214  0.8297  1.4479 -1.8050
 6502SOL    HW230969   3.017   0.228  11.300 -0.5419  0.9915  0.6414
 6503SOL     OW30970   2.696   2.873   2.066  0.0123 -0.3622 -0.1202
 6503SOL    HW130971   2.760   2.945   2.065 -0.4048  0.0645  3.8316
 6503SOL    HW230972   2.705   2.830   1.981  2.3050 -0.8131  0.3337
 6504SOL     OW30973   2.421   0.455   1.498  0.1048 -0.2134  0.3965
 6504SOL    HW130974   2.487   0.467   1.430  1.0091 -1.2778  1.0852
 6504SOL    HW230975   2.485   0.471   1.568 -0.1456 -2.2555  1.1047
 6505SOL     OW30976   2.234   1.365  14.210  0.8557  0.1375  0.0696
 6505SOL    HW130977   2.139   1.367  14.200  0.9486  2.3162 -0.3416
 6505SOL    HW230978   2.250   1.270  14.213 -0.4656 -0.0908  0.0797
 6506SOL     OW30979   0.409   2.276   5.754 -0.1719 -0.6730 -0.3479
 6506SOL    HW130980   0.467   2.302   5.825 -0.8909  0.5732 -0.2134
 6506SOL    HW230981   0.324   2.306   5.786 -0.0090 -1.7193  1.0445
 6507SOL     OW30982   2.000   4.204   9.134 -0.1601  0.7447  0.2937
 6507SOL    HW130983   2.041   4.264   9.197  0.6231 -0.5647  1.0215
 6507SOL    HW230984   1.914   4.207   9.176  0.6464 -0.1829  2.0249
 6508SOL     OW30985   0.516   1.361   9.362  0.5310  0.2521  0.2285
 6508SOL    HW130986   0.485   1.336   9.275  1.3274  0.6252 -0.1709
 6508SOL    HW230987   0.572   1.286   9.382  0.2941  0.5687  1.9976
 6509SOL     OW30988   0.728   1.118   4.577 -0.2269 -0.0425  0.3194
 6509SOL    HW130989   0.773   1.199   4.599  1.7171 -0.8083 -0.8297
 6509SOL    HW230990   0.655   1.110   4.638 -0.3061  0.0085  0.2315
 6510SOL     OW30991   3.549   4.411   6.162  0.4037  0.6613 -0.2678
 6510SOL    HW130992   3.601   4.330   6.156 -0.0229  0.5280 -2.0734
 6510SOL    HW230993   3.603   4.471   6.111  0.9033  0.9074  0.5574
 6511SOL     OW30994   2.450   2.274   6.124  0.7646 -0.4367  0.0409
 6511SOL    HW130995   2.533   2.303   6.086  0.5578  1.7645  1.2509
 6511SOL    HW230996   2.458   2.178   6.117 -2.5018 -0.6033 -1.1835
 6512SOL     OW30997   4.426   1.123   2.517 -0.7091  0.4261  0.0223
 6512SOL    HW130998   4.385   1.120   2.603 -0.6166 -0.2076  0.0438
 6512SOL    HW230999   4.371   1.190   2.477 -0.5438  0.7935  0.4060
 6513SOL     OW31000   4.487   3.529   4.111  0.7985 -0.0939  0.4160
 6513SOL    HW131001   4.504   3.619   4.136  0.7003  0.1679 -0.4605
 6513SOL    HW231002   4.443   3.534   4.026 -2.3281 -1.7841  1.9276
 6514SOL     OW31003   4.358   2.813   2.782  0.0967 -0.3084  0.1594
 6514SOL    HW131004   4.336   2.728   2.744 -1.9058 -0.3113  1.3316
 6514SOL    HW231005   4.416   2.833   2.709 -0.3798 -0.4685 -0.2568
 6515SOL     OW31006   4.025   4.451   8.011  0.1082 -0.1545  0.2522
 6515SOL    HW131007   4.010   4.356   8.004  0.9967 -0.3255  0.7151
 6515SOL    HW231008   4.119   4.459   8.024 -0.2600  0.7395  2.4199
 6516SOL     OW31009   1.551   4.325   3.289  0.1592 -0.2655  0.3167
 6516SOL    HW131010   1.460   4.347   3.271  0.4706 -1.9040 -3.2983
 6516SOL    HW231011   1.599   4.400   3.253  0.7503 -1.3415 -1.1638
 6517SOL     OW31012   1.538   3.033   8.929 -0.0960 -0.2791  0.4361
 6517SOL    HW131013   1.485   3.089   8.986 -0.0351 -0.3362  0.5493
 6517SOL    HW231014   1.492   3.027   8.845 -0.0281  1.3650  0.2738
 6518SOL     OW31015   4.272   1.633   8.986  0.1545 -0.3729  0.2335
 6518SOL    HW131016   4.193   1.582   8.965  0.5083 -0.8806  0.1177
 6518SOL    HW231017   4.302   1.648   8.897  0.2456  2.7838  0.7991
 6519SOL     OW31018   3.862   1.289  13.752 -0.0071 -0.0390 -0.6309
 6519SOL    HW131019   3.889   1.351  13.820  0.6570  0.4980 -1.3757
 6519SOL    HW231020   3.942   1.273  13.701  0.9110  0.5903  0.6016
 6520SOL     OW31021   1.952   1.010   0.244  0.1201 -0.1221 -0.0247
 6520SOL    HW131022   2.023   1.053   0.195  0.2960  0.7908  1.0162
 6520SOL    HW231023   1.990   0.995   0.331 -0.4979 -1.7954 -0.0437
 6521SOL     OW31024   0.231   3.418   2.009 -0.6720  0.5307 -0.2806
 6521SOL    HW131025   0.274   3.343   2.051  0.2655  0.8225 -0.7127
 6521SOL    HW231026   0.158   3.379   1.961 -2.2391  1.0499  1.6787
 6522SOL     OW31027   3.219   0.977   4.141 -0.0971  0.1045 -0.1925
 6522SOL    HW131028   3.164   1.054   4.127  1.9701  1.3401 -1.4490
 6522SOL    HW231029   3.294   1.018   4.183  0.6751  0.1473 -1.6158
 6523SOL     OW31030   1.550   3.350   8.691  0.0083 -0.1729  0.6240
 6523SOL    HW131031   1.507   3.265   8.699 -0.4631  0.3256  3.0720
 6523SOL    HW231032   1.642   3.321   8.694 -0.1129 -0.8229 -1.4947
 6524SOL     OW31033   4.258   4.476   9.820 -0.2412 -0.6132 -0.0854
 6524SOL    HW131034   4.231   4.498   9.909  2.1722 -0.6916  0.6567
 6524SOL    HW231035   4.216   4.551   9.777  1.9802 -0.6831 -2.3542
 6525SOL     OW31036   0.302   2.466   4.637 -0.3963 -0.1862 -0.6344
 6525SOL    HW131037   0.231   2.525   4.611 -1.0309 -1.7641 -2.5253
 6525SOL    HW231038   0.294   2.463   4.732  1.4882  1.3987 -0.4297
 6526SOL     OW31039   2.216   0.732  11.144 -0.2759 -0.0990 -0.2871
 6526SOL    HW131040   2.289   0.683  11.105  1.1244  1.1559  0.7674
 6526SOL    HW231041   2.134   0.710  11.100 -0.0075 -0.5186 -0.5812
 6527SOL     OW31042   1.094   0.051   7.629 -0.0549  0.2433  0.6370
 6527SOL    HW131043   1.172   0.046   7.574 -1.3030 -0.1267 -1.0744
 6527SOL    HW231044   1.104   0.145   7.647  0.2408 -0.0426  1.9392
 6528SOL     OW31045   3.347   0.984   2.678  0.4252 -0.0555 -0.5667
 6528SOL    HW131046   3.274   0.924   2.661 -0.8332  0.6594  2.3330
 6528SOL    HW231047   3.418   0.922   2.693 -0.9497 -1.8820 -1.6863
 6529SOL     OW31048   2.367   1.099   3.642  0.4461  0.1857  0.2578
 6529SOL    HW131049   2.368   1.114   3.548  0.0316 -1.3761  0.0174
 6529SOL    HW231050   2.460   1.117   3.653  1.2548 -3.8509 -0.2275
 6530SOL     OW31051   3.736   4.500   3.920  0.1175 -0.1465  0.7706
 6530SOL    HW131052   3.721   4.575   3.863 -0.4322 -0.5456  0.3859
 6530SOL    HW231053   3.707   4.532   4.005  0.8636  1.6165  0.3540
 6531SOL     OW31054   1.434   0.717  13.474 -0.0922  0.5235  0.1253
 6531SOL    HW131055   1.423   0.634  13.520 -2.0907 -0.1985 -1.6755
 6531SOL    HW231056   1.505   0.690  13.416  0.6864  2.2913  0.2466
 6532SOL     OW31057   4.551   4.648   7.994  0.2340 -0.2852 -0.4807
 6532SOL    HW131058   4.602   4.639   8.074 -1.4876 -0.9391  0.5492
 6532SOL    HW231059   4.622   4.663   7.932 -1.3409 -1.0851 -2.4889
 6533SOL     OW31060   1.624   4.003   5.762  0.1557 -0.8170 -0.3644
 6533SOL    HW131061   1.607   3.914   5.793 -1.9280 -0.4473 -0.4257
 6533SOL    HW231062   1.584   4.053   5.833 -0.3745 -1.5190 -0.1761
 6534SOL     OW31063   0.496   1.178  12.253 -0.0366 -0.0659  0.7663
 6534SOL    HW131064   0.433   1.115  12.218  0.1733 -0.2742  0.7655
 6534SOL    HW231065   0.460   1.202  12.338 -0.3100 -1.4464  1.0349
 6535SOL     OW31066   4.133   0.438   1.603 -0.1190 -0.2521 -0.3585
 6535SOL    HW131067   4.128   0.388   1.521 -0.6320  1.0145 -1.0963
 6535SOL    HW231068   4.152   0.363   1.659  1.4824  0.4016 -0.0569
 6536SOL     OW31069   4.614   4.491   5.700 -0.0316  0.0731  0.0424
 6536SOL    HW131070   4.524   4.468   5.675  0.4953  0.2680 -2.0266
 6536SOL    HW231071   4.663   4.469   5.620 -0.3253 -0.6407  0.0573
 6537SOL     OW31072   4.041   3.011   0.066  0.5705  0.2035  0.1984
 6537SOL    HW131073   4.093   3.068   0.123 -0.5897  1.5507 -0.0929
 6537SOL    HW231074   3.979   2.969   0.125 -3.0041  2.9254 -1.5996
 6538SOL     OW31075   1.007   0.151   9.712  0.0397 -0.8153 -0.2292
 6538SOL    HW131076   1.031   0.062   9.737 -1.1620 -1.8971 -2.9813
 6538SOL    HW231077   0.920   0.150   9.751  0.2866  0.7695  0.3801
 6539SOL     OW31078   4.443   0.381  13.756  0.6045 -1.0503  0.5118
 6539SOL    HW131079   4.513   0.426  13.709  0.5979 -1.9692 -0.3678
 6539SOL    HW231080   4.396   0.455  13.796 -0.4548 -1.5053  0.1025
 6540SOL     OW31081   2.319   1.281   3.818 -0.3066  0.1900 -0.2301
 6540SOL    HW131082   2.379   1.346   3.779 -1.0293 -0.2662 -2.0850
 6540SOL    HW231083   2.327   1.212   3.752  0.7481  0.5689 -0.5033
 6541SOL     OW31084   0.902   2.265  14.719  0.1050 -0.8615  0.9527
 6541SOL    HW131085   0.922   2.246  14.811 -0.8774 -3.5795  0.6173
 6541SOL    HW231086   0.990   2.261  14.682 -0.9772 -2.7458 -1.4890
 6542SOL     OW31087   1.255   0.599   0.003 -0.2618 -0.5438 -0.0883
 6542SOL    HW131088   1.159   0.597  17.685 -0.2320  0.1642 -1.1437
 6542SOL    HW231089   1.269   0.547  17.610  1.6246  3.0514 -2.0821
 6543SOL     OW31090   0.627   3.078  16.325 -0.0126 -0.2423 -0.0250
 6543SOL    HW131091   0.637   3.022  16.248  0.3256 -0.4002  0.1341
 6543SOL    HW231092   0.628   3.161  16.277  0.1942  0.0706  0.5159
 6544SOL     OW31093   2.892   4.228   5.706 -0.4042 -0.1644 -0.1827
 6544SOL    HW131094   2.944   4.228   5.787  1.0098  1.5798 -1.0925
 6544SOL    HW231095   2.953   4.172   5.657  0.5054 -0.2273  1.0095
 6545SOL     OW31096   0.601   0.179   5.659 -0.4577  0.2899  1.1476
 6545SOL    HW131097   0.579   0.266   5.626  1.2490  0.4386  0.3724
 6545SOL    HW231098   0.690   0.183   5.692 -0.0386  1.8092 -0.1766
 6546SOL     OW31099   0.210   0.257   5.350 -0.2053  0.3677 -0.1630
 6546SOL    HW131100   0.179   0.183   5.402  1.2310  1.3746  2.1093
 6546SOL    HW231101   0.181   0.228   5.263  1.6408  0.2382 -0.7531
 6547SOL     OW31102   1.982   4.448   8.687  1.0325 -0.4096 -0.4082
 6547SOL    HW131103   1.893   4.477   8.705  1.0653 -0.4950 -0.1231
 6547SOL    HW231104   2.023   4.437   8.772 -1.0738 -0.7179  0.5603
 6548SOL     OW31105   2.460   3.893  16.693  0.1343  0.1850 -0.3277
 6548SOL    HW131106   2.555   3.882  16.690  0.1223  0.2634 -1.1084
 6548SOL    HW231107   2.430   3.907  16.603  0.3654 -0.1860 -0.4631
 6549SOL     OW31108   3.364   2.903   9.674  0.0014  0.2037 -0.5926
 6549SOL    HW131109   3.275   2.871   9.689  0.1316  0.4378  0.7341
 6549SOL    HW231110   3.339   2.948   9.594 -0.4363 -0.1681 -0.6663
 6550SOL     OW31111   4.443   0.513  15.755  0.0820 -0.3373 -0.4716
 6550SOL    HW131112   4.364   0.524  15.702  0.5127 -0.0053 -1.0503
 6550SOL    HW231113   4.422   0.555  15.838 -0.9397  0.5468 -1.1684
 6551SOL     OW31114   3.626   3.678   0.248 -0.6883  0.4737  0.0010
 6551SOL    HW131115   3.623   3.649   0.157 -0.8492 -0.2523  0.2365
 6551SOL    HW231116   3.554   3.622   0.277 -0.1702  0.3118  0.9848
 6552SOL     OW31117   1.813   0.131   4.085 -0.8165 -0.5161  0.0379
 6552SOL    HW131118   1.739   0.107   4.140  0.1566 -1.4773  0.9351
 6552SOL    HW231119   1.790   0.211   4.039 -3.3021 -0.7440  0.9117
 6553SOL     OW31120   2.584   4.193   7.464  0.7114 -0.1380 -0.3030
 6553SOL    HW131121   2.586   4.123   7.529 -1.7397  0.0250 -0.0383
 6553SOL    HW231122   2.501   4.233   7.491  1.1921  0.0193  0.9507
 6554SOL     OW31123   4.309   0.843   8.591 -0.1118  0.9432 -0.3310
 6554SOL    HW131124   4.287   0.862   8.682 -0.0549  1.6762 -0.4716
 6554SOL    HW231125   4.246   0.894   8.539  1.0022  0.0254 -2.5649
 6555SOL     OW31126   3.065   2.501  13.729  0.0339 -0.1172  0.2771
 6555SOL    HW131127   3.079   2.427  13.670  1.9330  0.9513 -0.5913
 6555SOL    HW231128   3.081   2.581  13.678  0.2518 -0.7102 -0.5877
 6556SOL     OW31129   4.181   3.607   4.718  0.2326 -0.0237  0.3152
 6556SOL    HW131130   4.263   3.633   4.760 -0.0778 -0.6506  1.3067
 6556SOL    HW231131   4.217   3.618   4.630  0.1323 -1.9745  0.0482
 6557SOL     OW31132   3.529   2.179   5.995  0.1531  0.3514  1.4256
 6557SOL    HW131133   3.526   2.135   6.080 -2.0030  0.0354  1.1876
 6557SOL    HW231134   3.452   2.236   5.995  0.1583  0.3527  3.3010
 6558SOL     OW31135   1.313   3.232   5.674  0.1426 -0.1683  0.3578
 6558SOL    HW131136   1.259   3.180   5.614  0.9508 -0.6312  0.0364
 6558SOL    HW231137   1.283   3.193   5.756  0.7055 -1.8489 -0.2497
 6559SOL     OW31138   3.242   2.976   2.398  0.3767  0.1580 -0.0343
 6559SOL    HW131139   3.332   2.967   2.367 -0.2124  0.2968 -1.8061
 6559SOL    HW231140   3.257   2.973   2.492 -2.2382 -1.2572  0.3552
 6560SOL     OW31141   0.170   1.761   6.651  0.1282  0.0148  0.7981
 6560SOL    HW131142   0.115   1.696   6.696 -1.7096  0.2500 -1.0750
 6560SOL    HW231143   0.247   1.760   6.708  0.1239 -0.0451  0.8035
 6561SOL     OW31144   3.212   0.319   3.179 -0.1112  0.1406  0.1092
 6561SOL    HW131145   3.249   0.290   3.096 -0.5932  0.1522 -0.1106
 6561SOL    HW231146   3.162   0.392   3.143  0.8558  0.6529 -0.1709
 6562SOL     OW31147   0.590   1.405   8.931 -0.0849  0.3277 -0.5409
 6562SOL    HW131148   0.620   1.333   8.987 -2.6185 -0.3758 -0.0722
 6562SOL    HW231149   0.563   1.472   8.993 -1.5260 -1.5630  0.8960
 6563SOL     OW31150   2.207   3.733   3.789 -0.1959 -0.0317 -0.1245
 6563SOL    HW131151   2.134   3.793   3.805 -0.2943 -0.6685  1.8917
 6563SOL    HW231152   2.212   3.691   3.875 -0.5304  2.8762  1.3042
 6564SOL     OW31153   0.827   1.628   0.836  0.0509 -0.1845  0.0075
 6564SOL    HW131154   0.812   1.714   0.799  1.7911  0.5272  0.9685
 6564SOL    HW231155   0.921   1.622   0.852 -0.0053 -3.3548 -0.7999
 6565SOL     OW31156   0.288   4.013   5.783 -0.4329  0.0282  0.7366
 6565SOL    HW131157   0.218   3.972   5.734 -0.1663  1.9601 -1.2654
 6565SOL    HW231158   0.274   4.107   5.768  0.1855  0.0815  0.5128
 6566SOL     OW31159   2.147   0.624   5.651 -0.0767  0.3776 -0.5404
 6566SOL    HW131160   2.213   0.671   5.601 -0.2170  0.6121 -0.5034
 6566SOL    HW231161   2.085   0.697   5.652  0.1953  0.5832  1.0148
 6567SOL     OW31162   2.609   3.272   8.254  0.3016  0.6001  0.2871
 6567SOL    HW131163   2.618   3.278   8.159  0.2303  2.5401  0.4023
 6567SOL    HW231164   2.629   3.364   8.271  0.3812  0.2869  1.9456
 6568SOL     OW31165   0.404   0.997   0.449  0.0883 -0.1995  0.6659
 6568SOL    HW131166   0.435   1.085   0.468  2.3706 -1.0829  1.0322
 6568SOL    HW231167   0.439   0.944   0.521 -0.1878 -0.5283  0.5602
 6569SOL     OW31168   3.728   0.822   8.053  0.0979 -0.4456  0.2052
 6569SOL    HW131169   3.814   0.861   8.060  0.3459 -0.8819 -0.3896
 6569SOL    HW231170   3.703   0.842   7.962  0.2185  0.6441  0.4194
 6570SOL     OW31171   4.654   2.004   9.371 -0.0063 -0.1620  0.4247
 6570SOL    HW131172   4.693   1.918   9.381  0.4811 -0.0340 -0.3674
 6570SOL    HW231173   4.716   2.061   9.416 -0.1096 -0.2667  0.6949
 6571SOL     OW31174   3.248   1.845  17.315 -0.5384 -0.3264  0.1656
 6571SOL    HW131175   3.297   1.828  17.396 -0.9976 -1.6167  0.1831
 6571SOL    HW231176   3.190   1.908  17.358 -0.5365  1.2133 -2.0701
 6572SOL     OW31177   4.444   4.232   8.739  0.1667 -0.0333 -0.4920
 6572SOL    HW131178   4.397   4.289   8.800  0.2727  0.7358 -1.1326
 6572SOL    HW231179   4.519   4.215   8.796 -0.5970  0.1244  0.5707
 6573SOL     OW31180   4.075   2.534   6.197  0.4138  0.3533  0.1621
 6573SOL    HW131181   3.997   2.577   6.164  0.9970  1.5346  0.3135
 6573SOL    HW231182   4.086   2.453   6.148  1.6131  2.0142 -2.3205
 6574SOL     OW31183   1.958   3.502   3.742 -0.2794 -0.5813 -0.2594
 6574SOL    HW131184   2.023   3.432   3.755 -1.3048 -1.4331  0.3481
 6574SOL    HW231185   1.956   3.547   3.826  1.5473 -1.9587  0.5001
 6575SOL     OW31186   2.455   4.184  17.551  0.0652  0.7254 -0.2647
 6575SOL    HW131187   2.369   4.219  17.577 -1.1050 -1.6679 -0.9084
 6575SOL    HW231188   2.443   4.185  17.456 -2.4358 -0.2235  0.0470
 6576SOL     OW31189   4.503   3.901  15.685 -0.5488 -0.0936 -0.1192
 6576SOL    HW131190   4.544   3.875  15.602 -1.4914 -0.5240 -0.4479
 6576SOL    HW231191   4.553   3.848  15.747 -0.5640  1.8392  1.5450
 6577SOL     OW31192   2.519   2.344   5.728 -0.4404  0.2885 -0.1484
 6577SOL    HW131193   2.526   2.401   5.805  0.6019  0.9493 -0.7236
 6577SOL    HW231194   2.424   2.351   5.720 -0.1391  2.7659 -1.7225
 6578SOL     OW31195   4.230   3.204   7.533 -0.6559  0.3692  0.5449
 6578SOL    HW131196   4.210   3.133   7.595  2.6467 -1.1388 -0.1187
 6578SOL    HW231197   4.326   3.201   7.532 -0.6669  0.3071 -1.2586
 6579SOL     OW31198   1.608   0.675   0.054  0.6909 -0.1143  0.7958
 6579SOL    HW131199   1.570   0.592   0.026  0.3011  0.1791  0.4579
 6579SOL    HW231200   1.697   0.642   0.069  1.4502  1.1843 -0.8388
 6580SOL     OW31201   0.178   1.604   9.128  0.1718 -0.4885  0.3513
 6580SOL    HW131202   0.156   1.529   9.183  4.0619 -1.9289 -0.0681
 6580SOL    HW231203   0.173   1.679   9.188  0.6729  0.0850 -0.3239
 6581SOL     OW31204   2.929   1.282   8.092  0.1595  0.0336  0.4279
 6581SOL    HW131205   3.000   1.218   8.103 -0.8446 -1.1390  0.0591
 6581SOL    HW231206   2.948   1.314   8.004 -0.0739 -0.0798  0.3372
 6582SOL     OW31207   3.360   0.665   8.695  0.2094 -0.3743 -0.5928
 6582SOL    HW131208   3.344   0.589   8.751  0.2786 -0.2264 -0.3725
 6582SOL    HW231209   3.362   0.618   8.611  0.9492 -0.8967 -0.2789
 6583SOL     OW31210   0.051   1.453   8.600 -0.2191  0.4805  0.5016
 6583SOL    HW131211   4.713   1.380   8.580  0.4535 -0.2569  1.2087
 6583SOL    HW231212   0.010   1.477   8.684  2.1733  0.1713  1.7592
 6584SOL     OW31213   3.221   3.046   3.295  0.3001  0.1305 -0.1889
 6584SOL    HW131214   3.152   2.986   3.322  2.4963 -2.5610 -0.4713
 6584SOL    HW231215   3.208   3.115   3.360  1.5016 -1.5984  1.8865
 6585SOL     OW31216   3.279   1.071   6.041  0.1991 -0.4614 -0.1541
 6585SOL    HW131217   3.337   1.059   6.116 -0.6159 -0.1527  0.5213
 6585SOL    HW231218   3.322   1.142   5.995 -0.8586  1.1774  1.3686
 6586SOL     OW31219   1.455   2.935   2.889 -0.1007 -0.7560 -0.4540
 6586SOL    HW131220   1.520   3.005   2.893 -2.2793  1.0100  3.8926
 6586SOL    HW231221   1.439   2.956   2.797 -0.8883 -2.6455 -0.7483
 6587SOL     OW31222   4.455   0.094  13.820 -0.1341 -0.5104  0.2085
 6587SOL    HW131223   4.485   0.105  13.910  0.8745  0.8185 -0.2710
 6587SOL    HW231224   4.464   0.183  13.786 -2.6544 -0.9624 -1.6371
 6588SOL     OW31225   4.560   3.150   3.710  0.0319 -0.2713 -0.4905
 6588SOL    HW131226   4.529   3.150   3.619  0.4662 -0.6760 -0.6350
 6588SOL    HW231227   4.655   3.147   3.695  0.0395 -0.9218 -0.2842
 6589SOL     OW31228   3.105   1.447   7.888 -0.3176 -0.0796 -0.3147
 6589SOL    HW131229   3.148   1.477   7.968  0.9759 -0.9369 -0.6731
 6589SOL    HW231230   3.060   1.522   7.850 -1.1024 -0.0334  0.7103
 6590SOL     OW31231   3.122   0.357   8.993  0.3496  0.1827  0.0528
 6590SOL    HW131232   3.050   0.319   9.043  0.9319  0.4856  1.1245
 6590SOL    HW231233   3.101   0.450   8.980 -0.3877 -0.2821 -2.0826
 6591SOL     OW31234   3.188   2.084   2.169  0.0461  0.0883 -0.1403
 6591SOL    HW131235   3.135   2.163   2.179  0.9999  0.4690  1.9848
 6591SOL    HW231236   3.244   2.104   2.093  2.1003 -0.8356  1.1190
 6592SOL     OW31237   2.046   0.937   2.968 -0.0151  0.0938  0.1077
 6592SOL    HW131238   2.083   1.025   2.959 -1.3122  0.7010  0.7443
 6592SOL    HW231239   1.969   0.941   3.024  0.2113  1.2941  0.3432
 6593SOL     OW31240   1.131   0.631   8.349 -0.4297 -0.1530  0.5221
 6593SOL    HW131241   1.150   0.556   8.405 -0.4655  1.2277  2.3817
 6593SOL    HW231242   1.105   0.705   8.403 -0.7058  1.0784 -1.3030
 6594SOL     OW31243   3.190   1.081   6.399  1.1007  0.2867  0.5895
 6594SOL    HW131244   3.226   1.160   6.361 -1.3223  1.4405  0.7110
 6594SOL    HW231245   3.098   1.094   6.378  1.4998  1.0645 -0.6280
 6595SOL     OW31246   4.576   2.362   2.285  0.0044 -0.1861 -0.0200
 6595SOL    HW131247   4.490   2.323   2.273 -0.1788  0.1604  0.1871
 6595SOL    HW231248   4.549   2.426   2.350 -2.1813 -1.8723  0.7149
 6596SOL     OW31249   0.363   2.673  11.927  0.3523 -0.2250 -0.0306
 6596SOL    HW131250   0.273   2.691  11.900  0.3149  1.4467  1.2256
 6596SOL    HW231251   0.364   2.717  12.012  0.8712  0.1230 -0.2202
 6597SOL     OW31252   4.431   3.972  13.355 -0.0158  0.1521 -0.0910
 6597SOL    HW131253   4.471   3.976  13.269  0.4443 -1.3894  0.0377
 6597SOL    HW231254   4.400   3.882  13.339 -0.3209  0.6205 -2.0909
 6598SOL     OW31255   3.043   1.680   3.223  0.6640 -0.0226 -0.7552
 6598SOL    HW131256   3.105   1.638   3.282  0.8784  1.9991  0.4538
 6598SOL    HW231257   3.030   1.622   3.148 -0.7816  1.6657 -1.8177
 6599SOL     OW31258   2.381   2.871  12.099 -0.2954 -0.0459  0.1374
 6599SOL    HW131259   2.323   2.899  12.028  0.5325  2.7131  0.5587
 6599SOL    HW231260   2.448   2.822  12.052 -2.1118 -0.3166 -2.1948
 6600SOL     OW31261   3.122   2.902  15.611 -0.2407  0.5046 -0.3511
 6600SOL    HW131262   3.175   2.824  15.591  0.2374  0.8239 -0.3346
 6600SOL    HW231263   3.071   2.908  15.530  1.4794 -0.4071 -1.5053
 6601SOL     OW31264   3.423   1.412   0.925 -0.0525 -0.3291  0.3489
 6601SOL    HW131265   3.449   1.475   0.993 -0.1629 -0.1514  0.2273
 6601SOL    HW231266   3.355   1.369   0.978  0.2307  1.2758  2.0314
 6602SOL     OW31267   0.263   1.430  14.283 -0.3609 -0.3917  0.0492
 6602SOL    HW131268   0.182   1.380  14.291 -1.0235  0.7945  0.8015
 6602SOL    HW231269   0.263   1.442  14.188  2.0920 -0.5441  0.0198
 6603SOL     OW31270   2.484   4.009   3.982  0.0523 -0.0495 -0.6740
 6603SOL    HW131271   2.417   4.057   3.932 -0.3826 -0.4172 -0.4418
 6603SOL    HW231272   2.556   4.033   3.923 -1.1852  1.0586 -1.7418
 6604SOL     OW31273   3.974   4.717   8.137 -0.5927  0.4685 -0.0513
 6604SOL    HW131274   4.016   0.070   8.182 -0.7337  1.3516 -1.3668
 6604SOL    HW231275   4.047   4.657   8.126  0.0393  1.4895 -1.4357
 6605SOL     OW31276   1.451   1.218   3.962 -0.3804 -0.6485 -0.5009
 6605SOL    HW131277   1.539   1.237   3.996 -1.2819  2.5877 -0.0764
 6605SOL    HW231278   1.476   1.160   3.889 -1.0187 -0.2924 -0.9940
 6606SOL     OW31279   0.069   2.371   7.138  0.2565 -0.1909 -0.0410
 6606SOL    HW131280   0.043   2.283   7.166  0.3160 -0.1066  0.2801
 6606SOL    HW231281   0.164   2.365   7.127  0.3545 -0.5605  0.9684
 6607SOL     OW31282   3.985   3.815   8.224 -0.1097  0.0127 -0.2399
 6607SOL    HW131283   3.930   3.831   8.148 -0.8588  0.2027  0.3486
 6607SOL    HW231284   4.067   3.798   8.177 -1.8028  0.1897 -3.2106
 6608SOL     OW31285   3.569   1.957   6.867 -0.5523 -0.1085  0.6100
 6608SOL    HW131286   3.477   1.964   6.839  0.1580 -0.0073 -1.7317
 6608SOL    HW231287   3.595   1.883   6.811 -0.7264 -0.4710  1.0120
 6609SOL     OW31288   3.821   3.806   8.976  0.2031 -0.2108  0.1051
 6609SOL    HW131289   3.861   3.858   9.046 -0.4152  0.0726  0.2435
 6609SOL    HW231290   3.861   3.842   8.896 -1.3412 -2.0216 -1.4853
 6610SOL     OW31291   3.246   0.346   1.993  0.2352 -0.1889 -0.0172
 6610SOL    HW131292   3.298   0.426   2.002  0.1191 -0.2994  1.7363
 6610SOL    HW231293   3.274   0.302   2.074 -2.5611  0.6887  1.4433
 6611SOL     OW31294   3.034   1.933  16.353  0.2955  0.2549  0.2985
 6611SOL    HW131295   2.946   1.935  16.392 -0.5208 -4.4009 -1.2533
 6611SOL    HW231296   3.018   1.929  16.259  0.3865 -2.4967  0.3747
 6612SOL     OW31297   2.699   0.580  14.315 -0.6452  0.8083 -0.0130
 6612SOL    HW131298   2.643   0.632  14.373 -2.3151 -1.9754  0.8848
 6612SOL    HW231299   2.774   0.586  14.375  2.0221  2.3013 -3.4779
 6613SOL     OW31300   0.460   1.675   5.164 -0.0499 -0.7771  0.2436
 6613SOL    HW131301   0.498   1.690   5.077 -0.1673 -1.4789  0.0754
 6613SOL    HW231302   0.444   1.766   5.188  1.5085 -0.0654 -1.3922
 6614SOL     OW31303   0.490   2.319   2.048  0.0534  0.0150 -0.3749
 6614SOL    HW131304   0.411   2.279   2.010  0.4496  0.3720 -1.5919
 6614SOL    HW231305   0.557   2.252   2.035  1.6518  1.4678  0.3492
 6615SOL     OW31306   2.668   4.166   5.890 -0.3296 -0.6450  0.2346
 6615SOL    HW131307   2.614   4.208   5.823  0.9375  1.2189  0.3866
 6615SOL    HW231308   2.741   4.141   5.834 -1.4178 -0.5993 -1.2163
 6616SOL     OW31309   3.163   0.673   1.669  0.1433 -0.3404 -0.0440
 6616SOL    HW131310   3.231   0.741   1.674  0.0729 -0.2743  0.0167
 6616SOL    HW231311   3.124   0.681   1.756  1.7230  1.6487  0.4874
 6617SOL     OW31312   1.706   4.148   8.351 -0.4096  0.2096  0.2733
 6617SOL    HW131313   1.736   4.229   8.392  0.4885 -1.1478  2.2678
 6617SOL    HW231314   1.769   4.096   8.401 -0.4449 -1.0400 -0.9949
 6618SOL     OW31315   1.897   0.789   1.893  0.1761 -0.1133 -0.7727
 6618SOL    HW131316   1.830   0.850   1.861  0.7914  0.5050 -0.8876
 6618SOL    HW231317   1.980   0.821   1.858  1.0973 -3.0780 -1.2393
 6619SOL     OW31318   1.926   2.383   4.717 -0.7030  0.1673  0.1200
 6619SOL    HW131319   1.964   2.441   4.783 -1.0556 -1.5482  1.8557
 6619SOL    HW231320   2.006   2.353   4.674 -0.5169  0.0281  0.5639
 6620SOL     OW31321   0.555   1.161   3.432  0.2583  0.0980 -0.1342
 6620SOL    HW131322   0.631   1.120   3.473 -0.1437 -0.5616 -0.0343
 6620SOL    HW231323   0.513   1.093   3.379  0.7249  0.8504 -1.4632
 6621SOL     OW31324   2.041   2.553   4.890  0.0595 -0.0705  0.2922
 6621SOL    HW131325   2.066   2.489   4.956 -0.5310  0.5402  1.0952
 6621SOL    HW231326   2.130   2.584   4.871 -0.9422  2.0829 -0.9467
 6622SOL     OW31327   0.421   2.803   3.040 -0.3358  0.5380 -0.0384
 6622SOL    HW131328   0.429   2.803   2.944 -0.3283  2.3114 -0.0439
 6622SOL    HW231329   0.353   2.737   3.053  0.5507 -0.5316 -0.7851
 6623SOL     OW31330   2.679   1.921   7.517  0.7073  0.3844  0.3935
 6623SOL    HW131331   2.629   1.867   7.579  2.3000  1.4531  2.6048
 6623SOL    HW231332   2.767   1.886   7.530  0.2495 -1.0121 -0.2225
 6624SOL     OW31333   0.711   3.118   4.180  0.0830  0.3085  0.0816
 6624SOL    HW131334   0.619   3.091   4.185  0.0225  0.8285  2.0986
 6624SOL    HW231335   0.752   3.034   4.161 -1.2615 -0.5286  0.8601
 6625SOL     OW31336   2.683   0.257   0.441 -0.4380 -0.3190 -0.5737
 6625SOL    HW131337   2.605   0.248   0.386  0.0732 -1.0242 -1.1776
 6625SOL    HW231338   2.638   0.304   0.512 -1.9573  0.6367 -2.1488
 6626SOL     OW31339   1.907   3.646   5.483 -0.3435  0.1829  0.2898
 6626SOL    HW131340   1.917   3.658   5.578  0.3994  1.2982  0.0718
 6626SOL    HW231341   1.813   3.637   5.468 -0.4615  0.8753  0.5865
 6627SOL     OW31342   2.690   2.778   7.147 -0.1791 -0.2666  0.3051
 6627SOL    HW131343   2.767   2.817   7.106 -0.4456  1.4209  1.3997
 6627SOL    HW231344   2.668   2.709   7.085  0.9667  0.5494 -1.0107
 6628SOL     OW31345   2.051   3.533   8.823 -0.1114  0.2014  0.2495
 6628SOL    HW131346   2.145   3.515   8.825 -0.4734 -1.8728 -1.7402
 6628SOL    HW231347   2.032   3.505   8.913 -0.3899  1.3554  0.5609
 6629SOL     OW31348   3.565   3.240   5.118  0.7303  0.1230 -0.1495
 6629SOL    HW131349   3.636   3.243   5.182  1.3808  0.9687 -0.9220
 6629SOL    HW231350   3.535   3.149   5.122 -1.2537  0.7478 -0.6152
 6630SOL     OW31351   1.550   1.267   1.938  0.2588 -0.0577 -0.1356
 6630SOL    HW131352   1.625   1.326   1.953  0.3085  0.4144 -2.2144
 6630SOL    HW231353   1.500   1.326   1.881  0.1975 -0.0537 -0.0771
 6631SOL     OW31354   0.342   3.129   5.458 -0.6889 -0.8398  0.0898
 6631SOL    HW131355   0.420   3.185   5.459 -0.7568 -0.7592  0.7363
 6631SOL    HW231356   0.389   3.049   5.435 -0.0638 -0.4681  0.0516
 6632SOL     OW31357   2.399   2.352   3.963  0.4480  0.4833 -0.6163
 6632SOL    HW131358   2.426   2.433   3.920  1.0863  1.7708  2.2353
 6632SOL    HW231359   2.304   2.348   3.952  0.6307 -0.0426 -2.0502
 6633SOL     OW31360   4.050   0.697  10.684  0.7289  0.5239  0.0911
 6633SOL    HW131361   4.117   0.660  10.742  2.2844 -0.3468 -2.2383
 6633SOL    HW231362   4.082   0.675  10.596 -3.2819  1.4555 -1.6103
 6634SOL     OW31363   4.277   2.170  14.750  0.0647  0.1690 -0.0741
 6634SOL    HW131364   4.308   2.259  14.732  1.6640 -0.4113 -0.1590
 6634SOL    HW231365   4.346   2.112  14.716  1.0474  1.8018 -0.8717
 6635SOL     OW31366   1.063   0.117   5.454  0.0503  0.3320 -0.0883
 6635SOL    HW131367   1.053   0.147   5.364 -2.1666  1.9744  0.6913
 6635SOL    HW231368   1.054   0.193   5.512  1.0052  0.0308  0.4462
 6636SOL     OW31369   2.612   4.252   8.880 -0.1946  0.4461  0.1393
 6636SOL    HW131370   2.529   4.272   8.837 -0.3637 -3.1557 -1.1620
 6636SOL    HW231371   2.597   4.167   8.922  0.0491  0.2927 -0.0867
 6637SOL     OW31372   4.662   4.668   8.230 -0.2236 -0.0247  0.3537
 6637SOL    HW131373   4.645   4.586   8.277 -2.3335 -0.2344 -0.7675
 6637SOL    HW231374   0.012   4.701   8.285  0.7413 -1.5031  0.0227
 6638SOL     OW31375   2.786   2.977   9.004 -0.1059  0.0984 -0.0155
 6638SOL    HW131376   2.826   3.056   8.967 -0.9926 -0.7383 -2.6945
 6638SOL    HW231377   2.744   2.938   8.928 -0.3356  0.8240 -0.2598
 6639SOL     OW31378   0.661   2.090  11.286  0.1318  0.3824  0.3981
 6639SOL    HW131379   0.593   2.154  11.266 -0.4325  0.2431  1.8175
 6639SOL    HW231380   0.617   2.035  11.352 -1.9451  0.2554 -1.0998
 6640SOL     OW31381   2.340   4.611   6.838  0.3723  0.0256 -0.1551
 6640SOL    HW131382   2.271   4.676   6.828 -0.0832 -0.1675  1.6524
 6640SOL    HW231383   2.393   4.627   6.760 -1.4606  2.4818 -0.8701
 6641SOL     OW31384   1.799   2.497   9.273  0.3143  0.6847 -0.4310
 6641SOL    HW131385   1.885   2.496   9.232  0.3055  3.3155 -0.4583
 6641SOL    HW231386   1.786   2.590   9.291  2.4527  1.1933 -1.4882
 6642SOL     OW31387   1.310   2.389  10.722  0.1136 -0.3180 -0.2394
 6642SOL    HW131388   1.300   2.463  10.782 -0.8491  1.0926 -2.1496
 6642SOL    HW231389   1.393   2.354  10.753 -1.0675 -1.0372  2.1213
 6643SOL     OW31390   1.000   1.958   5.047 -1.0076 -0.5389 -0.4938
 6643SOL    HW131391   1.015   2.025   5.113  0.6876 -0.7573 -0.6391
 6643SOL    HW231392   0.914   1.925   5.071 -1.7568 -0.0063 -2.4464
 6644SOL     OW31393   3.309   3.879   2.526 -0.1545 -1.0202  0.4921
 6644SOL    HW131394   3.249   3.953   2.523 -1.9286 -2.5738 -1.8881
 6644SOL    HW231395   3.255   3.808   2.492  0.6389 -0.7749 -1.2477
 6645SOL     OW31396   1.420   2.985  16.243  0.3322 -0.7082 -0.5738
 6645SOL    HW131397   1.418   2.891  16.228  0.5808 -0.6783 -0.7861
 6645SOL    HW231398   1.354   3.006  16.177 -0.6941 -1.6259  0.1598
 6646SOL     OW31399   0.591   2.428   7.691 -0.4268 -0.1573 -0.3083
 6646SOL    HW131400   0.511   2.401   7.737 -0.6979 -0.2369 -0.8292
 6646SOL    HW231401   0.558   2.480   7.619 -2.1579 -0.8985 -0.0341
 6647SOL     OW31402   0.886   4.397  10.342  0.0257 -0.1140 -0.7020
 6647SOL    HW131403   0.909   4.395  10.249 -0.2455 -0.6026 -0.7557
 6647SOL    HW231404   0.834   4.477  10.351  0.4926  0.0200  0.7139
 6648SOL     OW31405   0.725   0.115   5.059  0.1997 -0.0404  0.4859
 6648SOL    HW131406   0.761   0.033   5.025  1.2127  0.4799  0.2943
 6648SOL    HW231407   0.790   0.140   5.126 -1.0461  2.7921  0.6233
 6649SOL     OW31408   3.092   3.800   5.527  0.1304 -0.1077  0.2354
 6649SOL    HW131409   3.163   3.832   5.471  0.0532 -0.5269 -0.1051
 6649SOL    HW231410   3.022   3.821   5.465 -0.0719  0.4516  0.6513
 6650SOL     OW31411   0.138   2.629   9.009 -0.1482  0.3385 -0.4283
 6650SOL    HW131412   0.204   2.611   9.076 -0.9489 -0.2099  0.2169
 6650SOL    HW231413   0.152   2.722   8.991 -0.1615  0.2580 -0.8465
 6651SOL     OW31414   0.491   1.753   7.849 -0.0657  0.5149 -0.3111
 6651SOL    HW131415   0.498   1.660   7.832 -1.4750  0.0286  1.6991
 6651SOL    HW231416   0.554   1.761   7.921  1.4225 -0.2951 -1.5409
 6652SOL     OW31417   2.301   0.789   3.065  0.5243  0.0517  0.1211
 6652SOL    HW131418   2.218   0.749   3.039  1.1869 -1.4854  0.3665
 6652SOL    HW231419   2.351   0.807   2.985  0.8172 -0.1081  0.2704
 6653SOL     OW31420   2.829   2.238  16.765  0.1867  0.0273 -0.1854
 6653SOL    HW131421   2.755   2.194  16.807 -1.9432  1.2112 -2.7099
 6653SOL    HW231422   2.772   2.284  16.704  1.0077  0.2664 -0.7619
 6654SOL     OW31423   0.531   1.648   5.942  0.3735  0.1824 -0.2743
 6654SOL    HW131424   0.498   1.687   6.023 -3.1100  1.0765 -2.1235
 6654SOL    HW231425   0.587   1.719   5.911 -0.4821  1.4763  1.1488
 6655SOL     OW31426   4.412   1.405   6.413 -0.5608 -0.0753 -0.0964
 6655SOL    HW131427   4.471   1.388   6.339  1.0408 -0.1438  1.1859
 6655SOL    HW231428   4.415   1.323   6.461  1.1646 -1.2695 -2.2248
 6656SOL     OW31429   0.760   1.036   7.924  0.0321 -0.6071 -0.0858
 6656SOL    HW131430   0.727   0.959   7.877 -0.7759  0.7043 -1.6380
 6656SOL    HW231431   0.674   1.073   7.946 -0.1132 -1.1151  0.2102
 6657SOL     OW31432   2.606   1.199   2.506 -0.3197  0.0985  1.0411
 6657SOL    HW131433   2.701   1.184   2.505 -0.4959 -1.0344  1.0356
 6657SOL    HW231434   2.590   1.122   2.560  0.3074  0.4264  1.6877
 6658SOL     OW31435   4.063   3.618  12.991 -0.4308  0.6872  0.0866
 6658SOL    HW131436   4.002   3.680  12.951  1.3235  0.7533 -2.4475
 6658SOL    HW231437   4.034   3.536  12.953  0.4523  0.1668  0.5155
 6659SOL     OW31438   0.207   3.827  16.787  0.6697  0.2736  0.5242
 6659SOL    HW131439   0.119   3.790  16.790  0.5094  0.5645 -0.2937
 6659SOL    HW231440   0.220   3.861  16.698 -0.1286 -0.1194  0.2570
 6660SOL     OW31441   3.281   2.826  16.809 -0.1156 -0.0599  0.1224
 6660SOL    HW131442   3.345   2.767  16.768  1.3079  1.4986  0.1352
 6660SOL    HW231443   3.328   2.864  16.882  1.9466 -1.4450 -0.4952
 6661SOL     OW31444   2.432   3.777   2.465  0.3706 -0.6833 -0.0909
 6661SOL    HW131445   2.495   3.705   2.467 -0.4409 -1.2928  2.3926
 6661SOL    HW231446   2.459   3.819   2.383  0.1252 -3.3388 -1.5176
 6662SOL     OW31447   3.090   1.528   9.609 -0.6506 -0.2482 -0.2530
 6662SOL    HW131448   2.996   1.542   9.621 -0.7260  1.5623 -2.9474
 6662SOL    HW231449   3.082   1.463   9.540 -1.0946  1.4498 -1.8025
 6663SOL     OW31450   3.838   2.642   9.193 -0.3856  0.2620 -0.3328
 6663SOL    HW131451   3.764   2.623   9.251  0.2989 -1.5800 -0.0560
 6663SOL    HW231452   3.840   2.737   9.188  2.2564  0.3183  2.2595
 6664SOL     OW31453   2.312   0.711   6.159  0.8343 -0.4540 -0.4249
 6664SOL    HW131454   2.339   0.795   6.123 -0.3249  0.6649  1.3534
 6664SOL    HW231455   2.259   0.681   6.085 -0.2760 -1.7415  0.8848
 6665SOL     OW31456   3.157   0.902   3.240 -0.4390  0.1676  0.7341
 6665SOL    HW131457   3.090   0.833   3.238  0.1615 -0.3961 -0.1552
 6665SOL    HW231458   3.100   0.976   3.261 -2.2852 -1.9709  3.2232
 6666SOL     OW31459   2.177   1.049   0.055 -0.3368  0.3822  0.4761
 6666SOL    HW131460   2.252   0.990   0.048 -0.9692  0.0201 -3.0217
 6666SOL    HW231461   2.217   1.131   0.027  0.0974  0.8487  2.4440
 6667SOL     OW31462   3.740   3.518  17.404  0.5796 -0.3565  0.4980
 6667SOL    HW131463   3.770   3.498  17.315 -1.1918 -1.1648  0.0929
 6667SOL    HW231464   3.820   3.505  17.456  1.9144 -0.2499 -1.5037
 6668SOL     OW31465   2.689   2.854   9.413 -0.1300 -0.5613  0.0004
 6668SOL    HW131466   2.734   2.932   9.381  2.1711 -1.1483  1.7531
 6668SOL    HW231467   2.668   2.875   9.504  0.4928  1.3083 -0.3019
 6669SOL     OW31468   2.307   0.160   2.391 -0.0833  0.7632 -0.3675
 6669SOL    HW131469   2.220   0.195   2.412 -1.7594 -2.4693 -1.8604
 6669SOL    HW231470   2.295   0.125   2.303  0.5328 -0.8932  0.1964
 6670SOL     OW31471   2.884   2.902   7.642 -0.4082  0.0614  0.4642
 6670SOL    HW131472   2.930   2.912   7.726  0.9969  1.0898 -0.4355
 6670SOL    HW231473   2.797   2.886   7.679  0.0334 -0.4698  1.2835
 6671SOL     OW31474   3.354   1.848   8.438 -0.6436  0.0880 -0.1179
 6671SOL    HW131475   3.272   1.891   8.414 -0.5774 -0.3941 -1.1656
 6671SOL    HW231476   3.352   1.849   8.534 -0.4558 -0.7326 -0.1081
 6672SOL     OW31477   0.977   1.468  15.951  1.2973  0.1541  0.1028
 6672SOL    HW131478   1.014   1.541  15.900 -1.7378  1.4446 -0.2394
 6672SOL    HW231479   0.938   1.509  16.028 -0.2559 -0.7376 -0.2078
 6673SOL     OW31480   4.312   4.169  10.029  0.2447 -0.0035  0.3271
 6673SOL    HW131481   4.264   4.121   9.961 -0.8419  0.4707  0.7519
 6673SOL    HW231482   4.268   4.130  10.105 -0.3710  0.4223  0.1939
 6674SOL     OW31483   1.067   4.045   4.133  0.2601 -0.2381  0.0147
 6674SOL    HW131484   1.034   4.064   4.045 -1.4764 -1.0416  0.4994
 6674SOL    HW231485   1.087   4.133   4.165  0.2413 -0.4964  0.7197
 6675SOL     OW31486   1.889   2.021   4.603  0.6629 -0.3215 -0.6713
 6675SOL    HW131487   1.955   2.089   4.609  1.1643 -0.6330 -2.6069
 6675SOL    HW231488   1.903   1.967   4.680 -0.2800 -0.4059 -0.5532
 6676SOL     OW31489   0.457   1.474   6.682  0.1505  0.2727 -0.2779
 6676SOL    HW131490   0.413   1.393   6.654 -0.4349 -0.5049  2.9431
 6676SOL    HW231491   0.537   1.475   6.628 -0.3665  1.1290 -1.0359
 6677SOL     OW31492   2.002   1.410   8.574  0.0932 -0.0771 -0.7918
 6677SOL    HW131493   2.092   1.442   8.574  0.8623 -2.1790 -4.2949
 6677SOL    HW231494   1.976   1.430   8.484 -1.0331 -2.6534 -1.0481
 6678SOL     OW31495   3.244   3.306   2.189  0.5875  0.0543 -0.1480
 6678SOL    HW131496   3.194   3.230   2.163  0.0846  0.4673 -0.3806
 6678SOL    HW231497   3.237   3.307   2.285  0.6683  3.6480 -0.1701
 6679SOL     OW31498   4.220   0.570   9.241  0.4708 -0.0999  0.1149
 6679SOL    HW131499   4.287   0.521   9.288 -1.6768 -0.1249  3.1783
 6679SOL    HW231500   4.238   0.660   9.268  0.7641 -0.1665  0.1419
 6680SOL     OW31501   2.052   1.255   8.239 -0.0852  0.2600  0.7217
 6680SOL    HW131502   1.983   1.310   8.276  1.2278  1.0849  1.9133
 6680SOL    HW231503   2.074   1.191   8.306 -0.0617  0.4279  0.8728
 6681SOL     OW31504   0.910   1.049   5.888  0.2545  0.1771 -0.0359
 6681SOL    HW131505   0.988   0.997   5.910  0.4556  0.5603  0.1563
 6681SOL    HW231506   0.915   1.044   5.792  1.3348 -0.3114  0.0425
 6682SOL     OW31507   4.063   2.066   3.657 -0.3527 -0.4123  0.1564
 6682SOL    HW131508   4.105   2.122   3.592 -0.7358 -0.6063 -0.2581
 6682SOL    HW231509   3.988   2.126   3.660 -0.0233 -0.0132  0.4035
 6683SOL     OW31510   0.557   0.837   3.419  0.3599  0.5221 -0.3795
 6683SOL    HW131511   0.485   0.777   3.439  2.3635 -2.0087 -0.6790
 6683SOL    HW231512   0.536   0.835   3.326 -0.7665 -1.9720 -0.0622
 6684SOL     OW31513   2.544   0.074   6.600 -0.0799 -0.1046  0.4436
 6684SOL    HW131514   2.449   0.060   6.598 -0.0822  0.0968 -0.9478
 6684SOL    HW231515   2.556   0.142   6.534 -2.0461 -0.5465 -0.3568
 6685SOL     OW31516   1.146   4.461   4.950 -0.1203  0.4177 -0.1491
 6685SOL    HW131517   1.101   4.532   4.996 -0.9546 -0.5409  0.5118
 6685SOL    HW231518   1.159   4.504   4.865 -0.6675 -2.2800 -1.5865
 6686SOL     OW31519   3.025   0.283  15.570  0.4062 -0.2349  0.3774
 6686SOL    HW131520   3.098   0.301  15.630 -0.1510  0.3956  0.8572
 6686SOL    HW231521   3.069   0.237  15.498 -0.6706  0.1137 -0.5096
 6687SOL     OW31522   3.959   1.464   2.054 -0.3165 -0.6399 -0.1037
 6687SOL    HW131523   3.937   1.525   2.124  0.3298 -0.7677  0.2111
 6687SOL    HW231524   4.054   1.474   2.063 -0.2405  0.1664 -1.8565
 6688SOL     OW31525   0.699   1.984  17.557 -0.0014  0.7509  0.1993
 6688SOL    HW131526   0.748   2.066  17.552 -3.3477  2.6076 -1.9488
 6688SOL    HW231527   0.765   1.917  17.574  0.8872  0.7919 -3.2379
 6689SOL     OW31528   3.734   3.115   4.724  0.7782 -0.1806  0.4222
 6689SOL    HW131529   3.786   3.096   4.646  1.0099  0.4376  0.4216
 6689SOL    HW231530   3.769   3.051   4.786 -1.0153  0.5952  2.2280
 6690SOL     OW31531   2.194   0.790   1.485  0.1583  0.0858 -0.3507
 6690SOL    HW131532   2.114   0.784   1.432  0.1592 -1.9923 -0.1123
 6690SOL    HW231533   2.254   0.807   1.413  2.2210 -0.8207  1.1844
 6691SOL     OW31534   3.343   0.975   8.943  0.4262 -0.2112 -0.0649
 6691SOL    HW131535   3.423   0.943   8.984  2.0528  2.0673 -1.4730
 6691SOL    HW231536   3.354   0.952   8.850  0.3434 -1.4385  0.2317
 6692SOL     OW31537   2.288   1.534   6.639  0.2642  0.0338 -0.5756
 6692SOL    HW131538   2.238   1.597   6.692  3.5345  1.4922  0.7752
 6692SOL    HW231539   2.344   1.597   6.593  2.7485 -1.9903 -0.2740
 6693SOL     OW31540   0.016   1.557   6.327  0.1795  0.0453  0.7053
 6693SOL    HW131541   0.099   1.559   6.278 -1.1010  0.3399 -1.4774
 6693SOL    HW231542   4.686   1.502   6.267 -0.8231 -0.9755  2.5179
 6694SOL     OW31543   4.301   3.725  13.302  0.1012 -0.7589 -0.4632
 6694SOL    HW131544   4.236   3.692  13.240 -0.2417  0.0305 -0.5121
 6694SOL    HW231545   4.259   3.708  13.387 -2.0919  1.3304 -1.1406
 6695SOL     OW31546   0.916   0.631   8.587  0.1351  0.5960 -0.0324
 6695SOL    HW131547   0.872   0.653   8.669 -2.0675 -1.3864 -0.6959
 6695SOL    HW231548   1.008   0.627   8.612 -0.3117 -1.3367  1.2458
 6696SOL     OW31549   2.298   1.845   6.630 -0.1072  0.2901  0.7133
 6696SOL    HW131550   2.313   1.817   6.540  0.0218  1.1408  0.4800
 6696SOL    HW231551   2.388   1.830   6.658 -0.8653 -2.8593  1.4787
 6697SOL     OW31552   4.571   0.432  12.531  0.2142  0.2005  0.2795
 6697SOL    HW131553   4.528   0.514  12.553  1.6555  0.7131  1.1454
 6697SOL    HW231554   4.535   0.416  12.444  1.1655  0.3136 -0.1250
 6698SOL     OW31555   1.806   4.678  13.033 -0.0671  0.0728 -0.2816
 6698SOL    HW131556   1.760   0.003  13.103 -0.7361  0.1367 -0.7620
 6698SOL    HW231557   1.735   4.670  12.969 -0.4101  0.5092  0.0472
 6699SOL     OW31558   4.231   3.814   3.880  0.0190 -0.4279  0.3678
 6699SOL    HW131559   4.324   3.821   3.856 -0.4238  1.2297 -0.8696
 6699SOL    HW231560   4.229   3.870   3.958  1.6603 -0.5000  0.4703
 6700SOL     OW31561   4.212   2.198   4.225  0.2447  0.0577 -0.5001
 6700SOL    HW131562   4.302   2.225   4.206  0.0425  0.6094 -0.6966
 6700SOL    HW231563   4.221   2.105   4.203  1.0361 -0.0177  0.1293
 6701SOL     OW31564   4.413   1.352   2.831  0.5623  0.0690  0.7898
 6701SOL    HW131565   4.394   1.268   2.789  1.6868 -1.2945  2.9760
 6701SOL    HW231566   4.470   1.328   2.904  0.5272  1.1296  1.1656
 6702SOL     OW31567   1.472   0.326  10.997 -0.3335 -0.5195 -0.0034
 6702SOL    HW131568   1.559   0.333  10.958  0.2319  1.0922  1.5526
 6702SOL    HW231569   1.445   0.418  10.994 -0.6708 -0.5497  2.4148
 6703SOL     OW31570   1.273   4.185  13.862  0.0062 -0.4446  0.4718
 6703SOL    HW131571   1.218   4.264  13.857  0.7818  0.2274  2.7794
 6703SOL    HW231572   1.356   4.226  13.837  1.1647 -1.5792  2.4444
 6704SOL     OW31573   0.754   2.718   9.225 -0.2057  0.1425 -0.2650
 6704SOL    HW131574   0.705   2.738   9.305 -0.4382  0.1151 -0.4006
 6704SOL    HW231575   0.735   2.625   9.216  1.1419  0.1049 -2.6558
 6705SOL     OW31576   3.734   0.815  15.106 -0.2594  0.5809 -0.9984
 6705SOL    HW131577   3.769   0.847  15.023  0.7568  0.2079 -0.7170
 6705SOL    HW231578   3.772   0.876  15.169  0.9480 -0.2584 -0.8886
 6706SOL     OW31579   1.817   4.016  15.562 -0.1286 -0.1690  0.2311
 6706SOL    HW131580   1.911   4.036  15.567 -0.2540  0.4435  0.0555
 6706SOL    HW231581   1.835   3.926  15.589 -1.1076  0.2133  2.1647
 6707SOL     OW31582   2.275   1.420   4.787  0.0905  0.3502  0.0920
 6707SOL    HW131583   2.195   1.373   4.764  0.2716 -0.2885  0.7773
 6707SOL    HW231584   2.343   1.370   4.742 -1.0339 -0.0340 -1.2026
 6708SOL     OW31585   3.667   1.596   3.098 -0.0459 -0.5497  0.1987
 6708SOL    HW131586   3.688   1.510   3.061 -0.2440 -1.0794  1.3244
 6708SOL    HW231587   3.586   1.580   3.147  1.4950 -1.8858  2.3009
 6709SOL     OW31588   4.715   0.800   3.195  0.1572  0.4380  0.5213
 6709SOL    HW131589   0.028   0.779   3.282 -2.0505 -0.8109  1.0800
 6709SOL    HW231590   4.621   0.783   3.203 -0.2418  1.4290 -2.0676
 6710SOL     OW31591   1.115   2.131   8.026 -0.3841 -0.1245  0.1206
 6710SOL    HW131592   1.051   2.156   7.959  0.0956  1.2805  0.1753
 6710SOL    HW231593   1.160   2.059   7.983 -0.2886 -0.0089  0.0262
 6711SOL     OW31594   2.047   0.970   2.507  0.0683  0.7933  0.4485
 6711SOL    HW131595   2.077   0.905   2.570  1.2530  0.5959 -0.3081
 6711SOL    HW231596   2.103   0.962   2.430  2.5466  0.0294  2.3314
 6712SOL     OW31597   0.722   1.641   5.590  0.0039  0.1517  0.4486
 6712SOL    HW131598   0.646   1.603   5.548 -0.2925  1.4204 -0.1591
 6712SOL    HW231599   0.772   1.675   5.515 -0.8815 -0.8034 -0.5629
 6713SOL     OW31600   0.175   1.520   7.263  0.3014  0.3313  0.2142
 6713SOL    HW131601   0.213   1.552   7.181 -0.2673 -4.0293 -1.7562
 6713SOL    HW231602   0.229   1.565   7.328  0.9610  1.1826 -0.9295
 6714SOL     OW31603   2.110   1.001   0.470 -0.6318  0.1403 -0.1174
 6714SOL    HW131604   2.137   1.089   0.497  0.6122  0.0951 -1.2458
 6714SOL    HW231605   2.075   0.972   0.554  0.1505 -0.5819 -0.0454
 6715SOL     OW31606   3.703   3.614  14.421  0.4612  0.0174 -1.0334
 6715SOL    HW131607   3.685   3.520  14.427 -3.3770  0.8739  0.9492
 6715SOL    HW231608   3.768   3.618  14.491 -1.7529 -1.6789  1.1486
 6716SOL     OW31609   0.668   1.417   4.835 -0.4402 -0.8067  0.5159
 6716SOL    HW131610   0.576   1.406   4.810 -0.3770  1.1579 -0.5102
 6716SOL    HW231611   0.718   1.380   4.762  1.2887  3.1395 -0.2841
 6717SOL     OW31612   4.178   0.144   3.132  0.0419 -0.3821 -0.1264
 6717SOL    HW131613   4.087   0.129   3.109 -0.8101  1.3132  2.1059
 6717SOL    HW231614   4.175   0.096   3.215  0.9978  0.6868  0.5225
 6718SOL     OW31615   3.744   4.428   8.806  0.0598 -0.0515 -0.1627
 6718SOL    HW131616   3.776   4.338   8.814 -0.4350 -0.1613  0.5423
 6718SOL    HW231617   3.659   4.407   8.767 -0.1168  0.2108  0.0821
 6719SOL     OW31618   2.565   4.380   6.100 -0.2069  0.1941 -0.5004
 6719SOL    HW131619   2.630   4.386   6.030  0.4590  1.0903  0.1932
 6719SOL    HW231620   2.593   4.460   6.145  3.0690 -0.1010 -2.0119
 6720SOL     OW31621   3.669   3.258   6.212 -0.4900  0.2686 -0.3380
 6720SOL    HW131622   3.738   3.252   6.278 -0.3264 -0.4146 -0.5733
 6720SOL    HW231623   3.718   3.297   6.141 -1.6052  1.6483 -0.3539
 6721SOL     OW31624   3.616   1.420  12.471 -0.7368  0.2102 -0.4340
 6721SOL    HW131625   3.540   1.363  12.461  0.0099 -1.0014  0.8251
 6721SOL    HW231626   3.657   1.391  12.552 -1.2101 -0.9881 -0.6226
 6722SOL     OW31627   0.465   0.558   5.019 -0.4151  0.3136  0.2032
 6722SOL    HW131628   0.467   0.600   4.933  3.4382  1.7577  0.9724
 6722SOL    HW231629   0.494   0.468   5.007 -3.2199 -0.5224 -0.1927
 6723SOL     OW31630   2.895   4.482   9.354  0.5829 -0.1464  0.0503
 6723SOL    HW131631   2.842   4.473   9.432  1.5126 -1.3533  0.5312
 6723SOL    HW231632   2.855   4.413   9.302  0.5240  0.1404 -0.2926
 6724SOL     OW31633   3.043   0.686  13.177  0.1709  0.3383  0.1486
 6724SOL    HW131634   2.993   0.605  13.193  0.9319 -0.0433  0.5539
 6724SOL    HW231635   3.115   0.672  13.238 -0.2655 -1.2608  0.3095
 6725SOL     OW31636   3.687   2.585   8.004  0.5104  0.3998 -0.0853
 6725SOL    HW131637   3.632   2.573   7.926 -0.9520  3.1576  0.4921
 6725SOL    HW231638   3.691   2.500   8.048  4.1087  0.8168  0.3729
 6726SOL     OW31639   2.039   1.135  11.974 -0.7890  0.6243  0.3897
 6726SOL    HW131640   2.133   1.121  11.986 -1.1666 -3.3367 -1.2188
 6726SOL    HW231641   2.043   1.210  11.914  0.4438 -0.6349 -1.0954
 6727SOL     OW31642   0.455   3.464   5.099 -0.6642  0.0441 -0.6783
 6727SOL    HW131643   0.482   3.377   5.072 -1.2605 -0.1847 -0.5496
 6727SOL    HW231644   0.529   3.508   5.057 -0.7208  0.4567 -0.3497
 6728SOL     OW31645   0.780   3.236   4.861  0.1803  0.2899  0.0140
 6728SOL    HW131646   0.702   3.257   4.810  0.0392 -0.1243  0.0551
 6728SOL    HW231647   0.830   3.194   4.791  1.8272  3.7751 -0.8986
 6729SOL     OW31648   0.978   3.736   2.294 -0.7941 -0.6725  0.2423
 6729SOL    HW131649   0.925   3.783   2.358  0.0947 -1.5183  1.5915
 6729SOL    HW231650   1.007   3.655   2.335 -0.7592 -0.2634  1.0263
 6730SOL     OW31651   1.829   0.177   8.743  0.3379 -0.3306 -0.4482
 6730SOL    HW131652   1.830   0.151   8.835  0.3185  2.4976  0.3592
 6730SOL    HW231653   1.910   0.140   8.707  1.4863  3.1338 -1.3955
 6731SOL     OW31654   4.039   3.244  13.214  0.1814 -0.2724 -0.2958
 6731SOL    HW131655   4.046   3.257  13.120 -2.1167  0.9801 -0.3013
 6731SOL    HW231656   3.945   3.234  13.225  0.0143  1.2713 -0.2355
 6732SOL     OW31657   0.373   4.464   0.263 -0.1500  0.7991  0.0246
 6732SOL    HW131658   0.454   4.432   0.223 -0.8284 -0.7566 -0.0943
 6732SOL    HW231659   0.417   4.528   0.320 -0.3739 -1.5288  2.7957
 6733SOL     OW31660   0.667   4.115   6.551 -0.7480  0.1409 -0.2399
 6733SOL    HW131661   0.638   4.031   6.517  0.7126 -0.6044  0.3765
 6733SOL    HW231662   0.761   4.098   6.556 -0.9127 -0.7026  0.0115
 6734SOL     OW31663   4.646   0.759  13.322  0.3699 -0.5584 -0.4033
 6734SOL    HW131664   4.642   0.808  13.404 -0.8995 -4.1413  1.6811
 6734SOL    HW231665   4.580   0.799  13.266  1.0976  0.9222 -0.2124
 6735SOL     OW31666   4.653   0.604   2.777  1.1559  0.3875 -0.1728
 6735SOL    HW131667   4.678   0.602   2.870 -0.0736  0.6234  0.1636
 6735SOL    HW231668   4.562   0.574   2.783  1.0974  0.2545 -1.9197
 6736SOL     OW31669   0.266   4.394   5.312 -0.3855 -0.0667 -0.2185
 6736SOL    HW131670   0.211   4.447   5.254  1.0062 -1.0472 -2.4170
 6736SOL    HW231671   0.250   4.316   5.259  2.1825  0.2176 -1.3922
 6737SOL     OW31672   0.401   0.557   5.702 -0.1366  0.3189 -0.5192
 6737SOL    HW131673   0.337   0.506   5.651  0.2170 -0.1822 -0.4623
 6737SOL    HW231674   0.429   0.613   5.629  2.4117  0.0789  0.3021
 6738SOL     OW31675   0.497   2.180   3.048 -0.1628 -0.0706 -0.5628
 6738SOL    HW131676   0.558   2.249   3.021  0.9798  0.0178  2.1954
 6738SOL    HW231677   0.498   2.123   2.971 -0.3982  0.8149 -1.2220
 6739SOL     OW31678   4.094   0.471   7.328 -0.3549 -0.4090 -0.3873
 6739SOL    HW131679   4.000   0.468   7.343 -0.4619 -2.9443 -1.6341
 6739SOL    HW231680   4.117   0.466   7.420  0.0950  1.0129 -0.4207
 6740SOL     OW31681   2.571   4.289   5.656 -0.0504  0.6870  0.4309
 6740SOL    HW131682   2.651   4.338   5.637  0.0723  0.0246 -0.7665
 6740SOL    HW231683   2.527   4.300   5.572 -0.4113 -3.6937  0.0498
 6741SOL     OW31684   3.349   2.623  13.475  0.6507 -0.5335  0.1313
 6741SOL    HW131685   3.420   2.598  13.534 -0.1063 -0.0562  1.2431
 6741SOL    HW231686   3.355   2.552  13.410 -3.0240 -0.7125 -0.0542
 6742SOL     OW31687   0.969   2.694   0.089  0.2010 -0.4501  0.4124
 6742SOL    HW131688   1.050   2.653   0.060 -0.0548 -1.5064  1.1484
 6742SOL    HW231689   0.915   2.704   0.011  0.4638 -0.6614  0.2014
 6743SOL     OW31690   3.893   4.040   2.288 -0.7127  0.1634  0.0020
 6743SOL    HW131691   3.839   3.961   2.287  1.4513 -1.2918 -2.4008
 6743SOL    HW231692   3.934   4.019   2.372  0.8539  2.2528 -0.2254
 6744SOL     OW31693   3.735   3.111   9.324 -0.5803 -0.0969 -0.3003
 6744SOL    HW131694   3.661   3.131   9.267 -1.0128 -1.1593 -0.0999
 6744SOL    HW231695   3.693   3.096   9.408  4.3211  1.4642  2.4173
 6745SOL     OW31696   4.714   0.860   7.854 -0.3179 -0.5408  0.2740
 6745SOL    HW131697   0.083   0.876   7.827 -1.4981  1.0701 -2.6559
 6745SOL    HW231698   4.699   0.772   7.819  1.0852  0.1856 -2.1300
 6746SOL     OW31699   3.621   2.292   7.619  0.1627  0.2285  0.1315
 6746SOL    HW131700   3.686   2.319   7.684  0.1191 -1.9231  1.0975
 6746SOL    HW231701   3.684   2.236   7.573 -2.4972 -1.7007 -1.1386
 6747SOL     OW31702   1.258   0.828  12.858  0.1109  0.1645  0.2026
 6747SOL    HW131703   1.323   0.831  12.788  2.2165 -0.8058  2.1199
 6747SOL    HW231704   1.320   0.819  12.931 -0.9043  4.3022  1.5620
 6748SOL     OW31705   1.630   4.129   6.834  0.0957  0.0604 -0.1388
 6748SOL    HW131706   1.720   4.162   6.837 -0.7394  2.2770  1.0311
 6748SOL    HW231707   1.643   4.034   6.829  2.6209  0.3011  1.8406
 6749SOL     OW31708   1.395   4.609   5.845 -0.1136 -0.4924  0.5054
 6749SOL    HW131709   1.384   4.681   5.783  1.9975  0.1669  0.9050
 6749SOL    HW231710   1.319   4.623   5.901  1.2971 -0.1539  2.3301
 6750SOL     OW31711   2.287   0.444   8.688 -0.5283 -0.2356 -0.3154
 6750SOL    HW131712   2.383   0.453   8.688 -0.3054 -2.7271  1.3904
 6750SOL    HW231713   2.269   0.480   8.774 -0.2285 -0.9521  0.0457
 6751SOL     OW31714   2.589   3.672   6.128 -0.2713 -0.6100  0.1324
 6751SOL    HW131715   2.604   3.737   6.058  0.6297 -0.2721  0.6338
 6751SOL    HW231716   2.525   3.613   6.089 -2.4003  1.9977 -0.3725
 6752SOL     OW31717   1.369   1.380  14.989  0.3346  0.0558  0.0990
 6752SOL    HW131718   1.371   1.475  14.987  2.8273 -0.0071 -0.1850
 6752SOL    HW231719   1.327   1.357  14.906 -0.2343  1.7313 -0.0658
 6753SOL     OW31720   1.146   1.325  11.577 -0.0869 -0.1941  0.3405
 6753SOL    HW131721   1.115   1.393  11.638 -1.9221 -0.3466 -0.4122
 6753SOL    HW231722   1.200   1.262  11.625  0.2095  0.5182  0.9424
 6754SOL     OW31723   2.049   2.757   8.126 -0.1743 -0.5386 -0.2334
 6754SOL    HW131724   2.081   2.669   8.148  1.7645  0.4156  0.8058
 6754SOL    HW231725   2.062   2.764   8.031  2.4412  0.0159  0.1644
 6755SOL     OW31726   3.964   4.253   4.813  0.0758  0.2864 -0.2806
 6755SOL    HW131727   3.990   4.184   4.874 -1.7313 -0.4027 -0.2910
 6755SOL    HW231728   3.918   4.208   4.742  1.6099 -1.2164 -0.3228
 6756SOL     OW31729   0.416   2.683   8.885 -0.2213  0.2121  0.5201
 6756SOL    HW131730   0.443   2.747   8.951 -0.3921 -0.2431  1.0331
 6756SOL    HW231731   0.437   2.596   8.920  2.1828  0.6373  0.0837
 6757SOL     OW31732   2.653   0.779  11.970 -0.2734 -0.3152  0.5212
 6757SOL    HW131733   2.640   0.688  11.945 -0.4433 -0.7507  2.1641
 6757SOL    HW231734   2.747   0.787  11.951 -0.7370 -2.5186 -2.5610
 6758SOL     OW31735   2.359   2.787   5.066 -0.4507  0.3471  0.2290
 6758SOL    HW131736   2.428   2.807   5.003 -0.3924 -1.9295 -0.4350
 6758SOL    HW231737   2.370   2.692   5.063  0.0644  0.4618 -1.1177
 6759SOL     OW31738   2.388   1.547   5.866 -0.1643 -0.3406 -0.1782
 6759SOL    HW131739   2.299   1.524   5.892  0.0362  1.2744  2.0249
 6759SOL    HW231740   2.432   1.463   5.855 -0.2983 -0.2730 -1.1719
 6760SOL     OW31741   4.062   1.925   6.994 -0.0389 -0.5799  0.3587
 6760SOL    HW131742   3.994   1.933   7.062  1.6957 -1.7955  2.2285
 6760SOL    HW231743   4.074   2.017   6.971 -1.5863 -0.9548 -1.9162
 6761SOL     OW31744   0.309   3.140   6.862 -0.0521  0.1346 -0.0588
 6761SOL    HW131745   0.258   3.072   6.818  0.4936  0.6312 -1.4513
 6761SOL    HW231746   0.386   3.083   6.869  0.4492  0.8115 -0.1128
 6762SOL     OW31747   0.156   1.436   3.852 -0.5635  0.6066 -0.1127
 6762SOL    HW131748   0.125   1.450   3.763  1.5234  0.4550 -0.8637
 6762SOL    HW231749   0.213   1.512   3.864  1.0822 -0.6592 -0.0120
 6763SOL     OW31750   1.866   1.928  16.594  0.4306  0.5232 -0.1938
 6763SOL    HW131751   1.790   1.870  16.584  1.4359 -0.5125 -1.6994
 6763SOL    HW231752   1.936   1.863  16.593 -0.3564 -0.3384  0.4058
 6764SOL     OW31753   2.800   3.322   2.618  0.0230 -0.2661  0.2966
 6764SOL    HW131754   2.730   3.387   2.622 -0.5400 -0.8692  0.1113
 6764SOL    HW231755   2.804   3.316   2.523  0.7359  1.1855  0.2240
 6765SOL     OW31756   2.228   1.117  11.694 -0.2689 -0.4208 -0.2155
 6765SOL    HW131757   2.290   1.067  11.640 -2.5279 -1.7358 -1.6192
 6765SOL    HW231758   2.142   1.088  11.662  1.3372 -1.6269 -3.4639
 6766SOL     OW31759   2.302   3.940   5.528 -0.6513  0.5545 -0.2265
 6766SOL    HW131760   2.307   3.863   5.471  0.2215  1.8561 -1.9125
 6766SOL    HW231761   2.212   3.928   5.560 -0.7586  1.2052 -0.2751
 6767SOL     OW31762   0.673   3.331   8.896 -0.5153  0.0380  0.2664
 6767SOL    HW131763   0.640   3.347   8.984  2.1818  4.9429  0.3701
 6767SOL    HW231764   0.602   3.375   8.849 -0.7451 -0.5116  0.0940
 6768SOL     OW31765   0.643   2.720   4.262 -0.0797 -0.4572  0.2588
 6768SOL    HW131766   0.570   2.740   4.320 -0.5526 -0.1364 -0.4472
 6768SOL    HW231767   0.596   2.666   4.198 -0.8520  1.8257 -1.0911
 6769SOL     OW31768   4.060   1.015   9.218  0.3499  0.3231 -0.7275
 6769SOL    HW131769   4.019   1.097   9.189 -1.1549  0.9481  3.2572
 6769SOL    HW231770   4.001   0.950   9.179  0.4551  0.4278 -1.0619
 6770SOL     OW31771   0.717   1.014   2.735 -0.3365 -0.3101  0.4630
 6770SOL    HW131772   0.806   0.993   2.706 -1.1066 -1.7252 -0.8484
 6770SOL    HW231773   0.729   1.109   2.735 -2.2092 -0.0654  1.6508
 6771SOL     OW31774   1.388   1.918   5.624  0.2511 -0.0321 -0.2064
 6771SOL    HW131775   1.416   1.849   5.564  0.1353  0.5979 -0.9832
 6771SOL    HW231776   1.387   1.870   5.707 -1.8952 -0.3591 -0.3976
 6772SOL     OW31777   4.241   1.892   3.785  0.0146  0.5455 -0.1053
 6772SOL    HW131778   4.320   1.909   3.734 -0.5005 -1.4541 -1.5687
 6772SOL    HW231779   4.180   1.957   3.753 -1.7126 -0.0142  2.0488
 6773SOL     OW31780   4.421   4.464  12.970  0.3486 -0.2543  0.0394
 6773SOL    HW131781   4.445   4.431  12.883  0.8449  0.7020 -0.1815
 6773SOL    HW231782   4.510   4.490  12.996 -0.0639 -0.4209  1.6226
 6774SOL     OW31783   1.864   1.484  10.378  0.1293 -1.1825 -0.6493
 6774SOL    HW131784   1.810   1.514  10.305 -1.3572  0.3326  1.0776
 6774SOL    HW231785   1.940   1.542  10.369  0.1264 -0.8189  1.5039
 6775SOL     OW31786   2.105   0.537   7.367  1.0402 -0.3918  0.0248
 6775SOL    HW131787   2.033   0.533   7.430  1.6409 -0.8703  0.6809
 6775SOL    HW231788   2.083   0.461   7.312 -0.0933 -0.5559  0.7077
 6776SOL     OW31789   2.313   4.025  15.720  0.3370  0.1229  0.3511
 6776SOL    HW131790   2.332   4.100  15.776  1.0454  1.2002 -1.3468
 6776SOL    HW231791   2.376   3.960  15.752  1.6178  1.3200  0.2286
 6777SOL     OW31792   1.997   1.744   9.426  0.1328 -0.6883 -0.5354
 6777SOL    HW131793   2.030   1.684   9.492 -1.1605 -0.8033  0.0158
 6777SOL    HW231794   1.948   1.687   9.366 -0.1073  0.9752 -1.9529
 6778SOL     OW31795   0.522   1.633   2.885  0.6028 -0.4615  0.5855
 6778SOL    HW131796   0.571   1.693   2.830  1.1106 -0.2470  1.2626
 6778SOL    HW231797   0.443   1.603   2.839  0.5391 -0.3797  0.6402
 6779SOL     OW31798   2.988   3.088  10.987 -0.5021 -0.3024  0.1699
 6779SOL    HW131799   3.035   3.104  11.069  2.5398 -1.2735 -1.4069
 6779SOL    HW231800   3.014   3.154  10.922  1.2569  0.9551  2.1558
 6780SOL     OW31801   4.652   0.402   7.174 -0.2618  0.2166 -0.0205
 6780SOL    HW131802   4.611   0.488   7.188  1.9874  1.1312  1.0566
 6780SOL    HW231803   4.642   0.381   7.082 -3.8553  0.3431  0.3285
 6781SOL     OW31804   2.477   1.220   6.083  0.5265 -0.3021  0.5573
 6781SOL    HW131805   2.478   1.231   5.988 -1.1852 -0.8263  0.4828
 6781SOL    HW231806   2.394   1.260   6.110  0.5257  0.0975 -0.0321
 6782SOL     OW31807   3.453   0.773  10.193 -0.1647  0.3039  0.7070
 6782SOL    HW131808   3.454   0.792  10.100  0.2620 -2.1567  0.2054
 6782SOL    HW231809   3.539   0.735  10.209  0.4822  0.6177 -2.0758
 6783SOL     OW31810   0.287   1.331   8.688 -0.0151 -0.2430  0.2646
 6783SOL    HW131811   0.217   1.361   8.630 -0.3662  1.0577  1.3600
 6783SOL    HW231812   0.248   1.270   8.750  2.2337 -0.2618  1.6435
 6784SOL     OW31813   0.542   1.791   4.690  0.1713  0.0690 -0.4200
 6784SOL    HW131814   0.630   1.754   4.691 -0.2237 -0.8535  0.2747
 6784SOL    HW231815   0.550   1.870   4.637  1.3647  0.3573  0.2097
 6785SOL     OW31816   0.009   2.384   4.186 -0.3709 -0.1120  0.5176
 6785SOL    HW131817   0.052   2.311   4.231 -2.8214 -0.8232  1.7298
 6785SOL    HW231818   0.016   2.358   4.095 -0.2081  0.3156  0.4105
 6786SOL     OW31819   0.417   0.407   1.339 -0.0469 -0.1856 -0.0192
 6786SOL    HW131820   0.390   0.489   1.297 -2.0677 -1.3329 -0.9709
 6786SOL    HW231821   0.489   0.433   1.397 -0.2952 -0.9846  0.6575
 6787SOL     OW31822   0.539   0.539  10.403 -0.7431 -0.3151 -0.0721
 6787SOL    HW131823   0.630   0.512  10.418 -1.2396 -1.4523  0.8757
 6787SOL    HW231824   0.532   0.606  10.471  1.1240 -1.5168  1.3028
 6788SOL     OW31825   2.115   1.436   5.097 -0.9863 -0.5730 -0.3914
 6788SOL    HW131826   2.062   1.477   5.165 -1.4204 -0.8917 -0.5436
 6788SOL    HW231827   2.054   1.442   5.023 -1.3625 -1.0610 -0.1190
 6789SOL     OW31828   3.307   2.016   2.932  0.2599 -0.0984 -0.1799
 6789SOL    HW131829   3.238   1.949   2.934  1.7924 -1.5949  1.9005
 6789SOL    HW231830   3.366   1.981   2.999  0.3511 -0.6527 -0.5482
 6790SOL     OW31831   1.262   0.993  13.768  0.4279 -0.0521  0.5533
 6790SOL    HW131832   1.307   1.065  13.723 -0.1210  0.2885  0.5424
 6790SOL    HW231833   1.337   0.937  13.784 -0.0675 -1.0115 -0.4309
 6791SOL     OW31834   2.675   3.447  13.006  0.4788  0.4289 -0.9860
 6791SOL    HW131835   2.673   3.377  12.940 -1.8185  0.1824 -0.6386
 6791SOL    HW231836   2.713   3.524  12.965  3.1616  1.1352  2.7549
 6792SOL     OW31837   3.572   0.405  10.058  0.0135  0.2423 -0.4781
 6792SOL    HW131838   3.611   0.478  10.105  0.9588 -0.5414 -0.0501
 6792SOL    HW231839   3.539   0.353  10.131 -0.6050 -0.1049 -1.0061
 6793SOL     OW31840   0.117   2.110   1.363  0.4642 -0.8399 -0.1827
 6793SOL    HW131841   0.082   2.083   1.278 -0.3824  3.9233 -1.3314
 6793SOL    HW231842   0.179   2.037   1.370  1.2495 -0.1498  0.0827
 6794SOL     OW31843   3.666   3.964   5.893  0.0698  0.1206  0.3119
 6794SOL    HW131844   3.732   3.958   5.962  0.6790 -0.2945 -0.3155
 6794SOL    HW231845   3.680   3.897   5.827  1.5870  1.7690 -1.0460
 6795SOL     OW31846   4.292   2.997   4.084 -0.2573  0.1658 -0.1183
 6795SOL    HW131847   4.343   2.947   4.148  1.1952 -0.1008 -1.5137
 6795SOL    HW231848   4.366   3.025   4.031 -0.4198 -0.4090 -0.6432
 6796SOL     OW31849   3.754   3.269   7.571 -0.2271 -0.2612 -0.3253
 6796SOL    HW131850   3.767   3.190   7.624 -1.2953 -0.8108 -0.8818
 6796SOL    HW231851   3.834   3.317   7.592 -1.1491  0.2261  2.0439
 6797SOL     OW31852   2.321   3.368   9.599  0.1744  0.6577  0.5177
 6797SOL    HW131853   2.406   3.344   9.636 -0.0406 -0.1742  0.4668
 6797SOL    HW231854   2.361   3.428   9.536 -0.3662  0.7529  0.2665
 6798SOL     OW31855   4.459   3.129   6.345 -0.2677  0.6572  0.0042
 6798SOL    HW131856   4.496   3.208   6.305 -0.1236  0.8565  0.5301
 6798SOL    HW231857   4.422   3.166   6.426 -0.9770  1.2126 -0.5685
 6799SOL     OW31858   1.068   4.071  14.004 -0.1069 -0.0620 -0.4260
 6799SOL    HW131859   1.131   4.139  13.978 -1.9292  1.2953 -1.2513
 6799SOL    HW231860   1.053   4.026  13.920 -0.7793  0.2756 -0.4776
 6800SOL     OW31861   2.706   0.650   6.480 -0.3762 -0.6157 -0.8169
 6800SOL    HW131862   2.634   0.649   6.417 -1.9598 -0.2383  0.9946
 6800SOL    HW231863   2.760   0.704   6.422 -0.7389  0.6208  0.0033
 6801SOL     OW31864   3.368   3.072  17.124  0.6975  0.3924 -0.4093
 6801SOL    HW131865   3.411   2.992  17.093  1.1920 -0.0269  1.3426
 6801SOL    HW231866   3.311   3.091  17.050 -2.1884 -2.8363  0.9436
 6802SOL     OW31867   4.402   4.017   0.628  0.0024 -0.2281  0.2240
 6802SOL    HW131868   4.317   3.979   0.605  1.2946 -1.5426 -2.4240
 6802SOL    HW231869   4.456   3.938   0.636  0.9407  0.4481  0.6160
 6803SOL     OW31870   3.725   0.478   0.089  0.7408  0.4473 -0.9370
 6803SOL    HW131871   3.702   0.453   0.179  0.0321 -0.0250 -1.2490
 6803SOL    HW231872   3.821   0.487   0.094  0.5581  1.4017  0.8535
 6804SOL     OW31873   4.002   2.854   9.446 -0.0829  0.3471 -0.0302
 6804SOL    HW131874   3.961   2.875   9.362 -0.7986 -2.8673 -0.4828
 6804SOL    HW231875   3.929   2.812   9.492 -0.7428  0.5661 -0.8707
 6805SOL     OW31876   1.693   1.338   3.701 -0.0476 -0.0090  0.0320
 6805SOL    HW131877   1.660   1.363   3.615 -1.0470  1.5633  0.8672
 6805SOL    HW231878   1.752   1.411   3.722 -2.4122  2.0600 -0.4746
 6806SOL     OW31879   0.175   2.712   9.601 -0.1461 -0.6503  0.2696
 6806SOL    HW131880   0.200   2.628   9.563  1.8832  0.0976 -0.0525
 6806SOL    HW231881   0.171   2.689   9.694 -1.5810  0.7400  0.5625
 6807SOL     OW31882   4.223   2.376   2.000  0.4222  0.5862 -0.5263
 6807SOL    HW131883   4.244   2.372   1.906 -0.2620  0.9762 -0.6953
 6807SOL    HW231884   4.282   2.445   2.029 -2.1447  2.0007  1.2256
 6808SOL     OW31885   1.576   2.223   1.214  0.3280  0.2863  0.0120
 6808SOL    HW131886   1.589   2.142   1.165  1.0487  0.8950 -0.8148
 6808SOL    HW231887   1.484   2.240   1.197 -0.2462 -2.2175  0.6288
 6809SOL     OW31888   3.630   4.286  15.130 -0.5898 -0.0824  0.3860
 6809SOL    HW131889   3.715   4.246  15.110  0.6512  1.2354  3.1359
 6809SOL    HW231890   3.575   4.210  15.149 -0.5673 -0.6064 -1.6316
 6810SOL     OW31891   0.293   4.412  14.733  0.0039  0.2225  0.6144
 6810SOL    HW131892   0.313   4.492  14.685  1.1938  0.3669  1.3441
 6810SOL    HW231893   0.377   4.365  14.728 -0.7886 -1.2009  0.6947
 6811SOL     OW31894   0.705   3.931   3.614  0.0430 -0.6011 -0.0477
 6811SOL    HW131895   0.740   4.015   3.586 -1.4642  0.1872  0.4738
 6811SOL    HW231896   0.640   3.959   3.678 -1.4272 -2.1986 -0.8427
 6812SOL     OW31897   1.151   3.768   2.861 -0.3230 -0.2906 -0.0638
 6812SOL    HW131898   1.119   3.709   2.929  1.0107 -0.7190  0.2019
 6812SOL    HW231899   1.215   3.713   2.814  0.0335 -0.0629  0.1596
 6813SOL     OW31900   1.695   0.006   6.240  0.5613  0.0040  0.0065
 6813SOL    HW131901   1.663   4.706   6.153  2.5169  1.9580 -1.1972
 6813SOL    HW231902   1.789   4.708   6.246  0.7222  0.8784  0.2144
 6814SOL     OW31903   1.596   0.890   9.855  0.4134 -0.0894  0.2642
 6814SOL    HW131904   1.531   0.921   9.792  0.8605  0.8862  0.2859
 6814SOL    HW231905   1.670   0.876   9.797  0.9054 -2.2368  1.4124
 6815SOL     OW31906   0.080   4.233   6.126 -0.1085  0.0676  0.0458
 6815SOL    HW131907   4.708   4.214   6.139  0.0109 -0.9899 -0.6253
 6815SOL    HW231908   0.073   4.279   6.043 -0.9496  0.1105  0.1413
 6816SOL     OW31909   3.223   3.289  13.630  0.2188  0.5307 -0.5695
 6816SOL    HW131910   3.189   3.357  13.688  2.3553  0.5935  0.5998
 6816SOL    HW231911   3.161   3.218  13.642  1.0151  0.2024  1.5130
 6817SOL     OW31912   4.217   2.098  10.394  0.3392  0.3538  0.3967
 6817SOL    HW131913   4.274   2.135  10.462 -0.0242  1.5940  0.0310
 6817SOL    HW231914   4.196   2.172  10.337  0.9227 -0.0126 -0.2864
 6818SOL     OW31915   0.569   3.906   3.279  0.0168  0.2209 -0.2829
 6818SOL    HW131916   0.563   3.818   3.242  0.6677  0.3154 -0.6019
 6818SOL    HW231917   0.588   3.896   3.372  1.9865  1.6867 -0.5297
 6819SOL     OW31918   2.905   1.146   0.157  0.0990 -0.4158 -0.2218
 6819SOL    HW131919   2.952   1.175   0.078  2.0110 -3.9593 -0.4117
 6819SOL    HW231920   2.988   1.138   0.204 -0.8405  1.1935  1.6869
 6820SOL     OW31921   1.591   1.915  10.809  0.1738 -0.1397  0.5472
 6820SOL    HW131922   1.513   1.860  10.792  0.2891 -0.4054  0.8925
 6820SOL    HW231923   1.586   1.985  10.744 -1.6607  1.0860  2.0156
 6821SOL     OW31924   1.964   4.718   9.670  0.5226 -0.3091 -0.2498
 6821SOL    HW131925   1.907   0.025   9.742  1.7311 -2.9577  1.7584
 6821SOL    HW231926   1.953   4.623   9.674 -1.2497 -0.1383 -1.0279
 6822SOL     OW31927   4.448   0.870   5.106 -0.4562  0.1325  0.1373
 6822SOL    HW131928   4.415   0.938   5.164  0.1932 -0.0945  0.7745
 6822SOL    HW231929   4.532   0.848   5.146 -0.6972  1.5832  1.4296
 6823SOL     OW31930   2.176   1.370   5.716  0.0247  0.0428  0.5706
 6823SOL    HW131931   2.209   1.299   5.661 -0.2961  0.2438  0.1203
 6823SOL    HW231932   2.169   1.443   5.655  0.8107  0.6645  1.2270
 6824SOL     OW31933   2.124   4.347   8.924  0.3259 -0.6418  0.1972
 6824SOL    HW131934   2.085   4.279   8.978  0.1738 -1.5844 -1.1132
 6824SOL    HW231935   2.113   4.425   8.978 -2.8787 -1.2756  0.4380
 6825SOL     OW31936   1.038   3.929  14.405  0.2039 -0.4953 -0.2281
 6825SOL    HW131937   0.991   3.989  14.346  0.4418  1.0604  1.1362
 6825SOL    HW231938   0.978   3.928  14.480 -0.1057  0.8735 -0.4474
 6826SOL     OW31939   2.448   2.111   8.953  0.0503 -0.7135  0.0338
 6826SOL    HW131940   2.380   2.162   8.909  2.1789 -0.3002 -2.7842
 6826SOL    HW231941   2.401   2.030   8.975  0.8959 -1.1265  0.3195
 6827SOL     OW31942   3.650   0.798   8.395  0.2117  0.3876  0.1151
 6827SOL    HW131943   3.627   0.717   8.350 -1.3191  0.4413  0.8184
 6827SOL    HW231944   3.735   0.779   8.436 -0.1385 -1.5325 -0.0475
 6828SOL     OW31945   3.887   0.328   7.853 -0.6392  0.2502  0.0010
 6828SOL    HW131946   3.876   0.233   7.855 -0.1406  0.1623 -1.0937
 6828SOL    HW231947   3.975   0.333   7.891 -0.5497 -0.6559 -0.0973
 6829SOL     OW31948   2.706   3.588   3.550 -0.4744 -0.2870 -0.2837
 6829SOL    HW131949   2.731   3.533   3.624 -2.0668  0.0474  0.4964
 6829SOL    HW231950   2.736   3.540   3.473  1.8209 -0.3577  0.6537
 6830SOL     OW31951   0.081   3.974  13.967  0.0752 -0.5766  0.5788
 6830SOL    HW131952   0.048   4.063  13.954  0.6467 -0.9624 -3.4678
 6830SOL    HW231953   0.024   3.931  13.903  0.0068  1.4148 -0.6826
 6831SOL     OW31954   1.756   0.763   4.046  0.0448  0.9944  0.3680
 6831SOL    HW131955   1.775   0.753   3.953 -1.4107 -1.5416  0.3354
 6831SOL    HW231956   1.807   0.842   4.065  1.3978  0.2992 -0.3853
 6832SOL     OW31957   2.672   1.711   9.102 -0.0547  0.0497  0.2889
 6832SOL    HW131958   2.687   1.778   9.169  0.6703  2.4193 -2.2595
 6832SOL    HW231959   2.669   1.758   9.019  1.6789 -1.9891 -0.9199
 6833SOL     OW31960   1.554   3.875   0.641 -0.0357 -0.0233 -0.3339
 6833SOL    HW131961   1.566   3.850   0.733  0.7627  1.0282 -0.1538
 6833SOL    HW231962   1.641   3.911   0.621  0.1679  0.3998  1.3499
 6834SOL     OW31963   2.454   1.911   8.628  0.7545  0.4090  0.2550
 6834SOL    HW131964   2.374   1.887   8.674  2.0425  1.4329  3.0419
 6834SOL    HW231965   2.525   1.878   8.683 -0.8916  0.7476  2.5801
 6835SOL     OW31966   0.087   3.370  16.895 -0.0244 -0.0907 -0.7236
 6835SOL    HW131967   0.068   3.288  16.849 -0.3901 -1.4526  1.9010
 6835SOL    HW231968   0.083   3.437  16.826  0.5500 -0.0697 -0.7393
 6836SOL     OW31969   2.684   4.163   3.869  0.0814  0.1573  0.7445
 6836SOL    HW131970   2.730   4.146   3.787 -0.3740 -0.9599  0.7143
 6836SOL    HW231971   2.661   4.254   3.849 -0.7518 -0.3014 -0.4620
 6837SOL     OW31972   3.394   3.591   9.313 -0.2233  0.0251  0.4275
 6837SOL    HW131973   3.377   3.632   9.398  0.7904 -0.9993  1.1286
 6837SOL    HW231974   3.405   3.659   9.247  1.8781 -1.9909 -1.3293
 6838SOL     OW31975   3.811   3.612   4.069  0.7646  0.0689  0.1193
 6838SOL    HW131976   3.806   3.663   4.150 -0.3256  0.0749  0.0430
 6838SOL    HW231977   3.813   3.524   4.106 -1.6705  0.3523  0.9033
 6839SOL     OW31978   1.812   3.426  14.547 -0.1618 -0.3068  0.3686
 6839SOL    HW131979   1.795   3.401  14.457  1.7631 -0.2958 -0.0097
 6839SOL    HW231980   1.891   3.374  14.561 -0.3242 -0.9616 -1.1575
 6840SOL     OW31981   1.187   0.918   5.392 -0.0575  0.0035  0.0755
 6840SOL    HW131982   1.136   0.999   5.398 -1.6091 -1.0975  1.6402
 6840SOL    HW231983   1.175   0.902   5.298  0.4521  0.9770 -0.1627
 6841SOL     OW31984   3.638   1.015   1.941  0.4284 -0.1631 -0.4172
 6841SOL    HW131985   3.707   1.079   1.961  1.1239 -0.8918 -0.4767
 6841SOL    HW231986   3.647   0.986   1.850 -0.2850 -1.8457  0.0510
 6842SOL     OW31987   3.497   3.913   5.227  0.9448 -0.0640 -0.0221
 6842SOL    HW131988   3.583   3.871   5.225  1.1971  0.4007  0.6506
 6842SOL    HW231989   3.467   3.886   5.141 -1.0790 -0.9658  0.9689
 6843SOL     OW31990   2.549   0.981   7.468 -0.2057 -0.2922 -0.5160
 6843SOL    HW131991   2.531   0.888   7.450 -1.0057 -0.8572  2.9945
 6843SOL    HW231992   2.461   1.001   7.503 -0.1211  0.4729 -0.7608
 6844SOL     OW31993   0.111   4.572  17.481  0.2036  0.0062  0.3226
 6844SOL    HW131994   0.112   4.644  17.544 -2.2878  1.3849 -1.2343
 6844SOL    HW231995   0.194   4.565  17.434  0.5495 -1.0307  1.0886
 6845SOL     OW31996   1.799   1.457   8.057 -0.2408 -0.4180 -0.8040
 6845SOL    HW131997   1.829   1.536   8.014  1.2472  0.1017  1.1776
 6845SOL    HW231998   1.849   1.447   8.139 -1.0426  0.7344 -0.1701
 6846SOL     OW31999   1.583   0.131   1.599 -0.2333  0.3305 -0.2165
 6846SOL    HW132000   1.560   0.156   1.509  1.6909  3.0021  0.0418
 6846SOL    HW232001   1.542   0.045   1.611 -0.1870  0.4100  0.4823
 6847SOL     OW32002   2.242   1.586   9.803 -0.0313  0.0835 -0.0888
 6847SOL    HW132003   2.168   1.538   9.841  1.6128 -1.0640  1.6834
 6847SOL    HW232004   2.230   1.675   9.836  2.9031 -0.5333  2.6000
 6848SOL     OW32005   1.606   4.315   0.068  0.1139  0.4908  0.2546
 6848SOL    HW132006   1.614   4.326   0.163  1.8771 -1.0657  0.2787
 6848SOL    HW232007   1.676   4.367   0.029 -0.7168  1.6929  0.3441
 6849SOL     OW32008   1.361   1.706  10.780  0.4308 -0.2901 -0.0282
 6849SOL    HW132009   1.270   1.689  10.754  0.4136 -0.8029  0.3583
 6849SOL    HW232010   1.349   1.679  10.871  0.2663  1.1146  0.3563
 6850SOL     OW32011   0.940   0.025   1.780 -0.1205 -0.5243  0.2572
 6850SOL    HW132012   0.873   4.684   1.750  0.0139 -1.5500  2.0357
 6850SOL    HW232013   1.019   4.705   1.746  0.8506  0.6412  1.1265
 6851SOL     OW32014   3.362   2.138   9.053  0.1860 -0.2354 -0.1466
 6851SOL    HW132015   3.270   2.151   9.074  0.5265  0.8132  0.6844
 6851SOL    HW232016   3.386   2.064   9.109  1.0554  0.5423  0.5126
 6852SOL     OW32017   3.222   0.811   0.929 -0.2774 -0.0829 -0.1283
 6852SOL    HW132018   3.281   0.852   0.992  0.2852  1.0622 -1.4032
 6852SOL    HW232019   3.134   0.798   0.965 -1.4838  0.5633 -2.8469
 6853SOL     OW32020   0.682   0.489   7.179  0.1592 -0.1055  0.7615
 6853SOL    HW132021   0.752   0.436   7.216  0.5504  0.0843  0.2895
 6853SOL    HW232022   0.737   0.561   7.148  0.0517 -0.3873 -0.0850
 6854SOL     OW32023   4.156   1.287   1.503 -0.4547 -0.0007  0.3022
 6854SOL    HW132024   4.209   1.255   1.430  3.2305  0.7599  2.6250
 6854SOL    HW232025   4.173   1.235   1.582 -0.0364 -1.2029 -0.5985
 6855SOL     OW32026   2.235   1.055   3.181  0.6945  0.2509  0.5180
 6855SOL    HW132027   2.243   0.981   3.121  1.1908  1.8604 -1.3786
 6855SOL    HW232028   2.285   1.124   3.139 -0.3991  1.2251  0.8112
 6856SOL     OW32029   3.086   0.895   2.922 -0.1952  0.2015 -0.0525
 6856SOL    HW132030   3.133   0.816   2.895  1.5703  1.5399 -0.7975
 6856SOL    HW232031   3.151   0.941   2.975 -0.8785  2.4243 -1.1750
 6857SOL     OW32032   3.040   1.083  12.795  0.5780 -0.2559 -0.5914
 6857SOL    HW132033   2.960   1.077  12.847  1.2293  0.8932  0.5708
 6857SOL    HW232034   3.097   1.116  12.865 -1.3983  0.7196  0.5280
 6858SOL     OW32035   0.464   4.163   8.476  0.4910 -0.6089 -1.3660
 6858SOL    HW132036   0.386   4.220   8.477  1.2652  0.4529 -0.8114
 6858SOL    HW232037   0.440   4.089   8.532 -1.2249  0.8708 -0.1148
 6859SOL     OW32038   1.472   1.467   8.874  0.7670  0.0125 -0.7756
 6859SOL    HW132039   1.549   1.509   8.912 -0.1741  1.1813 -0.1976
 6859SOL    HW232040   1.406   1.495   8.937  0.4818 -1.1565 -0.5469
 6860SOL     OW32041   1.095   1.477   3.275 -0.2601  0.0135  0.3431
 6860SOL    HW132042   1.104   1.392   3.319  0.0353 -1.0140 -1.6987
 6860SOL    HW232043   1.007   1.499   3.306 -0.0904  0.3709  0.5626
 6861SOL     OW32044   3.975   4.663  16.934 -0.0412 -0.5398 -0.2842
 6861SOL    HW132045   4.030   4.595  16.894 -0.3991 -1.4038  0.7058
 6861SOL    HW232046   4.007   4.654  17.024 -0.9997  0.0865  0.1085
 6862SOL     OW32047   2.275   3.582  11.611 -0.5020  0.0072 -0.4705
 6862SOL    HW132048   2.280   3.669  11.650  2.2164 -0.9064  1.1984
 6862SOL    HW232049   2.213   3.540  11.671  0.6917 -0.1099  0.6868
 6863SOL     OW32050   4.624   0.235   3.215  0.5550 -0.3985 -0.5949
 6863SOL    HW132051   4.543   0.278   3.189 -0.4062 -0.7153  1.8618
 6863SOL    HW232052   4.644   0.166   3.152  0.9854 -0.9586  0.1522
 6864SOL     OW32053   1.988   3.505   1.305  0.3510  0.2149 -0.0302
 6864SOL    HW132054   1.929   3.518   1.379  1.2278  2.4638  0.2958
 6864SOL    HW232055   2.047   3.581   1.306 -1.3751  1.5514 -0.5157
 6865SOL     OW32056   3.325   1.064   7.152 -0.2370 -0.6171  0.0136
 6865SOL    HW132057   3.289   0.976   7.142  0.7583 -1.0647  0.4151
 6865SOL    HW232058   3.405   1.041   7.199 -0.1202  0.3570  0.3018
 6866SOL     OW32059   2.775   0.362   2.545 -0.3318 -0.1006 -0.4209
 6866SOL    HW132060   2.869   0.380   2.556 -0.3620 -0.0798 -0.2062
 6866SOL    HW232061   2.765   0.268   2.564 -2.4061 -0.5761 -3.9450
 6867SOL     OW32062   2.539   3.975   8.437  0.4550  0.5898 -0.3561
 6867SOL    HW132063   2.608   3.984   8.502  0.6840 -1.3637 -0.3297
 6867SOL    HW232064   2.490   4.058   8.433  0.5844  0.7148  0.5028
 6868SOL     OW32065   3.949   3.738   5.479  0.2629  0.5538 -0.4314
 6868SOL    HW132066   4.028   3.751   5.427  0.2945 -2.5943 -1.1598
 6868SOL    HW232067   3.976   3.754   5.570  0.2712 -0.8412 -0.1791
 6869SOL     OW32068   1.037   0.022   7.128  1.1281  0.0688 -0.3289
 6869SOL    HW132069   1.060   0.043   7.218  0.4842 -1.7384  0.2608
 6869SOL    HW232070   1.096   4.670   7.109  2.5104  1.2801 -0.6939
 6870SOL     OW32071   4.669   1.621   4.030  0.3234  0.1941  0.0905
 6870SOL    HW132072   4.590   1.572   4.008  0.5863 -0.2864  0.2117
 6870SOL    HW232073   0.008   1.546   4.021  1.7226  1.2188  0.9054
 6871SOL     OW32074   4.328   1.334   7.039  0.3023 -0.1934 -0.2602
 6871SOL    HW132075   4.272   1.257   7.031  1.8335 -1.2372 -0.9170
 6871SOL    HW232076   4.331   1.369   6.950  1.5131  0.8905  0.2188
 6872SOL     OW32077   2.009   4.591   4.735 -0.0700  0.2835  0.2662
 6872SOL    HW132078   1.943   4.572   4.668  0.1311  0.6650 -0.0387
 6872SOL    HW232079   2.065   4.653   4.688 -1.7359 -0.4812 -2.7877
 6873SOL     OW32080   1.168   3.721   5.031 -0.6243  0.4037 -0.0363
 6873SOL    HW132081   1.196   3.722   5.123 -1.4903  0.2320  0.2291
 6873SOL    HW232082   1.083   3.756   5.057 -1.5927 -0.6261 -1.8065
 6874SOL     OW32083   1.910   3.706   2.951 -0.3986 -0.3584 -0.1619
 6874SOL    HW132084   1.936   3.642   3.017 -0.6140 -0.2239  0.0539
 6874SOL    HW232085   1.864   3.774   3.001 -1.6650 -1.4630  0.1864
 6875SOL     OW32086   0.205   1.348   5.914 -0.1994 -0.2111 -0.2579
 6875SOL    HW132087   0.130   1.298   5.882 -0.2905  0.5968 -1.3137
 6875SOL    HW232088   0.174   1.438   5.908 -1.1378 -0.4739  0.7121
 6876SOL     OW32089   1.228   1.273   7.301 -0.2349  0.0102  0.1307
 6876SOL    HW132090   1.261   1.234   7.382  1.8984 -1.1111 -1.3032
 6876SOL    HW232091   1.132   1.271   7.311 -0.4552  5.3356 -1.0384
 6877SOL     OW32092   2.937   1.270  14.673  0.4434 -0.5030 -0.2609
 6877SOL    HW132093   2.922   1.256  14.579 -0.7789 -0.5064 -0.0600
 6877SOL    HW232094   2.892   1.199  14.719 -0.3729 -1.4376 -2.4780
 6878SOL     OW32095   2.345   1.428  12.998 -0.0830 -0.2399 -0.1113
 6878SOL    HW132096   2.283   1.417  12.926  3.9371  0.7785 -3.7260
 6878SOL    HW232097   2.397   1.348  12.987  0.8319  0.3785 -0.3196
 6879SOL     OW32098   1.888   4.251   0.888 -0.5929 -0.1908 -0.2173
 6879SOL    HW132099   1.965   4.193   0.883  1.0734  1.9364  0.6501
 6879SOL    HW232100   1.857   4.273   0.800 -1.5773  0.8523  0.4050
 6880SOL     OW32101   0.833   2.155  14.254 -0.3573  0.6386  0.0093
 6880SOL    HW132102   0.739   2.165  14.240 -0.2656 -2.4568 -2.7946
 6880SOL    HW232103   0.826   2.113  14.339 -0.4374 -1.6522 -1.1393
 6881SOL     OW32104   1.537   3.117   3.924  0.0278 -0.5791  0.1054
 6881SOL    HW132105   1.534   3.172   3.846 -2.4187 -0.3933  0.3308
 6881SOL    HW232106   1.443   3.102   3.937 -0.0716 -0.5188 -0.5254
 6882SOL     OW32107   0.410   4.716   8.190  0.5224  0.7064  0.2412
 6882SOL    HW132108   0.448   0.076   8.224 -0.7237  1.8492 -1.1514
 6882SOL    HW232109   0.389   0.029   8.103  2.8139  2.0627  0.2208
 6883SOL     OW32110   4.235   2.187  16.126  0.0533 -0.4567 -0.4568
 6883SOL    HW132111   4.202   2.222  16.044  0.0631  0.5095 -0.0407
 6883SOL    HW232112   4.151   2.192  16.172  0.5457  0.2889  0.3643
 6884SOL     OW32113   4.490   0.409  11.582  0.7046 -0.8730  0.0639
 6884SOL    HW132114   4.503   0.456  11.500 -0.9286 -1.7704 -0.7200
 6884SOL    HW232115   4.571   0.360  11.591  0.4441 -1.7476 -2.3378
 6885SOL     OW32116   1.289   0.594   3.874 -0.4523 -0.1407  0.2044
 6885SOL    HW132117   1.308   0.688   3.867  0.0746 -0.1565  1.3120
 6885SOL    HW232118   1.195   0.588   3.891 -0.6253 -2.3309 -1.5297
 6886SOL     OW32119   3.419   3.392   3.324 -0.0086 -0.4216  0.2040
 6886SOL    HW132120   3.435   3.364   3.414  0.7206  1.8627  0.7813
 6886SOL    HW232121   3.325   3.406   3.327 -0.0721 -0.8007 -0.0490
 6887SOL     OW32122   2.445   3.348   3.763  0.3202  0.0058 -0.5698
 6887SOL    HW132123   2.470   3.257   3.749  1.6997  0.2507  0.3179
 6887SOL    HW232124   2.456   3.376   3.672 -2.2623  1.2423 -0.5041
 6888SOL     OW32125   0.774   0.805   2.935  0.4701 -0.5751  0.0850
 6888SOL    HW132126   0.752   0.862   2.861 -2.0113 -0.7129  0.7361
 6888SOL    HW232127   0.706   0.739   2.925 -1.3665  1.3509 -0.1032
 6889SOL     OW32128   4.486   2.138   4.460 -0.8355  0.0800  0.0895
 6889SOL    HW132129   4.455   2.054   4.494  0.7644  0.2814  2.0221
 6889SOL    HW232130   4.524   2.113   4.376 -0.7846  0.1849  0.0809
 6890SOL     OW32131   1.767   4.390   5.153 -0.0842  0.3389  0.2104
 6890SOL    HW132132   1.811   4.313   5.190 -1.4418  0.3788  1.9040
 6890SOL    HW232133   1.676   4.364   5.138  0.6081 -1.8601 -0.2789
 6891SOL     OW32134   4.221   1.889   0.524  0.7195 -0.0440  0.0862
 6891SOL    HW132135   4.246   1.812   0.574  0.4110 -1.0581 -1.3264
 6891SOL    HW232136   4.285   1.887   0.453 -0.0666 -0.2351 -0.6198
 6892SOL     OW32137   2.656   3.314  17.231  0.1062  0.3821  0.2618
 6892SOL    HW132138   2.631   3.377  17.298  0.2318  1.3257 -0.5854
 6892SOL    HW232139   2.647   3.365  17.150  2.5036  1.3854  0.6189
 6893SOL     OW32140   1.261   1.258   8.519 -0.0042  0.1316  0.0828
 6893SOL    HW132141   1.271   1.316   8.595  2.2886  0.7897 -0.7103
 6893SOL    HW232142   1.174   1.277   8.485 -1.3525 -3.8034  1.3733
 6894SOL     OW32143   0.350   2.917   9.496 -0.2060 -0.4756 -0.2548
 6894SOL    HW132144   0.292   2.861   9.546 -0.2900 -1.1614 -1.1243
 6894SOL    HW232145   0.288   2.956   9.435  0.3910  1.5694  0.4374
 6895SOL     OW32146   4.507   2.542   0.419 -0.3477  0.7376 -1.0320
 6895SOL    HW132147   4.528   2.468   0.476  0.6431  1.0106 -1.0379
 6895SOL    HW232148   4.477   2.498   0.339  0.1815  0.9077 -1.3256
 6896SOL     OW32149   2.706   0.718   8.259 -0.5037  0.5786  0.4885
 6896SOL    HW132150   2.692   0.657   8.332 -0.0501 -0.6908 -0.4957
 6896SOL    HW232151   2.757   0.655   8.208 -1.3518  1.6260 -1.6467
 6897SOL     OW32152   1.967   1.808   0.605 -0.3535 -0.1202  0.9063
 6897SOL    HW132153   1.994   1.741   0.542 -1.6475 -0.6912  0.9741
 6897SOL    HW232154   1.918   1.868   0.548 -1.3199 -2.7286 -1.0219
 6898SOL     OW32155   0.737   4.606   4.482  0.8429  0.1060 -0.5179
 6898SOL    HW132156   0.692   4.621   4.566  0.1837 -1.0472 -0.6673
 6898SOL    HW232157   0.829   4.602   4.509  0.3320 -0.5162  1.1697
 6899SOL     OW32158   0.218   4.695  16.511  0.3770 -0.1482 -0.3439
 6899SOL    HW132159   0.260   0.011  16.588 -0.0438  0.7925 -0.5737
 6899SOL    HW232160   0.235   0.037  16.441 -0.1090 -0.2112 -0.5209
 6900SOL     OW32161   4.466   1.602   9.641  0.1902 -0.2333  0.4904
 6900SOL    HW132162   4.424   1.520   9.616  2.0466 -1.2529  0.7037
 6900SOL    HW232163   4.436   1.616   9.731 -0.6845  2.2682 -0.1679
 6901SOL     OW32164   3.965   2.214   5.293 -0.2386 -0.4351 -0.5467
 6901SOL    HW132165   3.950   2.299   5.334 -1.1667 -0.2865 -1.2069
 6901SOL    HW232166   4.050   2.190   5.331 -1.2072 -0.2467  1.7641
 6902SOL     OW32167   1.820   0.525   4.889 -0.7203 -0.5170 -0.3649
 6902SOL    HW132168   1.781   0.611   4.873 -2.7147 -1.4642 -0.5704
 6902SOL    HW232169   1.911   0.536   4.860 -0.1165  0.3581  1.8312
 6903SOL     OW32170   3.872   1.982   4.564  0.1712 -0.4874 -0.0537
 6903SOL    HW132171   3.887   1.914   4.629  0.5356 -2.8423 -2.5860
 6903SOL    HW232172   3.963   2.001   4.539 -0.4572  2.5715 -0.0439
 6904SOL     OW32173   0.587   0.925   8.953  0.0669  0.2367  0.0470
 6904SOL    HW132174   0.658   0.866   8.928  0.7491  0.4534  1.5197
 6904SOL    HW232175   0.613   1.002   8.902  2.6659 -0.9542 -0.4290
 6905SOL     OW32176   3.449   3.203   0.475  0.8283 -0.2756  0.3357
 6905SOL    HW132177   3.511   3.130   0.479 -0.1809 -1.0914  1.1626
 6905SOL    HW232178   3.434   3.201   0.381 -2.3610  2.6487  0.7793
 6906SOL     OW32179   0.204   2.072   3.777  0.0349 -0.0151  0.3937
 6906SOL    HW132180   0.263   2.104   3.709 -0.9735  2.1572  0.5184
 6906SOL    HW232181   0.221   1.978   3.773 -0.0183  0.0570 -1.5226
 6907SOL     OW32182   4.321   2.240   7.112  0.6784 -0.2704  0.2798
 6907SOL    HW132183   4.359   2.153   7.108 -2.4325 -1.6666  1.4967
 6907SOL    HW232184   4.404   2.282   7.135  0.2775  1.5000 -1.4553
 6908SOL     OW32185   2.893   3.537   5.157 -0.4752 -0.0732 -0.4310
 6908SOL    HW132186   2.846   3.470   5.107 -0.6338  0.2916 -0.7717
 6908SOL    HW232187   2.927   3.490   5.234  0.6549 -1.2875 -1.6766
 6909SOL     OW32188   4.204   0.141   3.960 -0.2373  0.5702 -0.3919
 6909SOL    HW132189   4.190   0.101   3.874  1.9984 -0.3718 -0.3041
 6909SOL    HW232190   4.152   0.221   3.956 -0.9329  0.1445  0.1661
 6910SOL     OW32191   3.169   0.679   4.777 -0.4504  0.4960  1.0562
 6910SOL    HW132192   3.107   0.637   4.718  0.7919 -0.4992  0.4549
 6910SOL    HW232193   3.250   0.641   4.743 -0.4904  0.3232  1.1593
 6911SOL     OW32194   0.180   0.918   2.224  0.1208  0.5712 -0.4747
 6911SOL    HW132195   0.210   0.920   2.314  1.8890 -1.9924 -1.0241
 6911SOL    HW232196   0.113   0.852   2.242  0.0151  0.6722 -0.4892
 6912SOL     OW32197   3.861   2.954   6.208  0.0147  0.4177  0.1948
 6912SOL    HW132198   3.851   2.862   6.182  0.5336  0.4581 -0.1547
 6912SOL    HW232199   3.839   3.003   6.129  0.2640 -1.1800 -0.8638
 6913SOL     OW32200   3.001   1.954   0.172  0.0746  0.3921  0.4008
 6913SOL    HW132201   2.947   2.032   0.179  0.7519  1.1026 -1.9570
 6913SOL    HW232202   3.064   1.972   0.241  1.3182 -0.1817 -0.5728
 6914SOL     OW32203   0.320   3.873  13.723 -0.2852  0.2527 -0.1239
 6914SOL    HW132204   0.290   3.832  13.804  0.0717  1.1989  0.4823
 6914SOL    HW232205   0.413   3.891  13.733 -0.2143  0.0538 -0.4399
 6915SOL     OW32206   4.342   0.227   3.411  0.6491 -0.5990 -0.3630
 6915SOL    HW132207   4.249   0.215   3.393  0.6429 -1.0954 -0.0026
 6915SOL    HW232208   4.345   0.323   3.407  0.6257 -0.3695  4.7048
 6916SOL     OW32209   0.066   0.697   3.447  0.4429 -0.3065 -0.3334
 6916SOL    HW132210   0.133   0.630   3.435  0.4187 -0.3153 -0.4186
 6916SOL    HW232211   4.710   0.640   3.443 -1.4188  2.0436  2.3025
 6917SOL     OW32212   1.015   3.547   2.491  0.0355  0.4255  0.4561
 6917SOL    HW132213   0.941   3.530   2.550 -0.6532  0.7695 -0.3054
 6917SOL    HW232214   1.066   3.469   2.511  2.4528  1.9897  0.4882
 6918SOL     OW32215   3.878   1.053   2.278 -0.0764  0.3554 -0.6155
 6918SOL    HW132216   3.895   1.061   2.372 -1.0531  3.0676 -0.6791
 6918SOL    HW232217   3.898   0.961   2.259  0.5651 -0.3217  3.4095
 6919SOL     OW32218   1.201   0.428   9.360 -0.3205 -0.1186 -0.2288
 6919SOL    HW132219   1.271   0.402   9.420  0.4329  0.5276 -0.8344
 6919SOL    HW232220   1.123   0.403   9.410 -0.8510  0.9816 -0.4990
 6920SOL     OW32221   3.092   0.369   0.177  0.3946 -0.3651 -0.7529
 6920SOL    HW132222   3.069   0.420   0.255 -0.5238 -2.1866  0.1693
 6920SOL    HW232223   3.006   0.331   0.156 -0.5312  1.0465  0.4781
 6921SOL     OW32224   2.233   0.178   4.982  0.0546 -0.1139 -0.1457
 6921SOL    HW132225   2.140   0.160   4.966 -0.0287 -1.1932  1.6447
 6921SOL    HW232226   2.238   0.133   5.066  2.7257 -1.9265 -1.2963
 6922SOL     OW32227   3.356   0.346   6.492  0.0823 -0.3447  0.0754
 6922SOL    HW132228   3.330   0.344   6.584 -0.9720  1.4580 -0.1722
 6922SOL    HW232229   3.443   0.383   6.506  1.0060 -3.3689  2.2420
 6923SOL     OW32230   3.962   1.472   9.014  0.0063 -0.0883  0.7216
 6923SOL    HW132231   4.025   1.410   9.050  0.2771 -0.3917 -0.2622
 6923SOL    HW232232   3.897   1.479   9.084 -2.2323 -0.9789 -1.2513
 6924SOL     OW32233   2.459   4.286   6.580 -0.7120 -0.1903  0.5352
 6924SOL    HW132234   2.522   4.354   6.607  1.2188 -1.8106  0.0869
 6924SOL    HW232235   2.388   4.299   6.643 -1.5532 -1.5669 -0.1493
 6925SOL     OW32236   0.275   4.469   3.260 -0.1393 -0.3063 -0.0002
 6925SOL    HW132237   0.344   4.471   3.193  0.1236  0.4210  0.2896
 6925SOL    HW232238   0.324   4.480   3.342  1.2454 -0.2877 -0.8183
 6926SOL     OW32239   1.935   3.340   2.923  0.0841  0.4720 -0.2233
 6926SOL    HW132240   1.920   3.433   2.902 -0.1003  0.1974 -1.2963
 6926SOL    HW232241   1.882   3.296   2.857  0.2008  1.3144 -0.8955
 6927SOL     OW32242   3.052   1.759   8.130  0.2403 -0.1450 -0.5749
 6927SOL    HW132243   3.073   1.672   8.163  0.4575  0.6406  1.3338
 6927SOL    HW232244   3.003   1.736   8.051 -1.6778  1.2377  0.2024
 6928SOL     OW32245   2.734   3.612   2.019  0.2272 -0.0775 -0.1831
 6928SOL    HW132246   2.667   3.567   2.071 -0.6683 -0.0128 -1.2672
 6928SOL    HW232247   2.795   3.645   2.084  0.5054 -0.7245 -0.1097
 6929SOL     OW32248   1.430   2.050  10.343 -0.0562  0.2196 -0.7391
 6929SOL    HW132249   1.447   1.991  10.416  1.0527  1.3799 -0.0601
 6929SOL    HW232250   1.460   2.131  10.385 -1.2752  1.6688 -2.6099
 6930SOL     OW32251   3.350   2.676   6.689 -0.0653  0.1460 -0.3904
 6930SOL    HW132252   3.331   2.737   6.617 -1.9926 -0.1271 -0.1228
 6930SOL    HW232253   3.429   2.633   6.657  0.4104 -0.4671  1.6576
 6931SOL     OW32254   2.001   2.962  16.101 -0.3174 -0.0519  0.5934
 6931SOL    HW132255   1.915   2.943  16.139 -0.9666  0.5844 -0.5578
 6931SOL    HW232256   2.060   2.909  16.155  1.4905  2.1727  0.7780
 6932SOL     OW32257   0.922   3.020   5.519  0.0549 -0.0410 -0.5490
 6932SOL    HW132258   0.916   3.101   5.469  1.4869  0.8376  0.7031
 6932SOL    HW232259   0.909   2.950   5.455  1.0140 -0.3907 -0.3694
 6933SOL     OW32260   2.691   1.167   7.761  0.2506 -0.5169 -0.0024
 6933SOL    HW132261   2.722   1.089   7.715 -0.2092 -2.0734  2.3257
 6933SOL    HW232262   2.773   1.217   7.763  1.1034 -1.8943 -0.1416
 6934SOL     OW32263   2.000   3.949   9.855 -0.0219 -0.7238 -0.2637
 6934SOL    HW132264   1.996   3.999   9.936 -1.5685 -0.3358 -0.5860
 6934SOL    HW232265   2.054   3.874   9.882  0.9718 -0.1619 -0.6977
 6935SOL     OW32266   4.214   1.061   5.784 -0.0618 -0.0442 -0.0280
 6935SOL    HW132267   4.123   1.087   5.802 -0.7137 -1.1508 -1.7449
 6935SOL    HW232268   4.231   1.051   5.877  1.5219  2.9246  0.0172
 6936SOL     OW32269   0.770   4.270   7.397  0.2556 -0.5084 -0.0659
 6936SOL    HW132270   0.780   4.188   7.349  2.4162  0.2501 -0.9049
 6936SOL    HW232271   0.712   4.314   7.334 -0.3733 -0.3780  0.6027
 6937SOL     OW32272   1.531   4.163   0.311  0.3541 -0.5929 -0.6369
 6937SOL    HW132273   1.539   4.242   0.364  1.1579 -1.1474  0.0532
 6937SOL    HW232274   1.440   4.173   0.283  1.3245 -1.5066 -4.2671
 6938SOL     OW32275   2.311   2.816   9.019 -0.2217 -0.0312 -0.1171
 6938SOL    HW132276   2.365   2.889   8.991  1.2812 -1.3534 -0.6531
 6938SOL    HW232277   2.260   2.855   9.091 -0.3542  0.3633 -0.4248
 6939SOL     OW32278   3.979   3.401   8.237  0.2163  0.7920  0.0620
 6939SOL    HW132279   3.896   3.410   8.191  0.6311  0.5764 -0.7239
 6939SOL    HW232280   3.973   3.471   8.302 -2.2924  1.8289 -1.3060
 6940SOL     OW32281   1.743   0.589   9.509 -0.2113  0.6101 -0.1569
 6940SOL    HW132282   1.687   0.663   9.536 -1.9846 -0.5208 -0.7480
 6940SOL    HW232283   1.818   0.623   9.559 -0.5550  3.4242 -1.5495
 6941SOL     OW32284   2.905   2.740   4.872 -0.2169 -0.3541  0.4338
 6941SOL    HW132285   2.899   2.663   4.815 -1.0922 -0.9740  1.3825
 6941SOL    HW232286   2.958   2.807   4.828  0.5326 -0.8541  0.5857
 6942SOL     OW32287   1.248   1.730  16.998 -0.6255  0.0494  0.1436
 6942SOL    HW132288   1.300   1.792  17.050 -1.0766 -0.0228  0.6814
 6942SOL    HW232289   1.164   1.775  16.987 -0.5293 -0.7875 -3.8480
 6943SOL     OW32290   0.493   4.058   8.113 -0.3579 -0.4856 -0.2249
 6943SOL    HW132291   0.485   3.963   8.118 -2.3274 -0.4517 -2.1994
 6943SOL    HW232292   0.585   4.071   8.134  0.0428  0.1435 -2.3113
 6944SOL     OW32293   4.093   4.369  14.974 -0.0160  0.3080 -0.7405
 6944SOL    HW132294   4.108   4.400  15.063 -1.5080  0.7336 -0.6357
 6944SOL    HW232295   4.131   4.443  14.926 -2.1956  1.2380 -1.0071
 6945SOL     OW32296   4.484   4.218   7.026  0.4280  0.3254 -0.1195
 6945SOL    HW132297   4.559   4.159   7.018 -0.3866 -0.4078 -2.2408
 6945SOL    HW232298   4.509   4.278   7.096  1.5598  0.8433 -0.9681
 6946SOL     OW32299   4.567   3.603  16.460  0.2161 -0.4865  0.0629
 6946SOL    HW132300   4.646   3.650  16.433  1.5482 -2.6770  0.1436
 6946SOL    HW232301   4.500   3.670  16.446  1.0159  0.4718  0.7973
 6947SOL     OW32302   4.387   0.675   7.991  0.0520  0.0228 -0.6387
 6947SOL    HW132303   4.337   0.605   8.031 -0.5357  0.7668 -0.0681
 6947SOL    HW232304   4.344   0.753   8.027  1.1797 -0.2328  1.2640
 6948SOL     OW32305   3.818   0.336   8.220 -0.1076 -0.0451 -0.6645
 6948SOL    HW132306   3.735   0.292   8.240 -0.2593  0.7175  0.3646
 6948SOL    HW232307   3.886   0.269   8.217 -0.6241 -0.5534 -0.9933
 6949SOL     OW32308   1.945   0.390   5.510 -0.5817 -0.0679  0.4125
 6949SOL    HW132309   1.976   0.461   5.453 -0.5566 -1.2939 -1.1202
 6949SOL    HW232310   1.930   0.436   5.592  2.4380  0.7529  0.5010
 6950SOL     OW32311   3.261   2.477   4.904  0.0320  0.5951  0.3850
 6950SOL    HW132312   3.350   2.483   4.868 -0.1630  0.4489 -0.1207
 6950SOL    HW232313   3.245   2.568   4.928 -0.3319  0.2197  1.5329
 6951SOL     OW32314   2.253   3.998   7.585  0.2892 -0.1971 -0.1871
 6951SOL    HW132315   2.294   3.995   7.671 -0.6059  4.4441  0.4185
 6951SOL    HW232316   2.169   4.042   7.598  0.4316  0.3959 -1.2862
 6952SOL     OW32317   1.929   0.791   9.913  0.0961 -0.3946 -0.5883
 6952SOL    HW132318   1.905   0.833   9.995 -2.5930  0.8097 -2.0100
 6952SOL    HW232319   2.019   0.821   9.900 -0.8020  1.8566 -1.6398
 6953SOL     OW32320   0.633   1.578   3.876 -0.2176 -0.5237 -0.1871
 6953SOL    HW132321   0.677   1.546   3.955  1.0989  0.9704 -0.3235
 6953SOL    HW232322   0.652   1.501   3.822  0.0265 -0.2387 -0.5054
 6954SOL     OW32323   0.135   0.794   3.959 -0.0547 -0.7144 -0.4096
 6954SOL    HW132324   0.112   0.727   3.894  0.6019  1.7257 -3.1490
 6954SOL    HW232325   0.066   0.860   3.951 -0.2286 -0.5428  2.4457
 6955SOL     OW32326   2.555   2.825  16.944 -0.0419  0.9810  0.2427
 6955SOL    HW132327   2.513   2.897  16.990 -1.6351  1.3111 -1.7169
 6955SOL    HW232328   2.560   2.869  16.859  0.0532 -0.1784 -0.3601
 6956SOL     OW32329   1.560   3.252   2.542 -0.3951  0.5817  0.1559
 6956SOL    HW132330   1.508   3.193   2.596  0.0433  0.9334  0.9478
 6956SOL    HW232331   1.604   3.192   2.482 -1.7262 -0.1333 -0.0962
 6957SOL     OW32332   2.223   3.353   5.838  0.1688  0.4407  0.3390
 6957SOL    HW132333   2.132   3.361   5.807  0.0696 -2.4221 -0.0667
 6957SOL    HW232334   2.220   3.259   5.851 -1.3644  0.2551 -1.3339
 6958SOL     OW32335   1.082   0.580   5.218 -0.0009  0.4456  0.2907
 6958SOL    HW132336   1.130   0.603   5.139 -0.8296  1.6021  0.1287
 6958SOL    HW232337   0.990   0.605   5.209 -0.1725 -0.7895 -1.4054
 6959SOL     OW32338   1.832   3.670  16.937 -0.4203 -0.0121 -0.1938
 6959SOL    HW132339   1.763   3.686  16.872  0.2851  2.2785 -0.3964
 6959SOL    HW232340   1.824   3.576  16.948  1.7421 -0.2515 -0.6560
 6960SOL     OW32341   3.520   4.673   3.006  0.2172 -0.1032 -0.1019
 6960SOL    HW132342   3.426   4.677   2.991 -0.0340 -0.0659  1.4679
 6960SOL    HW232343   3.502   4.655   3.098 -0.5899  0.2013 -0.2027
 6961SOL     OW32344   4.211   2.607   8.451 -0.4057 -0.0616  0.2920
 6961SOL    HW132345   4.223   2.545   8.523 -0.9737  0.5362  0.9051
 6961SOL    HW232346   4.213   2.693   8.493  0.5654 -0.2597  0.6289
 6962SOL     OW32347   3.720   0.571  11.657  0.5044 -0.1345  0.3133
 6962SOL    HW132348   3.659   0.643  11.677 -0.1394 -0.0273 -2.0413
 6962SOL    HW232349   3.795   0.606  11.705  1.7258 -1.0990 -0.9125
 6963SOL     OW32350   0.916   0.073   8.208 -0.0384 -0.3689  0.0121
 6963SOL    HW132351   0.834   0.122   8.216  0.3300  0.7284 -2.9077
 6963SOL    HW232352   0.911   4.718   8.266 -3.2306  0.2267  0.4940
 6964SOL     OW32353   2.776   0.461   6.671 -0.3494 -0.3390 -0.1633
 6964SOL    HW132354   2.851   0.466   6.612 -0.5490 -0.7047 -0.4481
 6964SOL    HW232355   2.719   0.526   6.631  0.0139 -0.4616 -0.8758
 6965SOL     OW32356   0.869   4.478  10.031 -0.2658  0.0585  0.6545
 6965SOL    HW132357   0.823   4.537  10.091 -0.2978 -0.3199  0.9995
 6965SOL    HW232358   0.800   4.414  10.012 -1.3707  2.1566 -2.4600
 6966SOL     OW32359   3.726   3.677  17.084  0.1704  0.7118 -0.1715
 6966SOL    HW132360   3.726   3.582  17.093  2.6559  0.7674  0.1652
 6966SOL    HW232361   3.790   3.709  17.147 -0.4469  1.2908  0.1734
 6967SOL     OW32362   1.035   1.174   5.403 -0.3363  0.0373  0.1972
 6967SOL    HW132363   0.968   1.241   5.395  1.4091  1.7602  0.1981
 6967SOL    HW232364   1.096   1.191   5.332 -2.1071  0.8506 -1.1234
 6968SOL     OW32365   3.158   4.211  10.071  0.8406  0.3487 -0.5106
 6968SOL    HW132366   3.177   4.183   9.982  0.5089  0.4735 -0.6188
 6968SOL    HW232367   3.238   4.178  10.112 -0.1130  1.0347  1.9187
 6969SOL     OW32368   1.191   3.228  12.822  0.6486  0.0666  0.8600
 6969SOL    HW132369   1.272   3.277  12.811  0.4467  0.4455  1.0846
 6969SOL    HW232370   1.162   3.213  12.732 -0.3023 -1.5826  1.4539
 6970SOL     OW32371   4.132   3.314   9.133 -0.3712  0.3341 -0.6773
 6970SOL    HW132372   4.114   3.244   9.070  0.9501 -0.6022 -0.0081
 6970SOL    HW232373   4.049   3.325   9.180 -0.1155  1.4231 -0.4850
 6971SOL     OW32374   4.525   3.474   7.168 -0.3070  0.1299  0.2870
 6971SOL    HW132375   4.579   3.402   7.134 -1.3492 -1.6274  2.3970
 6971SOL    HW232376   4.583   3.508   7.237  1.1061 -1.1116 -0.2852
 6972SOL     OW32377   2.962   1.422   2.425 -0.5471  0.3983  0.8089
 6972SOL    HW132378   2.909   1.386   2.353  0.1023  2.2095 -0.5921
 6972SOL    HW232379   2.903   1.485   2.466 -1.5457  0.7706 -1.1905
 6973SOL     OW32380   2.278   2.708  11.713 -0.2683  0.3124  0.1005
 6973SOL    HW132381   2.373   2.700  11.720 -0.1945 -1.0971 -2.1940
 6973SOL    HW232382   2.256   2.638  11.774 -1.2449  0.8959  0.4176
 6974SOL     OW32383   2.003   1.858  17.434 -0.1491  0.6400 -0.3964
 6974SOL    HW132384   2.068   1.911  17.387  1.0660  0.0524  0.6271
 6974SOL    HW232385   1.979   1.918  17.504 -0.7839 -0.8735  0.6815
 6975SOL     OW32386   4.711   0.309   5.808 -0.8594 -0.2900  0.4233
 6975SOL    HW132387   4.692   0.215   5.817 -0.7863 -0.2497  0.9527
 6975SOL    HW232388   4.625   0.340   5.780 -0.4471 -0.8232 -1.4514
 6976SOL     OW32389   1.783   1.019   7.056  0.2845 -0.4904  0.4875
 6976SOL    HW132390   1.867   1.010   7.101  0.4166 -0.7166  0.1938
 6976SOL    HW232391   1.724   1.003   7.130  1.1871 -1.3940  0.9972
 6977SOL     OW32392   3.962   0.554   9.201  0.1494 -0.6526  0.4268
 6977SOL    HW132393   4.056   0.544   9.219  0.3623  0.8198  0.1184
 6977SOL    HW232394   3.929   0.628   9.252  0.2382  0.1490 -0.6989
 6978SOL     OW32395   3.868   3.665   6.373  0.1225  0.3870  0.1747
 6978SOL    HW132396   3.774   3.669   6.391  0.2916  0.8039  0.9461
 6978SOL    HW232397   3.904   3.597   6.430 -0.2969 -0.7569 -0.9264
 6979SOL     OW32398   1.319   1.395   9.346  0.4779 -0.2647  0.8865
 6979SOL    HW132399   1.269   1.341   9.407 -0.0736 -1.3239 -0.4839
 6979SOL    HW232400   1.403   1.350   9.339  0.7720  0.4297 -0.1886
 6980SOL     OW32401   2.696   0.780  15.443 -0.0039  0.2399  0.7381
 6980SOL    HW132402   2.656   0.709  15.393  0.4991  0.3733  0.1532
 6980SOL    HW232403   2.787   0.751  15.440 -0.8398 -2.0840 -1.7124
 6981SOL     OW32404   0.240   0.949   0.248  0.6459 -0.0492  0.7681
 6981SOL    HW132405   0.198   0.865   0.265 -1.5466  1.0072  0.5581
 6981SOL    HW232406   0.305   0.955   0.318  2.6368 -0.4573 -0.9970
 6982SOL     OW32407   2.081   3.489   7.216 -0.1796 -0.4809 -0.3956
 6982SOL    HW132408   2.034   3.552   7.270  0.1180  0.7066 -1.5170
 6982SOL    HW232409   2.159   3.471   7.269 -1.2868  0.9895  1.7696
 6983SOL     OW32410   4.566   4.416   0.043 -0.5373  0.6481  0.6766
 6983SOL    HW132411   4.642   4.428   0.100 -0.9200  1.0855  1.0815
 6983SOL    HW232412   4.494   4.424   0.105 -1.8350  2.0833 -1.0371
 6984SOL     OW32413   3.926   4.350   7.663  0.0267  0.7163 -0.4486
 6984SOL    HW132414   3.957   4.426   7.614  2.5267 -1.4507 -2.2107
 6984SOL    HW232415   3.840   4.333   7.625 -0.3981  1.4965  0.1556
 6985SOL     OW32416   3.190   1.302   4.679  0.3801  0.2877  0.1709
 6985SOL    HW132417   3.154   1.372   4.733  1.3795  0.5799  0.4407
 6985SOL    HW232418   3.273   1.289   4.723  0.4862 -0.7410 -0.3366
 6986SOL     OW32419   0.792   1.305   5.373  0.0888  0.3214  0.4895
 6986SOL    HW132420   0.705   1.274   5.398  0.6070 -0.4202  1.3718
 6986SOL    HW232421   0.772   1.390   5.334 -1.1711 -0.0163  0.3976
 6987SOL     OW32422   0.351   3.830   7.249 -0.4113 -0.1821  0.0814
 6987SOL    HW132423   0.300   3.865   7.176  0.6416  1.5009  0.1615
 6987SOL    HW232424   0.376   3.749   7.205 -0.8671 -0.1978 -0.1453
 6988SOL     OW32425   4.492   2.055   3.954  1.0255  1.0575  0.2590
 6988SOL    HW132426   4.398   2.040   3.946  1.1325  1.0353 -0.8555
 6988SOL    HW232427   4.516   2.085   3.867 -1.3941 -0.6333 -0.9796
 6989SOL     OW32428   3.128   0.181  12.516  0.7764 -0.0183 -0.0471
 6989SOL    HW132429   3.112   0.202  12.608 -0.6041  3.0103 -0.9712
 6989SOL    HW232430   3.124   0.086  12.514  1.1556 -0.0502  0.7820
 6990SOL     OW32431   0.789   3.415   8.342  0.5441  0.0336  0.2683
 6990SOL    HW132432   0.773   3.509   8.351 -1.0702 -0.4116  1.8913
 6990SOL    HW232433   0.779   3.385   8.432  1.8535 -1.9256 -0.2386
 6991SOL     OW32434   2.476   3.575   7.911 -0.0176 -0.0941 -0.2873
 6991SOL    HW132435   2.482   3.564   8.006  0.5779  0.0111 -0.3184
 6991SOL    HW232436   2.463   3.485   7.880  0.4424 -0.1180 -0.3993
 6992SOL     OW32437   3.942   2.290   1.252 -0.4885  0.9288  0.2640
 6992SOL    HW132438   4.002   2.228   1.211  0.4136  2.1272 -0.2267
 6992SOL    HW232439   3.920   2.237   1.329 -0.1031  0.4589  0.0484
 6993SOL     OW32440   0.686   0.898   2.145  0.2101 -0.2723  0.0195
 6993SOL    HW132441   0.711   0.809   2.171 -0.2775 -0.4707 -0.1818
 6993SOL    HW232442   0.593   0.885   2.163  0.4420  2.1729  2.8529
 6994SOL     OW32443   4.075   3.489   3.963 -0.1996  0.3115  0.1223
 6994SOL    HW132444   4.072   3.559   4.029  0.9990  0.9386 -0.4927
 6994SOL    HW232445   4.086   3.410   4.016  0.8156  0.0685 -0.4670
 6995SOL     OW32446   1.397   2.658   4.561 -0.3344 -0.2929  0.1143
 6995SOL    HW132447   1.459   2.728   4.541 -0.3812 -1.2110 -3.2847
 6995SOL    HW232448   1.434   2.592   4.502  0.6604  2.2688 -2.1568
 6996SOL     OW32449   1.490   3.364   9.344  0.0260  0.1476  0.1427
 6996SOL    HW132450   1.531   3.443   9.308  1.1713 -0.9766 -1.0199
 6996SOL    HW232451   1.566   3.318   9.380 -0.5358 -0.3388  0.7032
 6997SOL     OW32452   4.272   0.177  12.883  0.5793 -0.3511 -0.4297
 6997SOL    HW132453   4.260   0.099  12.937  1.7631 -0.2300  0.0059
 6997SOL    HW232454   4.220   0.233  12.941  0.4650 -0.0136 -0.8621
 6998SOL     OW32455   0.522   2.609   7.495 -0.5889  0.1852 -0.1625
 6998SOL    HW132456   0.567   2.562   7.425  1.9540  0.7644  1.0656
 6998SOL    HW232457   0.436   2.612   7.454 -0.6152  0.1799 -0.1077
 6999SOL     OW32458   2.344   1.273   2.226 -0.4684  0.3851  0.4158
 6999SOL    HW132459   2.296   1.264   2.143  0.2262  0.3133  0.0247
 6999SOL    HW232460   2.277   1.322   2.273  0.0174  0.5800  0.9067
 7000SOL     OW32461   3.494   2.831   0.393 -0.3568 -0.7891 -0.2166
 7000SOL    HW132462   3.468   2.739   0.400 -1.4803 -0.6288 -2.5085
 7000SOL    HW232463   3.517   2.833   0.300 -0.6940  0.7921 -0.2529
 7001SOL     OW32464   4.157   1.761   6.028  0.2813 -0.8539  0.2442
 7001SOL    HW132465   4.123   1.846   6.000  0.3749 -0.4055  1.4638
 7001SOL    HW232466   4.137   1.746   6.121 -1.6540 -0.4318 -0.0930
 7002SOL     OW32467   3.257   3.489   6.902 -0.1782  0.4803 -0.1668
 7002SOL    HW132468   3.229   3.535   6.823  0.1636  1.4905  0.2919
 7002SOL    HW232469   3.305   3.419   6.858  1.6479  2.1051 -0.7575
 7003SOL     OW32470   3.695   3.689   4.657 -0.0199  0.8807 -0.5703
 7003SOL    HW132471   3.714   3.706   4.749  1.3341 -0.8360 -0.5283
 7003SOL    HW232472   3.705   3.594   4.649 -1.5812  0.7042 -0.3880
 7004SOL     OW32473   0.982   1.933   9.322  0.0758  0.0671  0.0500
 7004SOL    HW132474   1.075   1.938   9.343 -0.4582 -1.5559  2.8203
 7004SOL    HW232475   0.957   2.022   9.301  1.4314 -0.2527 -2.8661
 7005SOL     OW32476   2.600   4.585   3.997  0.1993 -0.0282 -0.0779
 7005SOL    HW132477   2.605   4.673   4.032  1.2756 -0.2027  0.2071
 7005SOL    HW232478   2.507   4.566   3.995  0.0158  1.0995 -2.9479
 7006SOL     OW32479   3.193   2.584  12.584  0.1282 -0.0148 -0.0522
 7006SOL    HW132480   3.248   2.582  12.505 -1.0435 -1.9727 -0.8199
 7006SOL    HW232481   3.156   2.496  12.574 -1.9271  1.0537 -1.8991
 7007SOL     OW32482   1.627   4.518   4.762 -0.0800 -0.3248 -0.4739
 7007SOL    HW132483   1.626   4.476   4.676  0.1067 -1.8041  0.2437
 7007SOL    HW232484   1.663   4.448   4.816  2.2651  0.7930 -0.5462
 7008SOL     OW32485   3.725   4.356   7.050  0.1442 -0.4263 -0.1180
 7008SOL    HW132486   3.710   4.408   6.971 -1.1779  2.0306  1.7158
 7008SOL    HW232487   3.806   4.317   7.019 -1.1053 -1.9348 -1.4886
 7009SOL     OW32488   1.262   3.159   3.981  0.0387 -0.2841  0.3579
 7009SOL    HW132489   1.252   3.253   3.973  0.1315 -0.2971  0.0928
 7009SOL    HW232490   1.196   3.147   4.049  0.6961  1.5753  1.3285
 7010SOL     OW32491   2.418   0.958  11.552 -0.1954  0.0739  0.6140
 7010SOL    HW132492   2.461   0.888  11.602 -0.0191 -1.8107 -2.1725
 7010SOL    HW232493   2.365   0.908  11.491  1.6695 -1.5337  0.2905
 7011SOL     OW32494   4.575   0.039  12.841  0.2461  0.2829  0.1074
 7011SOL    HW132495   4.596   0.131  12.853  0.5083 -0.2281  3.6255
 7011SOL    HW232496   4.641   0.002  12.900 -0.0572  0.7936  0.7601
 7012SOL     OW32497   0.201   4.145   8.823  0.4237 -0.4344 -0.1491
 7012SOL    HW132498   0.278   4.140   8.766  0.1409  1.4469 -0.6968
 7012SOL    HW232499   0.222   4.224   8.873 -0.1253 -0.0617 -0.5120
 7013SOL     OW32500   2.892   4.380   3.522 -0.0350  0.0581 -0.4753
 7013SOL    HW132501   2.848   4.345   3.445  0.1296  0.4620 -0.7509
 7013SOL    HW232502   2.846   4.462   3.543  0.7290  0.1476  0.8880
 7014SOL     OW32503   1.564   2.149  10.665 -0.3016 -0.6522 -0.2311
 7014SOL    HW132504   1.520   2.217  10.614  1.7720 -0.5945 -1.9327
 7014SOL    HW232505   1.646   2.196  10.680  0.2810 -2.3573  1.9093
 7015SOL     OW32506   1.733   2.314   1.918 -0.6122  0.1182 -0.4341
 7015SOL    HW132507   1.699   2.255   1.985 -1.9147 -0.0935 -1.2851
 7015SOL    HW232508   1.781   2.382   1.964  2.1144 -1.5909 -0.7196
 7016SOL     OW32509   4.039   2.522  10.657  0.0251 -0.8800  0.2438
 7016SOL    HW132510   4.087   2.602  10.676  0.4289 -1.2005  0.5829
 7016SOL    HW232511   3.978   2.531  10.730 -1.3149 -0.6046 -0.9178
 7017SOL     OW32512   1.092   2.335   1.205 -0.1302 -0.1692 -0.7080
 7017SOL    HW132513   1.130   2.336   1.292 -2.0806 -0.6179  0.1518
 7017SOL    HW232514   1.107   2.243   1.182 -2.6761 -0.5207 -0.9971
 7018SOL     OW32515   3.051   2.325   7.317  0.1355 -0.5999 -0.6806
 7018SOL    HW132516   3.008   2.307   7.401 -1.8302  2.2608 -1.0559
 7018SOL    HW232517   3.097   2.408   7.329 -1.6730  0.2561  0.3479
 7019SOL     OW32518   3.888   2.181   8.971  0.2260 -0.4401 -0.6429
 7019SOL    HW132519   3.972   2.162   9.012 -0.1174  1.4377  0.9379
 7019SOL    HW232520   3.875   2.269   9.007 -0.7669 -1.8535  2.4307
 7020SOL     OW32521   0.205   3.816   3.485 -0.7918  0.5995 -0.6206
 7020SOL    HW132522   0.122   3.847   3.449 -0.5643  1.7698 -0.1378
 7020SOL    HW232523   0.267   3.858   3.426  0.3406 -1.3272 -0.8003
 7021SOL     OW32524   1.124   2.053   4.081  0.4692 -0.0832 -0.1288
 7021SOL    HW132525   1.117   2.046   3.986 -1.7894 -0.0934  0.0191
 7021SOL    HW232526   1.070   1.977   4.101  1.7372 -1.2359 -1.1252
 7022SOL     OW32527   3.482   3.841  14.817 -0.3248 -0.2605 -0.5023
 7022SOL    HW132528   3.497   3.853  14.724 -0.3822 -3.0054 -0.8606
 7022SOL    HW232529   3.566   3.847  14.862 -1.0047  0.3776  0.6934
 7023SOL     OW32530   1.388   1.624  11.566  0.0002 -0.2607 -0.3276
 7023SOL    HW132531   1.350   1.710  11.584 -1.9544 -1.5119  1.7011
 7023SOL    HW232532   1.482   1.628  11.553  0.4773  0.9152  3.5134
 7024SOL     OW32533   1.472   3.786   6.195 -0.6861 -0.4275  0.0188
 7024SOL    HW132534   1.484   3.869   6.242  0.0466 -0.3304 -0.3413
 7024SOL    HW232535   1.421   3.815   6.119 -0.0033 -1.1228 -0.6975
 7025SOL     OW32536   0.861   4.112   2.958  0.2236 -0.5911 -0.7719
 7025SOL    HW132537   0.783   4.087   2.909  0.8334 -1.6601 -1.1786
 7025SOL    HW232538   0.854   4.070   3.044  1.1990  0.3286 -0.2315
 7026SOL     OW32539   0.650   3.950  12.383 -0.6583 -0.1050 -0.3158
 7026SOL    HW132540   0.684   3.872  12.340  0.2334 -0.1622  0.5103
 7026SOL    HW232541   0.570   3.912  12.420 -0.4318 -1.3291 -1.0714
 7027SOL     OW32542   0.524   4.720  15.458  0.1262  0.2010  0.2361
 7027SOL    HW132543   0.604   0.046  15.482 -0.8911  2.4965 -0.9334
 7027SOL    HW232544   0.453   0.061  15.473 -0.5516 -0.5429  0.1271
 7028SOL     OW32545   2.962   2.873   8.714  0.3163 -0.3285  0.2844
 7028SOL    HW132546   3.030   2.914   8.768 -0.6315  0.8941  0.5400
 7028SOL    HW232547   2.945   2.798   8.771 -1.3931  2.6247  3.6006
 7029SOL     OW32548   3.823   3.625   2.427 -0.2110 -0.7664 -0.0187
 7029SOL    HW132549   3.738   3.633   2.470 -0.2806  0.2607 -0.3461
 7029SOL    HW232550   3.843   3.541   2.467 -1.1424  0.7474  3.5935
 7030SOL     OW32551   0.943   2.317  14.033 -0.3208 -0.0941 -0.0844
 7030SOL    HW132552   0.913   2.265  14.108 -3.7553  1.9763  0.0151
 7030SOL    HW232553   0.893   2.266  13.970  1.5621 -0.2083 -1.4735
 7031SOL     OW32554   1.822   1.667  11.268 -0.2223  0.1683 -0.0386
 7031SOL    HW132555   1.853   1.594  11.214  0.1153 -0.2213  0.6904
 7031SOL    HW232556   1.860   1.742  11.222 -0.3925  0.4217  0.2305
 7032SOL     OW32557   1.506   3.697   3.663 -0.0468  0.4411  0.3878
 7032SOL    HW132558   1.428   3.703   3.718 -1.9798  2.7274 -2.5957
 7032SOL    HW232559   1.567   3.654   3.723  0.1448  1.3063  0.8143
 7033SOL     OW32560   1.758   4.360   3.080  0.2350 -0.0347  0.0900
 7033SOL    HW132561   1.784   4.309   3.003  2.0328  1.1999 -0.1384
 7033SOL    HW232562   1.812   4.327   3.152 -0.0795 -0.0629  0.3119
 7034SOL     OW32563   1.979   1.863  12.494  0.3240 -0.0112  0.5265
 7034SOL    HW132564   1.910   1.894  12.435  0.8430  0.0034 -0.0724
 7034SOL    HW232565   1.962   1.769  12.489  0.5182  0.1860 -3.3662
 7035SOL     OW32566   0.283   1.570   2.730  0.4602  0.2494 -0.1178
 7035SOL    HW132567   0.334   1.492   2.705 -0.4764  0.1286 -1.6525
 7035SOL    HW232568   0.202   1.520   2.744  0.8542 -0.0342  1.1860
 7036SOL     OW32569   2.011   2.115   9.690  0.7395 -0.0728 -0.1489
 7036SOL    HW132570   2.011   2.113   9.594  0.7036 -0.0339 -0.1499
 7036SOL    HW232571   2.105   2.124   9.706  0.3382  0.1501  2.1080
 7037SOL     OW32572   1.288   2.972   5.970  0.9936  0.1946  0.6748
 7037SOL    HW132573   1.290   2.956   6.064  0.9263 -0.3947  0.5815
 7037SOL    HW232574   1.218   3.037   5.974  0.7940  0.0555 -0.5621
 7038SOL     OW32575   2.669   0.417   9.390  0.1756  0.0804  0.1646
 7038SOL    HW132576   2.758   0.402   9.358  0.6847  0.3901  1.4245
 7038SOL    HW232577   2.646   0.496   9.342  2.6488  1.2391  0.8837
 7039SOL     OW32578   2.030   4.609   1.653 -0.2005  0.1047  0.1971
 7039SOL    HW132579   1.960   4.667   1.681  0.6505  1.3881 -0.3371
 7039SOL    HW232580   2.112   4.659   1.658  0.2641 -0.7251  0.9797
 7040SOL     OW32581   1.924   3.780   8.019  0.7649 -0.4087 -0.3202
 7040SOL    HW132582   1.852   3.723   8.047  0.9599  0.1768  1.3506
 7040SOL    HW232583   1.952   3.805   8.107 -3.7344 -1.6346  1.4952
 7041SOL     OW32584   3.508   0.787   9.929  0.1360 -0.0234 -0.0813
 7041SOL    HW132585   3.468   0.700   9.924  1.0359 -0.3147 -2.1346
 7041SOL    HW232586   3.575   0.766   9.864  1.0280  0.3683  0.7026
 7042SOL     OW32587   2.484   3.755   3.736  0.3865  0.0448 -0.3842
 7042SOL    HW132588   2.389   3.760   3.752  0.4901  0.6842  0.0465
 7042SOL    HW232589   2.509   3.846   3.746 -1.8880  0.5244  1.0838
 7043SOL     OW32590   2.852   3.753  16.292  0.1970  0.6377  0.2921
 7043SOL    HW132591   2.847   3.844  16.263  0.4487  0.4884 -0.2352
 7043SOL    HW232592   2.946   3.735  16.290 -0.1540 -1.2931  0.7273
 7044SOL     OW32593   4.359   2.291   6.718 -0.1028 -0.0743  0.4419
 7044SOL    HW132594   4.431   2.281   6.656 -0.8413 -1.3545 -0.2113
 7044SOL    HW232595   4.372   2.218   6.779 -1.6804 -1.8987 -1.4379
 7045SOL     OW32596   2.151   4.589   7.981  0.4747  0.6078  0.7633
 7045SOL    HW132597   2.094   4.601   8.056  0.8867 -0.6884  1.2905
 7045SOL    HW232598   2.234   4.575   8.028  1.3873 -1.0543 -1.3217
 7046SOL     OW32599   2.615   1.860   1.276  0.4314  0.2956 -0.3949
 7046SOL    HW132600   2.681   1.794   1.253 -1.6949 -1.5682 -1.0842
 7046SOL    HW232601   2.671   1.934   1.299  0.3429  0.5976 -1.1818
 7047SOL     OW32602   1.757   0.270   9.116 -0.4434  0.3429 -0.0528
 7047SOL    HW132603   1.678   0.242   9.068 -1.6127  0.6777  1.6846
 7047SOL    HW232604   1.721   0.353   9.146 -1.1056  0.0732 -0.0755
 7048SOL     OW32605   0.841   1.585   4.430 -0.4208  0.3055  0.0361
 7048SOL    HW132606   0.780   1.606   4.360 -0.2199  0.9392  0.0452
 7048SOL    HW232607   0.802   1.611   4.514  2.4371 -0.1538  1.5089
 7049SOL     OW32608   3.888   3.947   6.041  0.2194 -0.1208  0.2074
 7049SOL    HW132609   3.903   3.852   6.035  1.9460  0.1013  1.2952
 7049SOL    HW232610   3.950   3.975   6.108  1.5755 -1.7165 -0.3836
 7050SOL     OW32611   0.303   0.116   2.466 -0.5110  0.1016 -0.2549
 7050SOL    HW132612   0.248   0.185   2.505  0.8385  0.2866  1.3068
 7050SOL    HW232613   0.340   0.071   2.542  1.2824  0.0049 -1.1888
 7051SOL     OW32614   2.500   2.243   3.541  0.3215 -0.2331 -0.1205
 7051SOL    HW132615   2.444   2.297   3.485  1.7762 -0.9476 -2.2572
 7051SOL    HW232616   2.553   2.311   3.584 -0.2025 -0.2658  0.5814
 7052SOL     OW32617   2.946   3.398   2.171 -0.6342 -0.0879 -0.1548
 7052SOL    HW132618   3.027   3.349   2.157  0.5139  2.5521 -2.7353
 7052SOL    HW232619   2.978   3.488   2.178  1.8110 -1.0907  1.8890
 7053SOL     OW32620   2.061   1.985   3.005 -0.1247  0.1159  0.1326
 7053SOL    HW132621   2.086   1.926   2.934 -2.8692  0.2412 -0.9406
 7053SOL    HW232622   2.087   1.936   3.084  0.0926 -1.1257 -0.7118
 7054SOL     OW32623   2.075   0.277   4.393 -0.2177  0.9019 -0.0225
 7054SOL    HW132624   2.070   0.286   4.488  1.0335 -3.2559  0.4489
 7054SOL    HW232625   1.985   0.257   4.370  0.3284 -0.0199 -1.3867
 7055SOL     OW32626   2.150   4.617   1.211 -0.2224 -0.5354 -0.6129
 7055SOL    HW132627   2.062   4.620   1.249  1.2067  1.2930  2.5276
 7055SOL    HW232628   2.142   4.675   1.136  1.2951  2.7495  1.7464
 7056SOL     OW32629   1.784   3.856  15.085  0.1357  0.0161 -0.0323
 7056SOL    HW132630   1.742   3.824  15.006 -0.4001 -3.1708  1.5598
 7056SOL    HW232631   1.704   3.886  15.129  1.2135  2.9126 -0.0177
 7057SOL     OW32632   0.810   2.502   6.483  0.0786 -0.1139  0.4501
 7057SOL    HW132633   0.751   2.429   6.462  1.6186 -0.5708 -2.3460
 7057SOL    HW232634   0.747   2.574   6.473 -2.4405 -2.2767  0.4419
 7058SOL     OW32635   1.429   4.140  10.707  0.7439 -0.0560 -0.0381
 7058SOL    HW132636   1.421   4.123  10.613  2.5803 -0.3808 -0.1420
 7058SOL    HW232637   1.479   4.059  10.721 -0.3053 -0.7891 -0.5398
 7059SOL     OW32638   0.380   4.378   7.398 -0.3308  0.2531  0.0782
 7059SOL    HW132639   0.328   4.428   7.460  0.2062 -1.4797  1.9252
 7059SOL    HW232640   0.424   4.451   7.355  1.2452 -0.6216  0.1984
 7060SOL     OW32641   1.043   3.874   1.013  0.2152  0.1826 -0.6563
 7060SOL    HW132642   1.074   3.801   1.067 -0.2861  0.3449 -0.1503
 7060SOL    HW232643   0.954   3.846   0.988 -0.2043  2.0182 -1.2057
 7061SOL     OW32644   2.372   0.199   7.184 -0.3595 -0.3972 -1.0748
 7061SOL    HW132645   2.423   0.122   7.159 -2.0354 -1.2665 -1.7902
 7061SOL    HW232646   2.309   0.208   7.114 -1.8401 -2.6619 -0.0086
 7062SOL     OW32647   3.476   4.431   2.628 -0.0138  0.5425 -0.1067
 7062SOL    HW132648   3.534   4.378   2.573 -0.1642  1.3431 -1.0271
 7062SOL    HW232649   3.407   4.366   2.642  0.4704  0.0467 -0.0414
 7063SOL     OW32650   0.638   4.453  14.491 -0.3014 -0.0174 -0.4144
 7063SOL    HW132651   0.684   4.422  14.569  0.1193  0.1748 -0.5874
 7063SOL    HW232652   0.623   4.547  14.501  0.7445  0.2138 -1.0841
 7064SOL     OW32653   3.555   2.739   5.849  0.3102  0.1916  0.2137
 7064SOL    HW132654   3.515   2.660   5.813 -0.0046 -0.0215  1.0134
 7064SOL    HW232655   3.648   2.728   5.831 -0.3652 -2.1244 -1.7929
 7065SOL     OW32656   4.696   1.086   2.214  0.2231  0.7861 -0.2412
 7065SOL    HW132657   4.610   1.044   2.215  0.4861  0.2341 -0.6283
 7065SOL    HW232658   0.036   1.022   2.178  1.1835  1.9586 -0.7164
 7066SOL     OW32659   1.983   3.598  10.287 -0.0726  0.2467  0.1873
 7066SOL    HW132660   2.036   3.676  10.301 -0.2275  0.3322  0.3102
 7066SOL    HW232661   1.893   3.630  10.299 -0.0745  0.7980 -1.2915
 7067SOL     OW32662   1.720   2.768   5.766  0.0934 -0.3215 -0.2110
 7067SOL    HW132663   1.763   2.816   5.695  1.0040 -0.8941 -0.0474
 7067SOL    HW232664   1.679   2.696   5.719 -0.6667  1.6071 -2.4793
 7068SOL     OW32665   0.100   3.286   4.915 -0.6981  0.1386 -0.0083
 7068SOL    HW132666   0.023   3.229   4.913 -1.7391  1.4675  2.1947
 7068SOL    HW232667   0.107   3.315   5.006 -1.2531 -0.1741  0.1350
 7069SOL     OW32668   4.405   4.648   6.229  0.4570  0.5418 -0.1183
 7069SOL    HW132669   4.455   4.569   6.251  3.3283  2.3857 -0.0299
 7069SOL    HW232670   4.379   4.637   6.137  1.0375 -0.2018 -0.1941
 7070SOL     OW32671   3.494   2.947   3.249  0.3163 -0.0453 -0.2243
 7070SOL    HW132672   3.413   2.993   3.273  0.9351  1.9741 -2.0204
 7070SOL    HW232673   3.539   3.016   3.200 -0.2927 -0.5625 -1.5169
 7071SOL     OW32674   1.104   3.260   4.214  0.2239 -0.1010 -0.0684
 7071SOL    HW132675   1.037   3.256   4.282  1.2328  0.9198  0.9757
 7071SOL    HW232676   1.064   3.309   4.142 -1.0840 -1.2703 -0.1484
 7072SOL     OW32677   2.449   4.676  10.128 -0.1002  0.1957  0.4617
 7072SOL    HW132678   2.363   4.712  10.149 -0.8339 -1.9889  1.0855
 7072SOL    HW232679   2.468   0.010  10.051  3.6645  0.2080  1.3792
 7073SOL     OW32680   2.829   0.479   3.707 -0.2891  0.3230 -0.3945
 7073SOL    HW132681   2.915   0.438   3.712  0.2678  1.4781 -0.2948
 7073SOL    HW232682   2.774   0.430   3.768  0.2215  0.7894  0.4488
 7074SOL     OW32683   3.024   0.662   5.311 -0.6041  0.2148  0.1057
 7074SOL    HW132684   2.993   0.751   5.329  1.6374  0.4602  2.7245
 7074SOL    HW232685   3.118   0.662   5.326 -0.5981 -1.5144 -0.0241
 7075SOL     OW32686   3.832   1.684  14.521  0.0126 -0.1059  0.0619
 7075SOL    HW132687   3.799   1.616  14.462  0.3034  0.3802 -0.6730
 7075SOL    HW232688   3.902   1.721  14.466  0.0062 -0.7526 -0.3867
 7076SOL     OW32689   1.094   0.424   2.538 -0.2379  0.2465 -0.4158
 7076SOL    HW132690   1.120   0.513   2.514  2.3717 -0.4671 -0.2381
 7076SOL    HW232691   1.135   0.377   2.466 -0.9252 -2.3857  0.9210
 7077SOL     OW32692   2.044   3.864   4.735  0.2739 -0.0087  0.4328
 7077SOL    HW132693   2.107   3.793   4.721  0.0434 -0.6054  2.3899
 7077SOL    HW232694   2.049   3.870   4.830  1.1046  1.1327  0.3259
 7078SOL     OW32695   4.250   2.495   9.127 -0.2477 -0.1685  0.6922
 7078SOL    HW132696   4.180   2.548   9.167 -1.4468 -0.8300 -0.5127
 7078SOL    HW232697   4.273   2.551   9.053  0.0020  0.9990  1.6374
 7079SOL     OW32698   3.441   3.495   6.154 -0.0449  0.2942  0.6227
 7079SOL    HW132699   3.438   3.487   6.249  0.1962  0.0761  0.6118
 7079SOL    HW232700   3.486   3.417   6.122  0.8328  1.1327 -0.2064
 7080SOL     OW32701   0.019   3.802   6.434  0.2753 -0.4120 -0.6883
 7080SOL    HW132702   0.093   3.861   6.419 -0.1325 -0.0342 -1.2149
 7080SOL    HW232703   0.003   3.783   6.341 -2.0229 -0.0055 -0.3664
 7081SOL     OW32704   0.909   3.469   3.660  0.2777 -0.3304  0.5232
 7081SOL    HW132705   0.870   3.555   3.644  1.6441  0.2585  0.3292
 7081SOL    HW232706   1.001   3.490   3.676 -0.1889  0.7702  1.7778
 7082SOL     OW32707   1.636   0.305   8.603  0.0759 -0.2958 -0.6179
 7082SOL    HW132708   1.713   0.258   8.635 -0.1794  0.8606  1.7075
 7082SOL    HW232709   1.611   0.247   8.532 -1.2431  0.0241 -0.4044
 7083SOL     OW32710   1.538   0.100   3.790 -0.0508 -0.3004 -0.0849
 7083SOL    HW132711   1.532   0.195   3.797  0.5657 -0.4304  2.0174
 7083SOL    HW232712   1.568   0.098   3.699 -1.7386 -2.9522 -0.6036
 7084SOL     OW32713   1.765   3.157   5.066  0.4306  0.0973  0.3816
 7084SOL    HW132714   1.861   3.147   5.069  0.5871  1.6126  0.2950
 7084SOL    HW232715   1.758   3.180   4.973  2.4053  1.3765  0.5537
 7085SOL     OW32716   2.129   3.400   2.557 -0.2288 -0.3667 -0.3897
 7085SOL    HW132717   2.207   3.359   2.519 -2.0558 -1.8927 -2.4162
 7085SOL    HW232718   2.058   3.347   2.522  0.5224 -0.5382 -1.6707
 7086SOL     OW32719   3.111   2.427   4.544  0.0631 -0.3823  0.9428
 7086SOL    HW132720   3.118   2.519   4.572  0.4798 -0.3707  0.7978
 7086SOL    HW232721   3.200   2.405   4.573  1.2195  2.4468 -0.4390
 7087SOL     OW32722   3.991   3.548   7.340  0.6379 -0.1220  0.0120
 7087SOL    HW132723   4.022   3.562   7.430 -0.5363  1.1917  0.2111
 7087SOL    HW232724   3.963   3.634   7.309  0.2439 -0.8460 -1.5998
 7088SOL     OW32725   0.453   0.416   1.774  0.7994  0.4721  0.2482
 7088SOL    HW132726   0.509   0.434   1.698 -0.6793  2.1699 -0.4205
 7088SOL    HW232727   0.489   0.327   1.779 -0.6859 -0.0325  1.7486
 7089SOL     OW32728   1.730   2.239  11.233 -0.2273  0.5715  0.1290
 7089SOL    HW132729   1.658   2.182  11.206 -0.1967  0.3921  0.4314
 7089SOL    HW232730   1.805   2.184  11.213  0.8255  1.7443  0.8267
 7090SOL     OW32731   2.728   0.542   6.136  0.0414  0.0644 -0.1999
 7090SOL    HW132732   2.748   0.492   6.057  1.9314  1.0615 -0.3539
 7090SOL    HW232733   2.790   0.494   6.190 -1.2539 -1.4301 -0.0336
 7091SOL     OW32734   0.136   3.568   9.677 -0.3088 -0.0877  0.5639
 7091SOL    HW132735   0.043   3.588   9.664 -0.0813  0.4490 -0.2976
 7091SOL    HW232736   0.139   3.534   9.766  1.1801  2.0575  1.3254
 7092SOL     OW32737   2.055   3.143  14.264 -0.3396 -0.5816  0.2876
 7092SOL    HW132738   2.038   3.091  14.343  0.0675 -3.7670 -1.7107
 7092SOL    HW232739   1.967   3.159  14.230 -0.0378 -0.5816 -0.4948
 7093SOL     OW32740   1.973   1.391   8.841 -0.1998  0.0255  0.4086
 7093SOL    HW132741   2.069   1.399   8.840 -0.1032 -1.0607  1.4231
 7093SOL    HW232742   1.962   1.396   8.746  0.6240  0.3958  0.3263
 7094SOL     OW32743   3.097   4.109  13.953  0.1816  0.2486 -0.1938
 7094SOL    HW132744   3.161   4.180  13.960  3.6998 -2.9833  0.5478
 7094SOL    HW232745   3.016   4.145  13.989  0.0357  0.5628 -0.8431
 7095SOL     OW32746   0.168   1.543  15.776 -1.3447 -0.0252 -0.6936
 7095SOL    HW132747   0.155   1.516  15.867  0.6536  0.8323 -0.1690
 7095SOL    HW232748   0.130   1.465  15.734 -1.8175  0.1253 -0.5495
 7096SOL     OW32749   0.512   2.539   5.187  0.1839  0.2515  0.1249
 7096SOL    HW132750   0.596   2.566   5.150  0.2133  1.6217  1.1865
 7096SOL    HW232751   0.531   2.447   5.208  1.5132  0.8706  1.5879
 7097SOL     OW32752   1.672   3.593   6.988  0.2565  0.0032 -0.3662
 7097SOL    HW132753   1.710   3.658   7.048  1.9930  0.1829 -1.6401
 7097SOL    HW232754   1.742   3.528   6.974 -0.1423 -0.5448  0.1761
 7098SOL     OW32755   3.529   1.549   3.709 -0.5406 -0.5850  0.5870
 7098SOL    HW132756   3.603   1.543   3.649 -0.4746 -0.6859  0.6785
 7098SOL    HW232757   3.479   1.469   3.691  0.0131 -1.2833  2.1124
 7099SOL     OW32758   3.562   0.000  10.233  0.5296  0.8644  0.2140
 7099SOL    HW132759   3.520   0.085  10.223  3.2219  2.1299 -0.5035
 7099SOL    HW232760   3.604   4.707  10.148 -2.5969  1.8987 -1.4881
 7100SOL     OW32761   2.659   2.626   3.455 -0.0389 -0.0299 -0.1152
 7100SOL    HW132762   2.638   2.570   3.530  0.1023  0.9336  0.6544
 7100SOL    HW232763   2.663   2.552   3.394  0.3679 -1.5138  1.7212
 7101SOL     OW32764   1.379   3.292   2.055  0.1565  0.2013  0.2292
 7101SOL    HW132765   1.373   3.197   2.062  0.1543  0.1703 -0.2013
 7101SOL    HW232766   1.452   3.292   1.993 -0.0366 -0.1727 -0.0002
 7102SOL     OW32767   0.574   0.274   4.014  0.6050 -0.4743  0.6629
 7102SOL    HW132768   0.612   0.335   4.076  2.5476 -0.4435 -0.5528
 7102SOL    HW232769   0.636   0.277   3.941 -1.0394 -2.1394 -0.8210
 7103SOL     OW32770   3.210   2.034   5.111 -0.7532  0.6024  0.2401
 7103SOL    HW132771   3.115   2.041   5.118 -0.8703 -0.2547 -0.5748
 7103SOL    HW232772   3.225   1.943   5.087  3.6364  1.5569 -0.5051
 7104SOL     OW32773   3.525   4.145  11.307  0.6702 -0.3491 -0.4700
 7104SOL    HW132774   3.438   4.120  11.339  1.3467 -1.5625  0.3989
 7104SOL    HW232775   3.544   4.072  11.249 -0.5604 -0.7973 -0.3052
 7105SOL     OW32776   1.611   0.392  17.592  1.1975  0.4023  0.5303
 7105SOL    HW132777   1.694   0.437  17.574  0.5437  2.0144  1.5388
 7105SOL    HW232778   1.629   0.318  17.650  0.3825 -1.0433 -1.0777
 7106SOL     OW32779   2.890   0.532   5.770 -0.4440 -0.8243 -0.5103
 7106SOL    HW132780   2.957   0.525   5.702 -0.2668 -1.0001 -0.3137
 7106SOL    HW232781   2.833   0.456   5.757 -0.5822 -1.0165  1.2358
 7107SOL     OW32782   0.834   3.230   5.727 -0.3626 -0.3447  0.5429
 7107SOL    HW132783   0.843   3.175   5.649  0.8483  1.4074 -0.5261
 7107SOL    HW232784   0.808   3.163   5.790 -0.8539 -2.0853 -1.5017
 7108SOL     OW32785   0.988   0.142   4.836 -0.6677  0.0289  0.1960
 7108SOL    HW132786   0.948   0.219   4.876  1.2883  2.5600 -2.7135
 7108SOL    HW232787   1.074   0.137   4.877 -0.9914  1.0155  0.9764
 7109SOL     OW32788   2.404   3.999   1.122  0.2871  0.2011  0.3643
 7109SOL    HW132789   2.453   3.918   1.108 -0.9707 -0.9057  2.3366
 7109SOL    HW232790   2.476   4.060   1.111 -0.1549  0.6166 -0.1993
 7110SOL     OW32791   1.594   0.696   8.455  0.0767 -0.3474  0.6867
 7110SOL    HW132792   1.515   0.647   8.481 -0.6298  0.3831 -0.0797
 7110SOL    HW232793   1.593   0.760   8.526  2.2710  0.0422  0.3502
 7111SOL     OW32794   4.217   2.400  11.216 -0.2206  0.4177  0.0257
 7111SOL    HW132795   4.274   2.473  11.243 -0.2845 -0.4055  2.4264
 7111SOL    HW232796   4.142   2.412  11.275  1.1133  1.0711  1.6190
 7112SOL     OW32797   2.631   1.770   2.713 -0.4895  0.4184  0.0302
 7112SOL    HW132798   2.567   1.712   2.673  1.0972 -0.0760 -1.8033
 7112SOL    HW232799   2.650   1.725   2.795 -3.7713 -0.6735  0.1704
 7113SOL     OW32800   0.261   0.537  11.784  0.2307  0.4774 -0.5096
 7113SOL    HW132801   0.221   0.583  11.858 -0.3306 -0.9833  0.1034
 7113SOL    HW232802   0.209   0.562  11.708 -1.4327 -3.9836 -0.8559
 7114SOL     OW32803   3.094   0.199   6.077  0.0614  0.2739  0.1390
 7114SOL    HW132804   3.116   0.236   6.163  0.3630 -0.2674  0.2953
 7114SOL    HW232805   3.186   0.179   6.057  0.3495  0.2104  1.5141
 7115SOL     OW32806   1.939   1.535  14.020  0.6446  0.3550 -0.1779
 7115SOL    HW132807   1.959   1.450  13.982  3.0433  1.3082 -1.0706
 7115SOL    HW232808   1.907   1.514  14.107 -0.0960 -0.9891 -0.7799
 7116SOL     OW32809   0.810   3.707   8.568  0.1171 -0.4999  0.1790
 7116SOL    HW132810   0.742   3.731   8.631  0.9383  0.2447  0.7747
 7116SOL    HW232811   0.813   3.784   8.512  2.8024 -2.2496 -2.0802
 7117SOL     OW32812   0.796   0.336   7.686 -0.9812 -0.3619  0.6033
 7117SOL    HW132813   0.719   0.386   7.658 -0.4829 -0.5757 -1.1370
 7117SOL    HW232814   0.772   0.312   7.776  0.7702 -1.9112  0.6536
 7118SOL     OW32815   1.813   4.429   6.947 -0.3241  0.0561  0.1026
 7118SOL    HW132816   1.828   4.524   6.939 -0.5937  0.0234 -0.8293
 7118SOL    HW232817   1.718   4.428   6.958 -0.3815 -1.5750 -0.5240
 7119SOL     OW32818   4.593   2.156   3.458  0.2073  0.2775 -0.3525
 7119SOL    HW132819   4.651   2.197   3.394 -1.0719 -0.3353 -1.9012
 7119SOL    HW232820   4.608   2.064   3.440 -0.4213  0.2578 -0.7552
 7120SOL     OW32821   0.372   0.633   2.673 -0.3193  0.0203 -0.5603
 7120SOL    HW132822   0.425   0.713   2.671  0.4202 -0.4994 -1.7617
 7120SOL    HW232823   0.298   0.661   2.727 -1.6313  0.2411 -2.4404
 7121SOL     OW32824   1.769   1.327   5.012  0.5512  0.0531  0.2337
 7121SOL    HW132825   1.692   1.274   5.034 -0.8161  1.0614 -2.0998
 7121SOL    HW232826   1.828   1.283   5.072 -1.1022 -0.0483  1.7593
 7122SOL     OW32827   2.391   2.088   5.240 -0.0043  0.1091 -0.1377
 7122SOL    HW132828   2.435   2.154   5.186  0.0081 -0.2362 -0.5472
 7122SOL    HW232829   2.332   2.040   5.182  0.1520  1.0127 -1.0549
 7123SOL     OW32830   1.615   2.759  16.000 -0.3516 -0.6187 -0.3792
 7123SOL    HW132831   1.528   2.797  15.986 -1.8736 -3.7752  0.3218
 7123SOL    HW232832   1.638   2.738  15.910  1.7915  0.0926  0.0077
 7124SOL     OW32833   4.305   3.418   3.236 -0.1010 -0.2347  0.1454
 7124SOL    HW132834   4.322   3.324   3.228 -2.7327 -0.7422  0.5771
 7124SOL    HW232835   4.231   3.409   3.297  0.7917 -2.3965  0.9296
 7125SOL     OW32836   1.121   1.928   5.681 -0.4465  0.2285 -0.2170
 7125SOL    HW132837   1.204   1.951   5.639 -1.1443 -0.7333 -2.1235
 7125SOL    HW232838   1.124   1.836   5.655  1.4191  0.6483 -1.5257
 7126SOL     OW32839   2.468   3.617   0.515 -1.1262 -0.3324 -0.6043
 7126SOL    HW132840   2.449   3.528   0.544  0.2489  0.4850  2.7661
 7126SOL    HW232841   2.557   3.619   0.551 -0.7799  0.4647 -1.4911
 7127SOL     OW32842   2.502   0.762   5.154  0.5295  0.0351  0.2214
 7127SOL    HW132843   2.471   0.678   5.119  0.3186  1.2049 -2.3753
 7127SOL    HW232844   2.590   0.748   5.188 -0.4425 -3.9127  1.1394
 7128SOL     OW32845   0.696   0.945   1.626 -0.2845 -0.4762  0.5541
 7128SOL    HW132846   0.640   0.919   1.699  1.4579 -1.0628  1.6971
 7128SOL    HW232847   0.711   0.864   1.576 -3.9251 -0.8879  0.1678
 7129SOL     OW32848   3.780   0.160   6.897 -0.4089  0.1067  0.1970
 7129SOL    HW132849   3.825   0.213   6.831  1.6567 -0.5728  1.0442
 7129SOL    HW232850   3.743   0.096   6.837 -0.8660 -0.7971  1.4395
 7130SOL     OW32851   1.392   2.636   7.888  0.4586 -0.0853 -0.4299
 7130SOL    HW132852   1.348   2.574   7.947  0.1678 -1.7418 -2.4023
 7130SOL    HW232853   1.366   2.592   7.807  2.4680 -0.4764 -0.8589
 7131SOL     OW32854   2.923   2.180   7.755  0.0268  0.0287 -1.0195
 7131SOL    HW132855   2.959   2.238   7.687  0.1286  0.0834 -0.9184
 7131SOL    HW232856   2.860   2.240   7.794  1.4289  0.3143  0.7716
 7132SOL     OW32857   2.414   4.539  14.412 -0.1016 -0.5969 -0.1032
 7132SOL    HW132858   2.354   4.489  14.468  0.5398 -1.4587 -0.1959
 7132SOL    HW232859   2.464   4.467  14.375  1.8394  1.8994 -2.3111
 7133SOL     OW32860   1.651   1.799   2.049 -0.0354 -0.4170  0.1420
 7133SOL    HW132861   1.663   1.708   2.075  1.0818 -0.5297 -0.8085
 7133SOL    HW232862   1.557   1.798   2.071  0.1892  0.4842  1.1725
 7134SOL     OW32863   4.344   1.736   7.768  0.3349  0.7837 -0.4110
 7134SOL    HW132864   4.412   1.734   7.836 -1.7279 -1.6589  1.5830
 7134SOL    HW232865   4.264   1.778   7.799 -0.2388 -1.3303  0.9656
 7135SOL     OW32866   0.789   4.132   8.162  0.1620 -0.5342 -0.0623
 7135SOL    HW132867   0.756   4.205   8.214  1.1619  0.3062 -0.5980
 7135SOL    HW232868   0.881   4.119   8.187  1.0417  1.8793 -2.0132
 7136SOL     OW32869   3.035   3.682   3.827  0.4367 -0.0991 -0.0696
 7136SOL    HW132870   3.099   3.680   3.898 -0.2891  2.4068  0.6454
 7136SOL    HW232871   2.969   3.729   3.878 -0.4844  0.1950 -1.5514
 7137SOL     OW32872   3.643   4.013   4.627 -0.0829  0.3405 -0.0877
 7137SOL    HW132873   3.658   3.919   4.620 -0.7922  0.1842  0.4968
 7137SOL    HW232874   3.652   4.021   4.722  3.6001  1.2738 -0.4806
 7138SOL     OW32875   4.581   0.623   4.032 -0.4692 -0.3086  0.0113
 7138SOL    HW132876   4.552   0.533   4.018  2.1730 -1.2429  0.5901
 7138SOL    HW232877   4.675   0.614   4.017 -0.6068  0.3429 -1.2002
 7139SOL     OW32878   3.327   2.595  12.339 -0.2279  0.4852  0.1710
 7139SOL    HW132879   3.422   2.593  12.331 -0.5550 -1.4244 -3.3003
 7139SOL    HW232880   3.303   2.596  12.246  2.0512  0.8027 -0.4211
 7140SOL     OW32881   2.079   4.407   7.746  0.0159  0.0868 -0.8368
 7140SOL    HW132882   2.171   4.417   7.720  0.1770 -0.5922 -0.5148
 7140SOL    HW232883   2.101   4.406   7.839 -1.2215 -0.4962 -0.5451
 7141SOL     OW32884   4.500   2.750  16.857  0.2007  0.4887 -0.2985
 7141SOL    HW132885   4.547   2.729  16.938 -1.7073  2.3471  1.3175
 7141SOL    HW232886   4.468   2.839  16.875  3.0980  1.8173 -1.5899
 7142SOL     OW32887   3.835   2.470   4.728  0.1016 -0.0013 -0.0184
 7142SOL    HW132888   3.916   2.422   4.740  0.5154  0.3754 -1.3104
 7142SOL    HW232889   3.783   2.398   4.691 -0.1394 -0.4438  1.2030
 7143SOL     OW32890   1.219   4.002   3.791  0.5919 -0.3927  0.5614
 7143SOL    HW132891   1.268   4.048   3.723  0.5590  0.7546  1.3041
 7143SOL    HW232892   1.172   3.939   3.737 -0.2926  1.3688 -0.7185
 7144SOL     OW32893   2.353   2.965  13.730  0.0256 -0.7103  0.1917
 7144SOL    HW132894   2.442   2.933  13.714 -0.0359 -1.0120  0.4566
 7144SOL    HW232895   2.306   2.885  13.751 -2.1232  1.2569  2.9348
 7145SOL     OW32896   3.859   0.758   5.955 -0.2077 -0.0415  0.4504
 7145SOL    HW132897   3.924   0.794   6.016 -1.9132  1.2574  1.4861
 7145SOL    HW232898   3.913   0.740   5.878 -0.5427 -2.6827  0.8205
 7146SOL     OW32899   0.241   0.893   2.467 -0.4349 -0.3496 -0.3796
 7146SOL    HW132900   0.255   0.969   2.524 -0.2208 -1.2235  0.7363
 7146SOL    HW232901   0.185   0.842   2.525  1.4396  1.2805  2.8826
 7147SOL     OW32902   2.496   0.932  13.205 -0.4437 -0.5110  0.0715
 7147SOL    HW132903   2.415   0.881  13.210 -0.6586 -0.3973 -2.4626
 7147SOL    HW232904   2.533   0.921  13.293  0.2845 -1.0000 -0.2990
 7148SOL     OW32905   3.307   3.113   0.683  0.4375 -0.0803 -0.1080
 7148SOL    HW132906   3.215   3.132   0.667  0.6097  0.3469 -0.5999
 7148SOL    HW232907   3.348   3.152   0.606 -0.2094 -1.4357 -1.1226
 7149SOL     OW32908   4.236   2.207   5.268 -0.0100 -0.1979 -0.3278
 7149SOL    HW132909   4.271   2.296   5.265  0.7980 -0.4776  0.6878
 7149SOL    HW232910   4.318   2.157   5.272  1.5228  2.2461 -0.8446
 7150SOL     OW32911   3.203   1.762  11.785  0.6741 -0.2420  0.4179
 7150SOL    HW132912   3.109   1.780  11.786  0.9402  1.0934  1.5941
 7150SOL    HW232913   3.213   1.772  11.879 -1.0105 -0.3914  0.6102
 7151SOL     OW32914   3.490   3.999   9.892 -0.4277 -0.2616 -0.1210
 7151SOL    HW132915   3.429   4.072   9.887 -1.0191 -0.7578 -0.1886
 7151SOL    HW232916   3.459   3.943   9.963 -2.0085 -1.8691 -2.0877
 7152SOL     OW32917   0.125   0.804   4.997 -0.1418 -0.4407  0.6913
 7152SOL    HW132918   0.073   0.883   5.011  2.0255  1.3439 -1.3587
 7152SOL    HW232919   0.166   0.785   5.081  0.1208  0.4425  0.7557
 7153SOL     OW32920   3.466   3.252  14.380  0.2538  0.3604  0.1142
 7153SOL    HW132921   3.480   3.164  14.345 -0.1037  0.2366  0.2826
 7153SOL    HW232922   3.549   3.291  14.351  0.2844  1.8899  2.2734
 7154SOL     OW32923   0.172   1.374   9.328  0.6865 -0.8579 -0.3654
 7154SOL    HW132924   0.194   1.378   9.421 -0.0671 -0.6660 -0.1917
 7154SOL    HW232925   0.162   1.280   9.312 -0.4047 -0.4643 -1.9531
 7155SOL     OW32926   3.350   0.253   0.283 -0.5445  0.6210 -0.4583
 7155SOL    HW132927   3.320   0.273   0.371  0.8051 -0.4962  0.2436
 7155SOL    HW232928   3.268   0.271   0.237 -0.9185 -1.5865 -0.6422
 7156SOL     OW32929   1.657   3.872   6.441 -0.2845  0.3452  0.2954
 7156SOL    HW132930   1.690   3.782   6.446 -0.8794 -0.0510 -2.9830
 7156SOL    HW232931   1.708   3.922   6.506  0.9711  0.5122 -0.8132
 7157SOL     OW32932   1.931   2.160   6.908  0.0186 -0.0367 -0.0862
 7157SOL    HW132933   1.938   2.089   6.972 -1.1883  1.5535  1.8133
 7157SOL    HW232934   2.014   2.151   6.860 -1.8358 -1.8051 -3.0204
 7158SOL     OW32935   3.275   0.515   5.511  0.2762  0.1948 -0.8658
 7158SOL    HW132936   3.217   0.457   5.561 -0.3963  0.6944 -1.0627
 7158SOL    HW232937   3.344   0.452   5.489 -0.0689 -0.2863 -0.5643
 7159SOL     OW32938   3.073   3.937  11.641 -0.1704 -0.6560 -0.4656
 7159SOL    HW132939   2.989   3.955  11.682  0.9576  2.0121  0.6706
 7159SOL    HW232940   3.131   3.930  11.717 -1.0612 -0.1114  0.2655
 7160SOL     OW32941   3.135   2.576   6.194 -0.3739 -0.3312  0.1658
 7160SOL    HW132942   3.063   2.526   6.233  0.9877 -4.0727 -2.1559
 7160SOL    HW232943   3.214   2.565   6.246 -0.5327  0.7696  0.6343
 7161SOL     OW32944   4.132   4.308   3.704  0.1121 -0.6332  0.0186
 7161SOL    HW132945   4.152   4.215   3.712  0.1579 -0.7084 -1.0241
 7161SOL    HW232946   4.109   4.298   3.612 -1.1140  1.6386  0.0763
 7162SOL     OW32947   3.498   1.145   7.573  0.3517  0.0507 -0.6394
 7162SOL    HW132948   3.497   1.132   7.668  0.7685  0.7257 -0.5430
 7162SOL    HW232949   3.403   1.135   7.566  0.5050 -1.9077  0.0892
 7163SOL     OW32950   1.822   3.883   4.579 -0.3443  0.3033 -0.2608
 7163SOL    HW132951   1.758   3.858   4.646 -1.6664  4.0542 -0.1300
 7163SOL    HW232952   1.894   3.903   4.639  0.9560  0.6321 -1.9344
 7164SOL     OW32953   2.312   2.780  10.066  0.0114 -0.4494 -0.2705
 7164SOL    HW132954   2.264   2.702  10.093  1.2559 -0.9729  0.4613
 7164SOL    HW232955   2.298   2.839  10.140  2.8599  0.6881 -0.6250
 7165SOL     OW32956   0.164   0.855  14.036 -0.0047 -0.3011  0.3449
 7165SOL    HW132957   0.121   0.770  14.027  0.0767 -0.4310  1.1435
 7165SOL    HW232958   0.148   0.862  14.130 -1.7212  0.4328 -0.0076
 7166SOL     OW32959   1.220   2.869   1.894 -0.5804 -0.2580  0.6484
 7166SOL    HW132960   1.234   2.816   1.815 -0.3939 -0.3092  0.7139
 7166SOL    HW232961   1.212   2.958   1.860 -0.3980 -0.7432 -0.6824
 7167SOL     OW32962   4.353   4.325   5.122  0.1219  0.0924 -0.0533
 7167SOL    HW132963   4.389   4.370   5.198 -0.8413 -0.7163  0.8877
 7167SOL    HW232964   4.418   4.256   5.112 -1.6530 -1.4787 -0.8181
 7168SOL     OW32965   0.958   1.138   7.748 -0.0037 -0.2114  0.1814
 7168SOL    HW132966   1.012   1.063   7.727  1.7117  0.6278  1.6535
 7168SOL    HW232967   0.903   1.092   7.811 -1.7133  2.5612  0.7348
 7169SOL     OW32968   1.934   1.876  11.603 -0.1776  0.2936  0.1757
 7169SOL    HW132969   1.853   1.922  11.579  1.2798  1.7575 -1.8582
 7169SOL    HW232970   1.986   1.915  11.534 -0.5054 -0.2805 -0.3910
 7170SOL     OW32971   1.579   2.484   6.752 -0.0597 -0.0578 -0.3495
 7170SOL    HW132972   1.617   2.562   6.712 -2.2932  1.4523  0.4545
 7170SOL    HW232973   1.637   2.412   6.729 -0.4643 -0.6857  0.5628
 7171SOL     OW32974   3.290   2.499   3.278  0.3128  0.7224 -0.2544
 7171SOL    HW132975   3.371   2.480   3.231  0.3295  1.4395 -0.5107
 7171SOL    HW232976   3.230   2.427   3.258  0.3175 -0.0569  2.5334
 7172SOL     OW32977   2.205   3.330   2.980 -0.3227  0.1279 -0.0428
 7172SOL    HW132978   2.197   3.375   3.064  0.2545  0.7199 -0.3018
 7172SOL    HW232979   2.115   3.309   2.955  0.0294 -3.7213  1.9747
 7173SOL     OW32980   0.065   0.607  14.017 -0.2992  0.5405 -0.2491
 7173SOL    HW132981   0.006   0.533  14.027  0.7450 -0.1864  0.5483
 7173SOL    HW232982   0.147   0.557  14.016  0.4442  1.7567 -0.0837
 7174SOL     OW32983   2.384   3.304   4.330 -0.4018 -0.5296  0.4560
 7174SOL    HW132984   2.343   3.305   4.244  0.9397 -1.4996 -0.1808
 7174SOL    HW232985   2.415   3.215   4.343 -0.4581 -0.9836 -2.5395
 7175SOL     OW32986   0.495   3.640  10.883  0.0688  0.2906 -0.3030
 7175SOL    HW132987   0.472   3.644  10.790 -0.3318 -1.2685 -0.2741
 7175SOL    HW232988   0.443   3.713  10.915  0.4428 -1.1195  3.5789
 7176SOL     OW32989   2.833   3.985   3.272 -0.1645  0.2399  0.2097
 7176SOL    HW132990   2.796   3.937   3.347 -2.1351  2.7995  0.8771
 7176SOL    HW232991   2.921   3.947   3.271  0.0927  0.8689 -1.2195
 7177SOL     OW32992   1.732   1.825   3.709 -0.2110 -0.1447 -0.5252
 7177SOL    HW132993   1.684   1.887   3.654 -2.3429 -1.1797  0.1563
 7177SOL    HW232994   1.818   1.821   3.668 -0.5218 -1.0956 -1.1002
 7178SOL     OW32995   3.507   0.629   4.461 -0.2143  0.0586 -0.3890
 7178SOL    HW132996   3.418   0.659   4.442 -0.5325 -0.4056  0.3586
 7178SOL    HW232997   3.527   0.671   4.545  0.4701 -3.2365  1.0796
 7179SOL     OW32998   3.209   1.684   0.595 -0.2282 -0.2138  0.0130
 7179SOL    HW132999   3.116   1.679   0.618 -0.4001 -0.6368 -0.7802
 7179SOL    HW233000   3.230   1.590   0.594 -0.1449 -0.1786 -1.5937
 7180SOL     OW33001   3.495   0.068   8.574  0.7106 -0.3252  0.3982
 7180SOL    HW133002   3.548   0.128   8.520  0.0399 -0.5798 -0.5404
 7180SOL    HW233003   3.564   0.035   8.630  0.0179 -2.0024  0.2598
 7181SOL     OW33004   1.893   4.337   2.755 -0.4869  0.1305 -0.2756
 7181SOL    HW133005   1.809   4.324   2.711 -1.0419  2.1717  0.1578
 7181SOL    HW233006   1.896   4.250   2.794  1.7391  0.6632  0.7412
 7182SOL     OW33007   2.448   2.001   3.201  0.0053  0.4668  0.1141
 7182SOL    HW133008   2.535   2.040   3.197 -0.2615  1.1716  1.1079
 7182SOL    HW233009   2.436   1.962   3.115 -1.3471 -0.2092  0.6053
 7183SOL     OW33010   0.480   4.234   6.724  0.1265  0.0977  0.1644
 7183SOL    HW133011   0.541   4.197   6.660 -0.4656 -0.2152 -0.2220
 7183SOL    HW233012   0.397   4.194   6.698  0.3971  0.0390 -0.6200
 7184SOL     OW33013   2.629   3.227   6.715 -0.1433 -0.3851 -0.0572
 7184SOL    HW133014   2.561   3.269   6.663 -1.0467 -1.4699  0.2386
 7184SOL    HW233015   2.670   3.169   6.650  1.8130  0.4151  0.4585
 7185SOL     OW33016   0.671   1.144   0.625  0.3095  0.2950 -0.1356
 7185SOL    HW133017   0.750   1.094   0.649  0.5559  0.5346 -0.4400
 7185SOL    HW233018   0.608   1.072   0.620  0.1921  0.2724  1.6470
 7186SOL     OW33019   4.166   4.575  14.085  0.4348  0.0375  0.0480
 7186SOL    HW133020   4.185   4.520  14.161  0.6332 -0.3206 -0.2566
 7186SOL    HW233021   4.113   4.645  14.121 -1.7369 -1.5066 -0.1414
 7187SOL     OW33022   3.126   1.843   2.632  0.0682  0.7144  0.1033
 7187SOL    HW133023   3.128   1.752   2.602  0.2351  0.0429  2.1537
 7187SOL    HW233024   3.040   1.864   2.596 -0.8859 -0.2853  1.8024
 7188SOL     OW33025   0.649   2.981   2.833  0.2557  0.2618 -0.5142
 7188SOL    HW133026   0.711   3.051   2.853 -0.9992  1.5633 -1.1867
 7188SOL    HW233027   0.576   3.032   2.868  0.3552 -0.3463  0.5820
 7189SOL     OW33028   1.902   4.425   2.113  0.6460 -0.2833 -0.5046
 7189SOL    HW133029   1.970   4.389   2.170  0.1462  1.7072  1.3610
 7189SOL    HW233030   1.936   4.515   2.108 -1.7792  0.5668 -1.5442
 7190SOL     OW33031   2.523   1.462   1.661 -0.1658 -0.5259  0.2776
 7190SOL    HW133032   2.560   1.528   1.720 -2.8356  0.4690  0.8067
 7190SOL    HW233033   2.528   1.392   1.725 -2.6933 -2.7584 -1.9563
 7191SOL     OW33034   0.439   2.620   8.296  0.1037  0.6462  0.5760
 7191SOL    HW133035   0.494   2.692   8.265  0.7164  0.4451  1.2131
 7191SOL    HW233036   0.406   2.664   8.374 -0.5796 -1.1644  1.3019
 7192SOL     OW33037   1.444   1.745   2.799 -0.0890 -0.1246  0.2381
 7192SOL    HW133038   1.407   1.833   2.806  0.9283  0.3585 -0.5788
 7192SOL    HW233039   1.445   1.716   2.708  1.2964  0.7054 -0.0078
 7193SOL     OW33040   4.450   2.615   9.763  0.4050  0.2823 -0.9892
 7193SOL    HW133041   4.544   2.601   9.753  0.2211 -2.6641  1.5048
 7193SOL    HW233042   4.443   2.663   9.680 -0.8744 -1.0876 -1.6765
 7194SOL     OW33043   1.203   2.177   7.065  0.1045  0.2550  0.0054
 7194SOL    HW133044   1.253   2.258   7.056 -0.8357  0.8404  0.1520
 7194SOL    HW233045   1.115   2.203   7.040  0.2619  0.6306 -0.1535
 7195SOL     OW33046   4.541   4.089  16.204  0.2861 -0.0188  0.3210
 7195SOL    HW133047   4.446   4.088  16.205  0.2839  1.9073  1.5328
 7195SOL    HW233048   4.538   4.082  16.108 -0.1793 -0.8167  0.3986
 7196SOL     OW33049   4.282   0.476   2.433  0.2253  0.0506 -0.7181
 7196SOL    HW133050   4.323   0.396   2.401  0.1125 -0.2738 -0.0465
 7196SOL    HW233051   4.309   0.549   2.378  0.8198 -0.7789 -1.5356
 7197SOL     OW33052   1.890   3.726   5.745  0.1942  0.3108 -0.2767
 7197SOL    HW133053   1.891   3.675   5.826 -0.3889  1.3217  0.3668
 7197SOL    HW233054   1.830   3.799   5.760 -0.4204 -0.2227 -0.1283
 7198SOL     OW33055   2.069   3.255   8.868 -0.1494  0.1515  0.8628
 7198SOL    HW133056   2.068   3.324   8.802  5.9605  1.3231  1.9579
 7198SOL    HW233057   2.034   3.313   8.935  0.6616 -2.6133  3.6701
 7199SOL     OW33058   1.898   3.988   8.513  0.6521 -0.2034  0.4599
 7199SOL    HW133059   1.921   4.050   8.582  1.0035  0.2925 -0.1029
 7199SOL    HW233060   1.984   3.948   8.499  1.3318  1.3613  0.0847
 7200SOL     OW33061   2.130   0.459  10.035 -0.5376 -0.0677  0.3518
 7200SOL    HW133062   2.131   0.472  10.130 -0.6045 -1.0985  0.4892
 7200SOL    HW233063   2.214   0.489   9.999 -1.1018  0.1677 -0.7512
 7201SOL     OW33064   2.685   3.376   7.312 -0.0805  0.1329 -0.5387
 7201SOL    HW133065   2.679   3.280   7.317  1.3376  0.0778  0.1913
 7201SOL    HW233066   2.621   3.404   7.247 -0.7501  1.2203  0.5841
 7202SOL     OW33067   1.986   4.194   0.138 -0.2066  0.0399  0.4638
 7202SOL    HW133068   2.022   4.127   0.197  0.9325  1.7742  1.7470
 7202SOL    HW233069   1.955   4.136   0.068 -0.8140 -0.6093  1.2651
 7203SOL     OW33070   2.193   2.242   5.955 -0.6709  0.5065 -0.1808
 7203SOL    HW133071   2.282   2.256   5.987  0.3978 -0.4083 -2.7410
 7203SOL    HW233072   2.173   2.332   5.926  0.5173  0.1720 -2.0254
 7204SOL     OW33073   1.434   4.712   7.091  0.2021  0.0236 -0.4105
 7204SOL    HW133074   1.478   0.025   7.169 -1.6709 -0.2441  0.7873
 7204SOL    HW233075   1.479   0.044   7.025  1.9231 -0.9340 -0.0047
 7205SOL     OW33076   3.537   0.758   7.307 -0.1049  0.7618  0.0393
 7205SOL    HW133077   3.556   0.851   7.300  0.4564  0.6927  0.6648
 7205SOL    HW233078   3.517   0.746   7.400  0.8489  1.6299  0.3542
 7206SOL     OW33079   3.016   3.458   8.870  0.2948 -0.5449 -0.1851
 7206SOL    HW133080   3.055   3.545   8.875 -0.2744 -0.4276  2.0820
 7206SOL    HW233081   3.019   3.434   8.777 -0.0604  1.1805 -0.6462
 7207SOL     OW33082   3.993   1.458   0.292  0.0128  0.2008  0.0296
 7207SOL    HW133083   4.070   1.485   0.341 -0.1630  2.5317 -1.0156
 7207SOL    HW233084   3.929   1.519   0.328  0.6453 -0.3008  2.0133
 7208SOL     OW33085   3.527   1.264   3.785  0.8059  0.0497  0.4705
 7208SOL    HW133086   3.532   1.195   3.852 -4.1793  0.0165  0.7824
 7208SOL    HW233087   3.608   1.309   3.809 -0.2474  0.5892  3.0455
 7209SOL     OW33088   2.493   4.486   2.292 -0.2310 -0.2302  0.4877
 7209SOL    HW133089   2.492   4.390   2.295 -0.8476 -0.2049  1.1529
 7209SOL    HW233090   2.491   4.497   2.196 -0.1194  0.9158  0.6145
 7210SOL     OW33091   3.110   1.753   7.464 -0.4039 -0.0035 -0.0112
 7210SOL    HW133092   3.191   1.774   7.418 -1.5050 -0.3302 -2.0735
 7210SOL    HW233093   3.113   1.835   7.514 -1.3609 -0.6806  1.1482
 7211SOL     OW33094   3.628   3.559   5.376  0.1776  0.3779 -0.3162
 7211SOL    HW133095   3.553   3.548   5.318 -0.7210 -1.3241  1.1587
 7211SOL    HW233096   3.632   3.469   5.410  0.8768  1.5238  2.6403
 7212SOL     OW33097   3.532   1.918   9.837  0.4497 -0.2958  0.5206
 7212SOL    HW133098   3.476   1.847   9.806 -0.9151  1.2780 -0.6275
 7212SOL    HW233099   3.508   1.923   9.929 -0.5464 -0.0627  0.2496
 7213SOL     OW33100   1.959   4.217  11.040 -0.0040  0.1529  0.1708
 7213SOL    HW133101   1.931   4.291  10.985 -1.2594  0.2089  0.8997
 7213SOL    HW233102   1.887   4.215  11.103 -0.2643  2.3048 -0.0509
 7214SOL     OW33103   1.029   0.923   6.831  0.0715  0.0799 -0.2218
 7214SOL    HW133104   1.042   0.914   6.925  1.4881  1.4370 -0.2999
 7214SOL    HW233105   1.117   0.910   6.797 -0.1679  2.2507 -1.7081
 7215SOL     OW33106   4.644   0.557   9.369  0.1142 -0.0184 -0.1000
 7215SOL    HW133107   4.567   0.512   9.334 -1.2811  1.0630  1.6393
 7215SOL    HW233108   4.635   0.641   9.325 -1.4500  0.0647  0.3743
 7216SOL     OW33109   3.853   3.127  16.557  0.1200  0.4130  0.6631
 7216SOL    HW133110   3.798   3.089  16.626  0.5067 -0.2703  0.5966
 7216SOL    HW233111   3.918   3.058  16.545 -1.4044 -0.9266  0.1592
 7217SOL     OW33112   3.369   3.841  15.370  0.3703 -0.0631 -0.7792
 7217SOL    HW133113   3.372   3.870  15.461  2.3649  0.6712 -1.0847
 7217SOL    HW233114   3.274   3.844  15.355  0.0624 -2.0155  0.6168
 7218SOL     OW33115   3.311   0.985   2.148 -0.9419 -0.6409 -0.0702
 7218SOL    HW133116   3.299   0.923   2.221 -0.1043 -1.3098 -0.5037
 7218SOL    HW233117   3.250   1.053   2.175  0.6650  0.5902  0.4625
 7219SOL     OW33118   4.231   0.434   2.916  0.2811  0.3004 -0.1991
 7219SOL    HW133119   4.274   0.369   2.972 -0.8114 -0.1354  0.1414
 7219SOL    HW233120   4.150   0.384   2.910  0.5922 -0.1221 -0.8719
 7220SOL     OW33121   4.196   1.652   4.194 -0.2809  0.0346  0.0853
 7220SOL    HW133122   4.113   1.646   4.241 -1.3536  1.3641 -1.6304
 7220SOL    HW233123   4.163   1.653   4.104 -0.3899 -1.6824  0.1102
 7221SOL     OW33124   3.648   0.619   5.766 -0.3952  0.4511 -0.0379
 7221SOL    HW133125   3.671   0.624   5.673 -1.0306 -0.0535 -0.2262
 7221SOL    HW233126   3.732   0.635   5.809  0.0628 -3.5603  0.5410
 7222SOL     OW33127   3.570   0.645   2.478  0.4380  0.1650  0.3641
 7222SOL    HW133128   3.632   0.694   2.425 -0.6144  0.5927 -0.4737
 7222SOL    HW233129   3.631   0.581   2.515 -1.0929 -1.0597  0.7876
 7223SOL     OW33130   2.504   0.042   2.053  0.1169 -0.5189 -0.1984
 7223SOL    HW133131   2.594   0.027   2.024  1.2487 -0.9190  3.4952
 7223SOL    HW233132   2.515   0.081   2.140 -1.7833  1.4384 -0.8219
 7224SOL     OW33133   2.663   2.893   4.458 -0.0004 -0.5007 -0.0549
 7224SOL    HW133134   2.746   2.860   4.423  0.2459  0.0134  0.0539
 7224SOL    HW233135   2.614   2.936   4.388  1.6037  0.3818 -0.6383
 7225SOL     OW33136   4.328   3.438   5.876  0.9668  0.5126 -0.1686
 7225SOL    HW133137   4.404   3.410   5.824  1.2100  1.4805 -0.3396
 7225SOL    HW233138   4.258   3.426   5.812 -0.4634  0.9221  1.3279
 7226SOL     OW33139   3.456   4.442  10.137 -0.4557  0.0515  0.4010
 7226SOL    HW133140   3.534   4.493  10.158 -0.3490  0.2275 -0.4323
 7226SOL    HW233141   3.451   4.460  10.043  0.3345  1.2946  0.5944
 7227SOL     OW33142   4.316   2.909   6.497  0.0956  0.3120  0.3366
 7227SOL    HW133143   4.378   2.968   6.454  0.0966  0.1148  0.0710
 7227SOL    HW233144   4.317   2.834   6.438  0.6552  0.2292  0.4559
 7228SOL     OW33145   2.936   3.639   2.741  0.5058 -0.5800 -0.4906
 7228SOL    HW133146   2.996   3.688   2.797  0.3757 -2.1241  1.0139
 7228SOL    HW233147   2.870   3.697   2.703  2.5460  0.5531 -2.2740
 7229SOL     OW33148   0.526   4.034   3.983  0.1712  0.2254 -0.3112
 7229SOL    HW133149   0.501   4.067   4.070  0.1311  0.1741 -0.3030
 7229SOL    HW233150   0.600   3.974   3.994 -0.6039 -0.7525 -0.4049
 7230SOL     OW33151   2.243   0.621   2.004 -0.7948 -0.7164  0.3648
 7230SOL    HW133152   2.332   0.622   2.039  0.1375 -0.9489 -1.9910
 7230SOL    HW233153   2.199   0.655   2.082  1.0413 -1.0484  1.5384
 7231SOL     OW33154   1.703   2.515  17.192  0.1299 -0.3571 -0.5286
 7231SOL    HW133155   1.765   2.481  17.128 -0.0191  0.4926 -1.1152
 7231SOL    HW233156   1.733   2.604  17.208  0.8904 -0.9189  1.1188
 7232SOL     OW33157   0.177   0.880   5.300 -0.0096  0.0146 -0.4643
 7232SOL    HW133158   0.135   0.961   5.331  0.4282 -0.0692  0.3509
 7232SOL    HW233159   0.107   0.816   5.312  0.7711 -0.2940  2.4104
 7233SOL     OW33160   2.327   3.399   7.326  0.0593 -0.6127 -0.0948
 7233SOL    HW133161   2.366   3.315   7.351 -1.7192 -1.7631 -1.2160
 7233SOL    HW233162   2.312   3.430   7.415  0.2613  2.0321 -0.9936
 7234SOL     OW33163   1.065   1.227   8.763 -0.0090 -0.1062  0.0669
 7234SOL    HW133164   1.132   1.296   8.772  0.8675 -1.1882  1.7167
 7234SOL    HW233165   0.991   1.272   8.722 -0.6962  0.2545  1.7260
 7235SOL     OW33166   0.210   1.750  13.880 -0.1843 -0.4894  0.4679
 7235SOL    HW133167   0.252   1.792  13.955  0.5233 -1.0840  0.4083
 7235SOL    HW233168   0.164   1.826  13.845 -1.2759 -1.7275 -0.7353
 7236SOL     OW33169   1.197   2.147   7.356 -0.4638  0.4806  0.7622
 7236SOL    HW133170   1.192   2.138   7.261  2.5747 -0.2554  0.6789
 7236SOL    HW233171   1.291   2.148   7.373  0.3024 -3.0078 -3.3665
 7237SOL     OW33172   2.964   3.633   1.551 -0.8464 -0.3740  0.7121
 7237SOL    HW133173   3.016   3.640   1.631  1.5360  0.3910 -0.9054
 7237SOL    HW233174   2.879   3.608   1.586 -0.5383 -0.5152  1.3618
 7238SOL     OW33175   1.817   1.297   4.586  0.8997  0.1673 -0.0739
 7238SOL    HW133176   1.786   1.387   4.573 -0.0609 -0.1628 -0.0689
 7238SOL    HW233177   1.868   1.290   4.505  1.3683  1.3892  0.1082
 7239SOL     OW33178   1.946   0.976   5.996  0.0407  0.0950  0.3495
 7239SOL    HW133179   1.930   1.054   5.943 -0.5873 -0.4906 -0.3252
 7239SOL    HW233180   2.038   0.970   5.972  0.0829  0.0452  0.5266
 7240SOL     OW33181   0.530   2.804  16.521 -0.0720  0.3721 -0.1862
 7240SOL    HW133182   0.608   2.830  16.471 -0.1646 -1.2669 -1.1826
 7240SOL    HW233183   0.569   2.745  16.586 -1.5729  0.3669  0.7217
 7241SOL     OW33184   4.333   4.374   5.562  0.0362 -0.5387  0.2407
 7241SOL    HW133185   4.395   4.370   5.489  0.6741 -0.5759  0.7818
 7241SOL    HW233186   4.258   4.375   5.503  1.7793 -0.8768 -1.9960
 7242SOL     OW33187   1.532   1.421  16.700  0.2977  0.4198 -0.1759
 7242SOL    HW133188   1.480   1.450  16.774  0.5754 -1.2195  0.6640
 7242SOL    HW233189   1.538   1.508  16.660 -1.9748  0.4901 -0.3780
 7243SOL     OW33190   1.420   4.649   6.269  0.0265  0.6373  0.0472
 7243SOL    HW133191   1.405   4.560   6.301 -1.2079  1.2762  1.2326
 7243SOL    HW233192   1.515   4.656   6.276  0.3368 -1.7394 -1.7673
 7244SOL     OW33193   1.441   4.183  12.469 -0.0411 -0.0295 -0.5732
 7244SOL    HW133194   1.434   4.211  12.378  0.3150 -1.2605 -0.9837
 7244SOL    HW233195   1.361   4.223  12.503  1.5893  1.7446  1.2182
 7245SOL     OW33196   3.887   2.798   3.682 -0.4016  0.3826  0.3320
 7245SOL    HW133197   3.815   2.790   3.745 -1.4709 -1.9782 -1.1847
 7245SOL    HW233198   3.850   2.767   3.599 -0.9219 -0.5568  0.9091
 7246SOL     OW33199   0.988   2.467   8.107 -0.1299 -0.0345  0.3449
 7246SOL    HW133200   0.970   2.523   8.183 -0.3502  0.6217 -0.1942
 7246SOL    HW233201   0.914   2.498   8.054 -0.4251 -0.7993  0.3004
 7247SOL     OW33202   1.133   2.925  16.979  0.3533  0.0789 -0.0651
 7247SOL    HW133203   1.187   2.947  16.902  0.9230 -0.1596  0.2618
 7247SOL    HW233204   1.064   2.990  16.967 -1.0828 -1.4975 -0.1976
 7248SOL     OW33205   3.637   2.341   0.365  0.4724 -0.5001  0.0876
 7248SOL    HW133206   3.567   2.406   0.362 -0.4671 -1.4817  1.2973
 7248SOL    HW233207   3.709   2.391   0.326 -0.5606 -0.1156 -1.3282
 7249SOL     OW33208   3.950   4.078   2.851  0.0817 -0.5685  0.3185
 7249SOL    HW133209   4.008   4.086   2.927  0.8734 -3.3719 -0.0069
 7249SOL    HW233210   3.868   4.117   2.881 -0.1322  0.2245 -1.3031
 7250SOL     OW33211   4.090   1.440  15.503 -0.2475 -0.6285 -0.6648
 7250SOL    HW133212   4.056   1.475  15.586  2.1783 -2.9784  1.3471
 7250SOL    HW233213   4.030   1.474  15.437 -0.9165  1.5431  1.0804
 7251SOL     OW33214   3.879   4.039  13.025  0.0465 -0.9973 -0.3849
 7251SOL    HW133215   3.784   4.030  13.019  0.0699 -1.4489 -0.0649
 7251SOL    HW233216   3.910   3.960  12.982  3.0384 -0.3204  0.5297
 7252SOL     OW33217   3.923   4.717   1.844  0.1836 -0.1979 -0.4269
 7252SOL    HW133218   3.902   4.696   1.936 -0.3008  1.3506 -0.1890
 7252SOL    HW233219   3.899   4.636   1.800  0.2051  0.5114 -1.7224
 7253SOL     OW33220   0.643   3.686   8.790 -0.1605 -0.0094  0.8586
 7253SOL    HW133221   0.694   3.625   8.844  3.8795  1.1438 -1.6421
 7253SOL    HW233222   0.677   3.771   8.818 -0.4136 -0.0556  1.2996
 7254SOL     OW33223   0.048   4.648   7.810 -0.3983 -0.5099 -0.1430
 7254SOL    HW133224   0.047   4.707   7.735  0.4033 -0.5535 -0.1943
 7254SOL    HW233225   0.097   4.707   7.868  2.1964 -1.2040 -1.6536
 7255SOL     OW33226   0.332   1.305   3.484  0.2191  0.3102 -0.1785
 7255SOL    HW133227   0.402   1.246   3.456  1.0249  0.9270  0.5125
 7255SOL    HW233228   0.325   1.361   3.407  1.3369  1.0784  0.2747
 7256SOL     OW33229   2.765   2.367   5.149  0.0988  0.2942 -0.0260
 7256SOL    HW133230   2.818   2.291   5.125  1.2382  1.6594 -1.8599
 7256SOL    HW233231   2.829   2.437   5.158  1.0968 -0.6057 -0.1925
 7257SOL     OW33232   2.255   4.287   1.645 -0.3933  0.1072  0.2269
 7257SOL    HW133233   2.333   4.340   1.653  0.6375 -1.3528 -0.1226
 7257SOL    HW233234   2.196   4.324   1.580 -0.4076 -0.6514 -0.1978
 7258SOL     OW33235   0.654   1.276  10.331  0.2016 -0.3244  0.1633
 7258SOL    HW133236   0.573   1.254  10.377 -0.1095 -0.5002 -0.4651
 7258SOL    HW233237   0.711   1.287  10.406 -1.8091 -0.2103  1.6857
 7259SOL     OW33238   4.076   1.680  14.367 -0.3144 -0.0781  0.3395
 7259SOL    HW133239   4.148   1.700  14.426 -0.9992  0.3157  1.0391
 7259SOL    HW233240   4.104   1.726  14.287  2.5496 -0.8260  0.9144
 7260SOL     OW33241   0.304   3.322   4.265  0.4298 -0.0495 -0.0499
 7260SOL    HW133242   0.244   3.397   4.263  0.2792 -0.1870 -1.0070
 7260SOL    HW233243   0.365   3.343   4.335 -0.1839 -0.3884  0.5830
 7261SOL     OW33244   4.069   3.034   7.050 -0.2558  0.1335  0.0278
 7261SOL    HW133245   4.114   2.963   7.095  1.3608  0.6945 -0.7323
 7261SOL    HW233246   4.034   3.065   7.133  0.9858 -0.2465  0.6903
 7262SOL     OW33247   0.263   3.692   4.843 -0.3705 -0.1352  0.0215
 7262SOL    HW133248   0.183   3.672   4.793  0.9625  0.0959 -2.1868
 7262SOL    HW233249   0.331   3.645   4.796  0.3085 -0.0871  0.9797
 7263SOL     OW33250   4.157   3.249  15.301 -1.0687  0.1448  0.4971
 7263SOL    HW133251   4.225   3.317  15.304  1.5352 -2.2075 -4.4187
 7263SOL    HW233252   4.074   3.295  15.291 -0.2415  2.0169  2.2596
 7264SOL     OW33253   0.667   1.840   6.872 -0.3472  0.3514  0.5747
 7264SOL    HW133254   0.755   1.824   6.838 -0.8780  0.6888 -0.9691
 7264SOL    HW233255   0.646   1.756   6.912  0.1959  0.5133  1.2042
 7265SOL     OW33256   3.880   1.472   9.827 -0.4434  0.0350 -0.1859
 7265SOL    HW133257   3.855   1.433   9.910  1.2739 -1.4094 -0.3286
 7265SOL    HW233258   3.807   1.534   9.826 -0.5898 -0.1268  1.0069
 7266SOL     OW33259   0.877   2.956   5.245  0.0387  0.5299 -0.0224
 7266SOL    HW133260   0.910   3.045   5.228 -0.5042  0.9804  1.2968
 7266SOL    HW233261   0.940   2.902   5.197 -0.4535 -0.7727  0.8350
 7267SOL     OW33262   3.853   4.653   2.091 -0.3423 -0.3518  0.0446
 7267SOL    HW133263   3.822   0.006   2.143 -1.6250 -0.9886  0.1962
 7267SOL    HW233264   3.929   4.622   2.141 -1.0244 -2.1237 -0.0171
 7268SOL     OW33265   3.535   1.653   7.986 -0.0116 -0.2268  1.1451
 7268SOL    HW133266   3.627   1.655   7.959 -0.6658  1.3395 -0.9619
 7268SOL    HW233267   3.529   1.731   8.041 -0.3659  1.0250 -0.6735
 7269SOL     OW33268   1.775   4.085   8.921  0.3548 -0.5084 -0.4840
 7269SOL    HW133269   1.867   4.099   8.898  1.5762 -2.2547  3.3961
 7269SOL    HW233270   1.789   4.032   8.999 -0.6350 -1.0152 -0.6502
 7270SOL     OW33271   0.931   3.555   1.958  0.6991  0.3407  0.5205
 7270SOL    HW133272   0.859   3.494   1.971  0.7562 -0.0258 -0.9222
 7270SOL    HW233273   0.990   3.538   2.032  2.6363 -2.1976 -1.6101
 7271SOL     OW33274   3.959   2.021   0.528  0.0747 -0.2866 -0.0401
 7271SOL    HW133275   4.047   1.998   0.556  0.2137  0.0535 -0.1961
 7271SOL    HW233276   3.918   1.953   0.582 -0.1584 -0.2600 -0.1835
 7272SOL     OW33277   0.822   2.194   6.203  0.0932  0.0825 -0.4526
 7272SOL    HW133278   0.898   2.250   6.187 -0.3431  0.3815 -1.4340
 7272SOL    HW233279   0.856   2.157   6.285  0.6154 -1.8708 -1.5438
 7273SOL     OW33280   4.478   1.093  16.061 -0.2830 -0.0654  0.3826
 7273SOL    HW133281   4.524   1.010  16.052  0.5981  0.4070  0.4932
 7273SOL    HW233282   4.386   1.066  16.054 -1.0870  2.6294  0.4386
 7274SOL     OW33283   2.593   0.948   8.144  0.2678  0.4767  0.3021
 7274SOL    HW133284   2.627   0.863   8.172  1.6600  0.8985 -0.1497
 7274SOL    HW233285   2.665   0.975   8.087  0.2960 -0.4601 -0.0991
 7275SOL     OW33286   1.718   0.085   7.815  0.2351  0.2157 -0.0249
 7275SOL    HW133287   1.765   0.117   7.891 -0.2017  0.2410  0.2363
 7275SOL    HW233288   1.734   4.712   7.810 -3.3049 -0.3363 -1.2246
 7276SOL     OW33289   0.296   4.395   3.864  0.6295  0.4563  0.1706
 7276SOL    HW133290   0.226   4.461   3.871 -0.0956  0.0097 -3.0994
 7276SOL    HW233291   0.261   4.338   3.796 -0.0979  1.9571 -0.7055
 7277SOL     OW33292   1.798   2.805  13.730  0.4782 -0.1823 -0.4064
 7277SOL    HW133293   1.843   2.724  13.708  0.8795  0.0754 -0.5399
 7277SOL    HW233294   1.839   2.858  13.661  0.3128  1.1410  0.5029
 7278SOL     OW33295   0.613   4.442   7.171 -0.4491  0.3305 -0.4693
 7278SOL    HW133296   0.672   4.468   7.100  1.6194  0.0354  1.1425
 7278SOL    HW233297   0.570   4.372   7.123  2.2587 -0.9580 -0.9920
 7279SOL     OW33298   1.763   1.604   4.226 -0.0538 -0.1987  0.8469
 7279SOL    HW133299   1.748   1.673   4.290 -2.6660  0.9318 -0.9578
 7279SOL    HW233300   1.858   1.601   4.226 -0.0839 -1.0608  1.6034
 7280SOL     OW33301   0.545   1.020   7.657 -0.0783 -0.0981 -0.0834
 7280SOL    HW133302   0.508   0.957   7.595  2.0350  1.8264 -3.3312
 7280SOL    HW233303   0.562   0.970   7.737  2.6720  1.6770  0.4466
 7281SOL     OW33304   3.253   4.039   1.529  0.1307  0.2207  0.0890
 7281SOL    HW133305   3.193   4.057   1.458 -0.2620  0.7255  0.5492
 7281SOL    HW233306   3.252   4.120   1.581 -0.7334 -1.5076  2.7725
 7282SOL     OW33307   3.151   2.213   3.094  0.5503  0.0107  0.1987
 7282SOL    HW133308   3.124   2.132   3.050  1.8100 -1.5701  2.3178
 7282SOL    HW233309   3.242   2.203   3.124 -0.3309  1.1162  3.2505
 7283SOL     OW33310   3.053   3.912   8.400 -0.4196  0.1907 -0.2459
 7283SOL    HW133311   3.042   3.926   8.306  0.9333  0.6757 -0.3317
 7283SOL    HW233312   2.972   3.951   8.432  0.0502  0.0385  1.1424
 7284SOL     OW33313   4.145   4.241   4.079 -0.3496  0.4309  0.5305
 7284SOL    HW133314   4.125   4.316   4.024 -1.5442  0.5617  1.1365
 7284SOL    HW233315   4.138   4.285   4.164 -0.0032  0.1007  0.7319
 7285SOL     OW33316   3.260   0.778   1.934 -0.2129  0.0031 -0.5040
 7285SOL    HW133317   3.305   0.694   1.922 -1.7464 -0.5782 -2.2762
 7285SOL    HW233318   3.314   0.828   1.995 -0.9020  0.0058  0.1064
 7286SOL     OW33319   0.842   4.658   5.400  0.6277 -0.0412 -0.7655
 7286SOL    HW133320   0.779   0.006   5.381 -1.0599 -1.8359 -1.6233
 7286SOL    HW233321   0.918   4.709   5.429 -0.4015 -0.2174  2.2842
 7287SOL     OW33322   2.618   2.436   7.423 -0.2128  0.1634  0.0759
 7287SOL    HW133323   2.697   2.460   7.472  2.4426 -0.9819 -3.6561
 7287SOL    HW233324   2.577   2.522   7.412  0.9226  0.7708  0.5982
 7288SOL     OW33325   0.036   2.076  15.428 -0.4825  0.5371  0.3054
 7288SOL    HW133326   4.698   2.030  15.367  0.2261  0.9166 -0.6602
 7288SOL    HW233327   0.062   2.008  15.490 -1.0933 -0.1084 -0.1378
 7289SOL     OW33328   4.388   1.618   4.377  0.5710 -0.0603  0.2016
 7289SOL    HW133329   4.328   1.630   4.450  0.3888 -3.9413  0.6684
 7289SOL    HW233330   4.323   1.603   4.308 -0.0518  1.2063  0.5100
 7290SOL     OW33331   2.644   1.496   9.367 -0.0108  0.0055 -0.0979
 7290SOL    HW133332   2.675   1.526   9.281 -0.2538  1.0748  0.1843
 7290SOL    HW233333   2.712   1.531   9.426  1.0908 -0.2462 -1.2195
 7291SOL     OW33334   3.244   1.205   7.793 -0.0013 -0.3622  0.1513
 7291SOL    HW133335   3.224   1.181   7.884 -1.5089  0.7971  0.1247
 7291SOL    HW233336   3.264   1.298   7.800  1.4981 -0.6052 -1.0873
 7292SOL     OW33337   0.972   1.483   4.106 -0.5565 -0.0839 -0.0244
 7292SOL    HW133338   1.000   1.574   4.114 -0.2153 -0.6662  5.4048
 7292SOL    HW233339   1.017   1.455   4.026  1.1139  0.1430  0.8295
 7293SOL     OW33340   3.216   4.564   3.594 -0.2850 -0.2257  0.4505
 7293SOL    HW133341   3.166   4.503   3.540  0.3730  0.0265 -0.4455
 7293SOL    HW233342   3.169   4.550   3.677 -0.5951  4.0962  0.9800
 7294SOL     OW33343   0.648   2.989  17.117 -0.5267 -0.4418  0.2057
 7294SOL    HW133344   0.665   3.069  17.166 -0.1551  0.0428 -0.7181
 7294SOL    HW233345   0.716   2.930  17.150 -0.0055 -0.0445 -0.1755
 7295SOL     OW33346   1.443   4.151  13.266 -0.4584 -0.0096 -0.1214
 7295SOL    HW133347   1.407   4.193  13.344 -2.8354  0.9974 -1.7318
 7295SOL    HW233348   1.393   4.070  13.265 -2.9842  1.5209  0.1306
 7296SOL     OW33349   1.370   2.554  15.383 -0.5260 -0.0548  0.2248
 7296SOL    HW133350   1.401   2.472  15.423 -1.0575 -0.7123 -0.7052
 7296SOL    HW233351   1.445   2.614  15.391 -1.1512  0.5328  1.6833
 7297SOL     OW33352   3.796   0.122  13.826 -0.3606  0.3297  0.6644
 7297SOL    HW133353   3.807   0.135  13.920  1.6849 -1.4363  0.6686
 7297SOL    HW233354   3.777   0.210  13.794 -0.2513 -0.8063 -2.5150
 7298SOL     OW33355   0.588   2.596  13.515  0.7237 -0.3100 -0.0144
 7298SOL    HW133356   0.572   2.523  13.456 -0.4194 -0.1178  0.0419
 7298SOL    HW233357   0.641   2.654  13.461 -1.7309  2.0835  0.1288
 7299SOL     OW33358   3.827   1.013   4.936 -0.4571 -0.8263  0.2664
 7299SOL    HW133359   3.888   0.974   4.873  0.8545 -0.0773  1.0731
 7299SOL    HW233360   3.788   0.934   4.974 -1.0150 -1.2352 -1.1317
 7300SOL     OW33361   1.426   2.427   4.402  0.4885  0.1228  0.1463
 7300SOL    HW133362   1.353   2.385   4.448  0.0061  0.2312 -0.5231
 7300SOL    HW233363   1.470   2.345   4.377  0.6337 -0.5386  2.6374
 7301SOL     OW33364   4.720   4.138   8.639  0.1729 -0.5927 -0.2754
 7301SOL    HW133365   4.701   4.231   8.648  2.3592 -0.4126  2.2646
 7301SOL    HW233366   0.074   4.124   8.697  0.2867  0.2535 -0.2196
 7302SOL     OW33367   0.160   1.623   5.901  0.2087  0.0695 -0.5636
 7302SOL    HW133368   0.116   1.624   5.986 -0.1528 -1.3913 -0.7357
 7302SOL    HW233369   0.182   1.716   5.895 -0.8637  0.3889  0.3018
 7303SOL     OW33370   4.119   2.845   5.204  0.0660 -0.2251  0.0454
 7303SOL    HW133371   4.025   2.857   5.212  0.1625  1.0460 -0.6081
 7303SOL    HW233372   4.152   2.916   5.260 -1.4303 -0.1055  0.7528
 7304SOL     OW33373   3.330   1.309  15.972 -0.0031 -0.0476 -0.5759
 7304SOL    HW133374   3.251   1.306  15.918  1.3043 -0.6898 -2.4583
 7304SOL    HW233375   3.388   1.242  15.933 -0.9436 -1.5372  0.5753
 7305SOL     OW33376   1.293   4.370   3.579 -0.3752  0.3693 -0.1476
 7305SOL    HW133377   1.344   4.450   3.565 -0.0245 -0.6742 -4.8468
 7305SOL    HW233378   1.283   4.378   3.673  1.0751 -1.1125  0.1328
 7306SOL     OW33379   4.323   2.470   2.430 -0.1506  0.4392 -0.1377
 7306SOL    HW133380   4.243   2.521   2.416  0.8668  2.2577  0.7685
 7306SOL    HW233381   4.311   2.387   2.384 -3.2518 -1.0086  3.2847
 7307SOL     OW33382   3.781   0.198  14.453 -0.3013  0.2445 -0.0948
 7307SOL    HW133383   3.873   0.224  14.453 -0.3542  0.4317 -0.0667
 7307SOL    HW233384   3.776   0.126  14.516  0.4557  1.8297  1.7675
 7308SOL     OW33385   0.828   3.985   3.189  0.3143  0.2668 -0.5055
 7308SOL    HW133386   0.828   3.893   3.164 -0.4711  0.1628 -0.0941
 7308SOL    HW233387   0.735   3.995   3.209  0.0436 -1.0634 -1.0856
 7309SOL     OW33388   0.164   1.972  13.054 -0.1268  0.2808  0.7343
 7309SOL    HW133389   0.168   2.032  13.129  0.8608  3.3738 -1.7748
 7309SOL    HW233390   0.081   1.996  13.013  0.1523 -1.5593 -0.8694
 7310SOL     OW33391   0.025   4.634   3.575  0.0332  0.4003 -0.2988
 7310SOL    HW133392   4.664   4.593   3.606 -0.7545  0.7832 -1.8645
 7310SOL    HW233393   0.019   4.619   3.481 -3.1848 -0.6951  0.0587
 7311SOL     OW33394   1.325   1.466  13.150 -0.6013  0.0281  0.2010
 7311SOL    HW133395   1.398   1.477  13.090  0.9984 -0.2472  2.0935
 7311SOL    HW233396   1.268   1.419  13.090 -0.2386  1.0606 -0.9412
 7312SOL     OW33397   2.952   2.986  17.502 -0.0513 -0.2856 -0.0536
 7312SOL    HW133398   3.039   3.021  17.484  0.4249 -1.7478 -0.5679
 7312SOL    HW233399   2.902   3.035  17.436  1.3952  1.9414  0.4805
 7313SOL     OW33400   0.282   2.533   7.026 -0.1000  0.2184 -0.4036
 7313SOL    HW133401   0.224   2.608   7.020 -0.0163  0.2782 -0.4693
 7313SOL    HW233402   0.308   2.531   7.118 -2.5211  0.0227  0.2732
 7314SOL     OW33403   4.567   4.562  13.758  0.0462 -0.3665  0.4118
 7314SOL    HW133404   4.539   4.517  13.838  1.8641 -2.2729 -0.0311
 7314SOL    HW233405   4.531   4.648  13.782  1.0890 -0.3222  1.8497
 7315SOL     OW33406   0.545   2.353   8.077 -0.1131 -0.8273 -0.1204
 7315SOL    HW133407   0.491   2.339   8.155 -1.1181 -0.8624 -0.8183
 7315SOL    HW233408   0.608   2.284   8.101  0.1775 -0.5030  0.0502
 7316SOL     OW33409   3.278   0.804   4.453  0.2044 -0.7671  0.4127
 7316SOL    HW133410   3.295   0.865   4.525 -2.3813 -1.1359  1.3305
 7316SOL    HW233411   3.211   0.858   4.411  2.3036  0.0288 -1.8772
 7317SOL     OW33412   3.705   2.287   3.306  0.2313 -0.3383  0.4598
 7317SOL    HW133413   3.653   2.263   3.382 -1.5880 -0.7582 -0.9318
 7317SOL    HW233414   3.736   2.203   3.273  0.0804 -0.8387  1.6236
 7318SOL     OW33415   1.734   4.578   9.509 -0.4315  0.6288 -0.3962
 7318SOL    HW133416   1.795   4.586   9.436 -1.1779 -0.4269 -1.1468
 7318SOL    HW233417   1.780   4.521   9.570 -2.2721  0.9728  1.2891
 7319SOL     OW33418   1.342   2.494   6.349 -0.3260  0.4481 -0.4415
 7319SOL    HW133419   1.371   2.557   6.415 -0.9149 -0.1483  0.3871
 7319SOL    HW233420   1.358   2.532   6.262  0.1297 -1.4400 -1.1843
 7320SOL     OW33421   0.943   3.838   4.243  0.0001  0.0404 -0.0389
 7320SOL    HW133422   0.972   3.784   4.169  0.7688  0.8465 -0.3296
 7320SOL    HW233423   0.954   3.924   4.203  0.6914  0.5121  1.1613
 7321SOL     OW33424   3.116   4.214   9.606  0.1150  0.2469 -0.4047
 7321SOL    HW133425   3.105   4.284   9.541 -1.1956  0.1594 -0.2703
 7321SOL    HW233426   3.044   4.152   9.594  1.1703 -1.3424  1.4922
 7322SOL     OW33427   3.704   2.769   3.902  0.4404 -0.1725 -0.2287
 7322SOL    HW133428   3.619   2.741   3.869  1.0715 -1.5595 -0.6800
 7322SOL    HW233429   3.691   2.860   3.929 -2.4838 -1.2109  1.7546
 7323SOL     OW33430   1.395   4.286  12.967 -0.3415 -0.0353  0.3381
 7323SOL    HW133431   1.345   4.353  13.013 -0.3611 -0.3972  0.8409
 7323SOL    HW233432   1.405   4.336  12.886 -0.2665  1.2532  1.1425
 7324SOL     OW33433   3.589   4.232   6.595  0.0729 -0.6877 -0.5553
 7324SOL    HW133434   3.520   4.285   6.633  0.8762  0.9682 -1.4115
 7324SOL    HW233435   3.672   4.277   6.613 -0.2949  0.7505 -2.4624
 7325SOL     OW33436   0.380   4.650  15.783 -0.2040  0.3197  0.4066
 7325SOL    HW133437   0.431   4.581  15.740 -0.1078  0.8571 -0.3437
 7325SOL    HW233438   0.434   0.002  15.751  1.3694 -0.5619  1.0369
 7326SOL     OW33439   1.820   4.376   5.670 -0.5294 -0.1921  0.0042
 7326SOL    HW133440   1.818   4.332   5.755  0.6485  1.1798  0.7473
 7326SOL    HW233441   1.745   4.436   5.678 -0.6057 -0.3944  0.8237
 7327SOL     OW33442   3.434   2.271   0.157  0.5920  0.3196 -0.4437
 7327SOL    HW133443   3.373   2.207   0.195 -0.7496  1.2246 -1.0487
 7327SOL    HW233444   3.503   2.209   0.138  0.1420 -0.5888  0.9249
 7328SOL     OW33445   2.290   3.419   7.602  0.0105 -0.0399  0.4772
 7328SOL    HW133446   2.279   3.511   7.626 -1.2189  0.1382 -0.7428
 7328SOL    HW233447   2.348   3.390   7.672 -0.7808 -0.1942  1.0710
 7329SOL     OW33448   4.194   1.936   1.930 -0.3940  0.0170 -0.3291
 7329SOL    HW133449   4.165   1.987   1.855  0.6862 -0.5440 -1.1270
 7329SOL    HW233450   4.174   1.849   1.897  1.6603  0.2219 -2.0804
 7330SOL     OW33451   1.111   3.302   7.370 -0.0245 -0.0893 -0.3549
 7330SOL    HW133452   1.032   3.355   7.379 -0.1614 -0.2117 -0.8219
 7330SOL    HW233453   1.101   3.240   7.442 -2.0720  0.7772  0.1266
 7331SOL     OW33454   1.303   3.341   8.899 -0.2162 -0.0991  0.3507
 7331SOL    HW133455   1.275   3.406   8.835  0.7927 -0.9243 -0.9232
 7331SOL    HW233456   1.329   3.274   8.835  0.8417  1.3693 -0.7373
 7332SOL     OW33457   3.594   3.390   2.694  0.6431 -0.4012  0.2377
 7332SOL    HW133458   3.646   3.313   2.714  0.8092 -0.5328 -0.6853
 7332SOL    HW233459   3.503   3.361   2.690  0.9044 -1.3209  1.0719
 7333SOL     OW33460   3.537   1.711  17.608  0.2886 -0.3281 -0.3397
 7333SOL    HW133461   3.606   1.647  17.592 -0.8143 -1.9847  1.5689
 7333SOL    HW233462   3.514   1.679   0.009 -1.6298 -1.0881 -1.1290
 7334SOL     OW33463   1.798   3.586   8.446  0.0598  0.1146 -0.7099
 7334SOL    HW133464   1.795   3.585   8.541 -0.2181  0.7041 -0.7138
 7334SOL    HW233465   1.716   3.540   8.429 -0.3481  1.0950 -1.4362
 7335SOL     OW33466   3.924   4.583   1.527 -0.1712  0.1289 -0.4745
 7335SOL    HW133467   3.849   4.546   1.480 -0.7122 -0.6676  1.0325
 7335SOL    HW233468   3.906   4.532   1.606  0.3011  2.0682  0.8815
 7336SOL     OW33469   2.660   3.103   0.193  0.0638 -0.0120 -0.0433
 7336SOL    HW133470   2.667   3.157   0.114  0.8402 -0.6056 -0.3789
 7336SOL    HW233471   2.724   3.035   0.172 -1.1959 -1.1118 -0.3431
 7337SOL     OW33472   2.597   0.252   6.373  0.4932  0.1724 -0.7201
 7337SOL    HW133473   2.587   0.335   6.420  0.5466 -1.4343  2.0606
 7337SOL    HW233474   2.681   0.266   6.327  1.7121  0.6396  1.6692
 7338SOL     OW33475   0.866   4.260   5.318  0.7458 -0.0223 -0.0696
 7338SOL    HW133476   0.854   4.288   5.409 -0.1659  1.2119 -0.5584
 7338SOL    HW233477   0.835   4.344   5.283  0.0494 -0.5056 -0.5967
 7339SOL     OW33478   2.551   4.033   5.416 -0.2146  0.3448 -0.0865
 7339SOL    HW133479   2.506   4.114   5.392  0.8067  1.0059  0.2373
 7339SOL    HW233480   2.477   3.980   5.446 -0.2785  0.2255 -0.4473
 7340SOL     OW33481   1.653   2.761   3.824 -0.5629  0.1546 -0.1518
 7340SOL    HW133482   1.664   2.732   3.733  1.4355  1.7137 -0.3968
 7340SOL    HW233483   1.594   2.694   3.859 -0.6528  0.9956  1.2970
 7341SOL     OW33484   2.505   4.085   2.504 -0.4689  0.0518 -0.0595
 7341SOL    HW133485   2.448   4.010   2.523  1.0341 -1.1418 -0.2151
 7341SOL    HW233486   2.481   4.148   2.572 -1.0186 -1.5051  1.1942
 7342SOL     OW33487   0.206   1.502   8.052 -0.3341 -0.3283 -0.7535
 7342SOL    HW133488   0.284   1.534   8.098  0.5361 -2.6927 -0.5917
 7342SOL    HW233489   0.184   1.584   8.007  0.2665 -0.6862 -1.7043
 7343SOL     OW33490   0.147   1.813   5.591  0.5171 -0.3239  0.2823
 7343SOL    HW133491   0.208   1.886   5.602  3.0148 -2.2430 -0.9037
 7343SOL    HW233492   0.061   1.852   5.607 -0.2287 -1.4550 -0.9835
 7344SOL     OW33493   0.565   1.968   9.771  0.0750 -0.3248 -0.0066
 7344SOL    HW133494   0.615   1.948   9.850  0.8064  1.0405 -0.1227
 7344SOL    HW233495   0.487   2.001   9.816 -0.0324 -0.4079 -0.1320
 7345SOL     OW33496   0.306   2.254   7.454 -0.9856 -0.2990  0.3341
 7345SOL    HW133497   0.239   2.286   7.515  1.3273  2.1412  1.6217
 7345SOL    HW233498   0.291   2.161   7.471 -1.2172 -0.2124  0.6188
 7346SOL     OW33499   3.542   3.612   7.547  0.2083  0.4050 -0.2832
 7346SOL    HW133500   3.589   3.639   7.626  0.6876  1.2821 -0.8727
 7346SOL    HW233501   3.510   3.523   7.563 -0.8576  0.8624  0.1303
 7347SOL     OW33502   4.283   3.323   8.744 -0.5414  0.2549 -0.7531
 7347SOL    HW133503   4.211   3.385   8.756  0.3320  1.1344 -0.0401
 7347SOL    HW233504   4.281   3.298   8.652  0.8044 -1.2285 -0.3808
 7348SOL     OW33505   4.024   2.241   3.125 -1.0690  0.5579 -1.0517
 7348SOL    HW133506   4.051   2.332   3.137  0.7507 -0.1685  0.2903
 7348SOL    HW233507   3.932   2.260   3.105 -1.6795  0.4401  1.5876
 7349SOL     OW33508   3.958   1.185   5.878 -0.1009 -0.0740  0.0351
 7349SOL    HW133509   3.905   1.264   5.868  1.3125  1.1584  2.3487
 7349SOL    HW233510   3.974   1.194   5.972 -0.3957  2.1729 -0.1232
 7350SOL     OW33511   1.148   1.737  12.238  0.0995 -0.1416 -0.3090
 7350SOL    HW133512   1.153   1.730  12.333  0.8766  1.1829 -0.2561
 7350SOL    HW233513   1.232   1.709  12.202  1.6690  1.5947  2.0082
 7351SOL     OW33514   0.106   4.001   9.216  0.5770 -0.4475  0.2833
 7351SOL    HW133515   0.099   3.908   9.238 -0.2648 -0.3108  0.5834
 7351SOL    HW233516   0.071   3.985   9.128 -0.0912 -1.7243  0.7758
 7352SOL     OW33517   0.300   2.321  12.919 -0.1300 -0.2290 -0.5832
 7352SOL    HW133518   0.339   2.233  12.916 -1.1130 -0.7189  1.0703
 7352SOL    HW233519   0.382   2.368  12.906 -1.3237  1.7156 -1.0185
 7353SOL     OW33520   3.988   2.973   1.999 -0.4743 -0.0505 -0.2022
 7353SOL    HW133521   4.065   2.918   1.984 -0.6095  0.2458 -2.0629
 7353SOL    HW233522   4.014   3.051   1.949  0.1673  0.2500  0.6096
 7354SOL     OW33523   4.116   4.294   4.545  0.0783  0.1257  0.2592
 7354SOL    HW133524   4.068   4.267   4.624  0.3899  1.1182  0.7782
 7354SOL    HW233525   4.180   4.225   4.525 -2.2158 -1.4537 -1.7204
 7355SOL     OW33526   3.377   4.376   3.805 -0.2267  0.3901  0.4722
 7355SOL    HW133527   3.423   4.372   3.889 -0.9487 -0.5210  0.8318
 7355SOL    HW233528   3.316   4.302   3.813 -0.7415  1.0221  2.3240
 7356SOL     OW33529   4.350   2.832   8.614 -0.1432 -0.1088 -0.4561
 7356SOL    HW133530   4.334   2.924   8.595 -2.0698  0.1062  2.3337
 7356SOL    HW233531   4.443   2.819   8.634 -0.1693  0.0835 -0.2156
 7357SOL     OW33532   3.639   3.992   5.544 -0.3657  0.1571  0.0230
 7357SOL    HW133533   3.676   3.945   5.618 -0.8795 -1.2747 -0.6364
 7357SOL    HW233534   3.583   3.919   5.517 -0.0511  0.8915 -2.6188
 7358SOL     OW33535   4.060   4.533   3.207 -0.2021 -0.0791  0.1969
 7358SOL    HW133536   4.022   4.559   3.123 -0.1711 -0.1083  0.1736
 7358SOL    HW233537   4.106   4.453   3.181  1.0631  0.2035  1.6428
 7359SOL     OW33538   3.956   3.411   4.702  0.1859  0.7057 -0.1986
 7359SOL    HW133539   4.016   3.366   4.761 -1.3943 -0.2262  0.6870
 7359SOL    HW233540   4.004   3.492   4.688  0.8046 -0.0089 -2.2121
 7360SOL     OW33541   3.975   0.945   3.999  0.5158  0.1275  0.3047
 7360SOL    HW133542   4.017   0.925   4.083  0.4962  0.4233  0.3856
 7360SOL    HW233543   4.046   0.988   3.952 -0.9114  0.8030 -1.2085
 7361SOL     OW33544   2.207   1.772   7.456  0.2017  0.1707  0.3024
 7361SOL    HW133545   2.165   1.758   7.371 -1.7906  0.4668  1.2511
 7361SOL    HW233546   2.230   1.865   7.454  1.0490  0.0375  3.5002
 7362SOL     OW33547   0.417   0.453   7.034 -0.3113  0.4801  0.2057
 7362SOL    HW133548   0.433   0.406   6.953 -0.0698  0.6871  0.1333
 7362SOL    HW233549   0.505   0.469   7.068  0.0809 -0.6573 -0.2823
 7363SOL     OW33550   3.102   4.438   1.053  0.7062 -0.1365 -0.2664
 7363SOL    HW133551   3.180   4.408   1.100  0.1303 -0.6817  0.3361
 7363SOL    HW233552   3.050   4.480   1.121  0.0135  0.4350 -1.1515
 7364SOL     OW33553   2.181   4.588  17.633 -0.2105 -0.3479 -0.4945
 7364SOL    HW133554   2.175   4.628  17.547  0.0840  1.7294  0.4342
 7364SOL    HW233555   2.089   4.560  17.638 -0.9996  2.7693  2.4986
 7365SOL     OW33556   0.960   4.616   5.711 -0.5374 -0.4654  0.0763
 7365SOL    HW133557   1.010   4.695   5.731  2.4683 -2.2717 -0.2730
 7365SOL    HW233558   1.016   4.588   5.638 -1.4870 -0.3290 -0.7046
 7366SOL     OW33559   4.426   3.886   4.360 -0.2662 -0.4470  0.0938
 7366SOL    HW133560   4.334   3.908   4.376 -1.0395 -2.4243 -1.6509
 7366SOL    HW233561   4.469   3.945   4.421  2.3149 -0.3917 -1.7609
 7367SOL     OW33562   1.412   1.117   8.996  0.4293 -0.0409 -0.3310
 7367SOL    HW133563   1.397   1.111   8.902 -0.5627  0.4227 -0.2110
 7367SOL    HW233564   1.334   1.157   9.035 -0.3368 -0.0675 -1.8209
 7368SOL     OW33565   2.232   3.015  14.109  0.0740 -0.1097 -0.0191
 7368SOL    HW133566   2.230   2.929  14.153 -1.5665 -0.3205 -0.5074
 7368SOL    HW233567   2.155   3.064  14.135 -0.5964 -0.8616 -0.5721
 7369SOL     OW33568   4.314   3.251   1.153 -0.0217  0.1126  0.0256
 7369SOL    HW133569   4.387   3.223   1.098 -0.7461  2.1334 -1.9884
 7369SOL    HW233570   4.243   3.266   1.090  1.1855 -0.5857 -1.4835
 7370SOL     OW33571   3.085   3.837   7.303 -0.0675  0.7398 -0.3615
 7370SOL    HW133572   3.154   3.892   7.267  0.0011  0.0078 -1.3365
 7370SOL    HW233573   3.104   3.753   7.262 -0.2084 -0.1185  1.3042
 7371SOL     OW33574   0.090   2.024  11.780 -0.8084  0.7059 -0.2443
 7371SOL    HW133575   0.120   1.951  11.725 -1.1691  0.9228 -0.7213
 7371SOL    HW233576   0.100   2.101  11.724 -2.4054  0.8084 -0.3822
 7372SOL     OW33577   2.713   2.696   0.014 -0.4768 -0.3531  0.2412
 7372SOL    HW133578   2.666   2.698  17.616 -1.3780 -0.4442  0.7512
 7372SOL    HW233579   2.714   2.600   0.016 -0.5724 -0.3970 -1.3375
 7373SOL     OW33580   3.002   3.246   3.256  0.0990  0.3410  0.6548
 7373SOL    HW133581   2.953   3.250   3.174 -1.0486  0.9356  1.3833
 7373SOL    HW233582   2.936   3.232   3.323  1.0959 -0.0661  1.5546
 7374SOL     OW33583   3.185   1.304  15.422 -0.0620 -0.6100  0.6649
 7374SOL    HW133584   3.267   1.336  15.460 -0.0448 -1.2742  1.1894
 7374SOL    HW233585   3.115   1.340  15.476 -0.5665  0.0049 -0.3962
 7375SOL     OW33586   4.720   0.292   2.717  1.0984  0.3713  0.6407
 7375SOL    HW133587   4.660   0.339   2.776  0.0186 -0.6497  0.3445
 7375SOL    HW233588   4.696   0.328   2.632  1.1702 -0.5355  0.2463
 7376SOL     OW33589   1.721   0.819   1.205 -0.5210 -0.0424  0.1833
 7376SOL    HW133590   1.764   0.899   1.174  2.5222 -1.3541  0.9817
 7376SOL    HW233591   1.734   0.751   1.138 -0.0649  0.8446 -0.6257
 7377SOL     OW33592   2.705   3.755  17.564 -0.0097  0.9386  0.1565
 7377SOL    HW133593   2.749   3.813  17.627  2.4004 -1.3958  0.6044
 7377SOL    HW233594   2.613   3.778  17.553 -0.2709 -1.0746 -1.7343
 7378SOL     OW33595   0.226   0.019   1.556 -0.2489  0.2903 -0.5746
 7378SOL    HW133596   0.240   0.113   1.545 -0.4999  0.2086 -1.6073
 7378SOL    HW233597   0.130   0.023   1.556 -0.2270  0.9569 -0.4952
 7379SOL     OW33598   4.244   0.470   3.350 -0.4260  0.1424  0.0277
 7379SOL    HW133599   4.270   0.554   3.389 -0.4444  0.9383 -1.6636
 7379SOL    HW233600   4.159   0.454   3.391 -1.1688  0.4790 -1.3654
 7380SOL     OW33601   3.622   2.062   6.545  0.1465 -0.5575  0.0100
 7380SOL    HW133602   3.702   2.026   6.585 -1.2062  0.6966  3.8832
 7380SOL    HW233603   3.646   2.154   6.536 -0.1433 -0.6568 -1.6399
 7381SOL     OW33604   3.272   2.322   6.546 -0.1841  0.3201 -0.3476
 7381SOL    HW133605   3.257   2.416   6.546  1.9109  0.6323  0.0184
 7381SOL    HW233606   3.259   2.300   6.454  0.3453 -1.8536  0.0895
 7382SOL     OW33607   3.489   4.034  15.177 -0.1007 -0.3707 -0.7346
 7382SOL    HW133608   3.557   3.994  15.122 -0.4938 -1.0362 -0.7286
 7382SOL    HW233609   3.463   3.975  15.248 -2.7396  1.2804 -0.3395
 7383SOL     OW33610   0.187   0.668   6.195  0.2858  0.7517  0.5662
 7383SOL    HW133611   0.141   0.751   6.194  1.3889  1.3331 -1.2071
 7383SOL    HW233612   0.135   0.620   6.130 -2.9879 -0.5369  4.1602
 7384SOL     OW33613   1.566   1.532   6.825 -0.3329  0.2843 -0.5404
 7384SOL    HW133614   1.486   1.524   6.774 -0.1949 -1.3244 -0.4948
 7384SOL    HW233615   1.596   1.622   6.809 -1.0672  0.3800 -1.3589
 7385SOL     OW33616   3.510   1.489   7.334 -0.0999 -0.2487  0.1183
 7385SOL    HW133617   3.516   1.451   7.422 -0.6383 -0.8840 -0.1156
 7385SOL    HW233618   3.422   1.456   7.315 -0.0425 -0.4462  0.1946
 7386SOL     OW33619   3.803   0.286   4.428 -0.7441 -0.2997  0.0651
 7386SOL    HW133620   3.886   0.240   4.413 -1.1985 -1.1603  0.1948
 7386SOL    HW233621   3.802   0.279   4.523  0.6035 -1.2159  0.0169
 7387SOL     OW33622   4.106   3.717  16.913 -0.5784 -0.1137 -0.0484
 7387SOL    HW133623   4.152   3.718  16.829 -0.4645  1.4219  0.0268
 7387SOL    HW233624   4.092   3.622  16.916  1.8833 -0.4605  0.8030
 7388SOL     OW33625   3.769   0.016   7.639 -0.1542  0.0458  0.3292
 7388SOL    HW133626   3.789   0.013   7.733 -1.2265 -0.6703  0.5245
 7388SOL    HW233627   3.835   4.678   7.601  0.2642  1.3805 -1.0428
 7389SOL     OW33628   0.120   1.330  16.938  0.6030 -0.2151  0.1515
 7389SOL    HW133629   0.047   1.271  16.922 -1.1366  1.8781  0.4065
 7389SOL    HW233630   0.135   1.306  17.029  1.0530 -2.1933 -0.4521
 7390SOL     OW33631   4.538   1.867   2.736  0.2668 -0.6644 -0.3031
 7390SOL    HW133632   4.464   1.917   2.700  1.9793  0.8814 -1.7235
 7390SOL    HW233633   4.605   1.929   2.706 -0.4634  0.7103  0.9013
 7391SOL     OW33634   0.223   2.080   4.693  0.0357 -0.2602  0.0436
 7391SOL    HW133635   0.273   2.119   4.621 -1.2337  1.0948 -0.1036
 7391SOL    HW233636   0.142   2.130   4.681  0.5838  0.8587  0.9851
 7392SOL     OW33637   1.934   0.092   7.277 -0.1811  0.2988 -0.0797
 7392SOL    HW133638   2.009   0.127   7.326  0.8628 -0.0469 -1.4079
 7392SOL    HW233639   1.894   0.047   7.351  1.1553 -0.3369  0.2562
 7393SOL     OW33640   2.776   1.603   2.482  0.2142 -0.0851 -0.3386
 7393SOL    HW133641   2.694   1.575   2.522 -0.1894  3.0543  1.0082
 7393SOL    HW233642   2.802   1.683   2.527 -0.1930 -1.0751  1.6327
 7394SOL     OW33643   2.208   0.061  10.560 -0.2324 -0.0496 -0.0313
 7394SOL    HW133644   2.158   0.134  10.597 -0.9474  0.1847 -1.4638
 7394SOL    HW233645   2.153   0.027  10.489  0.2514 -1.5673  0.3369
 7395SOL     OW33646   4.705   4.124   6.380  0.4566 -0.5365  0.0696
 7395SOL    HW133647   0.052   4.089   6.437  0.6255 -3.2143 -1.7814
 7395SOL    HW233648   0.038   4.140   6.303  1.9165  0.5790  1.3367
 7396SOL     OW33649   1.798   1.969   0.443 -0.1058  0.0487  0.1925
 7396SOL    HW133650   1.806   2.059   0.412  0.4615 -0.2869 -0.6320
 7396SOL    HW233651   1.707   1.975   0.470 -0.2334 -0.6058 -0.0988
 7397SOL     OW33652   2.892   3.653   3.124  0.5614 -0.5575  0.5249
 7397SOL    HW133653   2.980   3.621   3.106  0.8849  1.1721 -0.9096
 7397SOL    HW233654   2.913   3.736   3.167  1.5457  0.7537 -2.4782
 7398SOL     OW33655   1.155   3.034   2.771 -0.2946 -0.3697 -0.0902
 7398SOL    HW133656   1.086   3.032   2.705 -0.8068 -1.5045  0.4867
 7398SOL    HW233657   1.118   2.994   2.850 -0.3716 -3.1063 -1.5156
 7399SOL     OW33658   4.209   1.177   3.047  0.3611 -0.0677  0.1160
 7399SOL    HW133659   4.171   1.264   3.040 -0.9323 -0.8093 -2.3010
 7399SOL    HW233660   4.293   1.197   3.088  0.8162 -0.6939 -0.4955
 7400SOL     OW33661   4.720   2.368   7.964 -0.9963  0.5369 -0.5227
 7400SOL    HW133662   0.018   2.274   7.953 -0.5088  0.5435  0.2645
 7400SOL    HW233663   0.027   2.378   8.055  0.8322  2.2741 -1.2823
 7401SOL     OW33664   2.921   2.045  11.228  0.4808  0.3967  0.0453
 7401SOL    HW133665   2.970   1.966  11.204  0.5711  0.8298 -1.1797
 7401SOL    HW233666   2.831   2.020  11.206  0.6561 -0.7305  0.5945
 7402SOL     OW33667   0.185   0.486   8.879  0.1830 -0.6336 -0.4876
 7402SOL    HW133668   0.170   0.470   8.973  1.2701 -0.7529 -0.3326
 7402SOL    HW233669   0.250   0.557   8.881  0.2424 -0.6661 -1.3797
 7403SOL     OW33670   1.012   0.639   4.949  0.0463 -0.0174 -0.4320
 7403SOL    HW133671   0.926   0.682   4.942  1.0387  2.0176  0.0809
 7403SOL    HW233672   1.069   0.704   4.908  0.4886  0.5523  1.1146
 7404SOL     OW33673   1.181   1.360  11.086 -0.1608 -0.1322 -0.1625
 7404SOL    HW133674   1.144   1.322  11.165 -2.8344  3.0402  0.1291
 7404SOL    HW233675   1.237   1.287  11.059  0.2002  0.4549 -1.0247
 7405SOL     OW33676   0.992   4.345   7.732 -0.1544  0.1434 -0.1183
 7405SOL    HW133677   0.971   4.265   7.684  0.5300 -0.2638  0.2494
 7405SOL    HW233678   0.907   4.388   7.742 -1.8299 -2.9561 -1.0539
 7406SOL     OW33679   2.802   1.943   4.981 -0.1060  0.4522  0.0889
 7406SOL    HW133680   2.766   1.885   5.047 -0.2015 -0.6755 -0.9447
 7406SOL    HW233681   2.754   1.918   4.901  1.3771  2.8280 -1.5401
 7407SOL     OW33682   2.172   1.908   8.316 -0.3354  0.2096  0.2797
 7407SOL    HW133683   2.114   1.871   8.383  0.9132 -0.0953  1.1815
 7407SOL    HW233684   2.194   1.823   8.276  0.9653  0.8230 -0.3068
 7408SOL     OW33685   4.093   2.570   5.172  0.4873  0.4209  0.2521
 7408SOL    HW133686   4.171   2.521   5.197 -0.0780 -0.2219  0.7748
 7408SOL    HW233687   4.119   2.662   5.177 -0.5596  0.7322 -0.0408
 7409SOL     OW33688   3.039   1.563   7.182  0.1338  0.1848  0.1369
 7409SOL    HW133689   3.027   1.542   7.089  0.1293 -1.8677  0.6043
 7409SOL    HW233690   3.000   1.650   7.178 -0.7108 -0.2572 -1.0876
 7410SOL     OW33691   0.965   4.141   1.414 -0.3911  0.6932 -0.0698
 7410SOL    HW133692   0.972   4.046   1.415 -0.3462  0.7171  1.0541
 7410SOL    HW233693   1.042   4.164   1.360  0.6999 -0.9011  0.8192
 7411SOL     OW33694   0.823   4.156  12.372 -0.0132 -0.2113  0.2196
 7411SOL    HW133695   0.776   4.075  12.391  1.3009 -0.5587  1.9773
 7411SOL    HW233696   0.874   4.157  12.453 -0.5788 -0.3671  0.5802
 7412SOL     OW33697   4.239   2.118   0.700 -0.2149  0.1541  0.3003
 7412SOL    HW133698   4.287   2.101   0.781  1.0179 -1.7096 -0.8175
 7412SOL    HW233699   4.279   2.068   0.629  1.0870  2.4429 -0.5745
 7413SOL     OW33700   3.198   4.134   4.730 -0.2377  0.0600 -0.2600
 7413SOL    HW133701   3.215   4.151   4.823 -3.3883 -2.1407  0.7190
 7413SOL    HW233702   3.226   4.045   4.711 -3.5294 -0.6895 -1.5557
 7414SOL     OW33703   4.616   0.561   4.437 -0.0193 -0.2540  0.3305
 7414SOL    HW133704   4.557   0.576   4.363 -0.7813 -1.6444  0.6717
 7414SOL    HW233705   4.684   0.627   4.421 -0.1417 -0.5728 -1.5608
 7415SOL     OW33706   4.354   0.345   6.081  0.1820 -0.3138  0.2471
 7415SOL    HW133707   4.377   0.283   6.011  1.7974  1.2834 -0.6305
 7415SOL    HW233708   4.375   0.297   6.161 -1.9867  0.0917  1.0551
 7416SOL     OW33709   1.591   1.683   9.223 -0.3888 -0.1689  0.1183
 7416SOL    HW133710   1.510   1.640   9.197  0.0726  0.0099 -1.6294
 7416SOL    HW233711   1.609   1.739   9.147 -0.6840 -0.9152 -0.5002
 7417SOL     OW33712   3.451   0.284   4.217 -0.1335  0.3582  0.1219
 7417SOL    HW133713   3.452   0.311   4.125  0.5900  2.9423  0.8855
 7417SOL    HW233714   3.388   0.348   4.252 -0.8260  0.0987 -0.6431
 7418SOL     OW33715   2.946   3.114   7.848  0.9983  0.1957 -0.1248
 7418SOL    HW133716   2.945   3.207   7.869 -1.4082  0.6744 -2.3247
 7418SOL    HW233717   2.987   3.078   7.926  2.9515  2.9339  0.1265
 7419SOL     OW33718   3.827   1.544   0.805  0.2301 -0.2112  0.6006
 7419SOL    HW133719   3.814   1.459   0.763 -0.1126 -0.1868  0.6529
 7419SOL    HW233720   3.903   1.569   0.753 -0.3840  1.5081  0.5169
 7420SOL     OW33721   3.082   3.786  16.784 -0.6532  0.2872 -0.0663
 7420SOL    HW133722   3.024   3.822  16.852 -1.0233 -1.8968  0.7575
 7420SOL    HW233723   3.158   3.842  16.804 -1.7365  0.9844  2.0384
 7421SOL     OW33724   1.838   3.062  12.410 -0.1374 -0.5180 -0.5354
 7421SOL    HW133725   1.845   3.054  12.314  1.7877 -0.1480 -0.4303
 7421SOL    HW233726   1.930   3.071  12.436  0.0885  0.4379 -1.6236
 7422SOL     OW33727   1.271   2.564  10.932 -0.2500 -0.1539 -0.0882
 7422SOL    HW133728   1.361   2.574  10.963 -0.0921  1.2626 -0.9731
 7422SOL    HW233729   1.229   2.526  11.009  0.6797 -0.6147  0.1899
 7423SOL     OW33730   3.313   1.307  10.895  0.1287 -0.3193 -0.2158
 7423SOL    HW133731   3.395   1.346  10.863 -0.8268  0.7319 -1.3753
 7423SOL    HW233732   3.257   1.385  10.898 -0.3871 -0.6986  0.0108
 7424SOL     OW33733   1.445   0.148   2.193 -0.6360 -0.2671 -0.3190
 7424SOL    HW133734   1.486   0.163   2.108  0.1012  1.1711  0.2873
 7424SOL    HW233735   1.373   0.097   2.155  0.6427 -0.4441 -2.5119
 7425SOL     OW33736   0.197   4.143   3.699 -0.7630 -0.4393  0.0689
 7425SOL    HW133737   0.264   4.147   3.630 -1.4929  1.0366 -0.5459
 7425SOL    HW233738   0.116   4.168   3.655 -0.0443 -0.8215 -1.4635
 7426SOL     OW33739   0.448   0.953   8.577 -0.6310  0.7952 -0.2680
 7426SOL    HW133740   0.440   0.858   8.587 -3.1490  1.1844  1.6033
 7426SOL    HW233741   0.358   0.974   8.551 -0.1532  0.7529 -1.9115
 7427SOL     OW33742   0.439   1.420   7.912 -0.2218  0.2698  0.4125
 7427SOL    HW133743   0.503   1.426   7.983 -0.8454 -0.7590  1.0612
 7427SOL    HW233744   0.357   1.461   7.937  0.6384  2.5421 -0.4963
 7428SOL     OW33745   0.099   4.311   8.215 -0.0511  0.7978  0.2548
 7428SOL    HW133746   0.181   4.339   8.173  0.0941  0.8455  0.5725
 7428SOL    HW233747   0.079   4.226   8.175  0.6622  1.6503 -1.9693
 7429SOL     OW33748   1.554   1.543   1.571  0.6042  0.0554 -0.2798
 7429SOL    HW133749   1.640   1.584   1.583  0.5651  0.0638 -0.0319
 7429SOL    HW233750   1.512   1.611   1.518  0.7101  0.9665  0.8002
 7430SOL     OW33751   4.251   3.894   9.176  0.1123 -0.3721  0.0965
 7430SOL    HW133752   4.298   3.828   9.125 -0.3005 -1.3599  0.9935
 7430SOL    HW233753   4.202   3.848   9.244 -0.0953 -0.7394 -0.3013
 7431SOL     OW33754   0.431   4.614  17.670 -0.4262  0.0128 -0.0925
 7431SOL    HW133755   0.391   4.554  17.607  0.2488  0.4522 -0.9490
 7431SOL    HW233756   0.406   4.567   0.064 -1.3013  1.6552  0.5977
 7432SOL     OW33757   0.457   2.760   1.597  0.3186  0.7130 -0.1415
 7432SOL    HW133758   0.372   2.738   1.636  0.4291 -2.2536 -1.5962
 7432SOL    HW233759   0.466   2.849   1.632  0.3029  0.3564  0.7790
 7433SOL     OW33760   0.773   0.418   3.805 -0.2352 -0.3162 -0.3953
 7433SOL    HW133761   0.855   0.442   3.847 -0.7523  0.6148  0.0738
 7433SOL    HW233762   0.744   0.481   3.739  0.8974 -1.1000 -1.6342
 7434SOL     OW33763   0.873   3.138   0.723  0.1703 -0.6707 -0.0838
 7434SOL    HW133764   0.778   3.153   0.719  0.5506  1.5341 -0.6108
 7434SOL    HW233765   0.901   3.109   0.637 -0.4266  0.9555 -0.8108
 7435SOL     OW33766   4.532   3.723   8.096  0.1806 -0.3060  0.6885
 7435SOL    HW133767   4.551   3.698   8.186 -0.0474 -0.8787  0.5813
 7435SOL    HW233768   4.554   3.816   8.097  0.2205 -0.2915 -1.0670
 7436SOL     OW33769   0.217   3.724   6.691 -0.0691 -0.0817 -0.0569
 7436SOL    HW133770   0.136   3.714   6.640 -0.1536 -0.1944  0.1015
 7436SOL    HW233771   0.274   3.656   6.656  0.5055  1.5376 -2.2745
 7437SOL     OW33772   3.996   2.993   7.948 -0.0139 -0.2275 -0.0380
 7437SOL    HW133773   4.049   2.984   8.027  0.2810  1.5853 -0.0207
 7437SOL    HW233774   3.942   2.915   7.961 -0.0757 -0.2311 -0.3146
 7438SOL     OW33775   3.065   4.425  17.226 -0.0541  0.1596 -1.1703
 7438SOL    HW133776   3.144   4.451  17.178  1.4266  0.5920  1.4860
 7438SOL    HW233777   3.095   4.441  17.315 -1.9734 -0.1500 -0.4844
 7439SOL     OW33778   3.115   1.597  11.377 -0.4693  0.2374 -0.2753
 7439SOL    HW133779   3.089   1.539  11.448  1.5823  0.4731  0.6625
 7439SOL    HW233780   3.197   1.632  11.411 -1.1672  2.8502 -1.2820
 7440SOL     OW33781   1.329   4.447   9.166  0.5794 -0.0968 -0.4208
 7440SOL    HW133782   1.369   4.363   9.188 -0.2456 -0.4650 -0.3240
 7440SOL    HW233783   1.348   4.503   9.242  2.7087  0.2450 -1.1915
 7441SOL     OW33784   2.750   3.915  15.655 -0.5924  0.0100 -0.2762
 7441SOL    HW133785   2.729   3.964  15.734 -0.6541 -0.0774 -0.2380
 7441SOL    HW233786   2.718   3.971  15.584 -1.1728 -1.8670 -1.5146
 7442SOL     OW33787   0.195   2.949   2.748 -0.5099 -0.2075  0.3567
 7442SOL    HW133788   0.201   2.943   2.844  0.6563 -2.2919  0.1727
 7442SOL    HW233789   0.271   2.897   2.720  0.8336  1.4583  0.9035
 7443SOL     OW33790   4.274   0.161   6.303  0.2678  0.1323  0.0777
 7443SOL    HW133791   4.293   0.074   6.266 -0.8532 -0.9138  1.9624
 7443SOL    HW233792   4.190   0.170   6.259 -0.3785  1.9063  1.6930
 7444SOL     OW33793   1.548   4.121  15.012 -0.2241  0.2780 -0.4453
 7444SOL    HW133794   1.544   4.113  14.917 -2.7975 -3.9470  0.0175
 7444SOL    HW233795   1.550   4.216  15.016 -0.9425  0.3464 -1.8648
 7445SOL     OW33796   4.312   3.190   7.973  0.3333  0.1056  0.4974
 7445SOL    HW133797   4.397   3.224   7.946 -0.8434  2.1514 -0.6211
 7445SOL    HW233798   4.337   3.112   8.022 -2.5167 -0.6991  0.6639
 7446SOL     OW33799   2.037   3.011   4.636  0.2639  0.1350 -0.0522
 7446SOL    HW133800   2.046   3.093   4.588 -1.1699  0.5928  0.4893
 7446SOL    HW233801   2.077   2.948   4.576 -0.8793 -0.5240 -0.1241
 7447SOL     OW33802   1.127   3.891   1.944 -0.1904 -0.1033  0.0719
 7447SOL    HW133803   1.076   3.904   1.864 -1.9720  1.3378  1.4757
 7447SOL    HW233804   1.205   3.936   1.912 -1.1911  2.1054  0.7775
 7448SOL     OW33805   2.800   1.815  14.896 -0.9558  0.3491 -0.1477
 7448SOL    HW133806   2.745   1.766  14.956  2.3247 -2.8713  0.2175
 7448SOL    HW233807   2.809   1.758  14.819 -0.4255  1.5193 -0.9612
 7449SOL     OW33808   2.120   4.110   3.989  0.8741 -0.1370 -0.6463
 7449SOL    HW133809   2.149   4.057   4.063 -0.5698 -0.7093 -0.4890
 7449SOL    HW233810   2.034   4.134   4.025  1.6143  2.2486 -0.4829
 7450SOL     OW33811   3.029   3.470  14.829 -0.1137  0.7400  0.7449
 7450SOL    HW133812   3.121   3.482  14.808  0.2657 -0.6837  1.6136
 7450SOL    HW233813   3.044   3.473  14.923 -0.9075  1.6767  0.8404
 7451SOL     OW33814   1.674   3.606  16.232 -0.2691  0.3002  0.3812
 7451SOL    HW133815   1.699   3.540  16.297 -2.0985  0.8834  1.6911
 7451SOL    HW233816   1.719   3.685  16.262 -0.2537 -0.2399  1.8136
 7452SOL     OW33817   2.399   0.833   2.808  0.1872  0.4059 -0.4901
 7452SOL    HW133818   2.374   0.923   2.786  1.0225  0.5599 -0.8292
 7452SOL    HW233819   2.398   0.793   2.721  0.1945 -0.7784  0.0542
 7453SOL     OW33820   2.670   1.617   8.436 -0.2070  0.1737  0.1394
 7453SOL    HW133821   2.726   1.568   8.376 -0.9274  2.5504 -2.4092
 7453SOL    HW233822   2.645   1.697   8.390 -0.4332  0.7570  1.2729
 7454SOL     OW33823   3.419   3.140   8.583  0.4250  0.3700 -0.1547
 7454SOL    HW133824   3.454   3.197   8.514 -0.5173  0.6956 -0.3582
 7454SOL    HW233825   3.326   3.140   8.559  0.3865 -0.4133  0.0234
 7455SOL     OW33826   0.511   2.581   4.055 -0.7785 -0.4346  0.5497
 7455SOL    HW133827   0.445   2.622   3.998  1.2441  1.4204 -0.4747
 7455SOL    HW233828   0.478   2.492   4.063  0.4721 -0.9378  0.1127
 7456SOL     OW33829   2.761   3.317   2.346  0.4102  0.0700  0.0870
 7456SOL    HW133830   2.821   3.349   2.278 -1.1271 -0.6234 -1.5961
 7456SOL    HW233831   2.680   3.293   2.301  0.8346 -3.0050  1.0004
 7457SOL     OW33832   4.699   0.802   6.879  0.6307 -0.6539 -0.4024
 7457SOL    HW133833   4.682   0.840   6.965 -0.7503 -3.0011  0.3514
 7457SOL    HW233834   4.617   0.754   6.868  0.9118 -1.3078  0.3307
 7458SOL     OW33835   3.863   0.227   6.345 -0.0594  0.0839  0.0735
 7458SOL    HW133836   3.788   0.251   6.400 -0.4709 -0.0487 -0.4248
 7458SOL    HW233837   3.922   0.187   6.409  0.7655  0.7939 -0.2551
 7459SOL     OW33838   3.232   2.890   8.774 -0.6050  0.2284  0.3490
 7459SOL    HW133839   3.202   2.909   8.685 -1.0616 -1.0807  0.2195
 7459SOL    HW233840   3.327   2.887   8.764 -0.3982  0.8142  2.1812
 7460SOL     OW33841   3.535   2.133  17.540 -0.0699  0.4171 -0.3915
 7460SOL    HW133842   3.574   2.053  17.505 -0.8832 -0.7974  1.5019
 7460SOL    HW233843   3.593   2.141  17.615 -0.4621  2.8644 -0.3561
 7461SOL     OW33844   0.999   3.370   6.601  0.0483 -0.1449  0.0077
 7461SOL    HW133845   1.074   3.350   6.544  2.6064  1.2500  2.9115
 7461SOL    HW233846   0.958   3.442   6.554 -0.5831  2.1004  4.0264
 7462SOL     OW33847   1.590   1.097   4.631  0.4557  0.3444  0.4350
 7462SOL    HW133848   1.666   1.156   4.636  0.9188 -0.2561  0.4165
 7462SOL    HW233849   1.513   1.139   4.593 -0.3304  0.0760  1.7258
 7463SOL     OW33850   3.542   3.942   9.603  0.4671  0.4197 -0.5780
 7463SOL    HW133851   3.514   3.973   9.689 -0.5916 -0.2487 -0.6812
 7463SOL    HW233852   3.470   3.887   9.571  1.2218 -2.0736  2.0076
 7464SOL     OW33853   0.903   1.393  16.922 -0.4888 -0.0224 -0.4579
 7464SOL    HW133854   0.886   1.487  16.932 -1.1069  0.0016 -1.7273
 7464SOL    HW233855   0.854   1.383  16.840 -3.0609 -1.8100  1.3206
 7465SOL     OW33856   4.273   0.391   8.642 -0.0157  0.4682  0.0584
 7465SOL    HW133857   4.219   0.445   8.700  1.0210  0.1665  1.3291
 7465SOL    HW233858   4.359   0.398   8.684 -0.9629 -2.3458  2.5232
 7466SOL     OW33859   2.086   3.102   9.098 -0.2791 -0.3130  0.3800
 7466SOL    HW133860   1.998   3.123   9.128 -0.4975 -0.5697 -0.0947
 7466SOL    HW233861   2.119   3.181   9.055 -4.3224  1.3877  0.4371
 7467SOL     OW33862   3.049   3.732   4.272  0.2207 -0.3757  0.0672
 7467SOL    HW133863   3.065   3.763   4.362  0.8415  0.4392 -0.3222
 7467SOL    HW233864   2.992   3.659   4.297  0.6953 -0.5581  0.6134
 7468SOL     OW33865   0.316   3.229  10.081  0.2629 -0.3780  0.2346
 7468SOL    HW133866   0.399   3.197  10.044  0.0669 -2.5827  1.6768
 7468SOL    HW233867   0.270   3.153  10.117  0.1113  0.5084  1.9236
 7469SOL     OW33868   0.285   1.969   7.185  0.0522 -0.2382  0.1591
 7469SOL    HW133869   0.332   1.889   7.162  0.9735  0.2143  0.4514
 7469SOL    HW233870   0.292   1.965   7.280  1.9133 -1.0838  0.0037
 7470SOL     OW33871   1.080   1.963   3.831 -0.5335 -0.0005  0.0668
 7470SOL    HW133872   1.004   2.014   3.807 -2.0039 -1.4826  1.5659
 7470SOL    HW233873   1.085   1.893   3.766 -0.0884 -1.2633  1.4617
 7471SOL     OW33874   0.740   3.088   7.669  0.7370  0.0882 -0.8770
 7471SOL    HW133875   0.741   3.048   7.582  0.9953  2.9317 -2.1947
 7471SOL    HW233876   0.829   3.118   7.689  0.5330  0.1717 -0.0915
 7472SOL     OW33877   4.059   2.749   7.692  0.0934 -0.0928 -0.4423
 7472SOL    HW133878   3.993   2.687   7.660 -0.6243 -0.0188  0.8584
 7472SOL    HW233879   4.041   2.744   7.786  1.0136 -2.3508 -0.3831
 7473SOL     OW33880   2.324   3.624  13.594  0.0808  0.0238 -0.1977
 7473SOL    HW133881   2.376   3.569  13.536 -0.4258 -1.1489  0.4596
 7473SOL    HW233882   2.295   3.693  13.534  0.5634 -0.2461 -0.7357
 7474SOL     OW33883   0.427   3.950  11.558 -0.1200 -0.0103 -0.6518
 7474SOL    HW133884   0.427   3.960  11.653  2.9454  0.2041 -0.6675
 7474SOL    HW233885   0.499   4.011  11.541  1.0114 -1.5987 -1.7222
 7475SOL     OW33886   0.585   1.949  13.993  0.4395  0.1333 -0.2525
 7475SOL    HW133887   0.522   2.020  13.979  0.8191  0.3443 -0.8957
 7475SOL    HW233888   0.539   1.892  14.055  0.7107  1.0446  0.7791
 7476SOL     OW33889   0.325   2.633   9.268  0.4645 -0.1314  0.6593
 7476SOL    HW133890   0.344   2.722   9.238  0.5597  0.0965  1.3855
 7476SOL    HW233891   0.235   2.638   9.300  0.3849  1.0518  0.2288
 7477SOL     OW33892   2.000   1.386   3.636  0.0723  0.8641 -0.6685
 7477SOL    HW133893   1.927   1.387   3.574 -1.6597  0.2537  1.3604
 7477SOL    HW233894   2.000   1.478   3.664 -0.7129  0.2882  1.1862
 7478SOL     OW33895   3.799   2.816  16.977  0.0722 -0.2345 -0.2309
 7478SOL    HW133896   3.866   2.762  17.019 -1.2926 -0.5455  1.5595
 7478SOL    HW233897   3.762   2.750  16.918  0.2750  0.8187 -1.5451
 7479SOL     OW33898   2.831   0.438  11.462 -0.0735 -0.3218 -0.0481
 7479SOL    HW133899   2.771   0.388  11.407  1.5176 -0.0738 -2.0115
 7479SOL    HW233900   2.902   0.374  11.464  0.2377  0.0206 -0.1473
 7480SOL     OW33901   3.099   2.514   2.849  0.4532  0.0665 -0.3765
 7480SOL    HW133902   3.153   2.591   2.869 -1.0905  0.9222  0.5028
 7480SOL    HW233903   3.118   2.498   2.757  1.6079  3.4192 -0.7301
 7481SOL     OW33904   3.576   0.404   2.277  0.0630  0.0249  0.4532
 7481SOL    HW133905   3.658   0.366   2.246 -0.2655  0.3519 -0.8078
 7481SOL    HW233906   3.590   0.456   2.355 -0.5505  0.7127  0.1028
 7482SOL     OW33907   3.671   1.763   8.658 -0.1531  0.4275 -0.0381
 7482SOL    HW133908   3.717   1.718   8.728 -1.3369 -0.1305  0.3652
 7482SOL    HW233909   3.583   1.727   8.668 -0.2420  0.0799 -2.0384
 7483SOL     OW33910   0.415   1.133   1.614 -0.8360 -0.3702  0.3602
 7483SOL    HW133911   0.473   1.205   1.639  2.2437 -1.9697 -2.1208
 7483SOL    HW233912   0.334   1.175   1.641 -0.4922  0.9810 -0.7029
 7484SOL     OW33913   4.050   3.812   6.231  0.1476 -0.8269 -0.5106
 7484SOL    HW133914   4.107   3.836   6.304  0.7874 -1.6132 -0.7531
 7484SOL    HW233915   3.976   3.768   6.272  0.9174 -1.1868  0.4947
 7485SOL     OW33916   3.847   2.953   8.941 -0.0794  0.1250 -0.5975
 7485SOL    HW133917   3.787   2.880   8.925 -0.2781 -0.2828  2.1594
 7485SOL    HW233918   3.915   2.938   8.875  0.9992  0.0921  0.5298
 7486SOL     OW33919   2.324   3.587  10.715 -0.1210 -0.1113 -0.1342
 7486SOL    HW133920   2.235   3.559  10.693 -0.5861  0.4981  0.9998
 7486SOL    HW233921   2.307   3.664  10.770  1.5384 -1.1836  1.8619
 7487SOL     OW33922   4.389   3.860   3.463 -0.0987 -0.2465 -0.1959
 7487SOL    HW133923   4.397   3.839   3.370  1.1962  0.5348 -0.2597
 7487SOL    HW233924   4.369   3.774   3.501 -0.6425  1.1669  2.7784
 7488SOL     OW33925   4.701   2.905   9.166  0.2495  0.8153 -0.1971
 7488SOL    HW133926   4.615   2.921   9.127  0.6575  1.4637 -0.8414
 7488SOL    HW233927   4.692   2.814   9.194 -0.1526  0.7993 -0.3829
 7489SOL     OW33928   3.422   3.867   8.600  0.2940 -0.4602 -0.4991
 7489SOL    HW133929   3.472   3.934   8.554  0.5325  0.1121  0.5827
 7489SOL    HW233930   3.371   3.830   8.528 -0.6957 -0.9757  0.4478
 7490SOL     OW33931   1.457   1.203   6.738 -0.4725 -0.3565 -0.5119
 7490SOL    HW133932   1.405   1.224   6.816 -0.3381 -4.0570  0.5410
 7490SOL    HW233933   1.540   1.184   6.782 -0.5551  0.2535 -0.0854
 7491SOL     OW33934   2.331   3.841  13.426  0.0737 -0.4334 -0.0852
 7491SOL    HW133935   2.254   3.817  13.374  1.1723  2.0636 -2.8103
 7491SOL    HW233936   2.398   3.864  13.362  1.3365 -0.6221  1.1536
 7492SOL     OW33937   4.650   2.816  13.131 -0.6162  0.1121  0.3500
 7492SOL    HW133938   4.716   2.851  13.191  1.4764 -0.9287 -1.3241
 7492SOL    HW233939   4.709   2.782  13.063 -0.9679  0.0984  0.0463
 7493SOL     OW33940   2.421   1.512   1.142  0.0546 -0.1253 -0.0359
 7493SOL    HW133941   2.490   1.489   1.204 -0.6690 -0.1493  0.7625
 7493SOL    HW233942   2.477   1.562   1.083 -1.2396  0.5631 -0.6571
 7494SOL     OW33943   2.714   1.790   8.654  0.4071 -0.5819 -0.5284
 7494SOL    HW133944   2.715   1.749   8.568  2.4837 -1.6836  0.0207
 7494SOL    HW233945   2.773   1.728   8.696  0.6670 -0.0432 -0.0907
 7495SOL     OW33946   0.732   2.181   3.302  0.2438  0.2738  0.7465
 7495SOL    HW133947   0.684   2.260   3.327 -1.2648  0.3253 -2.2782
 7495SOL    HW233948   0.823   2.210   3.302  0.7608 -1.3409  2.6487
 7496SOL     OW33949   4.093   3.878  17.412  0.0201 -0.2331  0.1858
 7496SOL    HW133950   4.139   3.951  17.372 -0.3729  0.1884  0.5127
 7496SOL    HW233951   4.148   3.839  17.480 -0.6825  1.0810  1.5088
 7497SOL     OW33952   3.310   1.266   1.198 -0.9612  0.0043 -0.3845
 7497SOL    HW133953   3.342   1.281   1.288 -2.5603  1.3154 -0.0337
 7497SOL    HW233954   3.233   1.211   1.216  0.5461 -1.7955  0.6008
 7498SOL     OW33955   1.388   4.316   2.635 -0.5976  0.5831  0.5150
 7498SOL    HW133956   1.345   4.301   2.550 -0.1859  4.1079 -0.3262
 7498SOL    HW233957   1.457   4.251   2.638 -0.5260  0.5704 -1.2564
 7499SOL     OW33958   3.002   1.484   5.508  0.1847 -0.4808  0.1605
 7499SOL    HW133959   2.918   1.505   5.547 -0.0172  3.6747 -2.6233
 7499SOL    HW233960   2.991   1.509   5.417  0.8005 -0.3093  0.1302
 7500SOL     OW33961   2.115   2.740   4.510  0.3134 -0.5924 -0.2182
 7500SOL    HW133962   2.159   2.733   4.594 -0.9942 -0.7653  0.4572
 7500SOL    HW233963   2.045   2.675   4.519  0.3348 -0.6501 -0.4564
 7501SOL     OW33964   3.052   1.929   5.620  0.3242 -0.4682  0.8751
 7501SOL    HW133965   3.048   1.885   5.704 -0.4036 -0.1354  1.0184
 7501SOL    HW233966   3.104   1.863   5.575  0.0661 -1.5572  2.1950
 7502SOL     OW33967   1.167   1.338  12.964 -0.1181  0.1256  0.4516
 7502SOL    HW133968   1.101   1.270  12.964 -0.8804  0.8628 -0.1463
 7502SOL    HW233969   1.207   1.327  12.877 -2.4451  0.1446 -0.6136
 7503SOL     OW33970   4.084   3.837   8.850 -0.2508  0.1063  0.4475
 7503SOL    HW133971   4.140   3.805   8.779 -1.4765 -0.0225 -0.4661
 7503SOL    HW233972   4.142   3.910   8.869  1.1905 -0.8708 -0.2190
 7504SOL     OW33973   0.371   3.584   7.573  0.8980 -0.1066 -0.5817
 7504SOL    HW133974   0.387   3.630   7.655  1.5336  0.9153 -1.2895
 7504SOL    HW233975   0.275   3.576   7.568  1.0997 -3.5337  1.0065
 7505SOL     OW33976   1.007   1.724  11.464 -0.5237 -0.0531  0.3278
 7505SOL    HW133977   1.015   1.758  11.374 -1.5174 -3.0100 -0.8849
 7505SOL    HW233978   1.022   1.631  11.446 -1.4297  0.0645 -1.0168
 7506SOL     OW33979   0.112   2.116   6.007  0.2554 -0.3708  0.0684
 7506SOL    HW133980   0.143   2.025   6.000  1.7113  0.0766  0.7311
 7506SOL    HW233981   0.143   2.156   5.927 -1.3421 -0.2917 -0.5049
 7507SOL     OW33982   0.376   3.053  11.507  0.3887  0.4775 -0.4355
 7507SOL    HW133983   0.457   3.032  11.552 -0.3716 -0.9921  0.2406
 7507SOL    HW233984   0.344   3.111  11.577 -1.3634 -1.1895  0.1433
 7508SOL     OW33985   2.119   1.422  11.970 -0.2230  0.2945  0.3396
 7508SOL    HW133986   2.069   1.470  11.905 -1.8920  0.2565  1.5848
 7508SOL    HW233987   2.060   1.433  12.045  0.8803 -0.9599  1.3859
 7509SOL     OW33988   2.481   2.654   7.498 -0.1525 -0.5352  0.3528
 7509SOL    HW133989   2.452   2.597   7.569  0.9319  0.8163  1.8933
 7509SOL    HW233990   2.468   2.740   7.539  0.9621  0.4338 -1.3450
 7510SOL     OW33991   2.728   2.929   0.478  0.3296  0.1360  0.4297
 7510SOL    HW133992   2.638   2.926   0.447  0.3840 -0.2243  0.3159
 7510SOL    HW233993   2.721   2.873   0.555  2.1881  0.3430  0.7669
 7511SOL     OW33994   3.921   4.470   4.953  0.1964  0.0071 -0.2022
 7511SOL    HW133995   3.950   4.392   4.906 -0.0155  0.4553 -1.0825
 7511SOL    HW233996   3.868   4.434   5.024 -0.2296 -0.9318 -1.0012
 7512SOL     OW33997   0.788   4.230   7.901 -0.0215 -1.0044  0.5805
 7512SOL    HW133998   0.780   4.184   7.985 -0.7240 -0.9738  0.5231
 7512SOL    HW233999   0.834   4.310   7.929 -0.5693  0.2205 -1.9995
 7513SOL     OW34000   0.593   2.956  15.999 -0.7410 -0.4287 -0.2368
 7513SOL    HW134001   0.535   2.920  16.066  0.9084 -0.5593  1.0861
 7513SOL    HW234002   0.526   3.003  15.949  0.6653  2.4147  0.5852
 7514SOL     OW34003   0.640   2.046   6.679 -0.3682 -0.4926  0.3277
 7514SOL    HW134004   0.616   2.001   6.760  0.0264 -1.0435  0.1386
 7514SOL    HW234005   0.708   1.990   6.640 -0.2346 -0.3791  0.4009
 7515SOL     OW34006   3.345   1.615   4.869 -0.2801 -0.5007 -0.8139
 7515SOL    HW134007   3.377   1.583   4.784  3.4329  1.2633 -0.1038
 7515SOL    HW234008   3.363   1.535   4.918 -2.5295 -0.8913 -0.6329
 7516SOL     OW34009   3.862   3.675   2.172 -0.2082  0.5984 -0.3181
 7516SOL    HW134010   3.856   3.658   2.266 -1.3890  0.2170 -0.4619
 7516SOL    HW234011   3.807   3.753   2.165  0.5176  1.3727  2.8212
 7517SOL     OW34012   1.458   0.976   6.444 -0.0641 -0.1262 -0.0015
 7517SOL    HW134013   1.511   0.907   6.485 -0.4356  0.2496  1.1250
 7517SOL    HW234014   1.480   0.954   6.353  0.0370 -0.4878  0.1085
 7518SOL     OW34015   1.733   2.419   9.002  0.6402 -0.2520 -0.1208
 7518SOL    HW134016   1.711   2.447   8.913 -0.7321 -0.0363  0.2926
 7518SOL    HW234017   1.727   2.505   9.044  1.8442 -1.7459  3.0891
 7519SOL     OW34018   1.496   3.314   7.580  0.2833 -0.0912 -0.4482
 7519SOL    HW134019   1.467   3.307   7.671 -0.2225  1.7498 -0.4590
 7519SOL    HW234020   1.505   3.409   7.572  0.6736 -0.1994 -1.2752
 7520SOL     OW34021   4.670   1.756   2.940 -0.3185 -0.2461  0.2694
 7520SOL    HW134022   4.598   1.792   2.890 -0.8452 -2.6633 -0.7397
 7520SOL    HW234023   0.017   1.763   2.874  0.6841 -0.5705  1.2516
 7521SOL     OW34024   2.613   4.541   8.478  0.0644  0.1417  0.0686
 7521SOL    HW134025   2.671   4.559   8.404  0.8556  0.8777  0.8787
 7521SOL    HW234026   2.607   4.626   8.520  0.0701  0.7259 -1.1131
 7522SOL     OW34027   3.522   1.221   2.198 -0.2219 -0.0111  0.2830
 7522SOL    HW134028   3.559   1.253   2.281  1.5300  1.2342 -0.9643
 7522SOL    HW234029   3.518   1.127   2.211  3.6949 -0.5496 -2.4954
 7523SOL     OW34030   2.486   2.923  14.013 -0.9672 -0.0255  0.3313
 7523SOL    HW134031   2.400   2.962  14.030 -0.5187  1.0607  0.0944
 7523SOL    HW234032   2.539   2.997  13.983  2.3572 -2.6892 -0.2659
 7524SOL     OW34033   2.819   4.633   3.676  1.1794  0.1130 -0.3754
 7524SOL    HW134034   2.885   4.612   3.742  0.5854  0.0604  0.1986
 7524SOL    HW234035   2.845   0.001   3.651 -0.5144  0.7892  0.2709
 7525SOL     OW34036   3.177   3.131   5.434  0.4054  0.7612  0.1567
 7525SOL    HW134037   3.180   3.068   5.362  1.6906 -0.1232  0.9890
 7525SOL    HW234038   3.091   3.116   5.475  0.7688 -3.8741 -0.7564
 7526SOL     OW34039   1.969   1.605   5.277 -0.7720 -0.2148 -0.1430
 7526SOL    HW134040   1.969   1.566   5.365  1.8380 -1.7262 -0.8312
 7526SOL    HW234041   2.042   1.666   5.279 -1.0553  0.1469 -0.7821
 7527SOL     OW34042   0.665   2.353  12.262 -0.3054  0.8241 -0.8410
 7527SOL    HW134043   0.714   2.308  12.331 -0.3962 -0.5366 -1.6602
 7527SOL    HW234044   0.712   2.333  12.181  2.4176  0.8084  0.7428
 7528SOL     OW34045   2.573   3.141   7.573  0.1754 -0.2571  0.4715
 7528SOL    HW134046   2.639   3.116   7.508 -0.9674 -1.5522 -0.2040
 7528SOL    HW234047   2.494   3.162   7.524  1.1480  1.7023 -0.2100
 7529SOL     OW34048   3.367   1.032   9.922 -0.8467 -0.4116 -0.2654
 7529SOL    HW134049   3.408   0.947   9.938  1.8456  0.8899 -0.2301
 7529SOL    HW234050   3.435   1.084   9.879  0.6776  0.4631  3.1721
 7530SOL     OW34051   1.406   0.136   7.397 -0.5247  0.0044 -0.2912
 7530SOL    HW134052   1.410   0.107   7.488 -3.1871  0.6811  0.0547
 7530SOL    HW234053   1.493   0.109   7.367 -1.0051 -1.1831 -0.6037
 7531SOL     OW34054   3.969   0.467   2.398  0.1923  0.4407  0.7122
 7531SOL    HW134055   4.054   0.435   2.368 -0.0834 -0.1601  0.5666
 7531SOL    HW234056   3.986   0.554   2.434  1.4404  0.2916  0.4858
 7532SOL     OW34057   1.825   1.028   6.228  0.1223  0.2725 -0.0591
 7532SOL    HW134058   1.853   0.961   6.290  1.1264  0.0516 -0.7484
 7532SOL    HW234059   1.854   0.989   6.146 -1.4788  1.6647 -1.2947
 7533SOL     OW34060   2.816   0.804   8.909 -0.0399  0.1250 -0.7721
 7533SOL    HW134061   2.775   0.810   8.823 -0.7155  0.5714 -0.4272
 7533SOL    HW234062   2.742   0.780   8.965  0.6185 -0.9405 -0.3603
 7534SOL     OW34063   1.707   2.901   5.194 -0.5706 -0.2249  0.0232
 7534SOL    HW134064   1.682   2.849   5.118 -0.5651  1.6575 -1.2729
 7534SOL    HW234065   1.717   2.995   5.181 -0.5299  0.0850  2.2061
 7535SOL     OW34066   1.591   2.869  11.669 -1.1104 -0.0151  0.0809
 7535SOL    HW134067   1.595   2.942  11.608 -0.2543 -0.0428  0.1118
 7535SOL    HW234068   1.574   2.792  11.614 -1.7384 -0.9697  1.5878
 7536SOL     OW34069   0.531   0.944   6.429  0.0544  0.9705 -0.1531
 7536SOL    HW134070   0.463   0.979   6.372 -1.1387  0.4539  0.9400
 7536SOL    HW234071   0.479   0.904   6.499  0.3699 -0.8759 -0.9759
 7537SOL     OW34072   1.362   3.756   4.822 -0.0295  0.2714  0.4834
 7537SOL    HW134073   1.281   3.722   4.859 -0.2148 -0.4286 -0.5832
 7537SOL    HW234074   1.420   3.689   4.860 -0.7788 -0.9856 -0.5722
 7538SOL     OW34075   0.555   2.560  15.511  0.4064 -0.3298  0.5969
 7538SOL    HW134076   0.526   2.528  15.596 -2.6912  0.5705 -0.1021
 7538SOL    HW234077   0.639   2.596  15.540 -0.0462  0.2033  1.2641
 7539SOL     OW34078   2.919   0.818  11.947 -0.1931 -0.6781 -0.3853
 7539SOL    HW134079   3.000   0.792  11.904 -1.5997 -0.9109 -2.8553
 7539SOL    HW234080   2.952   0.832  12.036 -4.0578  2.2402  0.6397
 7540SOL     OW34081   4.443   4.349   7.694  0.0795 -0.4860  0.0244
 7540SOL    HW134082   4.534   4.329   7.713 -0.0215 -0.7749  0.2094
 7540SOL    HW234083   4.395   4.319   7.772 -0.8551  1.3189  0.1279
 7541SOL     OW34084   4.434   1.166   6.552  0.0631 -0.3854 -0.3892
 7541SOL    HW134085   4.424   1.089   6.496 -2.4269  1.5028 -2.5501
 7541SOL    HW234086   4.489   1.122   6.617 -0.5639  0.4242  0.6789
 7542SOL     OW34087   0.809   1.211   6.058 -0.4530  0.1388 -0.1392
 7542SOL    HW134088   0.869   1.285   6.056  2.3743 -2.1247  1.2363
 7542SOL    HW234089   0.845   1.146   5.998  1.2115  1.0323 -0.1007
 7543SOL     OW34090   0.638   1.442   6.467 -0.0427 -0.2524 -0.1406
 7543SOL    HW134091   0.721   1.454   6.512  0.6340 -2.2517 -0.8584
 7543SOL    HW234092   0.620   1.352   6.495  1.4494 -0.7144 -0.6627
 7544SOL     OW34093   3.131   1.911  16.750  0.5797 -0.5671  0.1893
 7544SOL    HW134094   3.179   1.853  16.809 -0.9412  0.3865  2.3444
 7544SOL    HW234095   3.096   1.839  16.698 -0.1246 -1.0891  1.4064
 7545SOL     OW34096   3.733   0.407   3.752  0.3117  0.6896  0.3800
 7545SOL    HW134097   3.784   0.426   3.673 -0.2835 -1.3106 -0.4837
 7545SOL    HW234098   3.652   0.390   3.705  0.6238  2.9520 -0.9667
 7546SOL     OW34099   1.410   3.190   9.112  0.4671  0.0967  0.5449
 7546SOL    HW134100   1.380   3.259   9.052 -0.4809 -0.7351  0.0720
 7546SOL    HW234101   1.440   3.237   9.190  0.0301  2.0517 -0.4460
 7547SOL     OW34102   0.028   4.152   2.734  0.7926 -0.0360  0.5687
 7547SOL    HW134103   0.119   4.135   2.755  0.5565 -1.2786  0.6185
 7547SOL    HW234104   4.706   4.105   2.806 -0.2148 -1.6240 -1.0664
 7548SOL     OW34105   3.458   4.434   4.063 -0.2458  0.2757  0.6898
 7548SOL    HW134106   3.532   4.461   4.118  1.9356 -2.0385 -1.1124
 7548SOL    HW234107   3.399   4.380   4.116 -0.0238 -1.2350 -0.5985
 7549SOL     OW34108   4.062   0.932   8.489  0.4158  0.4617  0.3677
 7549SOL    HW134109   4.024   0.969   8.569  1.1447  0.7926  0.5593
 7549SOL    HW234110   4.008   0.853   8.487  1.7560 -0.4664  0.9404
 7550SOL     OW34111   2.447   1.195   4.409  0.5236  0.0849 -0.3767
 7550SOL    HW134112   2.388   1.202   4.485  0.3364 -0.8137 -0.4386
 7550SOL    HW234113   2.513   1.149   4.462 -0.3343 -0.5236  0.1661
 7551SOL     OW34114   1.342   0.766   6.979  0.0155 -0.3296  0.1270
 7551SOL    HW134115   1.331   0.685   7.029  0.3411  0.1783  1.0133
 7551SOL    HW234116   1.342   0.830   7.050  0.1196  2.1131 -2.0876
 7552SOL     OW34117   0.322   2.749   4.472 -0.0113  0.1484  0.2668
 7552SOL    HW134118   0.323   2.713   4.383  0.7019  0.5552  0.1131
 7552SOL    HW234119   0.240   2.717   4.509 -0.0686  1.4880  1.2851
 7553SOL     OW34120   1.656   0.500  11.871  0.7988 -0.2204  0.3820
 7553SOL    HW134121   1.596   0.502  11.796 -0.8512 -1.9324  1.6495
 7553SOL    HW234122   1.737   0.462  11.836  0.8227  0.2683 -0.0932
 7554SOL     OW34123   0.220   3.339   5.613 -0.1068 -0.3464 -0.0426
 7554SOL    HW134124   0.228   3.416   5.557  1.7322 -0.3355  0.2543
 7554SOL    HW234125   0.270   3.270   5.569 -0.2099 -0.2085 -0.3793
 7555SOL     OW34126   1.431   2.693   7.420 -0.3335  0.0214  0.2006
 7555SOL    HW134127   1.374   2.638   7.473 -0.6895  2.5429  2.4356
 7555SOL    HW234128   1.392   2.781   7.423  1.4662  0.8362 -0.2318
 7556SOL     OW34129   4.188   1.277   9.936 -0.3397  0.4055  0.1971
 7556SOL    HW134130   4.130   1.280   9.860  0.1390 -0.9378 -0.2408
 7556SOL    HW234131   4.273   1.247   9.902  0.4872  1.4950  1.3424
 7557SOL     OW34132   3.309   0.869  12.641  0.3736  0.0717 -0.4303
 7557SOL    HW134133   3.340   0.903  12.557 -1.5060  1.4502 -0.5678
 7557SOL    HW234134   3.382   0.815  12.670 -0.0107 -0.0612  0.2884
 7558SOL     OW34135   1.852   1.445  11.107  0.0487  0.2117 -0.0709
 7558SOL    HW134136   1.866   1.351  11.120  0.4859  0.3426  0.4136
 7558SOL    HW234137   1.767   1.444  11.062  0.3994 -1.9346 -0.6561
 7559SOL     OW34138   3.208   4.229  14.296 -0.1788 -0.3786  0.1281
 7559SOL    HW134139   3.298   4.195  14.300  0.1437  0.5742  0.9784
 7559SOL    HW234140   3.208   4.265  14.207 -0.4663 -2.7433 -0.8291
 7560SOL     OW34141   0.728   2.280   5.642  0.5297  0.3109 -0.0932
 7560SOL    HW134142   0.749   2.250   5.730  1.5694  1.0840 -0.0901
 7560SOL    HW234143   0.651   2.334   5.662  1.0686  0.9757  0.1810
 7561SOL     OW34144   1.017   1.677   6.024  0.5070  0.0540  0.8341
 7561SOL    HW134145   1.079   1.749   6.011 -0.2784  0.6538  0.4463
 7561SOL    HW234146   0.963   1.677   5.946 -0.5112 -2.0581  1.5323
 7562SOL     OW34147   2.838   2.010  11.572  0.0925  0.2495  0.2156
 7562SOL    HW134148   2.849   1.925  11.531 -0.3664  0.7482 -0.9575
 7562SOL    HW234149   2.810   1.985  11.660  0.7459  0.8958  0.6032
 7563SOL     OW34150   1.908   4.679   3.903  0.5984  0.2129  0.4235
 7563SOL    HW134151   1.963   0.002   3.839  2.3367 -2.0318  0.3555
 7563SOL    HW234152   1.856   0.034   3.930 -0.4590 -0.8361  1.3664
 7564SOL     OW34153   3.838   1.755   0.956 -0.3101  0.3635  0.2501
 7564SOL    HW134154   3.846   1.679   0.899 -0.2667  0.7562 -0.2809
 7564SOL    HW234155   3.923   1.793   0.933  0.1324 -0.5249  0.4401
 7565SOL     OW34156   1.278   3.071   8.329 -0.5510 -0.2083  0.5770
 7565SOL    HW134157   1.212   3.138   8.344 -1.7888 -0.7832 -2.3873
 7565SOL    HW234158   1.233   2.986   8.333 -0.4156 -0.2426  1.5147
 7566SOL     OW34159   2.557   1.532  17.400 -0.3935  0.2085  0.1459
 7566SOL    HW134160   2.508   1.554  17.479  0.6266  1.3191  0.4753
 7566SOL    HW234161   2.623   1.480  17.447  0.5747  2.0804  0.8389
 7567SOL     OW34162   2.417   2.178   7.896  0.1955 -0.0488 -0.1892
 7567SOL    HW134163   2.383   2.126   7.969 -0.0633  2.6245  1.6257
 7567SOL    HW234164   2.490   2.221   7.940 -0.0482 -0.0596  0.2292
 7568SOL     OW34165   4.335   1.268   4.050  0.3374 -0.2887 -0.3815
 7568SOL    HW134166   4.383   1.351   4.044  2.3316 -1.2948  1.6791
 7568SOL    HW234167   4.259   1.300   4.002  0.9552  1.1400 -0.4115
 7569SOL     OW34168   3.529   3.494   6.816 -0.2521 -0.0229  0.0755
 7569SOL    HW134169   3.463   3.562   6.831 -1.6621 -1.6396  1.1971
 7569SOL    HW234170   3.530   3.494   6.720  1.7850 -2.5379  0.1028
 7570SOL     OW34171   2.336   0.736   5.529  0.3507 -0.3495 -0.1781
 7570SOL    HW134172   2.344   0.813   5.473 -1.9582 -0.4122 -0.6058
 7570SOL    HW234173   2.352   0.672   5.460 -2.0088 -0.2607 -0.7902
 7571SOL     OW34174   0.608   1.109   5.894 -0.1563 -0.1538  0.0189
 7571SOL    HW134175   0.577   1.199   5.894 -0.6186 -0.3113  2.7383
 7571SOL    HW234176   0.663   1.124   5.970  1.0009 -0.3337 -0.7826
 7572SOL     OW34177   1.927   1.286  12.742 -0.5252 -0.0866 -0.5032
 7572SOL    HW134178   1.970   1.226  12.681  1.1035  1.6710 -1.0814
 7572SOL    HW234179   1.979   1.269  12.820  0.4369  1.9963 -0.6747
 7573SOL     OW34180   4.254   0.146  16.434  0.1413  0.6986 -0.4667
 7573SOL    HW134181   4.196   0.199  16.379 -0.5942 -0.9140 -1.2506
 7573SOL    HW234182   4.343   0.172  16.414 -0.1317  0.4595 -1.9543
 7574SOL     OW34183   4.105   2.139   1.744 -0.4738 -0.1682  0.2160
 7574SOL    HW134184   4.029   2.167   1.795 -0.4749  0.7165 -0.2742
 7574SOL    HW234185   4.130   2.227   1.715 -1.8550  0.7684  1.8455
 7575SOL     OW34186   1.362   2.156  11.317  0.5227 -0.8448  0.3125
 7575SOL    HW134187   1.397   2.198  11.239 -2.7618  0.8289 -0.2753
 7575SOL    HW234188   1.267   2.153  11.307  0.7579 -0.1529 -2.0930
 7576SOL     OW34189   4.168   4.230   1.945 -0.0078 -0.2469 -1.0400
 7576SOL    HW134190   4.191   4.152   1.895  0.5286 -1.6093  1.2964
 7576SOL    HW234191   4.230   4.211   2.015 -0.8437 -3.1463 -1.0929
 7577SOL     OW34192   1.745   3.508   4.702 -0.3856 -0.3306  0.0473
 7577SOL    HW134193   1.654   3.483   4.722  0.3754 -1.6332  1.8821
 7577SOL    HW234194   1.742   3.593   4.745 -0.8552 -1.3481  1.9992
 7578SOL     OW34195   1.989   0.374   2.859 -0.5131 -0.0233  0.3426
 7578SOL    HW134196   1.952   0.452   2.900  2.0387  1.2302  0.2602
 7578SOL    HW234197   2.047   0.420   2.798 -1.1804  0.5112  0.1151
 7579SOL     OW34198   0.197   0.163  17.527 -0.1282 -0.4077  0.2443
 7579SOL    HW134199   0.105   0.182  17.511  0.4531  1.5603 -0.6929
 7579SOL    HW234200   0.234   0.169  17.439 -1.1392  0.3191 -0.1307
 7580SOL     OW34201   4.350   2.004  15.111  0.4169 -0.4806  0.9653
 7580SOL    HW134202   4.317   1.918  15.136  0.6041  0.0106  2.9367
 7580SOL    HW234203   4.281   2.037  15.055 -0.1776  0.7058  2.4109
 7581SOL     OW34204   4.133   4.595  13.367  0.0442 -0.4573  0.6829
 7581SOL    HW134205   4.114   4.594  13.461  1.0350  1.8259  0.9105
 7581SOL    HW234206   4.227   4.612  13.370  0.0439 -0.5375  1.1664
 7582SOL     OW34207   0.778   2.859   3.569 -0.5746  0.0112  0.0790
 7582SOL    HW134208   0.722   2.847   3.646  0.3619 -1.2690  0.5554
 7582SOL    HW234209   0.745   2.798   3.504 -1.2341  0.5395 -0.0761
 7583SOL     OW34210   3.298   0.544   0.591  0.0792  0.9901 -0.3276
 7583SOL    HW134211   3.328   0.454   0.599  2.5768  1.6035 -2.8082
 7583SOL    HW234212   3.366   0.582   0.647  0.8711 -0.0581 -0.5806
 7584SOL     OW34213   1.293   3.397   6.433  0.1061 -0.0039  0.2583
 7584SOL    HW134214   1.346   3.401   6.354 -0.8902  0.4326 -0.3981
 7584SOL    HW234215   1.350   3.443   6.493 -1.0713  1.9054 -0.0844
 7585SOL     OW34216   4.268   4.716   6.781 -0.5795 -0.1434  0.3313
 7585SOL    HW134217   4.343   0.022   6.727 -1.3114  0.2675 -0.4843
 7585SOL    HW234218   4.248   0.078   6.824 -0.6132  1.0315 -1.9053
 7586SOL     OW34219   3.731   0.288  11.477  0.4426 -0.0567 -0.6138
 7586SOL    HW134220   3.671   0.294  11.403  1.5766  2.2378 -1.3569
 7586SOL    HW234221   3.809   0.244  11.445  0.1765 -0.4229 -0.7559
 7587SOL     OW34222   4.286   0.616  13.447 -0.0694 -0.3906 -0.0974
 7587SOL    HW134223   4.355   0.571  13.495 -0.0383  3.1129  3.1488
 7587SOL    HW234224   4.312   0.707  13.456  1.8681 -1.1414  1.8548
 7588SOL     OW34225   3.894   1.098  14.113  0.5479 -0.4511  0.6677
 7588SOL    HW134226   3.888   1.056  14.199 -1.4582 -1.4718  0.0315
 7588SOL    HW234227   3.804   1.118  14.086  0.4256 -0.7884  0.8261
 7589SOL     OW34228   2.259   4.171   5.399  0.1315  0.6184 -0.0319
 7589SOL    HW134229   2.281   4.101   5.461  0.2864 -0.0916 -0.8883
 7589SOL    HW234230   2.164   4.160   5.390  0.1770 -1.0779  1.5588
 7590SOL     OW34231   4.659   4.149   4.500  0.4300 -0.4048  0.3587
 7590SOL    HW134232   4.666   4.055   4.482  0.1442 -0.4596  0.5514
 7590SOL    HW234233   4.710   4.182   4.426 -0.6765 -2.1912 -1.1951
 7591SOL     OW34234   2.301   3.676   7.728  0.1919  0.4047  0.1726
 7591SOL    HW134235   2.240   3.637   7.790 -0.9148 -0.2742 -1.3322
 7591SOL    HW234236   2.385   3.672   7.772  0.3718 -0.2523 -0.2420
 7592SOL     OW34237   4.656   2.260   0.267  0.5143  0.0420  0.0013
 7592SOL    HW134238   4.605   2.322   0.215 -0.0038  2.0102  2.8519
 7592SOL    HW234239   0.022   2.298   0.270 -0.1129  1.1393  4.6371
 7593SOL     OW34240   0.904   3.331   1.347  0.1468  1.0043 -0.3312
 7593SOL    HW134241   0.930   3.243   1.317 -0.0341  0.8897 -0.1566
 7593SOL    HW234242   0.813   3.335   1.319 -0.4414 -2.1936  1.0596
 7594SOL     OW34243   0.575   1.792   3.722 -0.2998  0.2123 -0.6315
 7594SOL    HW134244   0.602   1.736   3.795 -2.0362 -2.1629 -1.8026
 7594SOL    HW234245   0.499   1.744   3.688 -0.6407  1.1104 -1.1365
 7595SOL     OW34246   2.490   3.849   7.501  0.2726 -0.0866  0.8557
 7595SOL    HW134247   2.413   3.864   7.556  0.3291  1.6014  0.4616
 7595SOL    HW234248   2.448   3.853   7.415 -0.3465 -2.3908  1.0302
 7596SOL     OW34249   0.225   3.149   7.843  0.2061 -0.4419  0.6729
 7596SOL    HW134250   0.225   3.134   7.748 -0.0595 -1.6090  0.8667
 7596SOL    HW234251   0.319   3.151   7.861  0.6173 -0.1200 -1.4396
 7597SOL     OW34252   1.169   2.309   4.485 -0.5350  0.1988  0.2005
 7597SOL    HW134253   1.227   2.233   4.480 -0.3487  0.2388  1.7924
 7597SOL    HW234254   1.112   2.285   4.412  1.1203 -1.7335 -0.4400
 7598SOL     OW34255   1.722   3.798   9.067 -0.2163 -0.3429 -0.4925
 7598SOL    HW134256   1.645   3.817   9.012 -0.3169 -2.6404 -1.1494
 7598SOL    HW234257   1.688   3.733   9.128  1.0015 -1.6210 -1.1841
 7599SOL     OW34258   4.093   2.394   4.780  0.2065  0.3110  0.1529
 7599SOL    HW134259   4.153   2.351   4.720 -1.6589 -1.3474 -0.5259
 7599SOL    HW234260   4.115   2.355   4.865 -1.5758 -0.9306  0.0420
 7600SOL     OW34261   1.374   4.171   1.591 -0.1562  0.5141 -0.0907
 7600SOL    HW134262   1.294   4.211   1.624 -0.6194 -1.1856  0.8646
 7600SOL    HW234263   1.345   4.080   1.601  0.2975  0.3024 -0.7148
 7601SOL     OW34264   3.258   1.866  17.023  0.4996 -0.2771 -0.6230
 7601SOL    HW134265   3.195   1.795  17.007 -0.2930 -0.1351  1.8730
 7601SOL    HW234266   3.281   1.853  17.114 -2.8755 -0.2234  0.2406
 7602SOL     OW34267   0.164   0.510   9.208  0.0982  0.2412 -0.2131
 7602SOL    HW134268   0.094   0.539   9.266 -0.4966  0.6823 -1.1519
 7602SOL    HW234269   0.145   0.417   9.204  0.2154  0.1790  0.6956
 7603SOL     OW34270   2.143   3.537   5.561 -0.1818 -0.2325  0.1554
 7603SOL    HW134271   2.054   3.565   5.539  0.0076  0.1780 -0.0734
 7603SOL    HW234272   2.120   3.484   5.638 -0.5588 -0.3237 -0.0185
 7604SOL     OW34273   4.539   0.708   5.473  0.0095  0.1954  0.0893
 7604SOL    HW134274   4.579   0.669   5.395  1.8259  0.8019  0.7273
 7604SOL    HW234275   4.482   0.778   5.440 -0.0250 -0.0442 -0.3721
 7605SOL     OW34276   1.748   1.388   9.554  0.2679  0.0933 -0.6624
 7605SOL    HW134277   1.825   1.441   9.574  1.2839 -0.9884 -1.6993
 7605SOL    HW234278   1.791   1.311   9.516  0.5598 -0.3214  0.5178
 7606SOL     OW34279   0.081   0.108   1.913  0.1661 -0.8650 -0.3004
 7606SOL    HW134280   0.028   0.112   1.833 -2.6534 -2.7534  1.4591
 7606SOL    HW234281   0.145   0.049   1.873  1.4440 -1.8289  3.1238
 7607SOL     OW34282   4.495   4.615   3.407  0.4782 -0.2041  0.4053
 7607SOL    HW134283   4.434   4.642   3.339  1.0385 -0.2550 -0.1206
 7607SOL    HW234284   4.579   4.613   3.360  0.2975 -2.0071  0.1766
 7608SOL     OW34285   1.989   1.113   0.696 -0.2579 -0.4778 -0.0671
 7608SOL    HW134286   2.006   1.173   0.624  0.4370  1.6887  1.8804
 7608SOL    HW234287   1.949   1.177   0.756  0.0616 -1.4659  1.2112
 7609SOL     OW34288   4.325   2.464  12.618  0.6803  0.5074 -0.6184
 7609SOL    HW134289   4.257   2.415  12.663  1.1139 -0.6431 -1.2015
 7609SOL    HW234290   4.384   2.398  12.581  1.5498  0.6100  0.6001
 7610SOL     OW34291   2.912   0.180   1.526  0.1813  0.3113  0.4671
 7610SOL    HW134292   2.988   0.131   1.556 -0.2807 -0.1160  0.9289
 7610SOL    HW234293   2.934   0.254   1.583 -2.5512  1.0081  0.6049
 7611SOL     OW34294   2.507   1.816  17.453 -0.0314  0.0150  0.4498
 7611SOL    HW134295   2.489   1.910  17.458 -2.2697 -0.4552  1.0056
 7611SOL    HW234296   2.493   1.801  17.359  0.3074  1.1090  0.2247
 7612SOL     OW34297   1.919   4.405   9.699  0.6465 -0.4916 -0.5922
 7612SOL    HW134298   1.866   4.342   9.748 -1.4299  2.1065  0.5516
 7612SOL    HW234299   1.934   4.355   9.619 -0.1862 -1.3706 -0.1909
 7613SOL     OW34300   3.562   1.227   9.231 -0.7279  0.3279 -0.3487
 7613SOL    HW134301   3.543   1.173   9.307 -1.4750  0.5744 -0.3621
 7613SOL    HW234302   3.532   1.167   9.163  1.4453 -0.4333 -0.6321
 7614SOL     OW34303   4.698   3.390   5.275  0.4402  0.1772 -0.3318
 7614SOL    HW134304   4.626   3.436   5.232  0.1185 -1.1987 -1.2809
 7614SOL    HW234305   0.049   3.426   5.223 -0.4859  0.0537 -1.7072
 7615SOL     OW34306   1.120   2.839   7.981 -0.2799 -0.4368  0.7805
 7615SOL    HW134307   1.031   2.873   7.989 -0.8146 -1.4110 -1.1234
 7615SOL    HW234308   1.111   2.746   7.959  1.8843  0.0873 -2.2559
 7616SOL     OW34309   0.344   2.229  16.703 -0.2255  0.2954  0.6208
 7616SOL    HW134310   0.255   2.197  16.691  0.1884 -1.1336  1.3006
 7616SOL    HW234311   0.402   2.153  16.699 -0.3820  0.1182  1.7243
 7617SOL     OW34312   0.770   2.688   7.629 -0.0357  0.1970  0.0757
 7617SOL    HW134313   0.691   2.742   7.637 -0.8523 -0.8929 -0.6228
 7617SOL    HW234314   0.735   2.602   7.651 -1.0499  0.9306  1.3439
 7618SOL     OW34315   3.106   2.546   6.548 -0.5877  0.5277 -0.1524
 7618SOL    HW134316   3.107   2.618   6.484  0.0760  0.6479 -0.0094
 7618SOL    HW234317   3.076   2.575   6.634 -1.0483 -0.4651  0.0129
 7619SOL     OW34318   1.721   3.705   6.119 -0.0716  0.5628  0.1451
 7619SOL    HW134319   1.753   3.709   6.209 -0.0399 -0.4888  0.1747
 7619SOL    HW234320   1.627   3.716   6.132 -0.3506 -1.5615 -0.1698
 7620SOL     OW34321   1.817   0.655   3.350 -0.3275 -0.5530 -0.3254
 7620SOL    HW134322   1.882   0.725   3.345 -0.9436 -0.0202 -0.9388
 7620SOL    HW234323   1.809   0.652   3.445 -1.6726 -1.0028 -0.4457
 7621SOL     OW34324   3.643   4.289   8.457 -0.0032  0.1928  0.3927
 7621SOL    HW134325   3.593   4.209   8.444 -0.2562  0.6159 -1.2262
 7621SOL    HW234326   3.596   4.322   8.534 -0.0020 -2.5626  1.5801
 7622SOL     OW34327   4.150   4.271   3.193  0.3697 -0.5876 -0.4993
 7622SOL    HW134328   4.133   4.191   3.144 -0.7918  0.1957 -1.3836
 7622SOL    HW234329   4.083   4.272   3.261  0.7941 -0.2414 -0.0802
 7623SOL     OW34330   4.040   0.206   1.727 -0.4724 -0.0740  0.0167
 7623SOL    HW134331   4.081   0.185   1.643 -1.3624 -1.7321 -0.0117
 7623SOL    HW234332   4.035   0.121   1.771 -1.8412  0.6960  1.3460
 7624SOL     OW34333   0.488   4.688   5.925  0.1765 -0.5171 -0.6028
 7624SOL    HW134334   0.518   4.605   5.887  0.1505 -0.5505 -0.5498
 7624SOL    HW234335   0.529   0.032   5.867  1.8195 -0.1559  0.9662
 7625SOL     OW34336   1.635   2.773   7.916 -0.4699 -1.0199 -0.2700
 7625SOL    HW134337   1.695   2.702   7.892  0.1277 -0.2132 -1.1897
 7625SOL    HW234338   1.546   2.742   7.903 -0.9145  0.1725 -0.0039
 7626SOL     OW34339   2.330   2.376  16.357 -0.0853 -0.5952 -0.0707
 7626SOL    HW134340   2.268   2.328  16.411 -1.2233  1.0599  0.1221
 7626SOL    HW234341   2.394   2.306  16.344  0.8105  0.5607 -1.9236
 7627SOL     OW34342   4.055   1.027   9.987  0.0823  0.1972 -0.2688
 7627SOL    HW134343   4.114   1.101   9.973 -0.0233  0.1456 -0.9642
 7627SOL    HW234344   4.112   0.956  10.016 -0.0252  0.9708  1.8343
 7628SOL     OW34345   4.612   2.912   6.879  0.5135  0.7182  0.9424
 7628SOL    HW134346   4.539   2.870   6.833  0.6892 -0.6147  1.8869
 7628SOL    HW234347   4.615   2.997   6.836 -1.6285 -1.0245 -2.6823
 7629SOL     OW34348   1.121   0.848  13.115  0.1298 -0.4534 -0.0915
 7629SOL    HW134349   1.089   0.765  13.080  1.2921 -0.9696  0.0610
 7629SOL    HW234350   1.213   0.833  13.138 -0.3628 -1.0769  1.4715
 7630SOL     OW34351   4.300   3.794  14.914  0.1880  0.2051 -0.4552
 7630SOL    HW134352   4.355   3.723  14.882  0.7346 -0.2754  1.6057
 7630SOL    HW234353   4.363   3.863  14.934  0.5257  0.0601 -0.9978
 7631SOL     OW34354   4.219   0.583   6.197 -0.2283  0.4123  0.3499
 7631SOL    HW134355   4.260   0.655   6.246  2.0892  0.2304 -1.3130
 7631SOL    HW234356   4.294   0.554   6.145  1.3196  1.6644  1.8664
 7632SOL     OW34357   2.740   1.660   7.190 -0.3032  0.9197  0.2932
 7632SOL    HW134358   2.655   1.684   7.152 -0.9629 -2.9390 -0.6607
 7632SOL    HW234359   2.786   1.744   7.182 -1.2440  1.4202  0.1615
 7633SOL     OW34360   0.654   1.536  14.880  0.4795 -0.6230  0.2330
 7633SOL    HW134361   0.561   1.512  14.880 -0.0479  1.3995  1.5827
 7633SOL    HW234362   0.670   1.555  14.973 -0.0831  0.5970  0.0855
 7634SOL     OW34363   3.772   3.663   4.361  0.6969 -0.3346 -0.8997
 7634SOL    HW134364   3.705   3.731   4.367  1.3303  0.1098  1.0942
 7634SOL    HW234365   3.751   3.607   4.435  2.5327 -0.5591 -0.5589
 7635SOL     OW34366   2.767   1.150   0.573 -0.6445  0.5928  0.0522
 7635SOL    HW134367   2.815   1.087   0.626  0.7475  0.8554 -0.8994
 7635SOL    HW234368   2.714   1.084   0.528  0.8780 -1.2101  0.9008
 7636SOL     OW34369   0.016   3.029   4.930 -0.5165  0.2892  0.0745
 7636SOL    HW134370   0.055   2.988   4.853  2.3629 -1.5203  2.5404
 7636SOL    HW234371   0.010   2.958   4.994  0.7008 -1.1291 -1.3964
 7637SOL     OW34372   3.717   0.048   3.883  0.0137  0.0748 -0.3389
 7637SOL    HW134373   3.625   0.054   3.859  0.2143  0.8289 -0.9351
 7637SOL    HW234374   3.710   0.066   3.976 -2.2987 -1.0175 -0.3084
 7638SOL     OW34375   3.023   2.906   3.392  1.4680 -0.2024  0.2753
 7638SOL    HW134376   2.972   2.839   3.346 -0.5922  1.7366 -0.2510
 7638SOL    HW234377   3.017   2.868   3.480 -0.4276 -1.7314 -0.5163
 7639SOL     OW34378   1.493   4.010   1.391  0.3792  0.4859 -0.0540
 7639SOL    HW134379   1.460   4.089   1.436  1.8893  0.7240  0.6319
 7639SOL    HW234380   1.447   3.935   1.429 -1.3841  1.4647 -0.2293
 7640SOL     OW34381   3.644   4.192  15.910  0.1873  0.1170  0.2264
 7640SOL    HW134382   3.638   4.285  15.935 -0.5643 -0.3908  1.9096
 7640SOL    HW234383   3.680   4.213  15.824 -0.6175  2.1568  0.3741
 7641SOL     OW34384   4.538   3.258  16.136  0.2089 -0.0597 -0.0035
 7641SOL    HW134385   4.584   3.311  16.071 -0.5944  0.7902  0.1287
 7641SOL    HW234386   4.510   3.176  16.096  0.9950  1.5810 -3.8923
 7642SOL     OW34387   4.545   3.310   5.779  0.0678  0.4315 -0.2715
 7642SOL    HW134388   4.607   3.325   5.850  1.4585  0.4099 -1.4960
 7642SOL    HW234389   4.590   3.349   5.704  1.5812  0.2957  0.5700
 7643SOL     OW34390   2.000   3.890   9.103  0.2765  0.4003 -0.2886
 7643SOL    HW134391   1.915   3.853   9.081  1.8708 -2.1232 -2.3018
 7643SOL    HW234392   1.978   3.930   9.187 -2.6543 -0.6221 -0.5645
 7644SOL     OW34393   0.533   2.263   3.998 -0.1253  0.0194 -0.4557
 7644SOL    HW134394   0.470   2.201   4.033  0.8933 -0.0414  1.2415
 7644SOL    HW234395   0.556   2.230   3.911 -1.4827  0.0830 -0.8395
 7645SOL     OW34396   0.849   1.310  16.393  0.1631  0.0917 -0.7348
 7645SOL    HW134397   0.796   1.276  16.321 -1.3008 -0.5931  0.6654
 7645SOL    HW234398   0.869   1.401  16.371  0.6542 -0.1570 -1.2989
 7646SOL     OW34399   2.984   3.657   2.270 -0.1133 -0.3119 -0.1054
 7646SOL    HW134400   3.043   3.650   2.346 -0.3784 -1.2041  0.0182
 7646SOL    HW234401   2.982   3.752   2.267  2.0589 -0.0811  4.7467
 7647SOL     OW34402   0.084   2.401   8.233  0.1063  0.2419  0.3565
 7647SOL    HW134403   0.079   2.422   8.326  4.4601  0.2294  0.5758
 7647SOL    HW234404   0.171   2.365   8.248  0.2676  1.4696  2.3139
 7648SOL     OW34405   3.818   1.940   1.636 -0.1191 -0.0826  0.8344
 7648SOL    HW134406   3.764   1.862   1.623 -1.3065  1.0193 -0.9037
 7648SOL    HW234407   3.818   1.975   1.547  1.6374 -1.7114  0.1953
 7649SOL     OW34408   1.235   4.385   6.337 -0.3112 -0.5119  0.6580
 7649SOL    HW134409   1.296   4.408   6.407 -1.9752 -1.1726  2.3319
 7649SOL    HW234410   1.169   4.455   6.341  0.8930  0.6638 -0.1602
 7650SOL     OW34411   4.476   3.361   0.850 -0.0548  0.0105  0.2518
 7650SOL    HW134412   4.474   3.278   0.898  0.0306 -0.5278 -0.6917
 7650SOL    HW234413   4.566   3.367   0.819  0.0674 -1.2924  0.3773
 7651SOL     OW34414   1.489   1.010   5.427  0.0184  0.4079  0.3629
 7651SOL    HW134415   1.566   0.958   5.406  2.3370  3.4108  1.4139
 7651SOL    HW234416   1.417   0.947   5.420 -1.0969  2.0787 -2.8856
 7652SOL     OW34417   0.640   0.454   1.474  0.1979 -0.2038 -0.4492
 7652SOL    HW134418   0.719   0.465   1.420  0.1524  1.7203 -0.1118
 7652SOL    HW234419   0.660   0.375   1.525 -0.6152 -1.4542 -2.0391
 7653SOL     OW34420   3.250   0.107  11.642 -0.2054  0.0659  0.4199
 7653SOL    HW134421   3.297   0.143  11.568 -1.2849  0.8686  0.1126
 7653SOL    HW234422   3.326   0.064  11.681 -0.4658 -1.0812 -0.3487
 7654SOL     OW34423   1.220   3.409   3.115 -0.4189 -0.0848  0.3847
 7654SOL    HW134424   1.182   3.422   3.028  0.8891  1.4369  0.0431
 7654SOL    HW234425   1.311   3.388   3.092  0.0903  3.5304 -0.8294
 7655SOL     OW34426   3.659   1.494   9.546  0.3345  0.1413 -0.2820
 7655SOL    HW134427   3.581   1.487   9.600  0.4267 -1.6336 -0.3877
 7655SOL    HW234428   3.658   1.583   9.511  1.1537 -0.0574 -0.8241
 7656SOL     OW34429   3.078   4.422  12.213  0.2343 -0.2765  0.0070
 7656SOL    HW134430   3.161   4.377  12.229  0.0664 -0.4756  0.3048
 7656SOL    HW234431   3.105   4.513  12.196 -1.7296  0.5139  1.1417
 7657SOL     OW34432   3.023   0.624  16.802 -0.0632 -0.0631  0.2481
 7657SOL    HW134433   3.028   0.658  16.713 -0.3114  0.2701  0.3624
 7657SOL    HW234434   3.116   0.616  16.824 -0.0894  1.0578  0.7339
 7658SOL     OW34435   2.400   0.259   0.866  0.1515 -0.3721  0.4057
 7658SOL    HW134436   2.480   0.260   0.919  1.0833 -0.0366 -0.9941
 7658SOL    HW234437   2.437   0.217   0.788 -0.1388  1.2092 -0.5687
 7659SOL     OW34438   2.575   0.341   7.289 -0.1234 -0.0121  0.6263
 7659SOL    HW134439   2.503   0.281   7.271  1.0339 -1.5050  0.9936
 7659SOL    HW234440   2.534   0.405   7.347 -1.0547  0.1749 -0.2233
 7660SOL     OW34441   3.433   2.497   5.209  0.0641 -0.8804 -0.1314
 7660SOL    HW134442   3.392   2.534   5.131  3.1504 -0.1358 -1.4073
 7660SOL    HW234443   3.427   2.403   5.188  1.6303 -0.9358 -0.3298
 7661SOL     OW34444   0.528   3.213   5.022 -0.1697  0.0406 -0.4391
 7661SOL    HW134445   0.617   3.215   4.988 -0.2233  0.6374 -0.5349
 7661SOL    HW234446   0.538   3.151   5.094 -2.8876 -0.4707 -0.4676
 7662SOL     OW34447   2.242   1.834   5.291  0.0097 -0.5547 -0.1629
 7662SOL    HW134448   2.245   1.744   5.323  2.5020 -0.3340  0.2388
 7662SOL    HW234449   2.335   1.857   5.287 -0.0594  0.0275  1.4389
 7663SOL     OW34450   1.796   0.476   8.789  0.2533  0.0636 -0.2358
 7663SOL    HW134451   1.863   0.411   8.771 -1.1821 -1.1398 -1.3117
 7663SOL    HW234452   1.725   0.460   8.726 -0.7609  1.9342  0.4480
 7664SOL     OW34453   0.195   1.910   4.308  0.2680  0.1761  0.7100
 7664SOL    HW134454   0.108   1.887   4.276 -0.3656 -0.4260  2.8366
 7664SOL    HW234455   0.183   1.884   4.399  1.1878 -1.3017  0.4094
 7665SOL     OW34456   1.021   2.451  17.432 -0.2533 -0.5171 -0.6983
 7665SOL    HW134457   1.065   2.386  17.486  0.2888  0.4136 -0.0341
 7665SOL    HW234458   1.100   2.491  17.398  0.3391  0.5196  1.8875
 7666SOL     OW34459   0.950   4.255  16.264  0.1062 -0.5673 -0.3373
 7666SOL    HW134460   0.940   4.350  16.270 -1.8263 -0.6551 -1.8787
 7666SOL    HW234461   1.035   4.253  16.307  0.0586  0.4408 -0.2128
 7667SOL     OW34462   3.449   2.222   7.826  0.0869 -0.0114 -0.2298
 7667SOL    HW134463   3.526   2.251   7.874 -1.3027  0.3329  1.7599
 7667SOL    HW234464   3.476   2.155   7.763  0.5052  0.1604 -0.2346
 7668SOL     OW34465   1.906   3.441   0.436 -0.0270 -0.1309  0.0619
 7668SOL    HW134466   1.877   3.365   0.385  0.6350 -0.4889  0.2341
 7668SOL    HW234467   1.828   3.458   0.489 -0.9158 -0.3838 -1.1366
 7669SOL     OW34468   3.686   0.346   5.174 -0.3913  0.5505  0.0596
 7669SOL    HW134469   3.705   0.412   5.108  3.3997  0.7314  1.3115
 7669SOL    HW234470   3.602   0.315   5.140  0.4491  0.7029 -2.0903
 7670SOL     OW34471   4.207   0.314  16.232  0.5425  0.5386  0.4446
 7670SOL    HW134472   4.236   0.312  16.141  1.5198 -1.6539  0.8241
 7670SOL    HW234473   4.183   0.407  16.238 -1.4674  0.0953 -0.7696
 7671SOL     OW34474   2.828   3.342   6.864  0.3098  0.2317  0.5789
 7671SOL    HW134475   2.759   3.310   6.806 -0.5583 -0.0678  1.7762
 7671SOL    HW234476   2.819   3.275   6.931  1.9269  0.2985  0.8584
 7672SOL     OW34477   2.574   2.904   8.016  0.3471 -0.0917 -0.5460
 7672SOL    HW134478   2.574   2.860   8.100 -0.5061  0.2716 -0.3565
 7672SOL    HW234479   2.504   2.969   8.020 -0.6471 -1.2788  0.7564
 7673SOL     OW34480   1.521   2.566   3.965 -0.5777 -0.2260  0.2254
 7673SOL    HW134481   1.558   2.530   4.046  3.5434 -0.6768 -1.8473
 7673SOL    HW234482   1.536   2.484   3.919 -0.2344  1.2091 -2.1927
 7674SOL     OW34483   3.449   0.324   7.638  0.7726  1.0195  0.4882
 7674SOL    HW134484   3.462   0.281   7.554  0.4307  1.2059  0.3398
 7674SOL    HW234485   3.540   0.348   7.656  0.2004  2.0190  2.1171
 7675SOL     OW34486   1.346   1.076   8.695 -0.7623  0.3459 -0.5649
 7675SOL    HW134487   1.259   1.042   8.715 -0.0633  0.0593  1.9188
 7675SOL    HW234488   1.323   1.145   8.633  1.7719  1.4741 -0.2116
 7676SOL     OW34489   3.440   4.220   2.935 -0.5527 -0.0180  0.1616
 7676SOL    HW134490   3.479   4.140   2.901  1.2289  1.4749 -1.3540
 7676SOL    HW234491   3.518   4.274   2.917 -0.0160 -0.3046  1.5949
 7677SOL     OW34492   3.175   0.902  17.497 -0.1399  0.2717  0.5891
 7677SOL    HW134493   3.110   0.894  17.567 -0.3670  1.6650  0.5284
 7677SOL    HW234494   3.138   0.968  17.438 -1.9585 -1.0121  0.2641
 7678SOL     OW34495   1.008   2.653   2.810  0.2297 -0.0069  0.3617
 7678SOL    HW134496   0.955   2.718   2.764 -2.1214 -1.2744  1.2549
 7678SOL    HW234497   1.035   2.704   2.887 -1.0107  1.4283 -0.1599
 7679SOL     OW34498   0.013   0.231   4.167 -0.0753 -0.0501 -0.0387
 7679SOL    HW134499   0.077   0.258   4.101 -0.9386  0.1109 -0.8192
 7679SOL    HW234500   4.661   0.290   4.144 -0.6611 -0.8115 -0.1442
 7680SOL     OW34501   0.986   0.115   4.256  0.1195  0.2749  0.3172
 7680SOL    HW134502   0.953   0.098   4.167  1.7362  2.4487 -0.6873
 7680SOL    HW234503   1.077   0.138   4.239  0.2046 -0.5236 -0.2799
 7681SOL     OW34504   2.692   1.006  14.571 -0.4892  0.5344 -0.0186
 7681SOL    HW134505   2.677   1.095  14.541 -0.0372  0.8099  0.5758
 7681SOL    HW234506   2.723   1.016  14.661 -1.3295 -2.0053  0.5654
 7682SOL     OW34507   0.257   2.465   5.488  0.2233 -0.5464  0.7324
 7682SOL    HW134508   0.324   2.423   5.433  0.9694 -1.0104  2.0009
 7682SOL    HW234509   0.208   2.386   5.510  0.5318 -1.5536 -2.1749
 7683SOL     OW34510   0.910   0.400   5.362 -0.0779 -0.6338 -0.4940
 7683SOL    HW134511   0.988   0.430   5.316  1.5358 -0.9996  2.0365
 7683SOL    HW234512   0.842   0.452   5.318  0.5795 -0.8327 -1.7390
 7684SOL     OW34513   4.550   0.385   4.770 -0.5499  0.0565  0.3240
 7684SOL    HW134514   4.620   0.372   4.706 -1.4972 -2.6356 -0.1363
 7684SOL    HW234515   4.468   0.363   4.725 -1.1856  1.4109  0.8247
 7685SOL     OW34516   4.650   2.032  12.922  0.3699 -0.3280  0.1472
 7685SOL    HW134517   4.565   1.997  12.949  0.3945 -0.7907 -0.3639
 7685SOL    HW234518   4.629   2.077  12.840 -0.6247  0.3988  0.8036
 7686SOL     OW34519   0.954   4.531   8.610  0.5048 -0.1023 -0.0548
 7686SOL    HW134520   1.006   4.612   8.614 -0.8834  0.8589 -1.4473
 7686SOL    HW234521   1.028   4.471   8.618  0.3059 -0.2330  0.7643
 7687SOL     OW34522   0.064   1.882   7.084  0.1282  0.0372  0.0702
 7687SOL    HW134523   0.016   1.872   7.166  0.6840  0.4329  0.4397
 7687SOL    HW234524   0.143   1.919   7.121  0.5944  0.2088 -1.0862
 7688SOL     OW34525   3.836   1.204  15.458 -0.3774 -0.6832 -0.5489
 7688SOL    HW134526   3.802   1.156  15.533 -0.2750  1.3063  0.7910
 7688SOL    HW234527   3.761   1.189  15.401 -0.0094  0.8237 -1.4484
 7689SOL     OW34528   0.394   1.317   0.199 -0.2686 -0.6058  0.4423
 7689SOL    HW134529   0.310   1.274   0.180 -1.0240  0.8956  0.4030
 7689SOL    HW234530   0.417   1.349   0.112  2.1527 -0.6419  1.0682
 7690SOL     OW34531   0.103   1.380   2.845  0.1564 -0.0706 -0.1591
 7690SOL    HW134532   0.021   1.359   2.890  0.6429 -1.2829  0.1564
 7690SOL    HW234533   0.161   1.329   2.901  1.1385  1.7006  0.4185
 7691SOL     OW34534   0.593   2.597   0.311  0.4173  0.5210 -0.0126
 7691SOL    HW134535   0.649   2.592   0.388  0.2942 -1.2707 -0.0251
 7691SOL    HW234536   0.553   2.682   0.329  0.3775  0.0628  2.0055
 7692SOL     OW34537   1.616   4.602   9.106  0.1567 -0.0105 -0.2194
 7692SOL    HW134538   1.596   4.511   9.082 -1.4513  0.1271  0.6104
 7692SOL    HW234539   1.525   4.630   9.115  0.6110  1.4585 -0.2131
 7693SOL     OW34540   1.009   2.972   4.333  0.9887 -0.4285  0.3344
 7693SOL    HW134541   0.944   2.932   4.275  0.5733  1.3185 -0.4137
 7693SOL    HW234542   1.089   2.966   4.280  1.1162 -1.5832  0.6513
 7694SOL     OW34543   2.780   3.310   0.965  0.5044 -0.3334  0.3548
 7694SOL    HW134544   2.845   3.377   0.988 -0.3093  0.3157  0.7643
 7694SOL    HW234545   2.811   3.242   1.025  0.8576  0.7792  1.4392
 7695SOL     OW34546   1.090   3.761   0.754 -0.2108 -0.1569 -0.2762
 7695SOL    HW134547   1.087   3.815   0.833  0.1888 -0.1820 -0.2440
 7695SOL    HW234548   1.182   3.733   0.757  0.0525  0.5889 -1.3413
 7696SOL     OW34549   3.790   3.596   3.409  0.4787 -0.0249  0.3852
 7696SOL    HW134550   3.728   3.525   3.428 -0.6296  1.2467  1.4778
 7696SOL    HW234551   3.813   3.640   3.491  0.9047  2.4857 -1.1071
 7697SOL     OW34552   1.090   2.974   9.265  0.4236 -0.6685  0.0281
 7697SOL    HW134553   1.047   2.928   9.338  1.1892 -0.0492  0.8739
 7697SOL    HW234554   1.016   3.029   9.239 -0.2106 -1.2778  0.5479
 7698SOL     OW34555   3.389   2.149   6.712 -0.2603  0.3574 -0.1103
 7698SOL    HW134556   3.349   2.207   6.647  3.2326  2.7042 -0.1115
 7698SOL    HW234557   3.467   2.127   6.662 -0.1735  0.6558 -0.1059
 7699SOL     OW34558   3.440   1.893   5.378  0.3609 -0.2722 -0.0434
 7699SOL    HW134559   3.465   1.913   5.288  0.0005 -0.3796 -0.1654
 7699SOL    HW234560   3.532   1.884   5.404  0.2036  0.6723  0.8531
 7700SOL     OW34561   1.049   3.168   6.131  0.6503 -0.4314  0.1643
 7700SOL    HW134562   0.981   3.188   6.195  1.7715  1.2671  0.8216
 7700SOL    HW234563   1.105   3.245   6.135 -2.5272  1.9197 -0.6981
 7701SOL     OW34564   1.287   2.721  15.629  0.2034 -0.6553  0.5076
 7701SOL    HW134565   1.291   2.709  15.535 -1.4871 -3.3549  0.7906
 7701SOL    HW234566   1.239   2.645  15.662 -1.8080 -0.1175 -1.2125
 7702SOL     OW34567   2.368   1.940   4.053 -0.0477  0.6406 -0.1425
 7702SOL    HW134568   2.420   1.951   4.132 -0.2738  0.8484 -0.0231
 7702SOL    HW234569   2.283   1.982   4.066 -1.5134 -2.2945 -0.0908
 7703SOL     OW34570   4.119   1.912  17.484 -0.1715  0.0206  0.7587
 7703SOL    HW134571   4.208   1.928  17.452  0.5927 -2.2276  1.7392
 7703SOL    HW234572   4.140   1.874  17.569  2.0864  0.8831  0.5968
 7704SOL     OW34573   2.655   4.211   7.041  0.6193 -0.7211 -0.0726
 7704SOL    HW134574   2.563   4.189   7.059  0.6838  1.3247  2.8861
 7704SOL    HW234575   2.661   4.222   6.946 -0.4507  0.3290 -0.0242
 7705SOL     OW34576   0.513   3.390   6.611 -1.0700  0.0876 -0.0110
 7705SOL    HW134577   0.522   3.309   6.660  1.5006  0.7801  0.6796
 7705SOL    HW234578   0.586   3.442   6.644 -0.2930 -1.2113  0.2745
 7706SOL     OW34579   1.705   2.223   8.269 -0.4066 -0.3117  0.0613
 7706SOL    HW134580   1.734   2.230   8.360 -2.2199 -2.8185  0.8289
 7706SOL    HW234581   1.705   2.128   8.255 -0.6711  0.0040 -1.9627
 7707SOL     OW34582   3.609   4.136   7.863 -0.0145 -0.0910  0.0270
 7707SOL    HW134583   3.622   4.137   7.958  0.7739  1.5526 -0.0875
 7707SOL    HW234584   3.612   4.043   7.840  0.8474  0.1575 -0.9051
 7708SOL     OW34585   0.424   1.007   8.256 -0.2398 -0.1905  0.4164
 7708SOL    HW134586   0.349   0.997   8.198  1.3965 -0.1482 -1.7333
 7708SOL    HW234587   0.371   0.990   8.334 -1.5310 -0.7058 -0.5667
 7709SOL     OW34588   2.662   2.296   9.043  0.5690 -0.5914 -0.0158
 7709SOL    HW134589   2.623   2.378   9.070  1.6252 -0.0310 -0.1850
 7709SOL    HW234590   2.581   2.246   9.031 -0.5463  1.0275  0.8203
 7710SOL     OW34591   1.168   2.371   8.312  0.0842  0.0780  0.4651
 7710SOL    HW134592   1.107   2.387   8.240 -0.2947 -1.3543  0.4769
 7710SOL    HW234593   1.248   2.349   8.264  0.0894  0.0316  0.4949
 7711SOL     OW34594   1.104   2.838   3.820 -0.3288  0.0153 -0.0659
 7711SOL    HW134595   1.085   2.785   3.897 -0.7043 -0.3429 -0.4037
 7711SOL    HW234596   1.045   2.913   3.828  1.2805  1.0027  2.3150
 7712SOL     OW34597   4.719   4.204   7.981  0.3724  0.5247 -0.1388
 7712SOL    HW134598   0.008   4.139   7.911  0.4778 -0.2541  0.5914
 7712SOL    HW234599   4.684   4.278   7.931 -0.3920  0.3724  0.1751
 7713SOL     OW34600   0.665   1.956  11.037  0.6375 -0.4105 -0.3126
 7713SOL    HW134601   0.650   2.016  11.110  1.9188 -0.3876 -0.0717
 7713SOL    HW234602   0.719   2.014  10.983 -1.2480  3.0372  1.4987
 7714SOL     OW34603   4.392   0.851  12.369  0.3778 -0.1865 -0.3643
 7714SOL    HW134604   4.440   0.932  12.385  0.7092 -0.1256 -1.6561
 7714SOL    HW234605   4.311   0.871  12.416  1.0987  2.2674 -0.1984
 7715SOL     OW34606   3.332   3.860   0.368  0.3310  1.2964 -0.4504
 7715SOL    HW134607   3.308   3.937   0.316  2.5462  1.6526 -0.9447
 7715SOL    HW234608   3.291   3.795   0.311 -0.0444 -0.3799  1.7373
 7716SOL     OW34609   4.085   2.814   8.786 -0.3925 -0.0338  0.1666
 7716SOL    HW134610   4.141   2.872   8.735  1.1563 -3.0108 -1.4852
 7716SOL    HW234611   4.135   2.739   8.819 -2.3173 -1.7487 -0.7904
 7717SOL     OW34612   1.295   3.940   6.579 -0.1660 -0.3520  0.2165
 7717SOL    HW134613   1.232   3.966   6.513 -0.9261  0.0983  1.1213
 7717SOL    HW234614   1.267   3.851   6.602 -1.3465  0.1068  0.5124
 7718SOL     OW34615   3.777   2.880   4.878 -0.1669 -0.1068  0.1051
 7718SOL    HW134616   3.687   2.900   4.852  1.0060  2.4197 -1.8849
 7718SOL    HW234617   3.767   2.786   4.895  0.2068 -0.0637  0.5765
 7719SOL     OW34618   1.353   2.934   9.183 -0.4070 -0.2004  0.0040
 7719SOL    HW134619   1.388   3.019   9.158  1.7382 -0.9864  0.2815
 7719SOL    HW234620   1.272   2.952   9.230 -0.1287 -0.3885  0.5622
 7720SOL     OW34621   4.333   1.573   2.981 -0.2438  0.0420 -0.2282
 7720SOL    HW134622   4.283   1.624   2.918  0.7767  1.1001 -0.1942
 7720SOL    HW234623   4.354   1.495   2.930  1.7331  0.6007 -0.2732
 7721SOL     OW34624   0.108   2.623  10.776 -0.2987 -0.1709  0.3997
 7721SOL    HW134625   0.130   2.591  10.688  0.9877  1.8225 -0.0065
 7721SOL    HW234626   0.113   2.718  10.776  3.5626 -0.3537  3.6107
 7722SOL     OW34627   1.708   3.982   7.333  0.0953  0.5603 -0.2447
 7722SOL    HW134628   1.759   3.971   7.413 -1.8714  1.5873  1.1769
 7722SOL    HW234629   1.670   4.067   7.358  1.4445  1.3356 -0.8432
 7723SOL     OW34630   0.070   4.071   1.623  0.1322 -0.4841  0.2872
 7723SOL    HW134631   4.711   4.022   1.644  1.3020 -3.3583 -2.0274
 7723SOL    HW234632   0.021   4.138   1.574 -2.4445 -2.7222 -0.1982
 7724SOL     OW34633   1.926   4.489   0.022 -0.7408 -0.2879 -0.4908
 7724SOL    HW134634   1.949   4.400   0.049 -2.6951 -0.2208  1.3692
 7724SOL    HW234635   1.870   4.451  17.640  0.0159 -0.2694 -1.1323
 7725SOL     OW34636   2.890   4.086   3.016 -0.1481  0.3814 -0.2340
 7725SOL    HW134637   2.856   4.017   2.959 -1.1744 -0.5569  1.5293
 7725SOL    HW234638   2.868   4.046   3.100  0.7093 -0.3311 -0.3413
 7726SOL     OW34639   0.850   4.351   3.991 -0.6672  0.3403  0.4792
 7726SOL    HW134640   0.819   4.374   4.078  0.8679 -0.5541  1.2582
 7726SOL    HW234641   0.930   4.402   3.979  0.9561 -2.5259 -1.0623
 7727SOL     OW34642   1.868   4.200   2.461  0.2479  0.3082 -0.4395
 7727SOL    HW134643   1.878   4.152   2.379  0.0431  0.1195 -0.3521
 7727SOL    HW234644   1.955   4.234   2.479  0.1099 -0.7157  2.2002
 7728SOL     OW34645   3.696   3.845  12.528 -0.0705 -0.4014  0.0091
 7728SOL    HW134646   3.734   3.874  12.445  0.0904 -1.0301 -0.1426
 7728SOL    HW234647   3.628   3.783  12.502  0.4894 -0.9023 -0.2920
 7729SOL     OW34648   3.789   0.116  13.489 -0.0728 -0.3366  0.2593
 7729SOL    HW134649   3.831   0.076  13.566  1.7161 -0.1972 -0.6276
 7729SOL    HW234650   3.781   0.206  13.520  1.7887 -0.5016  1.2775
 7730SOL     OW34651   1.912   3.782   8.290  0.3812 -0.0517 -0.2694
 7730SOL    HW134652   1.861   3.704   8.315  1.6491 -0.2090  1.8899
 7730SOL    HW234653   1.983   3.761   8.351  0.8104 -0.0988 -0.7902
 7731SOL     OW34654   1.930   4.369   3.635  0.0052 -0.2951  0.3768
 7731SOL    HW134655   1.868   4.327   3.575  0.8407  0.5831 -1.0819
 7731SOL    HW234656   1.909   4.461   3.620 -0.2422 -0.5392 -0.7655
 7732SOL     OW34657   0.473   0.883  12.418 -0.3155 -0.4656 -0.2083
 7732SOL    HW134658   0.552   0.830  12.410 -0.9332 -1.1288 -2.0361
 7732SOL    HW234659   0.428   0.846  12.341 -1.2257  0.4650 -0.1204
 7733SOL     OW34660   2.570   1.713   3.055  0.1078 -0.1905 -0.6198
 7733SOL    HW134661   2.524   1.782   3.007 -0.1674 -0.8207 -1.2589
 7733SOL    HW234662   2.641   1.765   3.093 -0.3704  1.6661 -2.2651
 7734SOL     OW34663   2.202   3.501  11.320 -0.1254  0.3337 -0.3155
 7734SOL    HW134664   2.283   3.539  11.288  0.2277 -0.0049  0.1795
 7734SOL    HW234665   2.221   3.501  11.414  1.0657 -0.2188 -0.5661
 7735SOL     OW34666   2.630   2.913   8.786  0.0444 -0.1302 -0.0320
 7735SOL    HW134667   2.613   2.999   8.747  0.2655 -1.3448 -2.8556
 7735SOL    HW234668   2.620   2.860   8.707 -1.8797  1.4090 -0.8243
 7736SOL     OW34669   4.026   1.644   0.637 -0.3081  0.3738 -0.2599
 7736SOL    HW134670   4.121   1.631   0.642 -0.3329  0.3908  0.2269
 7736SOL    HW234671   4.010   1.646   0.543 -0.0857  1.0729 -0.2837
 7737SOL     OW34672   1.239   0.852  15.435 -0.2871 -0.1728 -0.1158
 7737SOL    HW134673   1.189   0.819  15.510 -1.0015 -1.2903 -1.0799
 7737SOL    HW234674   1.331   0.832  15.454  0.5371  2.4486 -1.3328
 7738SOL     OW34675   4.120   2.467  13.118 -0.3631 -0.2620  0.5956
 7738SOL    HW134676   4.174   2.406  13.068  0.1651  0.4699  0.2726
 7738SOL    HW234677   4.033   2.429  13.111 -0.2075 -0.5978  0.5039
 7739SOL     OW34678   0.748   3.676   7.638 -0.5260  0.7925 -0.1967
 7739SOL    HW134679   0.695   3.676   7.559 -0.7415  0.1521 -0.0589
 7739SOL    HW234680   0.830   3.672   7.589 -0.4387 -1.1325  0.0784
 7740SOL     OW34681   1.074   0.651  11.673 -0.5911 -0.2147 -0.0780
 7740SOL    HW134682   1.002   0.689  11.623  1.1615  1.4777 -1.3298
 7740SOL    HW234683   1.091   0.568  11.628 -1.0531 -0.5988  0.4599
 7741SOL     OW34684   1.438   1.242   5.531 -0.0848  0.1987 -0.0722
 7741SOL    HW134685   1.455   1.156   5.492 -0.4972  0.2346 -0.3304
 7741SOL    HW234686   1.489   1.294   5.468  0.6255  3.4609  3.2266
 7742SOL     OW34687   4.494   4.088  15.933 -0.0474  0.6878  0.3625
 7742SOL    HW134688   4.476   4.021  15.866  0.9953  0.8107 -0.0421
 7742SOL    HW234689   4.478   4.172  15.890 -0.7375  0.6727  0.5825
 7743SOL     OW34690   4.482   3.621   1.922  0.7977 -0.3614  0.0823
 7743SOL    HW134691   4.420   3.557   1.886  0.9024 -0.1422 -0.4900
 7743SOL    HW234692   4.521   3.658   1.843 -0.1366 -2.8929 -1.5689
 7744SOL     OW34693   1.357   4.075   6.220  0.2711 -0.4658 -0.1893
 7744SOL    HW134694   1.317   4.132   6.154  0.3687  0.7181  0.7836
 7744SOL    HW234695   1.406   4.137   6.273  1.5669  0.3144 -2.2919
 7745SOL     OW34696   1.650   1.215   2.858 -0.6779  0.0662 -0.0656
 7745SOL    HW134697   1.706   1.292   2.848 -0.7657  0.5075  2.8665
 7745SOL    HW234698   1.707   1.142   2.833 -1.9746 -0.5044 -1.3947
 7746SOL     OW34699   2.923   3.804   6.983 -0.8702  0.9087 -0.5427
 7746SOL    HW134700   2.838   3.844   6.963 -1.6725 -0.9389 -0.8694
 7746SOL    HW234701   2.991   3.852   6.935  0.7149 -1.2364 -0.4378
 7747SOL     OW34702   3.414   2.901  17.601  0.0784 -0.1681  0.4127
 7747SOL    HW134703   3.451   2.989  17.593 -1.5066  0.4429 -0.1593
 7747SOL    HW234704   3.359   2.915  17.524  0.3980 -2.5450 -0.2367
 7748SOL     OW34705   1.128   0.357   5.846  0.3795 -0.1012 -0.1018
 7748SOL    HW134706   1.068   0.371   5.920 -0.3068 -0.3165 -0.6215
 7748SOL    HW234707   1.102   0.426   5.786  0.5933  0.6689  0.6899
 7749SOL     OW34708   2.130   1.509   7.128  0.3026 -0.0348  0.0806
 7749SOL    HW134709   2.050   1.469   7.094  1.7371  0.1763 -3.5290
 7749SOL    HW234710   2.159   1.450   7.197  0.0527  1.0782  1.1363
 7750SOL     OW34711   3.817   4.523  15.667 -0.4803  0.3193  0.1545
 7750SOL    HW134712   3.721   4.525  15.668 -0.4651  1.6961 -1.6272
 7750SOL    HW234713   3.835   4.433  15.695 -0.0801  0.4503  0.3248
 7751SOL     OW34714   3.381   2.616   6.315 -0.1345 -0.2534  0.1454
 7751SOL    HW134715   3.388   2.711   6.322 -0.7923 -0.2073  0.2059
 7751SOL    HW234716   3.441   2.582   6.381  0.8378  0.6679 -0.2440
 7752SOL     OW34717   0.312   0.447   6.459  0.6588  0.3225  0.2295
 7752SOL    HW134718   0.283   0.497   6.383 -1.0679 -0.3748  0.4425
 7752SOL    HW234719   0.407   0.458   6.460  0.9923 -2.8116  1.6278
 7753SOL     OW34720   4.205   3.954  12.723  0.3605 -0.1969  0.4579
 7753SOL    HW134721   4.230   3.965  12.815 -1.1404  0.0293  0.8356
 7753SOL    HW234722   4.124   3.903  12.726  0.6926 -0.6731  1.3417
 7754SOL     OW34723   1.110   1.208   3.728 -0.7256 -0.0661 -0.5031
 7754SOL    HW134724   1.016   1.215   3.742 -0.9009 -2.4520 -0.4142
 7754SOL    HW234725   1.149   1.284   3.771 -0.2696  0.3339 -1.6316
 7755SOL     OW34726   2.444   1.949  11.432  0.3421 -0.9074  0.3595
 7755SOL    HW134727   2.427   1.987  11.519 -0.4710 -0.7766  0.1427
 7755SOL    HW234728   2.480   2.021  11.380 -0.9063 -0.0098  0.7503
 7756SOL     OW34729   0.785   2.343  17.371 -0.1396 -0.0357 -0.2839
 7756SOL    HW134730   0.873   2.377  17.384 -0.6892  2.7916 -3.7117
 7756SOL    HW234731   0.792   2.266  17.427  1.5156 -0.0621 -0.5277
 7757SOL     OW34732   2.839   1.673   7.523 -0.5902 -0.0391 -0.4345
 7757SOL    HW134733   2.805   1.674   7.433 -1.0643 -1.8356 -0.2682
 7757SOL    HW234734   2.933   1.678   7.506 -0.3223 -0.0792  1.1092
 7758SOL     OW34735   1.396   0.414   5.264  0.1966  0.3582  0.1028
 7758SOL    HW134736   1.357   0.478   5.205  0.6766 -1.8014 -2.5653
 7758SOL    HW234737   1.427   0.353   5.197  0.1296  1.1818 -0.6700
 7759SOL     OW34738   0.249   4.206   0.128  0.4641  0.0749 -0.0400
 7759SOL    HW134739   0.196   4.238   0.055  0.8545 -1.0764 -0.8294
 7759SOL    HW234740   0.283   4.288   0.164  0.3836 -1.1656  2.8438
 7760SOL     OW34741   4.027   3.589  15.237 -0.5560 -0.0367 -0.3590
 7760SOL    HW134742   4.038   3.631  15.322 -0.4958 -1.4195  0.3148
 7760SOL    HW234743   4.097   3.524  15.241  1.0704  1.7917  0.9669
 7761SOL     OW34744   0.544   0.278   7.308  1.2869  0.7670  0.0127
 7761SOL    HW134745   0.583   0.202   7.265 -0.9741  0.6809 -1.8989
 7761SOL    HW234746   0.587   0.353   7.268  3.6225 -0.0233  1.0086
 7762SOL     OW34747   1.050   3.992   5.580  0.2512 -0.1699 -0.3771
 7762SOL    HW134748   0.992   4.005   5.505  1.4462  0.3658 -1.2175
 7762SOL    HW234749   1.125   4.049   5.563  0.8724 -0.5560  1.1113
 7763SOL     OW34750   1.137   1.880   2.674  0.1615  0.5448 -0.7233
 7763SOL    HW134751   1.159   1.938   2.601 -1.8527 -0.8935 -2.4786
 7763SOL    HW234752   1.042   1.891   2.681  0.0752 -1.1076  0.7422
 7764SOL     OW34753   2.197   3.999   6.846  0.0209  0.0553  0.1640
 7764SOL    HW134754   2.276   4.007   6.793  0.1360 -0.2553  0.2890
 7764SOL    HW234755   2.132   3.986   6.776 -1.6138  1.6767  1.3745
 7765SOL     OW34756   2.723   4.065   6.573  0.2117  0.2304  1.0002
 7765SOL    HW134757   2.656   4.082   6.507  0.7019 -3.3352 -0.4156
 7765SOL    HW234758   2.747   3.974   6.553  4.4515  1.8399 -1.1790
 7766SOL     OW34759   3.393   3.533   3.898  0.5340  0.3804 -0.0863
 7766SOL    HW134760   3.470   3.482   3.925 -0.7381 -0.9150  1.0547
 7766SOL    HW234761   3.441   3.609   3.866  1.0098  0.3279  0.5071
 7767SOL     OW34762   0.569   2.002   4.517 -0.4980 -0.3569  0.0451
 7767SOL    HW134763   0.663   1.991   4.503 -0.4979  0.5003 -0.6294
 7767SOL    HW234764   0.539   2.031   4.431  2.2960  0.4270 -0.6343
 7768SOL     OW34765   1.526   2.059   9.277 -0.2979 -0.0834  0.4487
 7768SOL    HW134766   1.608   2.056   9.325 -0.9469 -0.4347  1.5344
 7768SOL    HW234767   1.459   2.017   9.331  0.9641 -0.7355  1.4840
 7769SOL     OW34768   0.096   4.231  13.830 -0.4442  0.4185  0.4416
 7769SOL    HW134769   0.185   4.221  13.797 -1.0974 -0.0531 -1.2093
 7769SOL    HW234770   0.111   4.310  13.882 -1.1740  0.2997  0.8261
 7770SOL     OW34771   2.887   3.060   9.253  0.1633  0.3565 -0.0136
 7770SOL    HW134772   2.852   3.009   9.180  2.3807 -3.0083  1.2581
 7770SOL    HW234773   2.872   3.142   9.205  0.9800  0.0263 -0.8150
 7771SOL     OW34774   1.591   2.623   8.834  0.0015  0.6836 -0.2585
 7771SOL    HW134775   1.665   2.679   8.807 -0.3285  3.1763  3.9110
 7771SOL    HW234776   1.565   2.674   8.911 -0.2722  0.7833 -0.4203
 7772SOL     OW34777   4.560   0.108   5.017 -0.2904  0.3230  0.0966
 7772SOL    HW134778   4.544   0.193   4.978  1.4391 -0.4682 -2.3836
 7772SOL    HW234779   4.507   0.051   4.960  0.9372  0.2400 -0.9617
 7773SOL     OW34780   0.467   0.322   6.804 -0.0393  0.2414  0.6513
 7773SOL    HW134781   0.529   0.392   6.786  0.5937  0.0008  1.9091
 7773SOL    HW234782   0.479   0.273   6.723 -1.2596 -1.5344  1.5453
 7774SOL     OW34783   2.006   2.662   7.019 -0.6575  0.8175  0.2088
 7774SOL    HW134784   2.025   2.644   6.927  1.3335  2.9431  0.1751
 7774SOL    HW234785   2.032   2.579   7.058  0.6386  0.7313 -0.8380
 7775SOL     OW34786   0.139   4.346   2.056 -0.3577 -0.2099  0.2202
 7775SOL    HW134787   0.125   4.269   2.111 -1.6900  0.6371  1.0794
 7775SOL    HW234788   0.102   4.323   1.971 -1.1095 -2.1644  1.0605
 7776SOL     OW34789   1.648   2.732  16.384 -0.2041 -0.3783 -0.7275
 7776SOL    HW134790   1.676   2.659  16.329  0.9055 -1.2907  1.0883
 7776SOL    HW234791   1.693   2.807  16.344 -0.6142 -0.9979 -2.3831
 7777SOL     OW34792   3.570   4.161   0.969  0.0349  0.3848 -0.4977
 7777SOL    HW134793   3.574   4.146   0.875  1.2811  1.6207 -0.6444
 7777SOL    HW234794   3.630   4.092   0.999 -1.1482 -0.3620  0.1598
 7778SOL     OW34795   1.526   2.464   9.958  0.6832  0.2301 -0.4413
 7778SOL    HW134796   1.499   2.411   9.883  1.5702  0.8017 -1.1609
 7778SOL    HW234797   1.485   2.547   9.933  0.5034  0.0249 -0.8385
 7779SOL     OW34798   4.656   1.963   5.394  0.1256  0.0052  0.4577
 7779SOL    HW134799   0.007   2.013   5.355  2.8697 -3.3798  1.1964
 7779SOL    HW234800   4.711   1.886   5.407 -0.0863 -0.1288  0.5672
 7780SOL     OW34801   0.556   1.354   2.902 -0.7973 -0.7498  0.3130
 7780SOL    HW134802   0.634   1.332   2.851  0.1246 -0.4436  1.5964
 7780SOL    HW234803   0.556   1.449   2.890  2.2145 -0.9399 -1.3648
 7781SOL     OW34804   1.896   2.006  10.100  0.8668  0.1642 -0.4798
 7781SOL    HW134805   1.972   2.064  10.112 -0.4894  1.5836  1.2555
 7781SOL    HW234806   1.937   1.923  10.125  0.7235 -0.0890 -1.0833
 7782SOL     OW34807   0.126   2.462   3.543  0.0200  0.0360  0.0344
 7782SOL    HW134808   0.043   2.456   3.497  1.6236 -0.8650 -2.7424
 7782SOL    HW234809   0.178   2.395   3.499  2.2232 -0.4477  3.3881
 7783SOL     OW34810   2.597   4.615   2.871  0.4380  0.3359 -0.0618
 7783SOL    HW134811   2.657   4.584   2.939 -0.7786  0.0287  0.8628
 7783SOL    HW234812   2.649   4.685   2.831  2.7442 -0.7159  1.0936
 7784SOL     OW34813   0.617   2.213   9.658 -0.0739  0.4864  0.1890
 7784SOL    HW134814   0.598   2.124   9.688  0.5158  1.0441  2.2248
 7784SOL    HW234815   0.710   2.208   9.638 -0.6023 -2.2793 -1.4997
 7785SOL     OW34816   3.913   0.679   5.679 -0.4651 -0.7188  0.0914
 7785SOL    HW134817   3.862   0.675   5.599  0.5147  0.6441 -0.5954
 7785SOL    HW234818   3.983   0.628   5.639 -0.8731 -2.0823  1.1066
 7786SOL     OW34819   3.151   0.410   4.661  0.5142 -0.1134  0.1335
 7786SOL    HW134820   3.179   0.322   4.633  2.1942  0.1406  0.9839
 7786SOL    HW234821   3.138   0.448   4.575 -1.7611  0.1249  0.5819
 7787SOL     OW34822   2.800   3.486   3.302  0.2775 -0.1389 -0.3681
 7787SOL    HW134823   2.811   3.416   3.237  1.4075 -2.2882  2.1378
 7787SOL    HW234824   2.826   3.566   3.256  0.6135  0.4113  0.7967
 7788SOL     OW34825   1.434   2.497  17.132  0.2221 -0.9489 -0.2624
 7788SOL    HW134826   1.524   2.524  17.151 -1.3529  2.3549  2.4279
 7788SOL    HW234827   1.381   2.571  17.101 -2.0091 -2.8565 -0.9981
 7789SOL     OW34828   2.720   2.998   4.856  0.3449  0.4538  0.2794
 7789SOL    HW134829   2.626   3.002   4.841  0.1085 -1.2118  1.3090
 7789SOL    HW234830   2.721   2.918   4.910  0.5987  0.1471 -0.1816
 7790SOL     OW34831   0.841   1.161  11.088 -0.1122  0.5237  0.2185
 7790SOL    HW134832   0.899   1.143  11.013 -0.5036  0.7248 -0.1346
 7790SOL    HW234833   0.903   1.165  11.161 -0.5143  1.5793  0.4877
 7791SOL     OW34834   1.957   2.791  15.884 -0.2797  0.1457  0.0843
 7791SOL    HW134835   2.046   2.810  15.854  0.8958 -1.4191  2.5387
 7791SOL    HW234836   1.944   2.852  15.956 -2.1231  0.0765 -0.1979
 7792SOL     OW34837   4.357   1.219   4.316  0.3912 -0.2420 -0.4827
 7792SOL    HW134838   4.268   1.217   4.282  1.3913 -0.9573 -3.0300
 7792SOL    HW234839   4.412   1.228   4.239  0.8085  0.8124 -0.0637
 7793SOL     OW34840   3.988   0.892   6.382  0.1782  0.2702  0.4065
 7793SOL    HW134841   4.007   0.868   6.291 -0.5618  3.8908 -0.7310
 7793SOL    HW234842   4.039   0.973   6.377 -0.2655  0.4216 -1.7732
 7794SOL     OW34843   1.261   2.871   6.846  0.1740 -0.0718 -0.7080
 7794SOL    HW134844   1.248   2.782   6.814 -4.2914  0.6974 -1.0397
 7794SOL    HW234845   1.171   2.889   6.872  1.0369 -0.5549  2.6607
 7795SOL     OW34846   0.244   0.635   5.210  0.2345  0.2000  0.4795
 7795SOL    HW134847   0.284   0.622   5.296  1.8838 -1.0584 -0.4787
 7795SOL    HW234848   0.318   0.615   5.153 -1.1782 -0.2750 -1.2208
 7796SOL     OW34849   2.630   0.318  14.267  0.1727 -0.5246  0.0937
 7796SOL    HW134850   2.544   0.348  14.297 -0.1080 -1.7809  0.5396
 7796SOL    HW234851   2.680   0.397  14.286 -0.6234 -0.1248  0.5079
 7797SOL     OW34852   1.676   2.881   4.930  0.3797  0.2407 -0.0448
 7797SOL    HW134853   1.764   2.887   4.892  1.3314  0.1127  2.1180
 7797SOL    HW234854   1.644   2.802   4.885  0.7313 -0.5599  1.1236
 7798SOL     OW34855   2.589   0.553   3.013 -0.0234  0.1401  0.2663
 7798SOL    HW134856   2.627   0.568   2.927  0.2152 -3.4412 -0.2512
 7798SOL    HW234857   2.554   0.641   3.031  1.6032  0.8141  0.1717
 7799SOL     OW34858   1.935   2.667   9.609  0.1058 -0.1535 -0.1043
 7799SOL    HW134859   1.920   2.599   9.675 -1.9716  0.6810  0.3006
 7799SOL    HW234860   1.947   2.621   9.526  1.3323  0.7961 -0.4398
 7800SOL     OW34861   3.479   4.702   5.604 -0.0157  0.4154 -0.1913
 7800SOL    HW134862   3.490   0.033   5.684 -0.4005  0.1881  0.0081
 7800SOL    HW234863   3.515   4.616   5.628  1.4898  1.3969  1.1174
 7801SOL     OW34864   1.459   2.235   7.397 -0.2678 -0.0498  0.5581
 7801SOL    HW134865   1.516   2.229   7.320 -0.8431 -1.3626  0.2447
 7801SOL    HW234866   1.511   2.187   7.461 -0.9646 -0.4526  0.8159
 7802SOL     OW34867   2.017   4.389   7.193 -0.1753  0.3056 -0.5223
 7802SOL    HW134868   2.068   4.377   7.274 -0.6716  0.0940 -0.2396
 7802SOL    HW234869   1.931   4.364   7.228  0.4574 -0.6903  0.3456
 7803SOL     OW34870   2.715   4.510  15.177  0.2403 -0.4713  0.0328
 7803SOL    HW134871   2.749   4.556  15.253  1.3984  1.3989 -1.6247
 7803SOL    HW234872   2.649   4.453  15.216 -2.7595  1.3437 -2.3822
 7804SOL     OW34873   3.295   0.005   9.989 -0.8374  0.1690  0.0171
 7804SOL    HW134874   3.311   0.090   9.947  3.2695 -0.4589  0.2599
 7804SOL    HW234875   3.358   4.670   9.943  1.0823  2.3263 -0.0137
 7805SOL     OW34876   2.229   1.654  15.195 -0.0921 -0.6608  0.6934
 7805SOL    HW134877   2.175   1.724  15.232 -0.1261 -1.0636  1.3859
 7805SOL    HW234878   2.315   1.696  15.196  0.6481 -2.2696  2.2484
 7806SOL     OW34879   4.595   3.582   9.628 -0.0973  0.8618  0.0246
 7806SOL    HW134880   4.604   3.511   9.565 -1.7504  0.2205  0.4972
 7806SOL    HW234881   4.523   3.631   9.590 -1.1631 -1.0319 -0.3918
 7807SOL     OW34882   3.281   4.562  13.634  0.0133  0.8551  0.4272
 7807SOL    HW134883   3.366   4.577  13.593  0.1293  1.5096  0.9063
 7807SOL    HW234884   3.303   4.497  13.700 -1.8782 -0.6759 -0.4246
 7808SOL     OW34885   3.890   0.636  15.864 -0.5679 -0.7283  0.6359
 7808SOL    HW134886   3.966   0.682  15.898 -1.4939 -0.2531  2.0227
 7808SOL    HW234887   3.826   0.706  15.874  0.9316  0.4995  1.4744
 7809SOL     OW34888   4.540   2.946   3.914  0.1601 -0.3488 -0.1009
 7809SOL    HW134889   4.618   2.978   3.960  0.0783  0.1795 -0.3294
 7809SOL    HW234890   4.553   2.994   3.832  0.5657  0.0613  0.2062
 7810SOL     OW34891   0.778   3.506   3.007 -0.1248 -0.3060  0.5241
 7810SOL    HW134892   0.736   3.505   2.921  3.9031 -0.0749 -1.4427
 7810SOL    HW234893   0.864   3.468   2.990  1.9179  4.0427  1.1444
 7811SOL     OW34894   4.255   1.779  12.745  0.0026 -0.1176 -0.1004
 7811SOL    HW134895   4.287   1.771  12.835  0.2730 -0.7108 -0.2508
 7811SOL    HW234896   4.216   1.866  12.737 -1.3040 -0.6668  0.2304
 7812SOL     OW34897   1.982   4.272   0.584 -0.1483 -1.2982  0.3098
 7812SOL    HW134898   2.016   4.185   0.561  3.2490 -0.5677  2.5825
 7812SOL    HW234899   1.889   4.252   0.572 -0.5370 -0.3231  1.7743
 7813SOL     OW34900   2.029   4.106   8.740 -0.0598  0.1326  0.5099
 7813SOL    HW134901   2.102   4.070   8.791  0.2497  0.9567  0.6459
 7813SOL    HW234902   2.047   4.200   8.740  0.0890  0.0949 -1.1864
 7814SOL     OW34903   4.521   4.432   7.409  0.0143  0.7674  0.8012
 7814SOL    HW134904   4.597   4.487   7.387 -1.1548  2.2104  0.3812
 7814SOL    HW234905   4.538   4.401   7.498  0.0982 -1.5065 -0.0271
 7815SOL     OW34906   3.425   3.630   4.625 -0.0806 -0.5208 -0.0990
 7815SOL    HW134907   3.518   3.631   4.601 -0.1827 -0.1561 -0.4665
 7815SOL    HW234908   3.385   3.589   4.548  1.9043 -1.0107 -0.8716
 7816SOL     OW34909   1.387   1.523   7.192 -0.0359 -0.4996  0.6980
 7816SOL    HW134910   1.346   1.459   7.250  0.6954 -1.3081  0.3273
 7816SOL    HW234911   1.467   1.482   7.158  1.8340  1.0806  3.2060
 7817SOL     OW34912   0.117   1.105   5.527  0.2897  0.1731 -0.0039
 7817SOL    HW134913   0.116   1.197   5.502  1.2881  0.7588  2.0398
 7817SOL    HW234914   0.201   1.106   5.574  0.3235  1.1443 -0.0938
 7818SOL     OW34915   0.640   1.862   5.827 -0.2076 -0.2780  0.1707
 7818SOL    HW134916   0.660   1.943   5.874 -1.7199 -1.5088  2.9097
 7818SOL    HW234917   0.728   1.841   5.795 -0.1141  1.4604 -0.7117
 7819SOL     OW34918   1.914   0.951   4.353  0.1294  0.1246  0.1985
 7819SOL    HW134919   1.857   1.024   4.328 -0.7279 -0.7268 -0.3111
 7819SOL    HW234920   1.876   0.913   4.431  1.8941 -1.0385  0.4953
 7820SOL     OW34921   4.602   3.836   2.474 -0.6096  0.2396 -0.9345
 7820SOL    HW134922   4.525   3.844   2.531 -1.8740  1.3294 -2.7842
 7820SOL    HW234923   4.588   3.744   2.452 -2.2892  0.0664  0.8308
 7821SOL     OW34924   0.848   2.838   7.972  0.2494 -0.0534  0.2495
 7821SOL    HW134925   0.771   2.869   7.923  1.5315  0.2204 -1.5950
 7821SOL    HW234926   0.818   2.749   7.989  1.5706 -0.4486  0.4982
 7822SOL     OW34927   4.434   4.274   0.700 -0.5929  0.3968  0.2666
 7822SOL    HW134928   4.351   4.300   0.661  0.0946  1.7055 -0.2897
 7822SOL    HW234929   4.437   4.180   0.679 -0.2879  0.7659 -1.3153
 7823SOL     OW34930   0.792   1.583   5.041 -0.1698  0.0619 -0.1987
 7823SOL    HW134931   0.768   1.557   5.129 -0.0034  1.0021  0.1276
 7823SOL    HW234932   0.740   1.522   4.988  0.2916 -0.2724 -0.2606
 7824SOL     OW34933   3.532   1.286   8.191  0.1569 -0.0280  0.6160
 7824SOL    HW134934   3.581   1.334   8.258  0.3284 -0.1410  0.5733
 7824SOL    HW234935   3.560   1.196   8.206  0.1423 -0.2054 -0.4320
 7825SOL     OW34936   4.414   3.605   6.096 -0.2786 -0.0218  0.4111
 7825SOL    HW134937   4.474   3.627   6.025 -0.7510  2.6905  0.8613
 7825SOL    HW234938   4.341   3.560   6.053  1.7212 -1.8992 -1.0356
 7826SOL     OW34939   4.092   2.750   9.086  0.4164 -0.0211  0.3726
 7826SOL    HW134940   4.003   2.716   9.073  0.2669  0.4191  0.2339
 7826SOL    HW234941   4.109   2.792   9.002  1.5875  1.1495  1.2037
 7827SOL     OW34942   1.476   4.327  13.769  0.2095 -0.3316  0.2661
 7827SOL    HW134943   1.446   4.413  13.739  1.5628 -0.0957 -0.4005
 7827SOL    HW234944   1.537   4.312  13.697 -0.0641 -1.7332  0.3365
 7828SOL     OW34945   2.238   1.239   1.696  0.1339  0.4501 -0.2454
 7828SOL    HW134946   2.277   1.157   1.668 -0.4012 -0.1089  0.6180
 7828SOL    HW234947   2.224   1.293   1.618 -1.1300 -3.6103 -2.8424
 7829SOL     OW34948   2.972   4.262   3.886 -0.5078 -0.3352 -0.4946
 7829SOL    HW134949   2.888   4.219   3.904 -1.2260  2.5161  2.9189
 7829SOL    HW234950   2.992   4.279   3.978  1.7763 -0.9367 -0.8817
 7830SOL     OW34951   1.975   4.231  17.456  0.3014 -0.3775  0.0074
 7830SOL    HW134952   2.068   4.238  17.435 -0.0550  0.1886 -1.3670
 7830SOL    HW234953   1.942   4.183  17.380 -1.5277 -0.7598  1.0463
 7831SOL     OW34954   0.405   4.295  13.487 -0.5551  0.1214 -0.1342
 7831SOL    HW134955   0.438   4.284  13.398  0.9919 -2.2109  0.7404
 7831SOL    HW234956   0.485   4.280  13.536 -0.0431 -0.6237 -1.1996
 7832SOL     OW34957   0.239   3.610   7.895  0.6798  0.6885 -0.4078
 7832SOL    HW134958   0.325   3.644   7.871  1.4817 -1.5255 -0.6467
 7832SOL    HW234959   0.206   3.689   7.939 -1.8544 -0.4893 -0.2082
 7833SOL     OW34960   3.665   1.911   2.589  0.4638 -0.0818 -0.0279
 7833SOL    HW134961   3.747   1.952   2.562 -0.6505  2.8557  0.9979
 7833SOL    HW234962   3.640   1.937   2.678  1.2671 -0.7800  0.4040
 7834SOL     OW34963   3.102   2.857   9.675 -0.1974  0.3283  0.3145
 7834SOL    HW134964   3.064   2.927   9.622  1.9933  1.3103  0.0232
 7834SOL    HW234965   3.038   2.787   9.665  0.5836 -0.2520 -0.5926
 7835SOL     OW34966   2.746   4.244   9.544  0.0608 -0.3781  0.0792
 7835SOL    HW134967   2.658   4.278   9.557  0.2763  0.9002 -1.7634
 7835SOL    HW234968   2.727   4.180   9.475 -1.1726 -1.5069  1.4794
 7836SOL     OW34969   0.720   1.354   4.131 -0.0790 -0.0987 -0.4729
 7836SOL    HW134970   0.683   1.342   4.218  0.5346  2.2019  0.1125
 7836SOL    HW234971   0.809   1.385   4.145 -0.6749  1.9184 -1.0971
 7837SOL     OW34972   0.629   1.795   2.698  0.0258 -0.1288  0.3292
 7837SOL    HW134973   0.580   1.870   2.731  0.8481  0.5093  0.1129
 7837SOL    HW234974   0.664   1.828   2.616  1.4598  3.2987  2.3177
 7838SOL     OW34975   4.503   1.444   3.527 -0.0477  0.2897  0.4332
 7838SOL    HW134976   4.421   1.397   3.542 -0.2355  0.9816  1.5328
 7838SOL    HW234977   4.470   1.524   3.567  1.9859  0.6477  1.3820
 7839SOL     OW34978   2.780   3.329   9.200 -0.7483 -0.0840  0.3517
 7839SOL    HW134979   2.721   3.385   9.150  1.9882  2.0666 -0.5192
 7839SOL    HW234980   2.726   3.303   9.274 -1.1625 -2.4526 -0.7780
 7840SOL     OW34981   1.891   3.165  11.750 -0.4974 -0.2792  0.1588
 7840SOL    HW134982   1.850   3.155  11.664 -0.8801 -1.4668  0.4641
 7840SOL    HW234983   1.856   3.086  11.794 -1.9366 -0.1750 -0.7905
 7841SOL     OW34984   2.667   3.563  13.996 -0.2918  0.6323 -0.4313
 7841SOL    HW134985   2.611   3.491  14.026  0.0807  0.4596 -0.1502
 7841SOL    HW234986   2.622   3.581  13.913 -0.9125  0.6335 -0.1007
 7842SOL     OW34987   3.190   1.390   5.802 -0.1762 -0.3829  0.0622
 7842SOL    HW134988   3.256   1.352   5.861 -0.4223  0.2929  0.7771
 7842SOL    HW234989   3.241   1.457   5.756 -0.3497 -1.2088 -1.3173
 7843SOL     OW34990   4.398   3.159   3.140 -0.8965  0.3020  0.5202
 7843SOL    HW134991   4.428   3.124   3.224 -1.2601  1.1151  0.9917
 7843SOL    HW234992   4.358   3.084   3.096 -0.1312  1.4946 -2.2187
 7844SOL     OW34993   2.237   2.047  13.620 -0.6476  0.0386  0.2028
 7844SOL    HW134994   2.150   2.008  13.632  1.1549 -3.4885  1.8185
 7844SOL    HW234995   2.216   2.132  13.582  1.7500  1.2574  1.5866
 7845SOL     OW34996   3.751   2.787   6.575  0.3260 -0.5121 -0.7560
 7845SOL    HW134997   3.841   2.755   6.583  0.6583  0.0525 -2.2827
 7845SOL    HW234998   3.723   2.786   6.666  2.0759  0.0741 -0.2173
 7846SOL     OW34999   2.173   3.858   2.486 -0.3038  0.7894 -0.4055
 7846SOL    HW135000   2.259   3.820   2.468 -0.7113  0.0862 -0.8394
 7846SOL    HW235001   2.142   3.794   2.549 -0.7594  2.0017  0.6136
 7847SOL     OW35002   2.180   2.903   8.399  0.6576 -0.3231 -0.0972
 7847SOL    HW135003   2.103   2.952   8.370  1.2064 -0.7925 -2.3309
 7847SOL    HW235004   2.235   2.897   8.321  2.2322 -0.9182  1.0419
 7848SOL     OW35005   4.596   1.325   9.268 -0.1395  0.3883 -0.4149
 7848SOL    HW135006   4.671   1.373   9.303  0.2339 -1.0252  0.7432
 7848SOL    HW235007   4.586   1.360   9.179  0.4801  0.2967 -0.5202
 7849SOL     OW35008   0.265   2.647   5.176 -0.4521 -0.0713 -0.1873
 7849SOL    HW135009   0.285   2.732   5.138  0.9718 -1.4072 -2.4205
 7849SOL    HW235010   0.356   2.618   5.175 -1.2799 -2.5912 -3.4008
 7850SOL     OW35011   2.993   1.027  17.322 -0.1944  0.0259  0.1419
 7850SOL    HW135012   3.051   1.086  17.273 -1.1604  0.8102 -0.0792
 7850SOL    HW235013   2.924   1.090  17.344 -0.3239  0.5462 -1.7721
 7851SOL     OW35014   0.933   3.273   7.033  0.2288  0.4385  0.3073
 7851SOL    HW135015   1.021   3.264   7.071  1.5862  0.2615 -2.8509
 7851SOL    HW235016   0.959   3.345   6.975  1.8606 -1.1979 -1.0247
 7852SOL     OW35017   1.793   1.794   6.841  0.1226  0.0585 -0.1206
 7852SOL    HW135018   1.744   1.876   6.838  0.4477  0.2045 -1.7964
 7852SOL    HW235019   1.824   1.790   6.750 -1.4314 -1.3172 -0.5985
 7853SOL     OW35020   1.461   2.588   6.045 -0.3171  0.3407  0.8689
 7853SOL    HW135021   1.539   2.626   6.086  0.7959 -1.4065  0.3894
 7853SOL    HW235022   1.490   2.497   6.035 -3.0282 -0.4939  0.7210
 7854SOL     OW35023   4.086   2.529   3.232 -0.3666 -0.3147 -0.3131
 7854SOL    HW135024   4.134   2.534   3.149  0.7914  0.2502  0.3906
 7854SOL    HW235025   4.019   2.596   3.219 -1.0267 -0.9652 -0.2885
 7855SOL     OW35026   2.569   4.538   3.348  0.5100  0.3174 -0.7720
 7855SOL    HW135027   2.526   4.548   3.433  1.0430 -0.0103 -0.4651
 7855SOL    HW235028   2.601   4.628   3.337  0.5261  0.3128 -0.7614
 7856SOL     OW35029   4.105   4.198   5.125 -0.2615  0.3962 -0.3618
 7856SOL    HW135030   4.068   4.265   5.184 -0.4780  0.0627 -0.1127
 7856SOL    HW235031   4.193   4.233   5.120  0.3053 -0.8208  1.1159
 7857SOL     OW35032   3.477   2.534   4.018 -0.1511  0.2775  0.0007
 7857SOL    HW135033   3.514   2.467   3.961  1.2503  1.1453 -0.1210
 7857SOL    HW235034   3.453   2.600   3.952  1.4081  0.6664 -0.1667
 7858SOL     OW35035   0.585   1.107   9.319 -0.4011  0.7162  0.3817
 7858SOL    HW135036   0.649   1.035   9.313  1.2021  2.0857  1.1228
 7858SOL    HW235037   0.525   1.055   9.372 -0.9636  2.6304  1.6011
 7859SOL     OW35038   4.383   0.612  14.777 -0.4303 -0.3084  1.0170
 7859SOL    HW135039   4.438   0.562  14.717  0.6052  1.7575  0.2672
 7859SOL    HW235040   4.301   0.576  14.742 -1.7063 -1.3444  5.0230
 7860SOL     OW35041   0.738   2.176   8.838 -0.3336  0.2159 -0.5294
 7860SOL    HW135042   0.739   2.178   8.934  1.2172  0.3309 -0.5360
 7860SOL    HW235043   0.649   2.149   8.816 -1.0425  0.0856  2.4747
 7861SOL     OW35044   4.065   2.893   3.991  0.1064  0.1605 -0.6573
 7861SOL    HW135045   4.054   2.966   3.929 -0.9623  2.2324  1.9771
 7861SOL    HW235046   4.158   2.908   4.006 -0.5735  0.7897  3.0010
 7862SOL     OW35047   3.632   0.899   3.711  0.1710  0.2252  0.3838
 7862SOL    HW135048   3.666   0.897   3.800 -1.1049  3.1543  0.9712
 7862SOL    HW235049   3.597   0.811   3.700  1.6827 -0.2190 -0.8292
 7863SOL     OW35050   3.288   0.986   4.624 -0.1496  0.3251 -0.0386
 7863SOL    HW135051   3.241   1.069   4.628 -0.7981 -0.0035 -0.8302
 7863SOL    HW235052   3.280   0.961   4.716 -0.5485 -1.1388 -0.4713
 7864SOL     OW35053   1.659   4.571   1.202 -0.2397 -0.3625  0.4741
 7864SOL    HW135054   1.742   4.573   1.248 -0.7816  0.6677  1.4048
 7864SOL    HW235055   1.691   4.528   1.123 -3.0841 -0.1840 -0.7987
 7865SOL     OW35056   1.378   1.122   2.073  0.1009  0.6805  0.0169
 7865SOL    HW135057   1.291   1.125   2.032  1.1525  1.7589 -2.1337
 7865SOL    HW235058   1.433   1.164   2.007 -0.1761 -1.7401 -1.7781
 7866SOL     OW35059   0.402   3.710  14.204  0.3244 -0.2029  0.4730
 7866SOL    HW135060   0.373   3.709  14.113 -0.5441  0.5519  0.7537
 7866SOL    HW235061   0.332   3.764  14.239 -0.7687 -1.5641  0.4156
 7867SOL     OW35062   0.383   0.167   0.313  0.3620 -0.1820 -0.4460
 7867SOL    HW135063   0.367   0.256   0.345  2.9224  0.2238 -0.3038
 7867SOL    HW235064   0.362   0.175   0.220 -0.3774 -0.4889 -0.3045
 7868SOL     OW35065   1.296   3.579   2.742 -0.4827  0.9006 -0.2250
 7868SOL    HW135066   1.392   3.578   2.735 -0.2797 -1.4513  2.5130
 7868SOL    HW235067   1.276   3.493   2.780 -1.1613  2.1680  2.2814
 7869SOL     OW35068   3.259   0.464   4.294  0.3786  0.1288 -0.1336
 7869SOL    HW135069   3.216   0.549   4.285  0.6188  0.1090 -1.5135
 7869SOL    HW235070   3.190   0.400   4.278  0.7771 -0.8960  2.1436
 7870SOL     OW35071   4.302   4.022  10.646  0.2570  0.7326 -0.3014
 7870SOL    HW135072   4.230   4.052  10.701 -1.0270 -1.8462 -0.5766
 7870SOL    HW235073   4.287   3.931  10.672 -0.6129  0.2828 -2.4079
 7871SOL     OW35074   3.103   0.211   9.318 -0.2978 -0.1437  0.1272
 7871SOL    HW135075   3.109   0.130   9.368 -6.3170 -1.5591 -1.5084
 7871SOL    HW235076   3.052   0.180   9.243 -1.4496  2.7639 -0.3098
 7872SOL     OW35077   3.458   2.154  16.547  0.3881  0.2705 -0.1563
 7872SOL    HW135078   3.379   2.101  16.556  1.0817 -0.7599 -0.0593
 7872SOL    HW235079   3.427   2.244  16.556 -1.9853 -0.7007  1.1776
 7873SOL     OW35080   3.151   3.877  10.262 -0.1289 -0.1534  0.3714
 7873SOL    HW135081   3.066   3.859  10.222 -0.5774 -0.0048  1.2515
 7873SOL    HW235082   3.162   3.790  10.300 -4.1577 -1.2251 -0.8845
 7874SOL     OW35083   3.302   4.312   7.918 -0.0156 -0.1079  0.1037
 7874SOL    HW135084   3.392   4.280   7.908  0.7927  2.0796  0.3814
 7874SOL    HW235085   3.314   4.405   7.895 -0.5786  0.5479  2.4493
 7875SOL     OW35086   0.840   4.489   6.973  0.4081  0.7641 -0.2281
 7875SOL    HW135087   0.935   4.479   6.984  0.3699  0.5658 -0.0831
 7875SOL    HW235088   0.833   4.514   6.881  2.6033 -0.3500 -0.7005
 7876SOL     OW35089   1.715   2.290   4.885  0.0432 -0.2381 -0.5675
 7876SOL    HW135090   1.656   2.252   4.819  1.4093  0.1205 -2.0122
 7876SOL    HW235091   1.786   2.306   4.823  2.0436 -0.5432  1.6807
 7877SOL     OW35092   4.136   1.650   6.287 -0.4265  0.7442 -0.1057
 7877SOL    HW135093   4.070   1.698   6.337 -1.3518  0.5030 -1.1180
 7877SOL    HW235094   4.196   1.635   6.361 -0.1081  0.0965 -0.5023
 7878SOL     OW35095   1.840   3.044  13.220  0.2827 -0.1648 -0.3619
 7878SOL    HW135096   1.877   3.006  13.299  0.0713 -1.5107 -0.9238
 7878SOL    HW235097   1.862   2.978  13.154 -0.7072  0.1271 -0.9898
 7879SOL     OW35098   3.006   3.207   4.462  0.5080  0.4752 -0.2445
 7879SOL    HW135099   2.921   3.165   4.478  1.4570 -0.2575  2.7961
 7879SOL    HW235100   3.004   3.295   4.499 -0.8519 -0.0692  0.9799
 7880SOL     OW35101   3.785   3.365   6.811  0.2666  0.1444  0.4317
 7880SOL    HW135102   3.757   3.290   6.759  1.1365 -1.2162  1.9091
 7880SOL    HW235103   3.707   3.420   6.820 -1.2226 -2.1944  1.9613
 7881SOL     OW35104   0.829   2.239   4.708  0.3947 -0.1455  0.4200
 7881SOL    HW135105   0.785   2.306   4.656  0.6748 -0.3846 -0.1300
 7881SOL    HW235106   0.810   2.168   4.646 -0.6602 -0.4228  1.0681
 7882SOL     OW35107   1.831   3.626   1.862 -0.3483 -0.2026  0.8968
 7882SOL    HW135108   1.788   3.576   1.932  0.0776  1.0144  2.0221
 7882SOL    HW235109   1.787   3.711   1.862 -1.0095 -0.5511  1.9514
 7883SOL     OW35110   1.339   4.619   4.805  0.0714 -0.3176  0.0444
 7883SOL    HW135111   1.345   4.551   4.739  1.1407  0.6434 -0.8519
 7883SOL    HW235112   1.421   4.605   4.852  0.0659  0.3176  0.2474
 7884SOL     OW35113   4.009   2.827   5.959  0.2867 -0.3949 -0.2087
 7884SOL    HW135114   4.094   2.787   5.977  0.6362  0.7356  0.6437
 7884SOL    HW235115   3.957   2.751   5.933  1.2164 -0.5843 -1.4771
 7885SOL     OW35116   2.248   0.184  11.877 -0.0819 -0.0646  0.4924
 7885SOL    HW135117   2.153   0.183  11.887 -0.1747 -0.9124 -0.5567
 7885SOL    HW235118   2.281   0.205  11.965  0.6624  0.3993  0.1031
 7886SOL     OW35119   0.397   0.219   2.192  0.2806 -0.3227 -0.2189
 7886SOL    HW135120   0.385   0.188   2.282  0.9018  0.5174  0.1602
 7886SOL    HW235121   0.389   0.133   2.151  0.0885  0.1106 -1.0876
 7887SOL     OW35122   1.743   2.780   7.537 -0.8059 -0.5672 -0.0260
 7887SOL    HW135123   1.651   2.787   7.561 -0.6590 -3.6637  1.5028
 7887SOL    HW235124   1.781   2.734   7.612  0.7898 -0.9092 -1.0489
 7888SOL     OW35125   0.754   1.850   5.140  0.5894 -0.0236  0.0672
 7888SOL    HW135126   0.771   1.761   5.107 -2.4562 -0.8626  0.7964
 7888SOL    HW235127   0.667   1.867   5.104 -0.1347 -0.1467  1.7788
 7889SOL     OW35128   1.100   3.695   5.632 -0.0886 -0.0735 -0.3570
 7889SOL    HW135129   1.082   3.789   5.619 -2.5829 -0.6187 -0.8979
 7889SOL    HW235130   1.100   3.691   5.727  0.4915  0.8494 -0.3201
 7890SOL     OW35131   3.345   2.268   2.504 -0.0522  0.6525  0.8404
 7890SOL    HW135132   3.331   2.175   2.521  0.4611  0.7542  1.8451
 7890SOL    HW235133   3.441   2.266   2.510 -0.0981 -2.8938  0.3699
 7891SOL     OW35134   4.057   0.177   6.820  0.3158 -0.2602  0.0420
 7891SOL    HW135135   4.038   0.107   6.758 -0.9861  0.9634 -0.9213
 7891SOL    HW235136   4.090   0.248   6.765 -3.8152  0.7576 -1.1551
 7892SOL     OW35137   0.780   0.351  17.233 -0.0456  0.1709 -0.0479
 7892SOL    HW135138   0.847   0.283  17.237 -1.2393 -1.0950 -1.6882
 7892SOL    HW235139   0.837   0.425  17.257 -0.3589  0.5369 -0.4378
 7893SOL     OW35140   0.068   0.983   1.798 -0.3104 -0.1934 -0.7115
 7893SOL    HW135141   4.713   0.995   1.855  0.9673 -0.6078  1.0767
 7893SOL    HW235142   0.130   1.022   1.861  1.9680  0.8486 -3.5684
 7894SOL     OW35143   2.083   2.980   3.780  0.3249 -0.5219 -0.6416
 7894SOL    HW135144   1.995   2.946   3.799  0.2822 -0.4108 -0.6378
 7894SOL    HW235145   2.060   3.054   3.723 -0.7918  0.2332  0.7729
 7895SOL     OW35146   3.544   2.866   6.102 -0.8110  0.2362  0.1085
 7895SOL    HW135147   3.547   2.847   6.008 -0.5883  1.1407 -0.0621
 7895SOL    HW235148   3.593   2.793   6.139  0.5509  1.5957  0.9683
 7896SOL     OW35149   3.058   0.025   3.028 -0.0151 -0.4504  0.7177
 7896SOL    HW135150   3.010   0.047   3.107 -2.1447  0.2785 -0.7881
 7896SOL    HW235151   2.991   4.720   2.965  0.4547 -2.6437  1.1266
 7897SOL     OW35152   3.844   1.667   0.408  0.0209 -1.3108  0.5527
 7897SOL    HW135153   3.797   1.726   0.468 -0.5376 -0.1030 -1.0748
 7897SOL    HW235154   3.916   1.722   0.375 -0.7505 -2.0214 -2.2969
 7898SOL     OW35155   1.315   2.527   7.624  0.2131 -0.0414  0.8431
 7898SOL    HW135156   1.237   2.478   7.648 -0.3940  0.4365 -0.1351
 7898SOL    HW235157   1.378   2.455   7.626  0.3402  0.0132 -0.9544
 7899SOL     OW35158   1.520   0.349   1.735 -0.0017 -0.0409 -0.0602
 7899SOL    HW135159   1.516   0.270   1.681  2.1092 -0.2983  0.1840
 7899SOL    HW235160   1.470   0.318   1.811 -0.2432 -1.2679 -0.7157
 7900SOL     OW35161   4.477   0.689   3.297  0.2544 -0.2973  0.0485
 7900SOL    HW135162   4.511   0.612   3.343 -0.6427 -1.3185 -1.0018
 7900SOL    HW235163   4.449   0.737   3.375 -1.2376 -0.4826 -0.3659
 7901SOL     OW35164   1.731   0.555   5.280 -0.1625 -0.0876  0.8373
 7901SOL    HW135165   1.661   0.490   5.290 -1.0309  0.7177 -0.0701
 7901SOL    HW235166   1.810   0.505   5.257 -0.5324 -0.7797  1.0849
 7902SOL     OW35167   0.462   3.353   6.976  0.4291 -0.0673 -0.6892
 7902SOL    HW135168   0.398   3.295   6.936 -0.5450 -0.3496  1.2486
 7902SOL    HW235169   0.541   3.325   6.930  1.8453  0.6343  1.3306
 7903SOL     OW35170   3.019   0.356   4.213  0.3996  0.3531 -0.7040
 7903SOL    HW135171   2.943   0.387   4.261  0.7482 -2.0541  1.4214
 7903SOL    HW235172   2.986   0.289   4.153  0.0012 -0.2455  0.1879
 7904SOL     OW35173   2.812   1.298   3.149  0.1756 -0.4002  0.3910
 7904SOL    HW135174   2.755   1.331   3.080 -0.0580  1.6511  1.5422
 7904SOL    HW235175   2.812   1.361   3.221 -1.1196 -1.0593  0.9657
 7905SOL     OW35176   4.144   1.146   7.020  0.5614 -0.0356 -0.2730
 7905SOL    HW135177   4.116   1.100   7.099 -1.3460 -0.3946 -1.1456
 7905SOL    HW235178   4.167   1.068   6.969  1.6361 -0.2301  0.5367
 7906SOL     OW35179   2.246   3.892   6.002  0.2086 -0.3658  0.2118
 7906SOL    HW135180   2.212   3.934   5.923 -2.0731 -1.0041  0.8630
 7906SOL    HW235181   2.339   3.917   6.001 -0.0374  0.4845 -0.9873
 7907SOL     OW35182   1.700   2.690   7.115  0.0178 -0.5777 -0.1925
 7907SOL    HW135183   1.743   2.633   7.051 -0.1288 -0.4684 -0.3875
 7907SOL    HW235184   1.773   2.750   7.134 -0.4501  0.8932 -3.1301
 7908SOL     OW35185   4.189   4.643  11.328 -0.1429 -0.2383 -0.0603
 7908SOL    HW135186   4.276   4.602  11.331 -0.6221 -1.2617 -0.2090
 7908SOL    HW235187   4.141   4.610  11.405 -0.7936 -0.0872 -0.4050
 7909SOL     OW35188   3.886   3.289   3.059  0.2240  0.2861  0.1791
 7909SOL    HW135189   3.911   3.381   3.052  0.1630  0.5031  2.8608
 7909SOL    HW235190   3.947   3.248   2.998 -0.6696  0.5174 -0.8700
 7910SOL     OW35191   0.369   3.831   4.316  0.6994 -0.0487  0.2961
 7910SOL    HW135192   0.422   3.753   4.332 -1.3683 -1.1124  2.0193
 7910SOL    HW235193   0.423   3.899   4.355 -0.1611 -1.0790  3.2763
 7911SOL     OW35194   0.867   3.464  15.213  0.0902 -0.2199  0.4018
 7911SOL    HW135195   0.913   3.545  15.235 -1.0871  1.4390 -3.3175
 7911SOL    HW235196   0.828   3.494  15.131 -0.3970 -3.7546 -0.6503
 7912SOL     OW35197   3.929   1.955   2.522  0.1917  0.0560  0.0240
 7912SOL    HW135198   3.927   1.881   2.461  0.5902  0.9413 -1.0589
 7912SOL    HW235199   3.982   2.023   2.481  0.8630 -0.7826 -0.4856
 7913SOL     OW35200   2.819   3.816  10.799  0.1163 -0.2299  0.5491
 7913SOL    HW135201   2.745   3.779  10.846 -0.3026 -0.4909 -0.3248
 7913SOL    HW235202   2.786   3.847  10.714 -1.7591  0.0825  1.3982
 7914SOL     OW35203   0.576   1.420   8.148 -0.3837  0.0978 -0.3268
 7914SOL    HW135204   0.666   1.455   8.149  0.2762 -1.5737 -1.2437
 7914SOL    HW235205   0.539   1.475   8.217 -1.4621 -0.6903 -0.2985
 7915SOL     OW35206   3.399   4.719   4.293  0.0068  0.1642 -0.3752
 7915SOL    HW135207   3.355   0.013   4.377  0.5657 -0.5711  0.0446
 7915SOL    HW235208   3.402   0.086   4.255  2.7275 -0.3164 -1.2342
 7916SOL     OW35209   3.916   4.301   2.006  0.1532  0.1584 -0.1228
 7916SOL    HW135210   4.002   4.258   1.998  0.2977  0.9342 -2.7370
 7916SOL    HW235211   3.916   4.374   1.945  1.4678 -0.5988 -1.0419
 7917SOL     OW35212   0.769   3.414  11.240  0.2204  0.2717 -0.0632
 7917SOL    HW135213   0.734   3.326  11.227 -0.6789  0.7096 -0.5569
 7917SOL    HW235214   0.696   3.465  11.206 -0.7726 -2.3860 -1.9459
 7918SOL     OW35215   0.630   3.516   6.391 -0.0599 -0.7024  0.2133
 7918SOL    HW135216   0.603   3.556   6.309  1.0272 -0.3557  0.0182
 7918SOL    HW235217   0.562   3.457   6.424 -2.2208  0.8172 -1.5947
 7919SOL     OW35218   1.804   3.663   8.732  0.3667 -0.3440 -0.1109
 7919SOL    HW135219   1.887   3.623   8.757 -0.1699 -0.3470  1.7056
 7919SOL    HW235220   1.743   3.638   8.801  0.0118 -2.3812 -1.1677
 7920SOL     OW35221   2.558   1.533   0.268 -0.2231  0.2205 -0.1440
 7920SOL    HW135222   2.590   1.497   0.185 -0.5062  0.2921 -0.2864
 7920SOL    HW235223   2.638   1.546   0.317 -0.1640 -2.6181  0.4721
 7921SOL     OW35224   4.048   3.860   6.754 -0.4165  0.0662 -0.1327
 7921SOL    HW135225   4.135   3.856   6.713  1.0306  0.8207  2.8727
 7921SOL    HW235226   4.075   3.825   6.839  1.7537 -1.5812 -1.4781
 7922SOL     OW35227   3.965   4.659  13.707 -0.0280  0.5502  0.0769
 7922SOL    HW135228   3.913   0.004  13.752  1.6156  2.3973 -0.7147
 7922SOL    HW235229   4.053   4.662  13.745  0.1101 -0.2281 -0.1748
 7923SOL     OW35230   3.231   0.056   8.566 -0.0629 -0.1072 -0.2463
 7923SOL    HW135231   3.219   0.151   8.557 -0.0730  0.0738  1.7013
 7923SOL    HW235232   3.325   0.058   8.551 -0.1616  2.0571 -0.5781
 7924SOL     OW35233   3.101   2.760   7.574 -0.1508  0.5306 -0.4379
 7924SOL    HW135234   3.119   2.791   7.485 -1.7123  3.0898  0.1451
 7924SOL    HW235235   3.019   2.802   7.600 -0.3747 -0.0529 -0.2213
 7925SOL     OW35236   2.934   2.948   6.696 -0.1867  0.2689 -0.0038
 7925SOL    HW135237   3.008   3.002   6.725  1.3739 -1.6697 -0.3611
 7925SOL    HW235238   2.912   2.987   6.612 -3.6851 -2.4792 -0.3740
 7926SOL     OW35239   4.388   2.071   6.869  0.5795 -0.3117 -0.2696
 7926SOL    HW135240   4.313   2.022   6.835 -0.7558  2.3878 -1.2724
 7926SOL    HW235241   4.448   1.999   6.849  0.5635 -0.5722  0.6518
 7927SOL     OW35242   0.623   2.880   4.952 -0.2785 -0.3821 -0.3524
 7927SOL    HW135243   0.707   2.834   4.948  0.6591  1.1506  1.3634
 7927SOL    HW235244   0.632   2.935   4.874  1.0790 -1.8184 -1.2155
 7928SOL     OW35245   0.798   1.749   9.248  0.0200 -0.8280 -0.3304
 7928SOL    HW135246   0.869   1.795   9.292 -0.7159  0.4683 -0.5173
 7928SOL    HW235247   0.760   1.809   9.184 -1.6674 -1.5793 -0.0335
 7929SOL     OW35248   0.638   0.468   5.806  0.0744 -0.1075 -0.2429
 7929SOL    HW135249   0.552   0.495   5.772 -0.0955 -4.8709 -3.5499
 7929SOL    HW235250   0.689   0.447   5.727  0.2727 -3.3979  0.7780
 7930SOL     OW35251   0.650   1.505   5.266 -0.0521  0.0269 -0.4472
 7930SOL    HW135252   0.591   1.450   5.317  0.1406 -1.3860 -1.7555
 7930SOL    HW235253   0.586   1.572   5.241  0.6470  0.2914 -1.5211
 7931SOL     OW35254   1.385   1.781  11.273  0.0889  0.1544 -0.1231
 7931SOL    HW135255   1.421   1.693  11.283 -0.1120  0.0932  0.0618
 7931SOL    HW235256   1.420   1.823  11.352  0.5496  1.4127 -1.0115
 7932SOL     OW35257   2.789   1.233  17.334  0.4941  0.2594 -0.3153
 7932SOL    HW135258   2.728   1.181  17.385  0.8375 -1.5114 -1.7245
 7932SOL    HW235259   2.806   1.308  17.391 -1.2119  0.2978  0.1400
 7933SOL     OW35260   2.723   2.122   4.333  0.4325  0.0655  0.3939
 7933SOL    HW135261   2.675   2.085   4.406 -1.4062  2.8298  0.5963
 7933SOL    HW235262   2.800   2.150   4.383  0.8629 -0.9036  0.2611
 7934SOL     OW35263   4.124   4.024   1.721  0.4220  0.4637  0.4652
 7934SOL    HW135264   4.094   4.089   1.657  1.3943  0.2637 -0.1851
 7934SOL    HW235265   4.216   4.049   1.734  0.7401 -0.3727 -0.1966
 7935SOL     OW35266   3.096   4.262   7.668  0.0794 -0.0664  0.2128
 7935SOL    HW135267   3.028   4.197   7.683 -2.1275  1.9835 -0.9101
 7935SOL    HW235268   3.145   4.213   7.602  0.0941 -1.0867  0.9906
 7936SOL     OW35269   2.530   0.009   7.049 -0.0270  0.3321  0.0353
 7936SOL    HW135270   2.589   0.043   6.981 -0.2581  1.5787  0.4674
 7936SOL    HW235271   2.481   4.667   6.995  0.1101  0.1166  0.1616
 7937SOL     OW35272   0.082   3.664   9.023 -0.0591 -0.0959  0.0499
 7937SOL    HW135273   4.716   3.624   9.015 -0.0293  0.1349 -1.4221
 7937SOL    HW235274   0.067   3.750   8.983  0.8374  0.4483  0.8948
 7938SOL     OW35275   3.661   1.448   0.386 -0.4571  0.5549  0.0817
 7938SOL    HW135276   3.728   1.516   0.394  0.5935 -0.4601 -0.1226
 7938SOL    HW235277   3.622   1.447   0.473  1.0649  0.1309  0.7672
 7939SOL     OW35278   4.573   2.554   4.645  0.0255 -0.1183  0.2343
 7939SOL    HW135279   4.552   2.508   4.564 -0.7122  1.9361 -0.7344
 7939SOL    HW235280   4.497   2.610   4.663 -0.6705 -1.2205  0.6953
 7940SOL     OW35281   4.625   1.875   3.406  0.6318 -0.1629  0.1301
 7940SOL    HW135282   4.690   1.826   3.358  1.4565  1.2643 -0.2095
 7940SOL    HW235283   4.541   1.840   3.378  0.0583  1.4806 -0.2065
 7941SOL     OW35284   1.800   3.951   0.579 -0.3793 -0.2468 -0.1792
 7941SOL    HW135285   1.808   3.871   0.526  0.0204  0.0483 -0.5711
 7941SOL    HW235286   1.868   4.001   0.533 -0.4430 -1.0177 -1.1268
 7942SOL     OW35287   4.493   1.979  14.585 -0.4174 -0.0258 -0.1794
 7942SOL    HW135288   4.529   1.908  14.532  0.8068  0.5997 -0.1952
 7942SOL    HW235289   4.553   2.047  14.557  0.3936 -0.4820  0.4459
 7943SOL     OW35290   4.494   2.042   4.855 -0.0227  0.5908 -0.5222
 7943SOL    HW135291   4.499   2.132   4.887 -2.5402  1.2249 -1.9411
 7943SOL    HW235292   4.561   2.001   4.910  1.1669  2.4191 -0.5952
 7944SOL     OW35293   1.763   2.464   5.385  0.2548 -0.2998 -0.2383
 7944SOL    HW135294   1.691   2.400   5.383 -1.2238  1.3478  0.8814
 7944SOL    HW235295   1.772   2.471   5.290  1.8597 -2.0849 -0.2118
 7945SOL     OW35296   3.861   2.197   8.691 -0.5536 -0.4059  0.1916
 7945SOL    HW135297   3.956   2.184   8.691 -0.6573 -1.1059 -1.2172
 7945SOL    HW235298   3.859   2.241   8.776 -2.6808  2.0159 -1.1523
 7946SOL     OW35299   0.514   4.119   1.673  0.5083 -0.2331  0.1335
 7946SOL    HW135300   0.431   4.092   1.632  0.3844  1.9332 -1.0366
 7946SOL    HW235301   0.478   4.145   1.757 -1.7975  0.5685 -1.1029
 7947SOL     OW35302   2.823   4.285   8.211 -0.1488  0.0329 -0.0391
 7947SOL    HW135303   2.819   4.198   8.250  0.5901 -0.0761 -0.2005
 7947SOL    HW235304   2.852   4.272   8.121 -1.4250 -0.5549 -0.3607
 7948SOL     OW35305   1.388   4.646  16.681  0.0072 -0.0111 -0.5187
 7948SOL    HW135306   1.475   4.679  16.704 -0.2571 -0.1021  0.6463
 7948SOL    HW235307   1.350   0.003  16.640  0.7196 -0.0430 -1.2257
 7949SOL     OW35308   1.474   1.350  14.546  0.2013  0.2617  0.0506
 7949SOL    HW135309   1.426   1.401  14.611  1.2703 -0.6368  1.5531
 7949SOL    HW235310   1.400   1.317  14.496 -0.0565  1.0419 -0.0805
 7950SOL     OW35311   0.385   2.355   8.280 -0.3833 -0.1629  0.2431
 7950SOL    HW135312   0.400   2.450   8.276  2.0414 -0.5318  0.6100
 7950SOL    HW235313   0.362   2.340   8.372  2.5809  1.8024  1.3157
 7951SOL     OW35314   2.323   4.204   3.832  0.2172  0.3324 -0.3780
 7951SOL    HW135315   2.254   4.197   3.898 -0.7384  2.5116 -1.1544
 7951SOL    HW235316   2.262   4.202   3.758 -1.1023  2.4539  0.6639
 7952SOL     OW35317   1.882   1.090   2.772 -0.1411 -0.4989 -0.2460
 7952SOL    HW135318   1.927   1.083   2.688  0.6629  0.6441  0.0885
 7952SOL    HW235319   1.954   1.069   2.830 -0.6852  0.5582  0.8105
 7953SOL     OW35320   0.723   2.727  13.315  0.1017 -0.3219 -0.2021
 7953SOL    HW135321   0.682   2.751  13.232  1.4722  1.0021 -0.4822
 7953SOL    HW235322   0.775   2.652  13.286  1.5251  0.4673  0.3272
 7954SOL     OW35323   0.343   0.325   2.722 -0.2006 -0.0968 -0.5318
 7954SOL    HW135324   0.312   0.372   2.799 -1.3373 -1.0469 -0.4032
 7954SOL    HW235325   0.378   0.396   2.669  1.6997 -2.9191 -3.0879
 7955SOL     OW35326   2.331   2.179  15.491 -0.2592  0.3022 -0.5112
 7955SOL    HW135327   2.335   2.097  15.540 -1.4990  0.2611 -0.4936
 7955SOL    HW235328   2.260   2.223  15.537 -0.3846 -0.8360  0.3840
 7956SOL     OW35329   1.886   0.105   3.402 -0.3863  0.0040 -0.2505
 7956SOL    HW135330   1.881   0.110   3.307 -0.2264 -1.5103 -0.3317
 7956SOL    HW235331   1.930   0.020   3.405 -1.1058 -0.4786 -4.0391
 7957SOL     OW35332   2.291   0.828   4.760 -0.0737  0.1028  0.5994
 7957SOL    HW135333   2.288   0.859   4.669 -1.7386 -0.6637  0.4093
 7957SOL    HW235334   2.376   0.785   4.751  0.1607  0.2887  1.9279
 7958SOL     OW35335   1.183   3.070   1.701 -0.7317 -0.6765  0.2632
 7958SOL    HW135336   1.207   3.087   1.610  0.7939 -1.1869  0.5695
 7958SOL    HW235337   1.129   3.147   1.716  0.1628 -0.0433  0.2394
 7959SOL     OW35338   3.928   2.683   3.110 -0.0457 -0.4876  0.4949
 7959SOL    HW135339   3.941   2.693   3.016  0.0879 -0.8831  0.4722
 7959SOL    HW235340   3.834   2.702   3.115  0.1833  0.7652  0.1410
 7960SOL     OW35341   3.810   0.498   7.362 -0.3278 -0.5103  0.1937
 7960SOL    HW135342   3.763   0.488   7.445 -0.9251  0.2913 -0.0437
 7960SOL    HW235343   3.749   0.460   7.299  0.4828 -0.2448 -0.7459
 7961SOL     OW35344   2.025   3.135  16.331  0.7344 -0.1317  0.9847
 7961SOL    HW135345   2.039   3.080  16.254  0.8281 -0.3706  1.1718
 7961SOL    HW235346   2.070   3.090  16.403  0.9314  0.5238  1.2723
 7962SOL     OW35347   4.669   0.034   5.745 -0.8556  1.1783  0.3036
 7962SOL    HW135348   0.009   0.079   5.686  0.9861 -0.0760  1.2899
 7962SOL    HW235349   4.698   4.664   5.740 -0.0763  1.4343  0.1678
 7963SOL     OW35350   4.403   1.643   6.075  0.0043  0.5184 -0.5753
 7963SOL    HW135351   4.462   1.718   6.072  0.1471  0.4686  1.0322
 7963SOL    HW235352   4.321   1.682   6.047 -0.7282 -3.2587 -3.7305
 7964SOL     OW35353   2.375   4.565  10.601 -0.0420 -0.7522  0.1885
 7964SOL    HW135354   2.331   4.541  10.683 -1.1675 -0.1947 -0.2566
 7964SOL    HW235355   2.346   4.654  10.579  2.4358 -1.1360 -4.4740
 7965SOL     OW35356   0.566   2.054   6.287  0.3514  0.5660  0.0066
 7965SOL    HW135357   0.551   2.101   6.369  1.5020  1.9281 -0.5872
 7965SOL    HW235358   0.610   2.124   6.240  0.2997  0.7701  0.2657
 7966SOL     OW35359   4.070   3.295   0.666  0.5277  0.2836  0.6150
 7966SOL    HW135360   4.098   3.321   0.754  3.5942 -2.4736  0.4663
 7966SOL    HW235361   4.088   3.375   0.617  1.8018 -1.4545 -1.7500
 7967SOL     OW35362   4.153   0.360  10.596 -0.9382  0.0666  0.2044
 7967SOL    HW135363   4.197   0.298  10.654 -1.4862 -0.3137  0.2140
 7967SOL    HW235364   4.072   0.314  10.574 -1.0391  0.9875 -1.3546
 7968SOL     OW35365   4.169   0.980   7.637  0.1503  0.0164 -0.1241
 7968SOL    HW135366   4.117   0.918   7.587 -0.8092  3.0558 -2.8871
 7968SOL    HW235367   4.250   0.929   7.626 -1.1925 -2.4238  1.2168
 7969SOL     OW35368   3.005   3.012   8.083 -0.4631 -0.4009 -0.1753
 7969SOL    HW135369   2.983   2.920   8.065 -0.1918 -0.4476 -0.2632
 7969SOL    HW235370   2.922   3.030   8.127  0.2304 -1.0458  1.3930
 7970SOL     OW35371   1.276   1.656   4.723  0.3495 -0.7287 -0.1435
 7970SOL    HW135372   1.364   1.623   4.706  0.8946  0.8053 -0.2630
 7970SOL    HW235373   1.286   1.707   4.803 -2.8511 -0.0161 -0.1690
 7971SOL     OW35374   4.085   1.614   6.593  0.4410 -0.1271  0.7225
 7971SOL    HW135375   4.051   1.530   6.564 -0.9503  1.1393 -1.3315
 7971SOL    HW235376   4.042   1.620   6.678 -0.8823 -1.6722  0.1438
 7972SOL     OW35377   3.354   4.543   7.834  0.6991 -0.3694 -0.5555
 7972SOL    HW135378   3.270   4.526   7.791  0.1422  1.0422 -0.0259
 7972SOL    HW235379   3.395   4.591   7.762 -0.4810 -0.7902 -1.5049
 7973SOL     OW35380   2.388   1.365   7.069 -0.3459  0.0148 -0.9595
 7973SOL    HW135381   2.440   1.339   6.993 -1.0785  1.1210 -1.8414
 7973SOL    HW235382   2.305   1.382   7.025 -1.8152 -2.0070  0.9715
 7974SOL     OW35383   2.387   1.726   0.158  0.3820 -0.1775  0.0838
 7974SOL    HW135384   2.435   1.677   0.225  2.4524 -0.9748 -1.9748
 7974SOL    HW235385   2.439   1.806   0.147 -2.8043  1.9960  0.7624
 7975SOL     OW35386   1.818   1.173  11.134  0.0465 -0.2934 -0.3998
 7975SOL    HW135387   1.725   1.156  11.149 -0.1498  0.3236 -0.9091
 7975SOL    HW235388   1.848   1.118  11.207  0.5975  0.4730 -0.0557
 7976SOL     OW35389   1.054   0.741  16.361  0.0283 -0.5193 -0.0142
 7976SOL    HW135390   1.075   0.665  16.306 -0.4200 -1.0798  0.5814
 7976SOL    HW235391   1.126   0.735  16.423 -0.8897  1.8684  1.2664
 7977SOL     OW35392   4.557   4.645   4.232  0.4163 -0.2393  0.4321
 7977SOL    HW135393   4.632   4.595   4.264  0.1018 -1.7257 -1.1784
 7977SOL    HW235394   4.567   4.633   4.138  0.7243  1.8079  0.1946
 7978SOL     OW35395   1.669   3.907  15.354 -0.0847  0.1451 -0.0429
 7978SOL    HW135396   1.705   3.820  15.371 -0.7227 -0.4887 -2.0521
 7978SOL    HW235397   1.714   3.954  15.425  0.5867 -0.2293 -0.2188
 7979SOL     OW35398   2.845   0.459   8.127  0.3333 -0.8480  0.2735
 7979SOL    HW135399   2.863   0.448   8.034 -1.4878  0.2927 -0.2153
 7979SOL    HW235400   2.760   0.421   8.150  0.0467 -1.9104 -2.4783
 7980SOL     OW35401   4.519   4.055   5.321  0.7939 -1.0242 -0.2113
 7980SOL    HW135402   4.431   4.043   5.358  1.3938 -1.9746  0.9288
 7980SOL    HW235403   4.520   4.000   5.243 -0.0408 -1.5964  0.1780
 7981SOL     OW35404   0.476   2.469   3.768 -0.0071  0.3558  0.4173
 7981SOL    HW135405   0.513   2.474   3.856  1.0220 -1.9250  0.1064
 7981SOL    HW235406   0.392   2.428   3.787  0.2773 -0.4469 -0.0585
 7982SOL     OW35407   2.409   3.088   4.068 -0.5183 -0.0198  0.1431
 7982SOL    HW135408   2.404   3.179   4.040 -0.0073 -0.8015 -2.4102
 7982SOL    HW235409   2.463   3.047   4.001 -0.7976  1.7783 -1.1477
 7983SOL     OW35410   2.337   4.148   4.976  0.9523 -0.5977  0.1078
 7983SOL    HW135411   2.330   4.187   4.888 -0.9855 -0.1487  0.4482
 7983SOL    HW235412   2.431   4.144   4.990  1.2514  0.1399 -1.6586
 7984SOL     OW35413   1.013   0.118  13.771  0.3127  0.2416 -0.4727
 7984SOL    HW135414   1.021   0.199  13.822  0.4684  0.4229 -0.7843
 7984SOL    HW235415   1.072   0.065  13.824 -1.3371  0.6694  1.7690
 7985SOL     OW35416   2.792   4.582  13.715 -0.8716  0.5435 -0.0950
 7985SOL    HW135417   2.718   4.588  13.655 -0.4537 -2.1091 -0.8416
 7985SOL    HW235418   2.758   4.619  13.797 -0.8013  0.4298 -0.0152
 7986SOL     OW35419   4.411   0.241   7.642 -0.0518  0.0066  0.3460
 7986SOL    HW135420   4.502   0.255   7.668 -0.0042 -0.4074  0.4134
 7986SOL    HW235421   4.382   0.189   7.718  1.4009 -0.9537  0.2563
 7987SOL     OW35422   2.179   0.478   8.969 -0.5357  0.2588  0.3592
 7987SOL    HW135423   2.116   0.436   9.027 -2.1065  0.1546 -1.4151
 7987SOL    HW235424   2.169   0.572   8.989  0.3540  0.7794 -1.6335
 7988SOL     OW35425   0.633   1.361   2.373 -0.5519 -0.7207  0.5105
 7988SOL    HW135426   0.679   1.401   2.300 -0.0214  1.3912  2.0082
 7988SOL    HW235427   0.712   1.334   2.419  0.8492 -0.4547 -1.7568
 7989SOL     OW35428   0.081   2.656   6.652  0.3058 -0.2318  0.5197
 7989SOL    HW135429   0.060   2.644   6.745 -0.4886 -0.6419  0.2950
 7989SOL    HW235430   4.710   2.661   6.623  1.5270  0.1489 -3.2125
 7990SOL     OW35431   1.000   1.096  13.725 -0.2463  0.3765  0.1022
 7990SOL    HW135432   1.083   1.052  13.737  0.1334  1.0826  0.0633
 7990SOL    HW235433   1.007   1.170  13.785 -1.5051 -0.5786  1.4189
 7991SOL     OW35434   0.624   3.759   2.731  0.5767  0.1796 -0.0688
 7991SOL    HW135435   0.627   3.667   2.758 -1.7418 -0.0883 -0.6609
 7991SOL    HW235436   0.548   3.765   2.673 -1.2378 -2.0145  2.0805
 7992SOL     OW35437   3.907   0.829   1.361  0.7810  0.0932  0.1516
 7992SOL    HW135438   3.850   0.763   1.322  0.2475 -0.1593  1.3582
 7992SOL    HW235439   3.939   0.865   1.279 -0.1546  0.7249  0.0533
 7993SOL     OW35440   3.973   3.494   7.821 -0.3228  0.8902 -0.6853
 7993SOL    HW135441   4.016   3.448   7.893  0.5450  0.5564 -1.3992
 7993SOL    HW235442   4.002   3.445   7.744  1.0499 -0.0109  0.4031
 7994SOL     OW35443   2.386   1.912  13.407 -0.0838  0.3745  0.5752
 7994SOL    HW135444   2.322   1.925  13.477  0.1374  0.4170  0.7668
 7994SOL    HW235445   2.338   1.939  13.329  0.8778  1.6633  0.4534
 7995SOL     OW35446   0.959   2.982   6.389  0.1531 -0.0744 -0.0469
 7995SOL    HW135447   0.975   3.074   6.367  1.3933 -0.1850  0.4147
 7995SOL    HW235448   1.039   2.947   6.428  0.7744  0.3673 -0.9408
 7996SOL     OW35449   0.978   2.241   4.275  0.3802 -0.0462  0.3474
 7996SOL    HW135450   1.026   2.190   4.209  1.5877 -0.9086  1.9022
 7996SOL    HW235451   0.902   2.281   4.232  0.6962  0.9417  0.7183
 7997SOL     OW35452   4.151   0.459   3.942  0.2710  0.3419  0.1198
 7997SOL    HW135453   4.068   0.504   3.924  0.5174  0.5876 -0.4342
 7997SOL    HW235454   4.153   0.487   4.033  2.4026 -1.7380  0.6980
 7998SOL     OW35455   4.104   0.176   9.445 -0.6263 -0.7133 -0.5267
 7998SOL    HW135456   4.048   0.250   9.421 -1.0497 -0.8902 -0.0908
 7998SOL    HW235457   4.099   0.128   9.362 -1.7149 -1.4095 -0.0721
 7999SOL     OW35458   1.638   4.214   7.423  0.1889  0.4933  0.0513
 7999SOL    HW135459   1.576   4.237   7.492  0.3226 -2.1385  1.0604
 7999SOL    HW235460   1.584   4.229   7.346 -1.6753 -1.6293  0.9411
 8000SOL     OW35461   0.279   0.143  15.472 -0.0343  0.3158  0.9575
 8000SOL    HW135462   0.191   0.112  15.452 -0.2983  1.4904  0.2641
 8000SOL    HW235463   0.260   0.194  15.551 -4.1130 -1.3431  1.0729
 8001SOL     OW35464   3.005   2.080   4.457  0.3842  0.0290 -0.2252
 8001SOL    HW135465   3.055   2.100   4.536  1.6232 -2.7881 -0.2943
 8001SOL    HW235466   3.054   2.112   4.381  2.2743 -1.0494  0.5351
 8002SOL     OW35467   2.555   4.658  11.091  1.1905 -0.2874 -0.0305
 8002SOL    HW135468   2.538   4.573  11.131 -0.8870 -0.6514 -1.7282
 8002SOL    HW235469   2.467   4.693  11.078  0.7463 -0.5791  2.3123
 8003SOL     OW35470   0.754   1.761  13.482 -0.3593 -0.1560 -0.3844
 8003SOL    HW135471   0.801   1.843  13.466  0.4376 -0.6344 -0.4948
 8003SOL    HW235472   0.697   1.798  13.550  1.6985  0.2198  1.1462
 8004SOL     OW35473   3.555   3.808   4.309  0.4635  0.3284  0.6605
 8004SOL    HW135474   3.477   3.864   4.313  1.2738  1.4562  0.7153
 8004SOL    HW235475   3.506   3.726   4.309  0.6825  0.1989  0.8613
 8005SOL     OW35476   0.775   0.440  12.771  0.1047  0.5134  0.2714
 8005SOL    HW135477   0.684   0.419  12.752  0.3906  0.3918 -0.9978
 8005SOL    HW235478   0.811   0.457  12.683  2.3756 -0.7870  0.9340
 8006SOL     OW35479   2.946   1.742  11.767 -0.5692  0.1198  0.8635
 8006SOL    HW135480   2.899   1.816  11.805  1.0472  2.2060 -1.2498
 8006SOL    HW235481   2.883   1.703  11.706 -0.3233  0.6445  0.2732
 8007SOL     OW35482   4.251   4.090   2.899 -0.3473 -0.6694  0.2060
 8007SOL    HW135483   4.278   4.065   2.811 -1.0570  0.7266 -0.3950
 8007SOL    HW235484   4.255   4.005   2.943  0.6090 -1.1613 -0.8295
 8008SOL     OW35485   3.219   2.537   7.400  0.0627 -0.1051 -0.3338
 8008SOL    HW135486   3.195   2.596   7.472 -1.4330 -0.6137 -0.4214
 8008SOL    HW235487   3.296   2.493   7.436 -0.5818  0.7617  2.0988
 8009SOL     OW35488   1.419   1.442   1.773  0.4294 -0.2580  0.3668
 8009SOL    HW135489   1.333   1.439   1.732  0.4475 -1.0259  0.3893
 8009SOL    HW235490   1.471   1.487   1.707 -1.0662 -0.6033 -1.0359
 8010SOL     OW35491   0.378   3.754   4.025  0.0584 -0.1395 -0.1446
 8010SOL    HW135492   0.349   3.760   4.116 -3.7459  0.9149 -1.4461
 8010SOL    HW235493   0.320   3.815   3.979  0.1879  0.2775  0.2509
 8011SOL     OW35494   3.605   4.471  15.972 -0.2191 -0.1630  0.1902
 8011SOL    HW135495   3.568   4.552  15.936 -0.5705  0.1522  1.2728
 8011SOL    HW235496   3.565   4.465  16.058 -1.2993  1.0433 -0.2396
 8012SOL     OW35497   2.573   0.820   1.720 -0.2980  0.0505 -0.1863
 8012SOL    HW135498   2.629   0.772   1.780 -1.3693 -1.1627 -0.1761
 8012SOL    HW235499   2.486   0.789   1.745 -0.0657 -0.4874 -0.0591
 8013SOL     OW35500   2.260   2.775  15.938  0.0185 -0.1690  0.3960
 8013SOL    HW135501   2.297   2.849  15.988 -2.4271  1.2548  0.1068
 8013SOL    HW235502   2.235   2.722  16.013 -2.4072  0.7949  0.2673
 8014SOL     OW35503   1.008   0.319   1.938 -0.1457 -0.4960  0.2436
 8014SOL    HW135504   1.033   0.334   2.030  0.1034 -0.0876  0.1130
 8014SOL    HW235505   0.970   0.232   1.946  2.4080 -1.8297 -2.0844
 8015SOL     OW35506   0.362   3.939   6.772  0.1182  0.4876 -0.2600
 8015SOL    HW135507   0.302   3.871   6.740  1.0707 -0.3309 -0.3276
 8015SOL    HW235508   0.446   3.894   6.765  0.2787  0.9615 -1.4735
 8016SOL     OW35509   3.769   2.423   6.652 -0.0763 -0.0432  0.0761
 8016SOL    HW135510   3.822   2.417   6.731  0.0742  1.9867  0.1313
 8016SOL    HW235511   3.837   2.442   6.588  1.6038  0.3156  1.9809
 8017SOL     OW35512   2.825   3.979   8.515 -0.5133 -0.2563  0.0009
 8017SOL    HW135513   2.831   4.060   8.567  0.0785  0.5399 -1.2883
 8017SOL    HW235514   2.796   3.921   8.585  0.3507 -0.5504  0.1188
 8018SOL     OW35515   0.275   4.234   6.318 -0.8673  0.1661  0.3032
 8018SOL    HW135516   0.230   4.291   6.380 -0.9520 -0.7138  1.0412
 8018SOL    HW235517   0.211   4.221   6.248 -0.0373  1.8413 -0.7993
 8019SOL     OW35518   3.699   2.012   8.537  1.0102  0.1628 -0.6304
 8019SOL    HW135519   3.652   1.931   8.558 -0.3525  0.9651 -0.5839
 8019SOL    HW235520   3.725   2.040   8.625 -4.3292  2.0715  0.3723
 8020SOL     OW35521   3.320   4.290   6.675  0.2582  0.5838  0.0012
 8020SOL    HW135522   3.280   4.323   6.594  0.8177 -0.3685 -0.6598
 8020SOL    HW235523   3.287   4.201   6.668  1.2410  0.2187  0.0879
 8021SOL     OW35524   3.139   2.033  11.565  0.0469  0.1076  0.1067
 8021SOL    HW135525   3.155   2.093  11.492 -1.6694  3.2482  2.3560
 8021SOL    HW235526   3.048   2.019  11.540  1.0352 -2.6300 -2.0260
 8022SOL     OW35527   4.197   3.694  11.722  0.2163 -0.2044 -0.0077
 8022SOL    HW135528   4.226   3.653  11.641 -0.9675  0.8291 -0.9397
 8022SOL    HW235529   4.259   3.764  11.741 -0.0223 -0.5955  2.2562
 8023SOL     OW35530   3.404   0.202   7.398 -0.5865 -0.1686  0.1365
 8023SOL    HW135531   3.430   0.117   7.360  0.3767 -0.7468  2.1044
 8023SOL    HW235532   3.397   0.255   7.319  0.5801  2.4564  1.8254
 8024SOL     OW35533   2.124   3.136  12.441  0.5708  0.2496 -0.0409
 8024SOL    HW135534   2.177   3.190  12.500  2.4924  0.2691 -1.7988
 8024SOL    HW235535   2.178   3.132  12.363  2.0121  0.9958  0.9126
 8025SOL     OW35536   4.677   4.256   1.470  0.0365 -0.3466  0.5206
 8025SOL    HW135537   4.626   4.262   1.389  0.4932 -0.3877  0.2345
 8025SOL    HW235538   0.022   4.325   1.467 -0.3954  0.0636  0.3831
 8026SOL     OW35539   2.597   3.259  12.826 -1.0201 -0.2190  0.0823
 8026SOL    HW135540   2.556   3.173  12.836 -2.9159  0.4905 -1.7651
 8026SOL    HW235541   2.518   3.312  12.822 -0.8943  0.0191  0.7035
 8027SOL     OW35542   3.522   1.349   0.672 -0.1025  0.3160  0.5097
 8027SOL    HW135543   3.523   1.374   0.764  0.0776 -0.0347  0.5998
 8027SOL    HW235544   3.434   1.374   0.643  0.3097  1.7932  0.5316
 8028SOL     OW35545   3.087   0.013   7.019 -0.1942  0.1262  0.4640
 8028SOL    HW135546   3.163   4.675   7.014 -1.5902 -1.8794  2.8506
 8028SOL    HW235547   3.012   4.676   7.033  0.8705 -0.3053  4.4572
 8029SOL     OW35548   1.009   3.372   7.667 -0.1667 -0.1945 -0.1701
 8029SOL    HW135549   1.030   3.284   7.636  0.4250  0.0463 -0.4621
 8029SOL    HW235550   0.950   3.390   7.593 -0.0499  0.7334 -0.0420
 8030SOL     OW35551   3.636   3.855  11.964 -0.0347  0.5216 -0.5589
 8030SOL    HW135552   3.664   3.779  11.912  2.9722  0.8465  0.6373
 8030SOL    HW235553   3.629   3.925  11.900  0.5024  0.2401 -0.9187
 8031SOL     OW35554   1.655   0.798   6.480 -0.6291  0.2655 -0.1145
 8031SOL    HW135555   1.748   0.803   6.458 -1.1692  1.6940 -2.1232
 8031SOL    HW235556   1.663   0.838   6.567 -1.0259  0.3646 -0.1229
 8032SOL     OW35557   1.542   4.368   5.727  0.2976 -0.1728 -0.0288
 8032SOL    HW135558   1.507   4.281   5.747  1.6060 -0.7399 -0.2420
 8032SOL    HW235559   1.473   4.426   5.762  1.2529 -1.2584  3.6492
 8033SOL     OW35560   2.602   2.132   3.990  0.1102 -0.1075  0.1683
 8033SOL    HW135561   2.626   2.099   3.903 -0.6356  0.0302 -0.0944
 8033SOL    HW235562   2.508   2.131   3.970  0.6237  0.4459 -2.3651
 8034SOL     OW35563   0.261   0.913   3.495  0.2628 -0.1522  0.3385
 8034SOL    HW135564   0.193   0.848   3.478  0.4791 -0.7026  1.5289
 8034SOL    HW235565   0.290   0.949   3.412 -0.4588 -0.4607 -0.0451
 8035SOL     OW35566   4.410   0.146   4.224  0.1502  0.8540  0.6475
 8035SOL    HW135567   4.466   0.069   4.230 -0.1485  0.6869  1.2886
 8035SOL    HW235568   4.469   0.211   4.185 -0.1556  0.4557 -0.4951
 8036SOL     OW35569   1.867   1.003   8.344 -0.2251  0.0385 -0.1082
 8036SOL    HW135570   1.789   0.974   8.298 -1.6543  0.3688  2.0846
 8036SOL    HW235571   1.839   1.084   8.388  0.4351  0.5945 -0.6959
 8037SOL     OW35572   1.474   0.816   3.531  0.1021 -0.1107  0.3939
 8037SOL    HW135573   1.380   0.826   3.519  0.5302  1.8899 -1.2910
 8037SOL    HW235574   1.492   0.910   3.521 -0.0777 -0.2904 -1.5444
 8038SOL     OW35575   1.601   2.564   4.936  0.1670  0.5063 -0.1844
 8038SOL    HW135576   1.576   2.580   5.027  0.9663 -2.3250  0.5385
 8038SOL    HW235577   1.646   2.480   4.942 -0.5002  0.1348 -0.3895
 8039SOL     OW35578   0.300   4.274   6.989 -0.3430 -0.0499  0.5569
 8039SOL    HW135579   0.287   4.179   6.992 -0.3537 -0.0884 -0.6135
 8039SOL    HW235580   0.387   4.281   7.027 -0.1296 -0.2114  0.0970
 8040SOL     OW35581   3.237   1.844   5.996  0.1277  0.0331 -0.1754
 8040SOL    HW135582   3.293   1.810   5.926 -1.3432 -2.2440 -0.2425
 8040SOL    HW235583   3.301   1.889   6.051  0.2615 -1.9714  1.3218
 8041SOL     OW35584   2.802   1.477  13.016 -0.0189  0.2359  0.2631
 8041SOL    HW135585   2.787   1.537  13.090  1.1391  2.2251 -1.1280
 8041SOL    HW235586   2.777   1.544  12.953 -0.3216  1.1846  1.3862
 8042SOL     OW35587   1.859   1.896  14.783 -0.4422 -0.3093 -0.1280
 8042SOL    HW135588   1.865   1.991  14.770 -1.7895 -0.0799  0.8476
 8042SOL    HW235589   1.908   1.858  14.710  0.6619 -0.1998  0.5538
 8043SOL     OW35590   2.323   3.648   4.329  0.5054  0.3747  0.4330
 8043SOL    HW135591   2.237   3.650   4.287 -0.4751  1.5076  2.4911
 8043SOL    HW235592   2.356   3.736   4.312  0.7382  0.1671 -0.1800
 8044SOL     OW35593   4.055   4.471   6.732  0.5842  0.4192  0.1954
 8044SOL    HW135594   4.115   4.544   6.715  0.5279  0.3405 -0.3537
 8044SOL    HW235595   4.081   4.448   6.821  1.2375 -2.3843 -0.7102
 8045SOL     OW35596   4.612   1.417   3.277  0.0973  0.0986  0.4142
 8045SOL    HW135597   4.567   1.450   3.355  3.5504  3.8958  0.7740
 8045SOL    HW235598   4.676   1.360   3.318  0.6383  0.2220 -0.2670
 8046SOL     OW35599   3.276   1.755  11.023 -0.4376  0.5893 -0.6553
 8046SOL    HW135600   3.350   1.799  11.064  0.8919 -1.7190 -0.5874
 8046SOL    HW235601   3.209   1.766  11.091 -0.2234 -0.1331 -0.3265
 8047SOL     OW35602   2.259   3.264  10.487  0.2127 -0.1502  0.4861
 8047SOL    HW135603   2.330   3.291  10.545  1.8702  2.5461 -2.7390
 8047SOL    HW235604   2.311   3.231  10.413  0.2662  0.5268  0.2207
 8048SOL     OW35605   3.616   1.032   8.239 -0.9015 -0.2838  0.4874
 8048SOL    HW135606   3.636   0.949   8.282 -0.2814  0.0367  0.8279
 8048SOL    HW235607   3.672   1.011   8.164 -0.9002 -0.1095  0.4408
 8049SOL     OW35608   3.086   1.255   9.003 -0.0282  0.3241 -0.5517
 8049SOL    HW135609   3.065   1.340   9.041  0.1339 -0.2356  0.8246
 8049SOL    HW235610   3.030   1.196   9.053 -1.3509  1.0481 -1.1895
 8050SOL     OW35611   4.708   3.241   7.110  0.0427 -0.3103 -0.2187
 8050SOL    HW135612   0.045   3.168   7.133 -0.7525 -0.3383  1.7329
 8050SOL    HW235613   4.626   3.195   7.090 -1.1420  1.4415  0.6012
 8051SOL     OW35614   3.863   3.211  14.652  0.7804 -0.5349 -0.7540
 8051SOL    HW135615   3.774   3.175  14.650  1.5813 -2.1779 -5.3799
 8051SOL    HW235616   3.860   3.239  14.561  2.8057 -0.8386 -0.9224
 8052SOL     OW35617   1.050   1.673  10.209 -0.3129 -0.3679 -0.4997
 8052SOL    HW135618   1.084   1.671  10.120 -0.3538  2.4037 -0.5767
 8052SOL    HW235619   1.132   1.651  10.254  0.0686 -1.6577 -1.8463
 8053SOL     OW35620   4.081   4.586   2.233  0.2172 -0.6173  0.4655
 8053SOL    HW135621   4.071   4.505   2.283 -0.9670 -0.0723  1.1103
 8053SOL    HW235622   4.127   4.642   2.296  0.4936 -0.5367  0.1921
 8054SOL     OW35623   1.596   0.653   2.876  0.1592  0.4634  0.1663
 8054SOL    HW135624   1.613   0.654   2.782 -0.5895 -0.8627  0.0182
 8054SOL    HW235625   1.561   0.566   2.893 -0.8352  0.3106 -2.7334
 8055SOL     OW35626   2.322   1.082  11.102 -0.8676  0.6644 -0.7426
 8055SOL    HW135627   2.355   1.082  11.192  1.3216 -0.4352 -1.5306
 8055SOL    HW235628   2.268   1.160  11.107 -0.0815  1.1387  0.2499
 8056SOL     OW35629   2.769   3.602   4.070 -0.0584  0.2298 -0.4233
 8056SOL    HW135630   2.761   3.667   4.139  1.5806 -0.0621  0.0312
 8056SOL    HW235631   2.680   3.597   4.036 -1.0861 -1.7655  2.5202
 8057SOL     OW35632   2.478   3.024   9.240  0.5206  0.0481  0.4736
 8057SOL    HW135633   2.407   2.984   9.290  0.4634  1.5916  1.6310
 8057SOL    HW235634   2.515   3.083   9.306  0.3226  1.3900 -0.6231
 8058SOL     OW35635   1.849   0.365  11.703  0.4977  0.4393 -0.0188
 8058SOL    HW135636   1.795   0.307  11.649 -0.2440  0.3084  0.8780
 8058SOL    HW235637   1.914   0.311  11.749  0.7069  2.1272  1.6435
 8059SOL     OW35638   0.338   2.351   3.254 -0.1842 -0.2838  0.3271
 8059SOL    HW135639   0.406   2.318   3.197  0.3537 -0.4615  1.0720
 8059SOL    HW235640   0.386   2.380   3.332  1.3183  0.3040 -0.8189
 8060SOL     OW35641   3.001   1.159   3.310  0.2472 -0.2586 -0.1393
 8060SOL    HW135642   3.042   1.224   3.367  0.7814 -1.4870  0.8719
 8060SOL    HW235643   2.929   1.207   3.268  0.6789  0.4883 -0.0366
 8061SOL     OW35644   4.225   0.080  15.823 -0.3500 -0.1213  0.6255
 8061SOL    HW135645   4.174   0.037  15.755 -0.5810  0.7346  0.2557
 8061SOL    HW235646   4.244   0.155  15.766 -2.7061 -0.2522 -0.3359
 8062SOL     OW35647   0.510   2.429  11.950 -0.1229  0.2959 -0.2984
 8062SOL    HW135648   0.583   2.485  11.977 -0.9096  0.7458  0.8825
 8062SOL    HW235649   0.457   2.496  11.907 -0.5116  0.1867  0.0152
 8063SOL     OW35650   0.825   4.638  14.046 -0.1789 -0.2203  0.1044
 8063SOL    HW135651   0.893   4.702  14.069 -2.9249  2.3896  0.8771
 8063SOL    HW235652   0.774   4.644  14.126  1.3188  2.5446  0.8521
 8064SOL     OW35653   1.997   1.125   8.661 -0.6723 -0.4213 -0.1160
 8064SOL    HW135654   2.002   1.218   8.683 -0.2211 -0.8837  1.7793
 8064SOL    HW235655   2.050   1.124   8.581 -1.9053  0.2820 -0.9281
 8065SOL     OW35656   2.579   3.236   2.156  0.6438 -0.2489 -0.1452
 8065SOL    HW135657   2.520   3.310   2.156  1.0634  0.0780 -1.2608
 8065SOL    HW235658   2.539   3.180   2.089 -0.8868 -0.8177  1.2572
 8066SOL     OW35659   2.574   2.260   4.827  0.1175  0.4405 -0.3534
 8066SOL    HW135660   2.587   2.348   4.793  0.3398  0.4002 -0.3723
 8066SOL    HW235661   2.555   2.204   4.751 -1.2943  1.8601 -1.0518
 8067SOL     OW35662   1.773   2.102   2.982  0.4156  0.1630  0.0247
 8067SOL    HW135663   1.827   2.035   3.024  0.7506 -0.4600 -1.4034
 8067SOL    HW235664   1.730   2.049   2.915  2.7482  0.3394 -1.6210
 8068SOL     OW35665   2.415   2.198   4.250 -0.0623 -0.1678  0.4442
 8068SOL    HW135666   2.332   2.175   4.208  0.7962 -2.7987  0.1712
 8068SOL    HW235667   2.465   2.242   4.181 -0.2835  0.6750  0.8271
 8069SOL     OW35668   2.952   0.756   3.741 -0.1580  0.0902 -0.0087
 8069SOL    HW135669   2.924   0.830   3.688 -0.3879 -0.4110 -0.5816
 8069SOL    HW235670   2.889   0.691   3.710  0.8051 -1.3964  1.0906
 8070SOL     OW35671   0.022   1.081   6.463 -0.5838 -0.2147 -0.1472
 8070SOL    HW135672   4.656   1.118   6.447  0.7725  2.2390 -1.8046
 8070SOL    HW235673   0.016   1.074   6.558  0.6810  1.1195  0.0261
 8071SOL     OW35674   1.514   3.043   3.219  0.3819  0.1005  0.4150
 8071SOL    HW135675   1.486   3.045   3.311 -1.4782  2.8137 -0.1908
 8071SOL    HW235676   1.506   3.130   3.181 -2.8098  0.3558  1.6680
 8072SOL     OW35677   0.306   3.879   8.359 -0.1923 -0.1105  0.4058
 8072SOL    HW135678   0.384   3.835   8.394 -0.0391  0.6391  1.0051
 8072SOL    HW235679   0.340   3.947   8.301  0.2474  0.6118  1.4919
 8073SOL     OW35680   0.537   0.425  11.793  0.2571  0.2033 -0.6604
 8073SOL    HW135681   0.446   0.454  11.788  0.1264 -0.4187 -1.8334
 8073SOL    HW235682   0.582   0.475  11.725  0.0543  0.8604 -0.3124
 8074SOL     OW35683   1.967   4.678   2.091  0.2087  0.2277 -0.1516
 8074SOL    HW135684   1.920   0.040   2.081  1.4574  1.1291  1.2982
 8074SOL    HW235685   2.050   4.693   2.044  0.4265 -0.8210 -0.0998
 8075SOL     OW35686   3.526   1.127   4.020 -0.1641  0.0955  0.1198
 8075SOL    HW135687   3.555   1.037   4.011 -1.7225 -0.3910 -0.0876
 8075SOL    HW235688   3.501   1.129   4.112  1.0797  0.7069  0.4371
 8076SOL     OW35689   3.376   3.589  17.532  0.3300  0.5302  0.0133
 8076SOL    HW135690   3.292   3.587  17.486  0.2972  1.2525  0.0467
 8076SOL    HW235691   3.382   3.675  17.573 -0.1619  1.5294 -2.0387
 8077SOL     OW35692   4.369   1.954   8.131 -0.2311 -0.2589 -0.0903
 8077SOL    HW135693   4.340   1.870   8.164 -0.7092  0.0734  0.3308
 8077SOL    HW235694   4.297   2.003   8.170 -1.1805 -1.5675 -0.2183
 8078SOL     OW35695   3.392   3.925  10.137 -0.4558  0.6807 -0.8920
 8078SOL    HW135696   3.415   4.014  10.165 -1.2381  0.4492  0.5004
 8078SOL    HW235697   3.314   3.918  10.193  0.3649  0.0577  0.1752
 8079SOL     OW35698   2.882   3.155  17.300  0.0894 -0.2144 -0.2149
 8079SOL    HW135699   2.912   3.236  17.341 -2.8606  1.5831 -1.5876
 8079SOL    HW235700   2.802   3.186  17.257  0.0338  0.3569  0.3098
 8080SOL     OW35701   3.955   3.200   8.681 -0.4391  0.0477  0.1198
 8080SOL    HW135702   3.925   3.270   8.622 -1.2467  0.0919  0.5927
 8080SOL    HW235703   3.902   3.212   8.760 -0.4014 -1.5015  0.3672
 8081SOL     OW35704   1.034   3.435   6.862  0.2973  0.0783 -0.2854
 8081SOL    HW135705   1.116   3.485   6.865 -0.2013  0.7056  2.3330
 8081SOL    HW235706   1.022   3.416   6.769 -1.3639 -1.3097  0.2236
 8082SOL     OW35707   4.408   1.904   4.592 -0.2799  0.6438  0.1027
 8082SOL    HW135708   4.475   1.839   4.615 -0.2833  0.5484 -0.1573
 8082SOL    HW235709   4.399   1.943   4.679 -0.3881  2.1869 -0.5990
 8083SOL     OW35710   1.292   3.894   1.565 -0.2162 -0.4278 -0.1156
 8083SOL    HW135711   1.260   3.809   1.597  1.7950 -0.1255  2.7045
 8083SOL    HW235712   1.210   3.925   1.528  0.9513  2.2164 -0.4714
 8084SOL     OW35713   3.542   1.791   3.914 -0.4361  0.4235  0.5620
 8084SOL    HW135714   3.482   1.842   3.969 -1.3274  0.5157 -0.4818
 8084SOL    HW235715   3.591   1.749   3.985  0.1404  1.0413  0.5276
 8085SOL     OW35716   4.131   0.180   5.135  0.2987  0.5212 -0.6136
 8085SOL    HW135717   4.101   0.233   5.061  0.8333 -0.2151 -1.3507
 8085SOL    HW235718   4.049   0.141   5.167  0.5748  1.5494  1.3570
 8086SOL     OW35719   3.903   1.666   7.093 -0.7709 -0.6005  0.3563
 8086SOL    HW135720   3.948   1.686   7.175 -1.1956 -0.3658  0.5316
 8086SOL    HW235721   3.882   1.757   7.069  0.1976 -0.6704 -0.7613
 8087SOL     OW35722   3.903   4.433   5.680  0.1027 -0.0212 -0.0782
 8087SOL    HW135723   3.872   4.389   5.759 -0.0495  0.9018  0.3766
 8087SOL    HW235724   3.824   4.428   5.626  0.4862  0.6357 -0.7023
 8088SOL     OW35725   3.242   3.156  16.106 -0.5466 -0.2411 -0.3984
 8088SOL    HW135726   3.316   3.100  16.083  1.1730  2.1011 -0.5968
 8088SOL    HW235727   3.175   3.122  16.047 -0.9981  1.9863 -1.1860
 8089SOL     OW35728   3.384   4.345  10.462  0.0866 -0.0138  0.7462
 8089SOL    HW135729   3.303   4.367  10.416  1.2020 -0.3691 -1.3461
 8089SOL    HW235730   3.442   4.422  10.459 -0.2299  0.1779 -0.3989
 8090SOL     OW35731   0.682   0.481   4.159  0.5658 -0.2095  0.2057
 8090SOL    HW135732   0.672   0.575   4.168  2.5526 -0.0724  0.8833
 8090SOL    HW235733   0.776   0.479   4.176  0.7149  0.7991 -0.4635
 8091SOL     OW35734   0.215   1.068   8.474 -0.0189  0.6473 -0.2566
 8091SOL    HW135735   0.225   1.159   8.446 -0.3803  0.9550  0.6122
 8091SOL    HW235736   0.123   1.046   8.459 -0.0925 -0.4091  1.7168
 8092SOL     OW35737   0.448   1.250  17.018 -0.5985  0.1444  0.3571
 8092SOL    HW135738   0.542   1.251  17.001 -1.2504  2.2154 -3.1932
 8092SOL    HW235739   0.438   1.164  17.058 -0.7864  0.2378  0.5127
 8093SOL     OW35740   3.390   2.510  13.812  0.4577 -0.0653  0.0185
 8093SOL    HW135741   3.308   2.518  13.763  0.4584 -1.2473 -0.1832
 8093SOL    HW235742   3.364   2.512  13.904 -0.2261  0.8864 -0.2034
 8094SOL     OW35743   3.684   2.643  13.306 -0.5902  0.0997 -0.4913
 8094SOL    HW135744   3.766   2.689  13.324 -1.7686  1.4587  1.3883
 8094SOL    HW235745   3.663   2.609  13.393 -2.7659  0.0239 -1.0374
 8095SOL     OW35746   0.904   0.562   9.112  0.3544 -0.0678 -0.1598
 8095SOL    HW135747   0.960   0.505   9.059 -1.2890 -0.4056 -1.5601
 8095SOL    HW235748   0.969   0.614   9.160 -0.5444  1.5460 -0.6685
 8096SOL     OW35749   3.885   0.703  17.413 -0.6869 -0.4395 -0.0314
 8096SOL    HW135750   3.865   0.691  17.320 -0.3742  0.1947 -0.1744
 8096SOL    HW235751   3.935   0.784  17.417  0.5452 -1.1797 -0.2247
 8097SOL     OW35752   2.587   0.168   9.377  0.3127  0.6508 -0.1360
 8097SOL    HW135753   2.508   0.171   9.430  0.5468 -0.2681  0.2572
 8097SOL    HW235754   2.602   0.263   9.381  2.1794  0.4554 -2.2067
 8098SOL     OW35755   0.278   1.673   4.852  0.2408 -0.1128  0.4509
 8098SOL    HW135756   0.330   1.709   4.781  0.5158 -2.3597 -0.4904
 8098SOL    HW235757   0.310   1.583   4.849  0.6856  0.1272 -1.9729
 8099SOL     OW35758   2.677   3.168   6.031 -0.5638 -0.3537 -0.0463
 8099SOL    HW135759   2.716   3.254   6.045 -1.7216  0.3800 -1.3231
 8099SOL    HW235760   2.618   3.192   5.959  0.7194 -2.1554 -1.6912
 8100SOL     OW35761   1.346   4.708   3.163 -0.4885  0.8500  0.2456
 8100SOL    HW135762   1.436   0.020   3.170 -0.5160  0.8665  0.5088
 8100SOL    HW235763   1.325   4.676   3.250 -0.7605 -2.5557 -1.0361
 8101SOL     OW35764   3.350   3.700   7.133  0.0045  0.3770 -0.1419
 8101SOL    HW135765   3.378   3.612   7.110 -2.1721 -0.2417 -0.4030
 8101SOL    HW235766   3.288   3.707   7.060 -0.8485 -0.8798  0.4528
 8102SOL     OW35767   1.344   0.981  16.227 -0.2864 -0.4945  0.0535
 8102SOL    HW135768   1.330   0.886  16.228 -0.0247 -0.5386 -0.2710
 8102SOL    HW235769   1.322   0.996  16.135  2.7076 -0.5042 -0.6817
 8103SOL     OW35770   3.074   3.654   6.265 -0.8036  0.3885  0.0296
 8103SOL    HW135771   3.009   3.719   6.238 -1.5612 -1.1263 -1.8479
 8103SOL    HW235772   3.126   3.658   6.185  0.6920  0.9099  1.0502
 8104SOL     OW35773   0.430   4.535   7.751 -0.1667 -0.0367  0.0339
 8104SOL    HW135774   0.347   4.540   7.704  0.5368  0.8191 -1.0999
 8104SOL    HW235775   0.487   4.591   7.699  0.6647  0.5541  1.5636
 8105SOL     OW35776   2.255   4.176   4.575  0.2238 -0.1905 -0.6341
 8105SOL    HW135777   2.290   4.105   4.520  1.3720  1.3797 -1.9202
 8105SOL    HW235778   2.219   4.229   4.505 -3.4968  0.4172  1.7709
 8106SOL     OW35779   3.031   4.492  14.894 -0.2337 -0.3868 -0.0268
 8106SOL    HW135780   3.059   4.554  14.826 -0.2528 -0.1261  0.1985
 8106SOL    HW235781   3.035   4.552  14.969  0.2237 -0.4275 -0.0163
 8107SOL     OW35782   2.127   3.000   4.045  0.2505 -0.2295 -0.1549
 8107SOL    HW135783   2.205   3.056   4.054 -0.4484  1.0149 -1.7638
 8107SOL    HW235784   2.121   2.998   3.949 -0.5042 -2.3458 -0.0453
 8108SOL     OW35785   1.219   1.459   3.730  0.1573 -0.0879  0.1006
 8108SOL    HW135786   1.230   1.477   3.824  0.3618  0.0068  0.0581
 8108SOL    HW235787   1.253   1.540   3.693  2.0154 -0.7523  0.2995
 8109SOL     OW35788   1.426   4.298   7.595 -0.0329  0.0397 -0.0038
 8109SOL    HW135789   1.357   4.364   7.598  0.7106  0.8849 -1.9406
 8109SOL    HW235790   1.377   4.221   7.625 -0.7310 -0.3582 -2.2261
 8110SOL     OW35791   1.024   1.559   6.843  0.4402 -0.3166  0.0336
 8110SOL    HW135792   1.009   1.651   6.820 -3.2791 -0.6578  0.9802
 8110SOL    HW235793   1.092   1.579   6.907 -0.5763 -0.3373  1.1379
 8111SOL     OW35794   1.659   4.530   9.946 -0.0818 -0.0625 -0.0014
 8111SOL    HW135795   1.569   4.523   9.977 -0.1203 -0.1257 -0.1286
 8111SOL    HW235796   1.690   4.440   9.956  0.4758  0.3098  1.7403
 8112SOL     OW35797   3.488   2.296   9.600  0.1358 -0.0228  0.0238
 8112SOL    HW135798   3.487   2.392   9.602 -1.4041  0.0257 -3.0488
 8112SOL    HW235799   3.566   2.265   9.645 -0.4850  0.2719  1.2870
 8113SOL     OW35800   0.636   3.738   4.050 -0.4602  0.0731  0.6112
 8113SOL    HW135801   0.639   3.793   4.128  1.6303 -0.2710  0.7728
 8113SOL    HW235802   0.541   3.728   4.038 -0.3231  0.0676 -0.4521
 8114SOL     OW35803   1.825   3.462   9.628  0.2385 -0.1419 -1.0976
 8114SOL    HW135804   1.920   3.459   9.641  0.0472  1.4335  0.7859
 8114SOL    HW235805   1.801   3.512   9.706 -0.0951  0.3370 -1.5050
 8115SOL     OW35806   1.056   2.146   2.252  0.1602 -0.1170  0.3669
 8115SOL    HW135807   1.068   2.184   2.166  1.0751  2.8036  1.8075
 8115SOL    HW235808   1.047   2.053   2.231 -1.0150  0.1424 -0.2576
 8116SOL     OW35809   0.434   1.577  14.054  0.0060  0.4302 -0.4144
 8116SOL    HW135810   0.506   1.552  14.112 -0.8176  3.0800  1.7809
 8116SOL    HW235811   0.427   1.511  13.985  0.6000 -1.5348  1.4323
 8117SOL     OW35812   4.587   3.541  15.203 -0.4257 -0.0980 -0.1492
 8117SOL    HW135813   4.582   3.554  15.298  0.4285 -1.1615  0.0395
 8117SOL    HW235814   4.672   3.497  15.203  1.0251  2.6974 -0.7497
 8118SOL     OW35815   2.564   1.107   1.415  0.3175  0.5525 -0.2235
 8118SOL    HW135816   2.520   1.023   1.401 -1.8129  1.5124  0.5690
 8118SOL    HW235817   2.490   1.162   1.442 -0.4400 -1.0150  0.8545
 8119SOL     OW35818   2.498   3.687   5.720  0.3192  0.0057 -0.2730
 8119SOL    HW135819   2.422   3.670   5.664  0.3111 -1.8408  0.2824
 8119SOL    HW235820   2.548   3.753   5.672  1.6436  0.7430  2.1121
 8120SOL     OW35821   1.097   2.152   9.438 -0.0165  0.0559  0.0344
 8120SOL    HW135822   1.121   2.143   9.531 -0.7213  0.1029  0.2201
 8120SOL    HW235823   1.172   2.186   9.389 -0.4904 -3.2191 -2.9484
 8121SOL     OW35824   1.635   1.991  16.061  0.6862 -0.1288 -0.2013
 8121SOL    HW135825   1.659   1.942  16.140  2.6913  0.1115 -0.6750
 8121SOL    HW235826   1.694   2.066  16.066 -1.0450  1.2752 -0.6923
 8122SOL     OW35827   2.672   4.692  12.506 -0.2532 -0.0880 -0.4010
 8122SOL    HW135828   2.714   4.627  12.563 -0.4957 -0.3540 -0.5256
 8122SOL    HW235829   2.740   4.693  12.439 -0.5809 -1.5136 -0.7660
 8123SOL     OW35830   1.010   1.149   7.451  0.0262 -0.0998 -0.3445
 8123SOL    HW135831   1.063   1.140   7.530  1.5572 -1.9611 -1.5692
 8123SOL    HW235832   0.936   1.090   7.460 -0.4960  0.7659  0.9558
 8124SOL     OW35833   4.647   2.048   2.574  0.3415  0.3709  0.2219
 8124SOL    HW135834   0.004   2.104   2.572 -0.3619  1.3476  0.4402
 8124SOL    HW235835   4.662   1.993   2.496  0.4224  0.4385  0.1889
 8125SOL     OW35836   0.562   4.651   9.144 -0.2507  0.2712 -0.2787
 8125SOL    HW135837   0.476   4.645   9.185 -0.1603 -0.4392 -0.1983
 8125SOL    HW235838   0.556   4.573   9.090  0.4239  0.9591 -1.3596
 8126SOL     OW35839   3.622   0.791   4.981  0.1293  0.0156 -0.0251
 8126SOL    HW135840   3.601   0.785   5.074  0.9866 -0.8592  0.1197
 8126SOL    HW235841   3.628   0.700   4.953  0.8147 -0.2278  0.9034
 8127SOL     OW35842   0.988   2.941   2.293  0.1614  0.1413  0.2249
 8127SOL    HW135843   1.077   2.967   2.271  0.4680 -2.9567 -2.2262
 8127SOL    HW235844   0.985   2.961   2.386  1.5297 -1.0028  0.5170
 8128SOL     OW35845   2.659   0.470   3.365  0.4250 -0.3427  0.1316
 8128SOL    HW135846   2.754   0.470   3.379  0.1460  0.3456  2.0578
 8128SOL    HW235847   2.652   0.492   3.272  0.0522 -0.0118  0.2373
 8129SOL     OW35848   0.402   3.826   9.476  0.1921 -0.5245 -0.0994
 8129SOL    HW135849   0.434   3.852   9.389 -1.5560 -0.1506 -0.6291
 8129SOL    HW235850   0.311   3.854   9.467  0.4364  0.5584  0.7506
 8130SOL     OW35851   1.057   1.215  11.294 -0.3727  0.3184  0.1000
 8130SOL    HW135852   1.114   1.171  11.357  0.4497 -1.3148 -1.8017
 8130SOL    HW235853   0.977   1.179  11.330 -0.0258 -0.9270 -0.3944
 8131SOL     OW35854   1.783   0.650   7.283  0.3205 -0.0928 -0.4496
 8131SOL    HW135855   1.850   0.599   7.238  0.9256 -0.2581  0.6407
 8131SOL    HW235856   1.744   0.700   7.211 -1.5731 -0.4326  0.3316
 8132SOL     OW35857   4.668   2.814   2.800  0.5273  0.2307 -0.2459
 8132SOL    HW135858   4.621   2.824   2.717  2.1726 -0.8028 -1.3006
 8132SOL    HW235859   0.037   2.833   2.771 -0.3069  0.1910 -2.8979
 8133SOL     OW35860   1.295   1.112   7.560  0.1434 -0.3340  0.1251
 8133SOL    HW135861   1.272   1.189   7.613 -0.2632  0.0536 -0.6057
 8133SOL    HW235862   1.271   1.040   7.618  3.6677 -0.6723  1.1455
 8134SOL     OW35863   1.999   2.304  12.989 -0.0056  0.1629 -0.4916
 8134SOL    HW135864   1.961   2.216  12.995  0.5066 -0.1810 -2.3725
 8134SOL    HW235865   2.007   2.300  12.894  0.3640 -2.6502 -0.3472
 8135SOL     OW35866   2.268   1.105   5.654  0.3287 -0.6125 -0.4665
 8135SOL    HW135867   2.202   1.086   5.720  0.8987 -0.5232  0.1348
 8135SOL    HW235868   2.347   1.059   5.681  1.3667  1.8105  0.6619
 8136SOL     OW35869   1.588   1.909   9.022  0.3270 -0.1624 -0.0189
 8136SOL    HW135870   1.535   1.944   9.094 -0.5900  0.4582 -0.9862
 8136SOL    HW235871   1.536   1.939   8.948  0.7612  0.2029 -0.1744
 8137SOL     OW35872   3.116   1.342   3.489 -0.2232  0.3685  0.3351
 8137SOL    HW135873   3.173   1.418   3.477  0.9362 -0.2616  1.9013
 8137SOL    HW235874   3.117   1.334   3.584  0.3339 -0.6494  0.2443
 8138SOL     OW35875   2.116   4.296   2.293  0.1165 -0.4124  0.1557
 8138SOL    HW135876   2.129   4.239   2.218  0.5724 -0.6027  0.3807
 8138SOL    HW235877   2.160   4.249   2.364  0.3035  3.0110  2.3108
 8139SOL     OW35878   2.667   0.065   1.614 -0.3139 -0.6625  0.2090
 8139SOL    HW135879   2.747   0.108   1.584 -1.0106 -1.4579 -2.7833
 8139SOL    HW235880   2.647   0.131   1.680  4.6668  1.0854 -0.0748
 8140SOL     OW35881   2.990   3.539   1.871  0.0140  0.5341 -0.1916
 8140SOL    HW135882   2.900   3.541   1.905 -0.5356  0.8324 -1.6626
 8140SOL    HW235883   3.009   3.449   1.846 -1.2692  0.1453  0.2652
 8141SOL     OW35884   3.814   1.318   4.312  0.0116  0.2167  0.0172
 8141SOL    HW135885   3.851   1.254   4.372  2.6455 -0.8055 -2.7020
 8141SOL    HW235886   3.824   1.286   4.222 -0.4969  1.2749 -0.4190
 8142SOL     OW35887   0.473   1.345  13.491  0.3843 -0.1884  0.1744
 8142SOL    HW135888   0.410   1.375  13.556  0.7851 -1.4032  1.1127
 8142SOL    HW235889   0.553   1.384  13.527  0.3180  1.8752 -1.8854
 8143SOL     OW35890   4.096   1.482   9.689 -0.5065  0.1718  0.2998
 8143SOL    HW135891   4.020   1.507   9.742  1.2101 -0.3428  2.9861
 8143SOL    HW235892   4.050   1.444   9.614 -1.8503  1.2601  0.5745
 8144SOL     OW35893   4.095   1.395  10.177  0.3870  0.2861 -0.2123
 8144SOL    HW135894   4.106   1.339  10.100  0.2546  0.2316 -0.1919
 8144SOL    HW235895   4.117   1.477  10.133  2.8635 -0.7805 -0.9981
 8145SOL     OW35896   3.017   2.266  11.043  0.1305  0.2109 -0.1508
 8145SOL    HW135897   3.112   2.257  11.036  0.2813  1.7403  0.0013
 8145SOL    HW235898   3.001   2.195  11.106  0.1495 -0.2752 -0.6952
 8146SOL     OW35899   2.255   3.667   4.037  0.0311  0.4672 -0.0326
 8146SOL    HW135900   2.321   3.628   4.095  0.3805  2.2463  0.7460
 8146SOL    HW235901   2.207   3.728   4.093  1.0898  3.7292 -2.7358
 8147SOL     OW35902   3.066   1.847   2.962 -0.0864  0.6195  0.0215
 8147SOL    HW135903   3.126   1.778   2.989 -2.6484 -2.0199 -1.0686
 8147SOL    HW235904   3.059   1.835   2.867 -0.3289 -0.2560  0.1548
 8148SOL     OW35905   3.978   0.033  11.171  0.5709  0.1538 -0.1726
 8148SOL    HW135906   3.932   0.098  11.225  1.6563 -0.4727  1.5166
 8148SOL    HW235907   4.057   0.025  11.224  0.6935  1.7822 -0.1209
 8149SOL     OW35908   4.575   2.660  12.653 -0.2080  0.4570 -0.3765
 8149SOL    HW135909   4.526   2.580  12.675  1.2513 -0.3777 -0.1912
 8149SOL    HW235910   4.525   2.674  12.573 -2.1663  1.2405  0.9643
 8150SOL     OW35911   1.317   1.764   4.046 -0.2267  0.3110 -0.3129
 8150SOL    HW135912   1.337   1.734   3.957  4.1094 -0.4031  0.8997
 8150SOL    HW235913   1.326   1.684   4.096  1.4937 -0.0195 -1.1658
 8151SOL     OW35914   1.942   4.481  13.150  0.1746  0.9376 -0.2388
 8151SOL    HW135915   1.913   4.565  13.115 -1.3292  0.3124 -0.4859
 8151SOL    HW235916   1.900   4.486  13.236 -2.5462 -0.1070 -1.5033
 8152SOL     OW35917   4.449   2.787   8.286 -0.1127 -0.2884 -0.2520
 8152SOL    HW135918   4.488   2.720   8.230  1.8562  0.8736 -0.2631
 8152SOL    HW235919   4.420   2.727   8.355 -0.9086  0.6802  0.2632
 8153SOL     OW35920   4.567   2.304   6.561  0.5144 -0.0592  0.9000
 8153SOL    HW135921   4.615   2.225   6.537 -1.5611 -0.8396 -0.6169
 8153SOL    HW235922   4.633   2.351   6.613  3.0795 -2.6538 -0.0448
 8154SOL     OW35923   2.751   0.992   1.584 -0.3944  0.3281 -0.8814
 8154SOL    HW135924   2.692   1.040   1.526 -0.7066 -0.8147 -1.5020
 8154SOL    HW235925   2.680   0.940   1.620  0.5583 -0.9765 -0.8997
 8155SOL     OW35926   2.927   1.733   0.023 -0.4167 -0.2285  0.9338
 8155SOL    HW135927   2.940   1.821   0.057  0.1088 -0.4779  1.3708
 8155SOL    HW235928   2.883   1.748  17.625 -1.3627 -1.5219  1.1824
 8156SOL     OW35929   3.920   3.502  14.552  0.7984 -0.4606  0.4856
 8156SOL    HW135930   4.008   3.486  14.586  0.4731 -1.6586  0.7496
 8156SOL    HW235931   3.903   3.417  14.512 -0.5059  0.8355 -1.7392
 8157SOL     OW35932   2.485   3.816   0.325  0.3273 -0.0771 -0.1216
 8157SOL    HW135933   2.471   3.760   0.248 -1.4574 -0.1507  0.2435
 8157SOL    HW235934   2.473   3.749   0.392 -2.4132 -0.0963 -0.6176
 8158SOL     OW35935   4.568   0.075   0.898 -0.3815  0.0718 -0.0217
 8158SOL    HW135936   4.558   0.055   0.805 -3.3958 -2.5147  0.8809
 8158SOL    HW235937   4.509   0.150   0.910 -1.2238 -0.5227 -0.4328
 8159SOL     OW35938   1.766   0.183  15.450  0.0188 -0.3440 -0.0889
 8159SOL    HW135939   1.681   0.149  15.423 -0.2568 -0.4939  0.9473
 8159SOL    HW235940   1.804   0.096  15.440  2.6660  0.5765  1.9185
 8160SOL     OW35941   0.022   1.059   3.112  1.1042  1.0034  0.1774
 8160SOL    HW135942   4.705   0.971   3.119  4.3804 -0.3026  1.6235
 8160SOL    HW235943   0.010   1.087   3.202  2.7186  1.0122  0.4038
 8161SOL     OW35944   4.166   2.374   8.032  0.2316  0.0805  0.0802
 8161SOL    HW135945   4.112   2.409   8.103 -1.0238 -0.1649 -0.7445
 8161SOL    HW235946   4.255   2.354   8.060  1.1312  1.5680 -1.7028
 8162SOL     OW35947   2.986   4.690  15.112  0.3337 -0.1609 -0.5532
 8162SOL    HW135948   2.925   4.691  15.185  2.7080 -1.5989  1.4418
 8162SOL    HW235949   3.071   4.667  15.149 -0.1521 -1.5158 -0.3048
 8163SOL     OW35950   1.272   4.681   5.530  0.2671 -0.3976  0.1331
 8163SOL    HW135951   1.220   4.601   5.533  1.1383 -0.9263  1.0289
 8163SOL    HW235952   1.201   0.012   5.491  0.9650  1.4833  1.3990
 8164SOL     OW35953   4.439   0.369   9.277 -0.1684 -0.5393  0.2126
 8164SOL    HW135954   4.437   0.275   9.255 -1.8517 -0.6804  1.0528
 8164SOL    HW235955   4.444   0.404   9.187 -0.7305  0.1003  0.4346
 8165SOL     OW35956   0.128   1.785   2.732  0.3035  0.3779 -0.1957
 8165SOL    HW135957   0.199   1.721   2.731  0.2837  0.3658 -0.7354
 8165SOL    HW235958   0.065   1.756   2.667  0.0988 -0.6185  0.4496
 8166SOL     OW35959   4.480   2.317   8.087 -0.2902 -0.2691 -0.2060
 8166SOL    HW135960   4.517   2.403   8.106  0.4268 -0.9862  1.6303
 8166SOL    HW235961   4.557   2.261   8.103  1.8919  3.1514  1.1467
 8167SOL     OW35962   4.696   0.052   3.026  0.0298  0.6346  0.0707
 8167SOL    HW135963   0.042   0.100   2.978  1.9808 -1.9082  0.2375
 8167SOL    HW235964   4.656   4.712   2.964  1.3635  2.0514 -2.1695
 8168SOL     OW35965   2.894   2.849   6.984  0.2991 -0.0937  0.7455
 8168SOL    HW135966   2.891   2.837   6.889  1.4023  1.7159  0.4826
 8168SOL    HW235967   2.987   2.864   7.000  0.4298  0.0548 -0.1591
 8169SOL     OW35968   3.040   1.693   8.555  0.1413  0.4170 -0.2903
 8169SOL    HW135969   3.003   1.671   8.641  1.2896  0.2173  0.1594
 8169SOL    HW235970   3.025   1.610   8.509 -1.3169 -0.2630  1.4178
 8170SOL     OW35971   0.151   1.673   8.479 -0.1500  0.3321  0.2337
 8170SOL    HW135972   0.201   1.697   8.557 -0.6035 -0.8825  0.8959
 8170SOL    HW235973   0.109   1.590   8.504  2.2673 -0.3664  2.0265
 8171SOL     OW35974   1.294   1.170  16.387  0.0240  0.6865  0.0478
 8171SOL    HW135975   1.208   1.158  16.428  0.4787 -0.6087  0.6317
 8171SOL    HW235976   1.300   1.085  16.344  0.1658  1.2863 -1.1239
 8172SOL     OW35977   1.014   2.844  10.328  0.5155 -0.0186 -0.0756
 8172SOL    HW135978   1.036   2.802  10.411  1.8458  1.7133  0.4565
 8172SOL    HW235979   0.958   2.917  10.356 -0.4699 -0.6615 -0.3743
 8173SOL     OW35980   2.789   1.124   1.825  0.4558  0.1698  0.2995
 8173SOL    HW135981   2.843   1.078   1.889  2.1949  1.9559  0.1371
 8173SOL    HW235982   2.779   1.071   1.746  1.3352 -0.2164  0.4545
 8174SOL     OW35983   1.782   1.387   6.791  0.2996  0.1455 -0.0190
 8174SOL    HW135984   1.703   1.436   6.812 -3.2707 -3.7811 -4.0491
 8174SOL    HW235985   1.749   1.300   6.813  1.2890 -0.0206  0.8099
 8175SOL     OW35986   3.303   1.861   6.817  0.3006  0.3078  0.0995
 8175SOL    HW135987   3.296   1.786   6.877  2.5760  1.2243  1.5318
 8175SOL    HW235988   3.256   1.926   6.869 -1.2408 -0.8595  0.1583
 8176SOL     OW35989   4.548   2.691   0.655  0.3316 -0.4362  0.1297
 8176SOL    HW135990   4.499   2.773   0.653 -3.3047 -2.6065  0.9465
 8176SOL    HW235991   4.522   2.652   0.571 -1.8026  0.8163  0.2221
 8177SOL     OW35992   1.474   0.571  11.181 -0.5041  0.3832 -0.8471
 8177SOL    HW135993   1.401   0.633  11.188 -0.7961  0.0561 -0.9717
 8177SOL    HW235994   1.491   0.585  11.088 -3.9354 -0.7899 -1.6540
 8178SOL     OW35995   2.589   2.473   8.030 -0.4004 -0.2455  0.0350
 8178SOL    HW135996   2.531   2.542   7.997  1.6543  0.3882 -2.2021
 8178SOL    HW235997   2.572   2.477   8.124  0.2474 -0.5546  0.1637
 8179SOL     OW35998   3.116   3.807   2.851  0.2646  0.1294  0.0366
 8179SOL    HW135999   3.064   3.876   2.892 -0.8773 -0.6913 -0.0340
 8179SOL    HW236000   3.188   3.797   2.914  0.5433  0.1185 -0.2822
 8180SOL     OW36001   3.816   3.995  15.982  0.1473 -0.1155 -0.3747
 8180SOL    HW136002   3.775   3.927  15.929 -0.2691  0.5466 -0.8968
 8180SOL    HW236003   3.768   4.074  15.957 -0.6421 -0.9062 -1.3606
 8181SOL     OW36004   3.251   2.223  11.431 -0.4774  0.3434  0.1162
 8181SOL    HW136005   3.321   2.244  11.493  1.6035  1.3819 -2.5537
 8181SOL    HW236006   3.229   2.309  11.396 -0.7925 -0.0068 -0.5520
 8182SOL     OW36007   4.098   0.355   6.617  0.4904 -0.0496 -0.4651
 8182SOL    HW136008   4.092   0.437   6.569  0.2182  0.3011  0.1760
 8182SOL    HW236009   4.192   0.340   6.604  0.9115  1.1182  1.2599
 8183SOL     OW36010   3.679   3.443   4.589 -0.3648 -0.0367 -0.3171
 8183SOL    HW136011   3.753   3.402   4.633 -1.0244 -1.7702 -0.8618
 8183SOL    HW236012   3.620   3.373   4.563 -0.5169  0.3395 -1.0020
 8184SOL     OW36013   1.659   0.875   5.743 -0.6618  0.1482  0.3289
 8184SOL    HW136014   1.711   0.934   5.689 -0.5085  0.7305  1.1113
 8184SOL    HW236015   1.649   0.799   5.687 -0.6192 -0.5244  1.2431
 8185SOL     OW36016   2.840   0.151   7.242 -1.1087 -0.0134 -0.2393
 8185SOL    HW136017   2.746   0.171   7.239 -1.8841 -3.5988  0.4731
 8185SOL    HW236018   2.844   0.057   7.259  0.4775 -0.2344 -1.9100
 8186SOL     OW36019   0.820   4.645   1.380  0.0132 -0.1882 -0.3873
 8186SOL    HW136020   0.831   4.564   1.329 -1.3545 -0.3495 -0.4108
 8186SOL    HW236021   0.911   4.675   1.378 -0.0674  0.0300 -0.6638
 8187SOL     OW36022   2.212   0.488   8.277 -0.2538  0.1575 -0.1623
 8187SOL    HW136023   2.229   0.570   8.323 -0.0096  1.1261 -1.9612
 8187SOL    HW236024   2.138   0.456   8.328 -1.3186 -4.3216 -4.4622
 8188SOL     OW36025   1.710   1.654  16.114 -0.4146 -0.8229 -0.3961
 8188SOL    HW136026   1.707   1.725  16.178  1.0398 -2.5229  1.5272
 8188SOL    HW236027   1.628   1.667  16.066 -0.1228 -1.9764 -1.1968
 8189SOL     OW36028   1.531   1.918   2.331  0.1081  0.2350  0.1041
 8189SOL    HW136029   1.481   1.902   2.251  0.6271  0.6780 -0.3122
 8189SOL    HW236030   1.529   2.014   2.339  0.5666  0.3973 -1.6391
 8190SOL     OW36031   0.626   2.643   8.676 -0.4169  0.1532 -0.6794
 8190SOL    HW136032   0.593   2.683   8.756  0.5318 -0.7937  0.1735
 8190SOL    HW236033   0.601   2.710   8.611 -2.1101 -0.1250 -0.3040
 8191SOL     OW36034   0.031   4.519   4.400 -0.3926  0.0971  0.0107
 8191SOL    HW136035   0.112   4.470   4.417 -2.1639 -1.8523  2.8494
 8191SOL    HW236036   4.690   4.475   4.459  0.9992  0.3389  1.6601
 8192SOL     OW36037   2.815   1.452  17.510 -0.2090  0.0969 -0.3085
 8192SOL    HW136038   2.882   1.421  17.570  2.0712  1.2480 -2.2373
 8192SOL    HW236039   2.845   1.543  17.497 -1.7865  0.8417  1.3413
 8193SOL     OW36040   2.703   1.786   9.578  0.0243  0.1576 -0.2456
 8193SOL    HW136041   2.796   1.806   9.570  0.6088 -2.1443  0.5688
 8193SOL    HW236042   2.659   1.839   9.513 -0.3004  0.3058  0.0930
 8194SOL     OW36043   1.231   1.707  14.557  0.4725  0.3332  0.2402
 8194SOL    HW136044   1.156   1.766  14.544  0.5890  0.7446  1.4140
 8194SOL    HW236045   1.289   1.773  14.596 -1.0606 -0.1435  3.3212
 8195SOL     OW36046   3.381   1.086   1.888  1.3223  0.1711 -0.2842
 8195SOL    HW136047   3.473   1.069   1.909  1.6513 -0.3165 -2.1513
 8195SOL    HW236048   3.341   1.077   1.975  0.1124 -1.0498 -0.9759
 8196SOL     OW36049   3.371   0.576   2.192 -0.0011 -0.3176 -0.2913
 8196SOL    HW136050   3.424   0.648   2.158  0.5364 -0.6567 -0.1666
 8196SOL    HW236051   3.426   0.498   2.202 -0.9655 -1.0952 -1.0141
 8197SOL     OW36052   0.393   2.758   8.512 -0.2752 -0.3589  0.4982
 8197SOL    HW136053   0.322   2.757   8.575 -2.2874 -0.0115 -1.7796
 8197SOL    HW236054   0.427   2.841   8.547  2.2006 -1.0617 -0.2110
 8198SOL     OW36055   1.183   1.413   5.827 -0.0985 -0.1447  0.5302
 8198SOL    HW136056   1.090   1.417   5.848 -0.4859 -2.1156 -0.7812
 8198SOL    HW236057   1.193   1.505   5.805 -1.3969  0.0421  0.7079
 8199SOL     OW36058   3.087   3.859   1.706  0.1000 -0.1318 -0.3234
 8199SOL    HW136059   3.146   3.843   1.633 -1.5309  0.7767 -1.8553
 8199SOL    HW236060   3.145   3.911   1.761 -0.5765  0.8294 -0.5027
 8200SOL     OW36061   1.020   3.805   2.599  0.0733 -0.5240  0.2151
 8200SOL    HW136062   1.065   3.790   2.682  3.1432  0.5113 -1.2860
 8200SOL    HW236063   1.032   3.729   2.542  1.1452  0.0643 -0.3414
 8201SOL     OW36064   0.953   1.566   8.376  0.4071  0.1857 -0.1166
 8201SOL    HW136065   1.015   1.495   8.393  1.0791  0.4483 -1.4107
 8201SOL    HW236066   0.912   1.534   8.295  2.0521 -0.5176 -0.6714
 8202SOL     OW36067   2.154   4.137   2.510 -0.2945 -0.6761  0.0717
 8202SOL    HW136068   2.215   4.131   2.584 -0.5777  1.0770  0.4504
 8202SOL    HW236069   2.140   4.043   2.500 -2.4286 -0.2211 -1.2194
 8203SOL     OW36070   4.504   2.633   3.770  0.6832  0.0813  0.4420
 8203SOL    HW136071   4.453   2.592   3.700  0.1165  0.9460  0.3504
 8203SOL    HW236072   4.498   2.725   3.744  0.5809 -0.6238 -2.0777
 8204SOL     OW36073   1.470   0.160   2.869  0.3980  0.0277  0.6503
 8204SOL    HW136074   1.547   0.102   2.866 -0.0547 -0.6508  2.4119
 8204SOL    HW236075   1.402   0.096   2.887  0.8189 -1.1397 -1.8759
 8205SOL     OW36076   0.550   1.197   8.558  0.1452  0.5048 -0.4502
 8205SOL    HW136077   0.528   1.105   8.568  1.6106  0.0615 -1.2885
 8205SOL    HW236078   0.471   1.231   8.601  0.7932  0.7090  0.5925
 8206SOL     OW36079   2.994   0.585   4.430  1.0231 -0.0234  0.1136
 8206SOL    HW136080   2.901   0.606   4.431  0.8593 -0.7771  0.6716
 8206SOL    HW236081   3.024   0.641   4.358  0.3058 -1.6459 -1.4403
 8207SOL     OW36082   0.662   3.932   5.182  0.3544 -0.3705 -0.3278
 8207SOL    HW136083   0.635   4.022   5.166  0.8154  0.1074  1.5525
 8207SOL    HW236084   0.591   3.910   5.243  0.6432  2.4488  0.9808
 8208SOL     OW36085   1.981   3.984   7.822  0.1866  0.0521  0.0790
 8208SOL    HW136086   1.975   4.064   7.874 -0.7419 -0.5951  0.9599
 8208SOL    HW236087   1.976   3.919   7.892  2.1542 -0.7496 -0.5457
 8209SOL     OW36088   2.108   2.081   3.424  0.3483  0.1943 -0.0497
 8209SOL    HW136089   2.129   2.118   3.510 -1.3654 -0.2449  0.5568
 8209SOL    HW236090   2.105   2.160   3.370  0.5557  0.2337 -0.0073
 8210SOL     OW36091   2.424   0.401   9.139  0.1842  0.7315 -0.4757
 8210SOL    HW136092   2.451   0.326   9.087  0.5255  1.3160 -1.1366
 8210SOL    HW236093   2.372   0.457   9.081 -3.9405 -1.6435  0.8892
 8211SOL     OW36094   3.109   4.544   9.963  0.7574 -0.0822  0.5345
 8211SOL    HW136095   3.160   4.624   9.975  1.5946 -0.9613  2.7996
 8211SOL    HW236096   3.163   4.502   9.896 -0.5565  0.5246 -0.8933
 8212SOL     OW36097   0.015   0.737   7.156 -0.1380  0.0064  0.5274
 8212SOL    HW136098   0.074   0.809   7.176  0.3421 -0.0367 -0.7007
 8212SOL    HW236099   0.066   0.686   7.092 -0.3081 -0.3283  0.6564
 8213SOL     OW36100   0.557   0.499  12.311 -0.5041 -0.1980  0.4178
 8213SOL    HW136101   0.502   0.472  12.385 -0.9929 -0.9176 -0.2161
 8213SOL    HW236102   0.494   0.532  12.246 -1.4146  0.4434  1.6133
 8214SOL     OW36103   4.124   0.279  15.443 -0.1848 -0.6796  0.4357
 8214SOL    HW136104   4.108   0.196  15.396  0.3082  1.6891 -3.9453
 8214SOL    HW236105   4.212   0.266  15.477  0.9809 -0.6358 -2.5450
 8215SOL     OW36106   4.168   1.092   8.263  0.5368  0.1217 -0.4748
 8215SOL    HW136107   4.095   1.064   8.319 -0.9302  1.6445 -1.6115
 8215SOL    HW236108   4.207   1.153   8.327  1.0310  0.7090 -1.3375
 8216SOL     OW36109   2.415   1.886   5.585 -0.7015 -0.3029  0.1673
 8216SOL    HW136110   2.377   1.973   5.586 -1.7978 -0.7955  1.0587
 8216SOL    HW236111   2.397   1.861   5.675  2.5877 -0.8880  0.6673
 8217SOL     OW36112   3.045   1.846  16.052  0.6554  0.3842 -0.7079
 8217SOL    HW136113   3.037   1.751  16.052 -0.9411  0.5218 -4.3572
 8217SOL    HW236114   3.127   1.859  16.004  1.6972  1.0141  1.2796
 8218SOL     OW36115   4.025   1.763   1.803 -0.0172 -0.2542  0.1885
 8218SOL    HW136116   4.075   1.717   1.736  0.7019 -1.2897  1.4534
 8218SOL    HW236117   3.966   1.818   1.751  0.4997  0.9787  0.9260
 8219SOL     OW36118   0.176   2.043   6.873 -0.2715 -0.3293 -0.0751
 8219SOL    HW136119   0.154   1.984   6.945 -2.0844  0.9129  0.4116
 8219SOL    HW236120   0.247   2.002   6.825  1.8542  0.6453  2.2278
 8220SOL     OW36121   0.653   2.562   7.021  0.1912  0.1809 -0.1846
 8220SOL    HW136122   0.690   2.520   6.944  0.7891 -0.4840  0.4700
 8220SOL    HW236123   0.608   2.639   6.984  1.3849  1.1239  0.3254
 8221SOL     OW36124   4.550   1.416   6.147 -0.3349  0.0337  0.3396
 8221SOL    HW136125   4.493   1.487   6.117  0.5738  1.2456  1.4509
 8221SOL    HW236126   4.558   1.371   6.063 -0.0664 -0.4009  0.5997
 8222SOL     OW36127   3.581   4.713  17.511 -0.3731  0.3632  0.3310
 8222SOL    HW136128   3.489   0.016  17.508 -1.1648 -2.4359  2.1622
 8222SOL    HW236129   3.602   4.702  17.418 -0.8056 -2.5702  0.5703
 8223SOL     OW36130   0.062   1.355   4.163 -0.4753  0.0963  0.2424
 8223SOL    HW136131   0.097   1.278   4.207  3.2293  0.8612 -1.2841
 8223SOL    HW236132   0.139   1.385   4.113 -1.2293 -1.8813 -2.1310
 8224SOL     OW36133   2.592   0.425  12.138 -0.6154  0.0200  0.2388
 8224SOL    HW136134   2.602   0.474  12.056 -0.6866 -2.4009 -1.2077
 8224SOL    HW236135   2.681   0.440  12.169  0.8889 -3.4139 -2.4600
 8225SOL     OW36136   1.123   0.042   6.815 -0.1024 -0.2401  0.4173
 8225SOL    HW136137   1.199   0.034   6.757  1.2326  2.9200  1.7553
 8225SOL    HW236138   1.147   4.703   6.886 -3.3050 -2.2392 -0.1609
 8226SOL     OW36139   1.509   3.361   3.231 -0.1648 -0.4918 -0.3445
 8226SOL    HW136140   1.494   3.409   3.312 -3.4160 -1.1539 -0.5854
 8226SOL    HW236141   1.548   3.436   3.185 -0.2552 -0.8999 -1.0990
 8227SOL     OW36142   2.349   0.754  15.623  0.1142 -0.4802  0.5796
 8227SOL    HW136143   2.433   0.787  15.652  0.8317 -0.4885 -1.4471
 8227SOL    HW236144   2.308   0.840  15.610 -0.9806 -1.1121 -0.1586
 8228SOL     OW36145   3.406   2.938   1.267  0.3996 -0.2226 -0.3809
 8228SOL    HW136146   3.401   2.892   1.351 -3.2821 -1.8744 -1.5051
 8228SOL    HW236147   3.496   2.925   1.235  0.1456  1.5880 -1.8330
 8229SOL     OW36148   2.182   2.855  16.253  0.0776 -0.5321  0.2537
 8229SOL    HW136149   2.194   2.760  16.246 -1.2315 -0.5821 -1.4897
 8229SOL    HW236150   2.174   2.869  16.347 -1.2188 -3.6845  0.6098
 8230SOL     OW36151   0.007   1.026   1.537  0.0777 -0.0450 -0.4003
 8230SOL    HW136152   0.033   1.013   1.628  0.8626 -0.5003 -0.6918
 8230SOL    HW236153   4.635   1.004   1.536 -0.5288  2.3631  3.3140
 8231SOL     OW36154   1.146   4.279  10.189 -0.3207 -0.2384  0.2806
 8231SOL    HW136155   1.222   4.321  10.228  1.5319 -2.2303 -1.1876
 8231SOL    HW236156   1.156   4.292  10.095  0.9706  0.4920  0.5241
 8232SOL     OW36157   0.544   2.152   5.005 -0.4564  0.7372 -0.0471
 8232SOL    HW136158   0.542   2.199   5.088  0.0920  0.9560 -0.1531
 8232SOL    HW236159   0.630   2.179   4.972 -1.3704  1.7441 -1.5728
 8233SOL     OW36160   2.818   1.998   3.571  0.4458  0.1332  0.3081
 8233SOL    HW136161   2.732   1.964   3.548  0.3555  0.5327  0.0535
 8233SOL    HW236162   2.871   1.969   3.497  0.1018  0.2328  0.0271
 8234SOL     OW36163   0.170   0.295  15.668  0.0302  0.2135  0.3041
 8234SOL    HW136164   0.096   0.352  15.647  1.0219  1.0718 -0.8805
 8234SOL    HW236165   0.138   0.270  15.755  0.4931 -1.9284 -0.1383
 8235SOL     OW36166   4.641   1.776   4.730 -0.2454  0.1387  0.3824
 8235SOL    HW136167   4.619   1.815   4.815 -0.0342  0.7043  0.1772
 8235SOL    HW236168   4.624   1.684   4.749  1.9071 -0.4844 -0.7295
 8236SOL     OW36169   1.006   4.064   7.119  0.1693 -0.6607  0.1910
 8236SOL    HW136170   1.035   3.980   7.084 -1.3895  0.1007 -2.8517
 8236SOL    HW236171   0.928   4.051   7.173 -1.1162 -0.9969 -1.7776
 8237SOL     OW36172   1.512   0.069   5.641 -0.2191 -0.2791  0.6932
 8237SOL    HW136173   1.447   0.022   5.589 -0.6174  0.1137  0.8323
 8237SOL    HW236174   1.464   0.143   5.679 -2.0150 -1.8478  1.4707
 8238SOL     OW36175   0.084   4.472   0.159  0.2032  0.7682  0.4682
 8238SOL    HW136176   0.126   4.491   0.243  0.9021  2.5870 -0.2939
 8238SOL    HW236177   0.106   4.553   0.114 -0.3569  0.7683  0.1933
 8239SOL     OW36178   1.596   3.913  17.601  0.3029 -0.0415 -0.4887
 8239SOL    HW136179   1.546   3.994  17.587  0.4076 -0.1246 -1.2955
 8239SOL    HW236180   1.644   3.922  17.684  1.4082  1.8261 -1.3188
 8240SOL     OW36181   0.399   3.320   7.286  0.7833 -0.2540  0.5649
 8240SOL    HW136182   0.313   3.356   7.266  0.3506 -2.3477 -1.4021
 8240SOL    HW236183   0.426   3.312   7.194  0.7866  0.1238  0.5357
 8241SOL     OW36184   1.938   1.964   7.124  0.5601 -0.3903  0.4091
 8241SOL    HW136185   2.006   1.905   7.157 -1.0434 -2.6027 -0.2357
 8241SOL    HW236186   1.864   1.906   7.145  0.8461 -0.8378  0.1763
 8242SOL     OW36187   2.942   1.159   4.765 -0.9060 -0.9190 -0.1196
 8242SOL    HW136188   2.949   1.064   4.777  0.3285 -0.7506  0.4339
 8242SOL    HW236189   3.027   1.193   4.739  0.1854 -0.4004  4.2040
 8243SOL     OW36190   4.561   3.547   2.780 -0.2746  0.3515 -0.4292
 8243SOL    HW136191   4.585   3.485   2.849 -1.4387 -0.1936 -0.5147
 8243SOL    HW236192   4.498   3.492   2.733  2.7905 -2.4808 -1.2139
 8244SOL     OW36193   1.514   0.820   0.836 -0.2955 -0.7498  0.6234
 8244SOL    HW136194   1.524   0.736   0.792  0.0378  1.0132 -2.7219
 8244SOL    HW236195   1.478   0.872   0.764 -0.7518 -1.0942  0.6107
 8245SOL     OW36196   2.852   4.549   2.434 -0.6993 -0.0149  0.1582
 8245SOL    HW136197   2.830   4.467   2.480 -1.5794 -0.0701 -0.3692
 8245SOL    HW236198   2.848   4.522   2.343  0.8922  0.9747 -0.2050
 8246SOL     OW36199   0.731   2.108   9.125 -0.5846  0.4626  0.0147
 8246SOL    HW136200   0.758   2.148   9.208 -1.1817  3.1478 -1.0720
 8246SOL    HW236201   0.638   2.131   9.131 -0.1854  2.0099  0.1465
 8247SOL     OW36202   1.221   4.249   3.906 -0.4308  0.3400 -0.3819
 8247SOL    HW136203   1.155   4.285   3.848 -0.9656  0.2020  0.1324
 8247SOL    HW236204   1.218   4.156   3.884 -0.3882  0.5869 -1.3893
 8248SOL     OW36205   4.064   2.742   1.790 -0.1706  0.3367 -0.1538
 8248SOL    HW136206   4.124   2.797   1.741 -0.7720  0.7891 -0.3844
 8248SOL    HW236207   4.004   2.723   1.719 -0.5574  0.6547  0.0850
 8249SOL     OW36208   2.025   1.871   3.703 -0.4407 -0.5118  0.0703
 8249SOL    HW136209   2.089   1.819   3.751 -1.0463 -2.1479 -0.9178
 8249SOL    HW236210   2.084   1.920   3.646  1.3179 -1.1038  1.3933
 8250SOL     OW36211   4.322   1.134   5.155 -0.0346 -0.9203  0.0369
 8250SOL    HW136212   4.317   1.227   5.180  2.6755 -1.1202  1.2698
 8250SOL    HW236213   4.243   1.101   5.197 -0.5880  0.0649 -0.2048
 8251SOL     OW36214   1.307   2.777   3.344 -0.3597  0.7117  0.4836
 8251SOL    HW136215   1.216   2.802   3.330  0.0058  0.8470 -1.6185
 8251SOL    HW236216   1.317   2.716   3.270  0.6686 -1.3535  2.3140
 8252SOL     OW36217   0.237   1.364   2.457 -0.5750  0.2453 -0.4159
 8252SOL    HW136218   0.319   1.393   2.497 -1.4489  0.3230  1.3357
 8252SOL    HW236219   0.232   1.430   2.389  0.0493 -1.0758 -1.7444
 8253SOL     OW36220   0.677   4.704   4.727  0.3345 -0.2447  0.1275
 8253SOL    HW136221   0.664   0.072   4.759  1.9329  0.6118 -1.6294
 8253SOL    HW236222   0.705   4.649   4.800  1.3619  1.5601  1.0995
 8254SOL     OW36223   0.345   1.114   4.320  0.1179  0.0117 -0.0547
 8254SOL    HW136224   0.413   1.114   4.253 -0.6795  0.0300 -0.8681
 8254SOL    HW236225   0.271   1.077   4.273  0.4236  0.8877 -1.2224
 8255SOL     OW36226   4.024   2.436   2.174  0.0063 -0.4687  0.2307
 8255SOL    HW136227   4.098   2.404   2.123  0.0171 -1.5583  0.9358
 8255SOL    HW236228   4.002   2.512   2.120 -0.5935 -1.0178 -0.2912
 8256SOL     OW36229   2.103   2.899   6.746  0.1054 -0.0722 -0.2715
 8256SOL    HW136230   2.079   2.897   6.839  0.6307 -0.2476 -0.1387
 8256SOL    HW236231   2.113   2.992   6.726 -0.2479  0.1482  0.5617
 8257SOL     OW36232   1.540   2.389  14.325 -0.7602 -0.1690 -0.4853
 8257SOL    HW136233   1.493   2.443  14.262  1.0105  0.0976 -1.5973
 8257SOL    HW236234   1.574   2.446  14.394  0.8036 -0.4571 -1.0189
 8258SOL     OW36235   3.461   1.488   6.272 -0.2482  0.0093 -0.0522
 8258SOL    HW136236   3.462   1.418   6.207 -0.3989  1.3651 -1.5247
 8258SOL    HW236237   3.529   1.458   6.333 -1.4678 -3.3764 -0.3328
 8259SOL     OW36238   2.852   4.402   6.023 -0.0929  0.1830  0.4869
 8259SOL    HW136239   2.939   4.366   6.009 -0.7331  0.1367 -3.2484
 8259SOL    HW236240   2.819   4.343   6.091  0.4280  0.1353  0.6933
 8260SOL     OW36241   1.852   0.742   5.878 -0.0947 -0.2104  0.3258
 8260SOL    HW136242   1.777   0.789   5.841  0.7326  2.6597  2.2516
 8260SOL    HW236243   1.883   0.799   5.948  1.2403 -1.6807  0.9271
 8261SOL     OW36244   2.490   4.019   3.696  0.3715 -0.0916  0.5873
 8261SOL    HW136245   2.570   4.071   3.689  2.3849 -2.9331  2.3134
 8261SOL    HW236246   2.432   4.076   3.748 -1.8928 -2.5529  0.7560
 8262SOL     OW36247   2.288   2.230  17.389 -0.2336 -0.6990 -0.1828
 8262SOL    HW136248   2.218   2.168  17.371 -0.8705  0.1851 -0.7193
 8262SOL    HW236249   2.373   2.186  17.379  1.0868  1.7199  0.4033
 8263SOL     OW36250   3.003   1.142   4.104  0.3859 -0.0748  0.2018
 8263SOL    HW136251   2.991   1.087   4.027  0.4055 -1.0305  0.8822
 8263SOL    HW236252   2.949   1.220   4.095  0.4252 -0.0212  0.4249
 8264SOL     OW36253   0.007   2.128   8.459 -1.0258  0.0641 -0.4181
 8264SOL    HW136254   0.057   2.209   8.454  2.7359 -2.2657 -0.4824
 8264SOL    HW236255   4.715   2.120   8.554 -1.8966  2.5338 -0.3168
 8265SOL     OW36256   4.579   1.982   1.488  0.0716 -0.1177  0.0782
 8265SOL    HW136257   4.564   1.917   1.420 -0.3433 -0.7471  0.7671
 8265SOL    HW236258   4.519   1.948   1.555  0.8717  1.8348  1.7914
 8266SOL     OW36259   3.707   4.038   4.890 -0.2935  0.4618 -0.1887
 8266SOL    HW136260   3.713   3.965   4.952 -0.4984 -1.1489 -2.0895
 8266SOL    HW236261   3.746   4.107   4.943 -0.1466  0.2075  0.0360
 8267SOL     OW36262   0.599   4.641  10.947 -0.4590  0.1763 -0.8141
 8267SOL    HW136263   0.550   4.563  10.920 -1.5847 -0.3679  2.8892
 8267SOL    HW236264   0.542   4.712  10.917 -0.2657 -0.5986 -3.0347
 8268SOL     OW36265   1.730   1.903  16.304 -0.1936  0.4327 -0.1713
 8268SOL    HW136266   1.701   1.867  16.388 -0.1845 -0.9814 -0.7612
 8268SOL    HW236267   1.732   1.994  16.333 -1.3966  0.1127  0.9408
 8269SOL     OW36268   0.168   3.939   7.849  0.7762  0.0319 -0.1324
 8269SOL    HW136269   0.181   3.894   7.932  1.0014  0.0167 -0.1760
 8269SOL    HW236270   0.243   3.997   7.840  0.8972  0.4306  3.5964
 8270SOL     OW36271   1.629   0.316   6.242 -0.1787 -0.5984 -0.1440
 8270SOL    HW136272   1.546   0.311   6.291  0.5090 -1.4138  0.9393
 8270SOL    HW236273   1.691   0.297   6.312  0.7341  1.2585 -0.4637
 8271SOL     OW36274   4.212   4.700  13.813  0.2758 -0.1248 -0.4547
 8271SOL    HW136275   4.287   0.039  13.808  0.2733 -0.1127 -0.3498
 8271SOL    HW236276   4.221   4.648  13.892 -1.8900 -1.1627 -0.8781
 8272SOL     OW36277   2.568   2.543   5.429 -0.1419  0.4003 -0.2993
 8272SOL    HW136278   2.483   2.586   5.435  0.6670  1.9797 -0.3975
 8272SOL    HW236279   2.619   2.606   5.479 -0.7435 -0.7874  1.8289
 8273SOL     OW36280   0.143   3.417   7.229 -0.1180 -0.2349  0.2881
 8273SOL    HW136281   0.084   3.347   7.200 -0.5355 -0.0111  0.6030
 8273SOL    HW236282   0.085   3.483   7.267 -1.5738 -1.2795 -0.0768
 8274SOL     OW36283   3.124   2.476   8.642  0.1660 -0.4256  0.4156
 8274SOL    HW136284   3.150   2.457   8.732  0.2115  1.0376  0.7076
 8274SOL    HW236285   3.041   2.524   8.647 -0.4142 -1.6985  3.1719
 8275SOL     OW36286   3.473   1.844   3.662  0.7875  0.2100 -1.0262
 8275SOL    HW136287   3.477   1.748   3.658 -0.2451  0.0972  0.4201
 8275SOL    HW236288   3.498   1.850   3.754 -0.0953  2.0154 -0.9018
 8276SOL     OW36289   3.555   3.296   7.931 -0.6332 -0.1213 -0.7347
 8276SOL    HW136290   3.606   3.319   8.009 -0.5156 -1.4048 -0.4372
 8276SOL    HW236291   3.635   3.285   7.880 -0.3886 -4.1581  0.5150
 8277SOL     OW36292   3.530   4.550   8.029 -0.0376  0.1790  0.6588
 8277SOL    HW136293   3.445   4.546   7.983 -0.0683 -0.7237  0.8019
 8277SOL    HW236294   3.595   4.548   7.958 -2.5295  0.4599 -1.6614
 8278SOL     OW36295   2.324   2.268   2.874  0.1924 -0.0613 -0.1862
 8278SOL    HW136296   2.246   2.221   2.844 -0.3829  1.1573 -0.6133
 8278SOL    HW236297   2.278   2.346   2.904 -0.9328 -0.8691  0.1701
 8279SOL     OW36298   2.318   4.262   2.943  0.5213 -0.5468  0.1453
 8279SOL    HW136299   2.379   4.226   3.007 -1.2179 -1.2137  1.4598
 8279SOL    HW236300   2.271   4.333   2.987 -2.5581 -1.3264 -1.8925
 8280SOL     OW36301   1.874   4.282   5.926 -0.8163  0.0416  0.4057
 8280SOL    HW136302   1.958   4.289   5.972 -0.5096 -2.1102  0.1337
 8280SOL    HW236303   1.843   4.196   5.955  1.3303  0.3986  3.7948
 8281SOL     OW36304   1.891   1.475   6.007 -0.6378 -0.3867 -0.2745
 8281SOL    HW136305   1.869   1.559   6.047  0.3462  1.3255 -3.3740
 8281SOL    HW236306   1.802   1.439   6.007 -0.3840 -1.0138  1.7129
 8282SOL     OW36307   3.529   4.314   8.144  0.5125 -0.4614 -0.7496
 8282SOL    HW136308   3.548   4.400   8.105 -1.5972 -0.6068 -2.1204
 8282SOL    HW236309   3.591   4.259   8.097  1.3268 -0.6049  0.5113
 8283SOL     OW36310   3.777   0.793   2.810  0.5165  0.8683 -0.0486
 8283SOL    HW136311   3.870   0.813   2.797  0.5591  0.5186 -0.2628
 8283SOL    HW236312   3.783   0.702   2.836  1.7387  1.1281  0.5680
 8284SOL     OW36313   3.184   0.634   3.687  0.6277 -0.2874  0.3029
 8284SOL    HW136314   3.186   0.671   3.598  0.9518 -2.5326 -0.6382
 8284SOL    HW236315   3.102   0.652   3.732 -0.0997 -0.7427 -0.8243
 8285SOL     OW36316   4.669   1.360  17.370  0.0129  0.0698  0.0825
 8285SOL    HW136317   4.642   1.402  17.452 -0.0477  0.1068  0.0437
 8285SOL    HW236318   4.611   1.396  17.303 -0.1263  0.5649  0.4672
 8286SOL     OW36319   0.417   1.845  13.469  0.0151 -0.1566 -0.0793
 8286SOL    HW136320   0.457   1.811  13.548 -1.1245  1.2814  1.1145
 8286SOL    HW236321   0.324   1.860  13.489  0.0959 -0.8773  0.8170
 8287SOL     OW36322   4.249   1.469   7.857  0.2786 -0.2408  0.1865
 8287SOL    HW136323   4.280   1.518   7.780 -0.3574  0.5085  0.4171
 8287SOL    HW236324   4.295   1.385   7.854 -0.2341 -0.5244  0.3513
 8288SOL     OW36325   3.380   1.116   0.791  0.2818 -0.3007 -0.1259
 8288SOL    HW136326   3.436   1.093   0.865 -1.5397  1.0391  1.6870
 8288SOL    HW236327   3.435   1.187   0.756 -2.4223  1.1922 -1.3851
 8289SOL     OW36328   1.422   3.871  15.068  0.0050  0.2460 -0.6041
 8289SOL    HW136329   1.463   3.957  15.081  1.1944 -0.5798  1.0930
 8289SOL    HW236330   1.356   3.868  15.137  1.3197  0.6044  0.6746
 8290SOL     OW36331   0.191   0.975   4.146  0.0010 -0.3945  0.0120
 8290SOL    HW136332   0.096   0.978   4.159  0.3682  0.0957  2.7709
 8290SOL    HW236333   0.169   0.904   4.086 -2.1015 -2.0610  2.6810
 8291SOL     OW36334   3.925   4.203   8.089 -0.5786  0.2781  0.2293
 8291SOL    HW136335   3.865   4.129   8.102 -0.2046 -0.5209 -2.6054
 8291SOL    HW236336   3.932   4.244   8.175  0.8666  2.5768 -0.9759
 8292SOL     OW36337   1.307   3.407   1.346 -0.2190 -0.3343 -0.1269
 8292SOL    HW136338   1.251   3.484   1.332 -1.6028 -1.7159 -2.1513
 8292SOL    HW236339   1.393   3.442   1.369  0.1815 -2.4210  1.4895
 8293SOL     OW36340   3.274   2.510   9.188  0.2252  0.3369  0.5735
 8293SOL    HW136341   3.273   2.586   9.129 -2.1620  0.4723  0.7978
 8293SOL    HW236342   3.216   2.553   9.250 -0.5188 -0.2847  0.3022
 8294SOL     OW36343   2.947   4.049   2.468  0.2438 -0.4832 -0.3505
 8294SOL    HW136344   3.006   4.123   2.457 -1.9398  1.1011 -1.3586
 8294SOL    HW236345   2.868   4.092   2.437 -0.0988  0.3913  1.7653
 8295SOL     OW36346   0.573   1.041   9.733 -0.5811  0.1388 -0.3430
 8295SOL    HW136347   0.659   1.079   9.748 -0.4056  0.2653 -1.7142
 8295SOL    HW236348   0.522   1.076   9.807  1.8638  2.1396  0.4060
 8296SOL     OW36349   0.552   0.476   7.655  0.1175 -0.4125 -0.6191
 8296SOL    HW136350   0.471   0.515   7.689 -0.7409 -1.3589 -1.5712
 8296SOL    HW236351   0.613   0.550   7.655 -1.7633  1.1214 -2.3427
 8297SOL     OW36352   4.157   2.712  16.644  0.2020 -0.4464 -0.2508
 8297SOL    HW136353   4.174   2.798  16.682  2.1202 -0.2599 -1.5271
 8297SOL    HW236354   4.069   2.719  16.607  0.2881 -2.1674 -0.7808
 8298SOL     OW36355   3.000   3.046   9.497  0.3260 -0.2579 -1.0317
 8298SOL    HW136356   2.944   3.060   9.420 -0.6648  1.9219  0.0706
 8298SOL    HW236357   2.973   3.117   9.556 -1.7070 -2.0391  0.1891
 8299SOL     OW36358   1.844   0.025   9.007  0.5250  0.4654 -0.1629
 8299SOL    HW136359   1.820   0.109   9.044  3.0180 -0.4023  3.3814
 8299SOL    HW236360   1.770   4.692   9.033 -0.3561  1.4049 -0.7370
 8300SOL     OW36361   1.606   4.028   7.929  0.2459 -0.7939  0.3094
 8300SOL    HW136362   1.633   3.993   8.014 -1.3704 -2.1530  0.2748
 8300SOL    HW236363   1.521   3.983   7.929 -0.1973  0.0496 -0.1552
 8301SOL     OW36364   4.534   3.132   1.016 -0.3821  0.3220  0.2964
 8301SOL    HW136365   4.473   3.067   0.982  0.2989 -0.6657  0.9579
 8301SOL    HW236366   4.602   3.070   1.042  1.5053  2.3681  0.3212
 8302SOL     OW36367   3.344   4.342   3.156 -0.1719 -0.1282 -0.2647
 8302SOL    HW136368   3.329   4.430   3.122 -0.5248  0.8468  2.3931
 8302SOL    HW236369   3.375   4.291   3.081  0.0700  1.6732 -1.3967
 8303SOL     OW36370   3.844   0.183  15.583  0.7447 -0.9421  0.3328
 8303SOL    HW136371   3.938   0.177  15.570  0.6922 -0.5765 -0.2267
 8303SOL    HW236372   3.819   0.244  15.513 -2.8888 -1.8142  0.8960
 8304SOL     OW36373   0.831   4.372  17.114  0.1377 -0.0490  0.0586
 8304SOL    HW136374   0.823   4.386  17.020 -1.4145  0.5374  0.2835
 8304SOL    HW236375   0.770   4.433  17.155 -0.2253  0.4064 -1.1439
 8305SOL     OW36376   3.553   0.679   7.021 -0.1915 -0.2940  0.2001
 8305SOL    HW136377   3.641   0.706   6.994 -0.2904 -0.9613 -0.7939
 8305SOL    HW236378   3.557   0.721   7.107 -1.0941  0.7100 -0.2462
 8306SOL     OW36379   4.217   0.138   8.644 -0.1688 -0.0265  0.1265
 8306SOL    HW136380   4.126   0.146   8.617 -0.1163  1.1391  0.2887
 8306SOL    HW236381   4.240   0.230   8.660  0.3823 -0.0679 -0.4120
 8307SOL     OW36382   4.127   0.045   1.087 -0.1733  0.3368 -0.4834
 8307SOL    HW136383   4.177   0.008   1.159 -1.1525 -0.6715 -0.3081
 8307SOL    HW236384   4.135   0.137   1.111  0.8723  0.1968 -0.2866
 8308SOL     OW36385   3.726   0.850   1.082  0.3912 -0.3023  0.3622
 8308SOL    HW136386   3.709   0.763   1.044  1.2894 -0.1976 -0.2837
 8308SOL    HW236387   3.821   0.855   1.093  0.6004 -0.6723 -1.2907
 8309SOL     OW36388   0.028   2.894  16.139 -0.3965  0.8605  0.3416
 8309SOL    HW136389   4.708   2.808  16.124 -1.0213  1.2812 -0.3715
 8309SOL    HW236390   0.075   2.878  16.221  2.1485  0.8985 -1.1046
 8310SOL     OW36391   0.564   3.551  11.142  1.0266  0.5776 -0.3099
 8310SOL    HW136392   0.476   3.520  11.161  0.2336  1.7620 -2.0387
 8310SOL    HW236393   0.545   3.578  11.052 -0.3688  0.1281 -0.1542
 8311SOL     OW36394   3.326   3.340  17.238  0.1643 -0.6448 -0.6869
 8311SOL    HW136395   3.386   3.347  17.312 -0.2823 -0.5482 -0.3334
 8311SOL    HW236396   3.342   3.249  17.215  0.0801 -1.6207  3.1570
 8312SOL     OW36397   4.670   3.206  10.311 -0.0734 -0.0353  0.2626
 8312SOL    HW136398   4.670   3.299  10.288  2.0536  0.3150  1.6695
 8312SOL    HW236399   4.602   3.177  10.250  0.4512  1.2314 -0.9349
 8313SOL     OW36400   0.576   0.242   2.892  0.4567 -0.0417 -0.6073
 8313SOL    HW136401   0.614   0.268   2.808  1.9358  0.2727  0.1477
 8313SOL    HW236402   0.495   0.291   2.881  0.4611  0.3987  1.2536
 8314SOL     OW36403   1.233   1.461   5.543 -0.0282  0.1627  0.1828
 8314SOL    HW136404   1.156   1.426   5.587  0.4721  1.5670  2.1966
 8314SOL    HW236405   1.300   1.393   5.542  0.1052  0.3304 -2.1232
 8315SOL     OW36406   0.402   4.685   2.687  0.3617  0.5761  0.3942
 8315SOL    HW136407   0.382   4.692   2.780 -2.3928 -0.4618 -0.1366
 8315SOL    HW236408   0.497   4.677   2.697  0.3640  0.0061 -0.0632
 8316SOL     OW36409   4.416   0.246   2.282 -0.0800 -0.0389 -0.3065
 8316SOL    HW136410   4.492   0.305   2.282  0.7085 -1.0670  0.6865
 8316SOL    HW236411   4.422   0.197   2.200 -1.3691  0.7982 -0.9025
 8317SOL     OW36412   0.479   0.746   3.193  0.6106  0.3396  0.2150
 8317SOL    HW136413   0.530   0.745   3.112  1.2317 -3.9640  0.6698
 8317SOL    HW236414   0.386   0.750   3.170  1.0869  2.2952 -1.3460
 8318SOL     OW36415   1.048   2.021   7.590  0.6551 -0.1914  0.7035
 8318SOL    HW136416   1.133   2.048   7.557  0.9939  0.1775  1.8850
 8318SOL    HW236417   1.062   1.938   7.635 -0.6642 -0.1205  1.2599
 8319SOL     OW36418   0.148   1.771   9.389  0.5817  0.2733  0.5726
 8319SOL    HW136419   0.218   1.811   9.441  1.1693  0.4841 -0.3851
 8319SOL    HW236420   0.125   1.701   9.450  1.1992  0.0347  0.5255
 8320SOL     OW36421   4.658   1.162   8.626  0.2495 -0.1449  0.0669
 8320SOL    HW136422   0.015   1.119   8.661  1.6820  1.2388 -1.4935
 8320SOL    HW236423   4.641   1.109   8.548  0.7538  0.4970 -0.4755
 8321SOL     OW36424   0.103   2.781   0.071 -0.0108 -0.4969  0.5485
 8321SOL    HW136425   0.032   2.839   0.100  0.3887  0.2545  0.0054
 8321SOL    HW236426   0.176   2.842   0.069  0.2282 -0.7403  1.9219
 8322SOL     OW36427   1.525   2.712   2.012  0.1625  0.0431 -0.1730
 8322SOL    HW136428   1.479   2.630   1.993  0.5552 -0.2844  0.2723
 8322SOL    HW236429   1.603   2.699   1.957 -0.9857 -2.1858 -1.2667
 8323SOL     OW36430   1.176   0.659   5.453 -0.3042 -0.2062  0.4525
 8323SOL    HW136431   1.185   0.752   5.432 -0.6220 -0.6314 -1.6336
 8323SOL    HW236432   1.148   0.625   5.368  0.1401 -0.7895  0.5369
 8324SOL     OW36433   2.009   1.267   3.917 -0.6746 -0.5951  0.0452
 8324SOL    HW136434   2.053   1.183   3.907 -0.4742 -0.3879 -0.7852
 8324SOL    HW236435   2.002   1.301   3.828 -1.8001 -3.4390 -0.9515
 8325SOL     OW36436   0.078   0.954   7.506 -0.2270  0.1324  0.1099
 8325SOL    HW136437   4.714   0.997   7.497  0.1895  0.8569 -0.3510
 8325SOL    HW236438   0.140   0.997   7.447  0.0481 -1.4122 -0.7289
 8326SOL     OW36439   2.073   2.622   8.457  0.8299  0.4886  0.4989
 8326SOL    HW136440   2.086   2.716   8.446  0.6621  0.4005 -0.4307
 8326SOL    HW236441   1.991   2.605   8.410  0.1105  1.8118  1.3118
 8327SOL     OW36442   1.596   1.787   7.520 -0.1849 -0.3848  0.0622
 8327SOL    HW136443   1.544   1.818   7.446 -1.0111 -2.5072 -0.2477
 8327SOL    HW236444   1.651   1.731   7.464  0.7361 -0.9960  1.5868
 8328SOL     OW36445   1.782   4.404  17.491  0.3260  0.0635 -0.3053
 8328SOL    HW136446   1.780   4.454  17.409  2.9653  2.8383  1.3320
 8328SOL    HW236447   1.854   4.343  17.478  0.4819  0.1115  0.2982
 8329SOL     OW36448   1.032   1.748  14.987 -0.2795  0.4736 -0.0574
 8329SOL    HW136449   1.048   1.813  14.919 -0.5734 -0.5142 -1.0629
 8329SOL    HW236450   0.980   1.808  15.041  0.3438  1.8843 -1.0056
 8330SOL     OW36451   3.746   0.180   4.161 -0.4984  0.6130 -0.2706
 8330SOL    HW136452   3.658   0.217   4.163 -1.1024 -0.8968  1.0342
 8330SOL    HW236453   3.795   0.246   4.209  0.0810 -0.7738  1.0395
 8331SOL     OW36454   3.817   2.133   7.522  0.4648 -0.5511 -0.0522
 8331SOL    HW136455   3.849   2.043   7.521  0.1425 -0.6676 -0.0207
 8331SOL    HW236456   3.898   2.182   7.510  0.5655 -1.4542 -3.1442
 8332SOL     OW36457   1.434   0.337   4.021  0.2249 -0.1151 -0.7535
 8332SOL    HW136458   1.382   0.381   4.087  1.3066  0.4843 -0.2905
 8332SOL    HW236459   1.524   0.355   4.050  0.3778  0.0405 -1.3074
 8333SOL     OW36460   2.355   3.510   6.010  0.1218 -0.0055  0.3144
 8333SOL    HW136461   2.360   3.511   5.914 -0.2103  1.9270  0.3222
 8333SOL    HW236462   2.262   3.506   6.032  0.3495 -1.3148  1.0254
 8334SOL     OW36463   0.090   2.798   3.056  0.5209 -0.5695 -0.4933
 8334SOL    HW136464   0.028   2.771   2.988 -1.8409  1.5797  0.8390
 8334SOL    HW236465   0.060   2.753   3.135 -0.9012  2.1564  0.5123
 8335SOL     OW36466   4.086   0.216   8.262  0.0407 -0.3092 -0.0295
 8335SOL    HW136467   4.101   0.297   8.311  0.3297 -0.0587 -0.5303
 8335SOL    HW236468   4.150   0.160   8.306 -0.8140 -0.5629  0.8843
 8336SOL     OW36469   2.031   4.038  15.238  0.1044  0.1555  0.8358
 8336SOL    HW136470   1.965   4.074  15.179  0.8030 -2.9631 -1.8564
 8336SOL    HW236471   1.995   3.952  15.261 -1.0175  1.1685  2.8602
 8337SOL     OW36472   2.660   3.748   5.094  0.7450  0.2725  0.5659
 8337SOL    HW136473   2.714   3.762   5.172  1.2110 -1.5041  0.5644
 8337SOL    HW236474   2.601   3.685   5.135  1.2885  1.1962  2.7211
 8338SOL     OW36475   1.700   3.768   4.802  0.4708 -0.2199 -0.1865
 8338SOL    HW136476   1.773   3.746   4.860  0.3402 -0.0041  0.0604
 8338SOL    HW236477   1.627   3.736   4.856 -1.8042  2.9882 -1.3714
 8339SOL     OW36478   0.449   2.964   4.436  0.4868 -0.1042 -0.1016
 8339SOL    HW136479   0.397   2.886   4.454 -1.0844  0.9656  0.0376
 8339SOL    HW236480   0.412   3.020   4.504  0.9656 -0.0334  0.1051
 8340SOL     OW36481   0.233   1.627   6.997  0.1012 -0.7794 -0.5023
 8340SOL    HW136482   0.156   1.596   6.949  0.0445 -0.1312 -0.8179
 8340SOL    HW236483   0.217   1.721   6.993  0.3361 -0.7463 -0.6495
 8341SOL     OW36484   0.211   2.314   6.332 -0.0920 -0.4655 -0.2144
 8341SOL    HW136485   0.261   2.254   6.276 -1.2439 -0.5912 -1.1050
 8341SOL    HW236486   0.282   2.346   6.388 -0.8697  2.7461 -1.0695
 8342SOL     OW36487   4.040   2.003   6.371  1.1262 -0.8066 -0.2480
 8342SOL    HW136488   4.026   2.049   6.454 -1.4976 -2.0110 -0.0079
 8342SOL    HW236489   4.125   2.036   6.343  1.1314  0.1626  0.9239
 8343SOL     OW36490   3.717   4.061   3.242  0.3340 -0.5620 -0.3110
 8343SOL    HW136491   3.636   4.094   3.281  0.6043  0.2492 -0.4261
 8343SOL    HW236492   3.707   3.966   3.244 -4.2743 -0.0758  0.4790
 8344SOL     OW36493   3.452   3.131   4.233 -0.1079 -0.2138 -0.3615
 8344SOL    HW136494   3.454   3.035   4.234 -1.0960 -0.2047  1.7259
 8344SOL    HW236495   3.363   3.165   4.235 -0.6834 -1.6228 -1.2496
 8345SOL     OW36496   0.740   3.686   3.520 -0.3289 -0.6059 -0.8787
 8345SOL    HW136497   0.649   3.666   3.541 -0.1431 -0.1557  0.3427
 8345SOL    HW236498   0.753   3.779   3.537 -2.3286 -0.2037 -1.5908
 8346SOL     OW36499   3.378   1.441   2.471  0.4139 -0.1015 -0.0703
 8346SOL    HW136500   3.389   1.347   2.456 -2.2472 -0.4128 -0.1293
 8346SOL    HW236501   3.451   1.478   2.423  0.9521 -2.1837 -0.8533
 8347SOL     OW36502   3.603   0.337   1.951  0.0491 -0.1816  0.1311
 8347SOL    HW136503   3.660   0.338   2.028 -0.8859  2.7965  0.7954
 8347SOL    HW236504   3.664   0.323   1.879 -0.7277 -4.7318  0.3749
 8348SOL     OW36505   0.571   0.236   3.675 -0.5071 -0.4729 -0.0939
 8348SOL    HW136506   0.503   0.277   3.728 -1.1287 -1.9903  0.2897
 8348SOL    HW236507   0.646   0.288   3.705 -0.0422 -0.1924 -1.7416
 8349SOL     OW36508   0.034   4.330   5.863 -0.2696 -0.2527 -0.3564
 8349SOL    HW136509   0.008   4.254   5.811  0.0910 -0.8715  0.3698
 8349SOL    HW236510   4.699   4.399   5.828 -3.4227 -2.3757  0.4888
 8350SOL     OW36511   1.562   4.429   4.516  0.3890  0.2522 -0.5062
 8350SOL    HW136512   1.471   4.438   4.545  0.1255  0.0078 -1.2532
 8350SOL    HW236513   1.552   4.343   4.475 -0.3317  0.9862 -1.8712
 8351SOL     OW36514   1.278   2.058   5.188  0.0582  0.6778  0.5144
 8351SOL    HW136515   1.263   2.079   5.280 -2.7374  2.6797 -0.3783
 8351SOL    HW236516   1.209   2.117   5.156 -0.5445 -0.2800  0.0685
 8352SOL     OW36517   4.119   1.712  15.009 -0.2507  0.1404  0.1048
 8352SOL    HW136518   4.059   1.640  15.024 -2.6068  2.5177  1.9839
 8352SOL    HW236519   4.180   1.702  15.082 -0.4594  0.7468  0.3568
 8353SOL     OW36520   3.408   0.894   7.945 -0.4515 -0.0315 -0.8187
 8353SOL    HW136521   3.389   0.897   8.038 -1.7956 -1.0640 -1.0611
 8353SOL    HW236522   3.479   0.958   7.930  0.1071 -0.3409  0.5116
 8354SOL     OW36523   2.334   3.685   5.423  0.1343 -0.0575 -0.1955
 8354SOL    HW136524   2.284   3.615   5.464 -2.6913  3.0172  1.6465
 8354SOL    HW236525   2.381   3.629   5.361  1.2827  0.7427 -0.0539
 8355SOL     OW36526   1.572   0.579   2.355  0.1381 -0.0673 -0.3635
 8355SOL    HW136527   1.603   0.651   2.409  1.0965 -0.3166 -0.5862
 8355SOL    HW236528   1.535   0.628   2.282  0.2064 -0.3891 -0.6109
 8356SOL     OW36529   0.518   0.370  12.722 -0.1156  0.2381  0.6645
 8356SOL    HW136530   0.492   0.292  12.672  0.1656  0.4121  0.2434
 8356SOL    HW236531   0.444   0.428  12.703 -1.3702 -1.5990 -0.0653
 8357SOL     OW36532   3.597   3.531  14.130  0.2689  0.2940  0.1359
 8357SOL    HW136533   3.505   3.537  14.158  0.6037  0.3259  1.2237
 8357SOL    HW236534   3.632   3.465  14.190 -0.7845 -0.4262 -0.0373
 8358SOL     OW36535   1.255   2.685   4.780  0.0166  0.6920  0.2620
 8358SOL    HW136536   1.282   2.674   4.689  0.3785  0.7593  0.3617
 8358SOL    HW236537   1.247   2.780   4.788 -2.6108  0.4026  1.2537
 8359SOL     OW36538   3.954   0.017  13.202  0.1348 -0.2602  0.4096
 8359SOL    HW136539   4.013   4.692  13.263  1.9544  1.0093 -0.3936
 8359SOL    HW236540   4.008   0.081  13.156 -1.6836  1.1162  0.2003
 8360SOL     OW36541   1.345   3.760   2.534 -0.1848 -1.0182  0.0077
 8360SOL    HW136542   1.342   3.712   2.451 -0.4262  0.5321 -0.8887
 8360SOL    HW236543   1.316   3.693   2.596 -0.7148 -1.6611 -0.9289
 8361SOL     OW36544   3.813   4.294  13.016 -0.0442 -0.2158 -0.2004
 8361SOL    HW136545   3.871   4.330  13.083 -0.7280  0.5968 -0.0564
 8361SOL    HW236546   3.858   4.210  13.008  0.3106  0.0900 -1.4770
 8362SOL     OW36547   2.976   1.347   1.216 -0.1534 -0.5053  0.6738
 8362SOL    HW136548   3.059   1.391   1.199 -1.3254  1.5689  0.2543
 8362SOL    HW236549   2.951   1.393   1.296  2.5752 -0.0674  1.2811
 8363SOL     OW36550   3.157   2.581  14.121  0.1818  0.2637  0.4275
 8363SOL    HW136551   3.064   2.605  14.120  0.0216 -0.3486  0.2102
 8363SOL    HW236552   3.145   2.492  14.086 -0.6483  0.1036  1.1161
 8364SOL     OW36553   2.685   4.191  17.276  0.1068  0.4934 -0.5924
 8364SOL    HW136554   2.715   4.104  17.301  0.6798  1.1525  0.9958
 8364SOL    HW236555   2.727   4.240  17.346  1.3276 -0.7095 -0.4909
 8365SOL     OW36556   1.217   1.321  12.706 -0.2575  0.0929 -0.1773
 8365SOL    HW136557   1.127   1.335  12.678 -0.1203  0.0779 -0.6256
 8365SOL    HW236558   1.265   1.401  12.687 -0.3387  0.8179  2.6651
 8366SOL     OW36559   4.660   3.971   2.907 -0.1942 -0.9612 -0.5890
 8366SOL    HW136560   4.712   3.891   2.916 -0.8705 -1.0650  2.6494
 8366SOL    HW236561   4.576   3.930   2.886  0.3454 -1.6431 -1.4077
 8367SOL     OW36562   1.633   2.220   5.370 -0.1419 -0.0490 -0.0280
 8367SOL    HW136563   1.676   2.223   5.285  0.5113 -2.6591  0.2189
 8367SOL    HW236564   1.654   2.133   5.403  1.5555  0.7538  1.0389
 8368SOL     OW36565   3.223   2.556   7.734 -0.2098 -0.4030 -0.3946
 8368SOL    HW136566   3.188   2.572   7.821 -1.6464  0.7027 -1.1780
 8368SOL    HW236567   3.190   2.635   7.691  1.3624  0.4803  0.0340
 8369SOL     OW36568   2.013   2.305   5.550 -0.1500 -0.3777 -0.0650
 8369SOL    HW136569   1.997   2.256   5.469  1.5065 -2.5721  0.9464
 8369SOL    HW236570   2.090   2.353   5.520  0.8186 -0.4908  2.2311
 8370SOL     OW36571   3.632   4.253   2.486  0.2681  0.1779 -0.4336
 8370SOL    HW136572   3.715   4.245   2.438  0.3737  1.4854 -0.4658
 8370SOL    HW236573   3.600   4.163   2.496 -0.6990  0.7193  1.2281
 8371SOL     OW36574   1.592   2.350   8.752  0.0127  0.1501 -0.3908
 8371SOL    HW136575   1.555   2.438   8.761 -1.5657 -0.7078  1.6132
 8371SOL    HW236576   1.524   2.295   8.713 -1.1932  1.5148 -0.2296
 8372SOL     OW36577   3.962   4.200   6.955 -0.5225  0.2526  0.2772
 8372SOL    HW136578   3.993   4.126   7.009 -0.0381 -0.1026 -0.4908
 8372SOL    HW236579   4.043   4.244   6.931 -1.2940  1.8885  0.7331
 8373SOL     OW36580   4.338   2.465   6.504  0.1263 -0.1481  0.1130
 8373SOL    HW136581   4.404   2.404   6.469  0.9524  0.6414  0.2885
 8373SOL    HW236582   4.329   2.435   6.594  2.9323 -1.4369 -0.0171
 8374SOL     OW36583   3.038   3.515  16.165 -0.6220 -0.4101  0.0332
 8374SOL    HW136584   3.113   3.460  16.142 -0.6588 -0.2434 -0.4864
 8374SOL    HW236585   3.013   3.556  16.082  1.9948 -0.6231 -0.8760
 8375SOL     OW36586   3.841   1.151   5.387  0.3242 -0.6939 -0.5046
 8375SOL    HW136587   3.878   1.233   5.422  0.2704 -0.4344 -1.0644
 8375SOL    HW236588   3.842   1.102   5.470  3.1252 -0.8633 -0.6503
 8376SOL     OW36589   2.136   3.774   0.080 -0.2639 -0.1487  0.4441
 8376SOL    HW136590   2.149   3.853   0.132 -1.4052  0.7578 -0.6607
 8376SOL    HW236591   2.117   3.708   0.147  1.3952  0.3248  1.3887
 8377SOL     OW36592   2.922   2.493  11.194 -0.1218 -0.1460  0.3118
 8377SOL    HW136593   2.947   2.419  11.139 -0.5338 -1.4458  1.8656
 8377SOL    HW236594   3.003   2.516  11.240 -0.8781 -2.4818  2.8532
 8378SOL     OW36595   3.019   0.698   7.288  0.3464 -0.2118 -0.3444
 8378SOL    HW136596   3.004   0.770   7.227 -1.1580  1.3365  1.8274
 8378SOL    HW236597   3.114   0.698   7.287  0.3882 -3.5104  0.3153
 8379SOL     OW36598   4.598   0.998   6.688  0.3733 -0.1567  0.4447
 8379SOL    HW136599   4.665   0.972   6.752 -1.1387  1.5395  2.7255
 8379SOL    HW236600   4.535   0.928   6.707 -0.4128  0.1817 -0.8819
 8380SOL     OW36601   2.904   0.145   3.611  0.2063 -0.4578  0.0408
 8380SOL    HW136602   2.927   0.215   3.672  0.1278  0.7693 -1.3266
 8380SOL    HW236603   2.995   0.127   3.587  0.1712 -1.3322  0.5565
 8381SOL     OW36604   2.029   3.209   3.620 -0.4624  0.3525 -0.2150
 8381SOL    HW136605   2.032   3.151   3.544  1.3625  1.4429 -0.9568
 8381SOL    HW236606   2.059   3.296   3.595 -0.2967  0.6610  1.0665
 8382SOL     OW36607   3.426   3.390  14.598  0.4846  0.7856  0.1187
 8382SOL    HW136608   3.449   3.325  14.531 -1.1736  2.3447 -1.9630
 8382SOL    HW236609   3.374   3.450  14.544  0.4385  1.9608  1.4872
 8383SOL     OW36610   4.442   3.378   4.810  0.0804  0.1992  0.1731
 8383SOL    HW136611   4.494   3.334   4.743  1.3968 -0.3851  1.5977
 8383SOL    HW236612   4.357   3.342   4.784 -0.3009  0.9563  0.3399
 8384SOL     OW36613   0.330   3.605  17.094 -0.0864  0.5172  0.0406
 8384SOL    HW136614   0.247   3.571  17.060 -0.1136  1.8065 -1.1818
 8384SOL    HW236615   0.381   3.525  17.081  0.3796  1.0003 -1.1115
 8385SOL     OW36616   0.987   0.189   6.076 -0.1012  0.5908  0.4886
 8385SOL    HW136617   0.991   0.284   6.078 -0.7416  0.6243  0.1785
 8385SOL    HW236618   1.049   0.173   6.147  2.3520  0.8208 -1.6103
 8386SOL     OW36619   2.312   3.700   4.961  0.0473 -0.0520  0.7168
 8386SOL    HW136620   2.252   3.768   4.990 -0.1299  0.4553 -0.8941
 8386SOL    HW236621   2.392   3.751   4.977  0.6255 -0.6475 -0.3147
 8387SOL     OW36622   1.454   1.511   5.915  1.0663 -0.2825 -0.0973
 8387SOL    HW136623   1.530   1.453   5.910  0.5682 -1.1184  2.0141
 8387SOL    HW236624   1.377   1.464   5.885  1.0163 -0.3714  0.1681
 8388SOL     OW36625   3.678   4.582  12.992  0.4675  0.5095 -0.6669
 8388SOL    HW136626   3.652   4.591  13.084  0.5214 -0.7502 -0.5249
 8388SOL    HW236627   3.732   4.503  12.987 -0.5538 -0.3342  1.4515
 8389SOL     OW36628   1.797   2.986   0.226  0.1016  0.2740  0.4592
 8389SOL    HW136629   1.740   3.046   0.178  1.5528  0.3920 -1.0973
 8389SOL    HW236630   1.865   3.042   0.263  0.5720  1.1527 -1.7580
 8390SOL     OW36631   1.224   1.142   2.799 -0.3680  0.6197 -0.3347
 8390SOL    HW136632   1.278   1.215   2.768 -2.3640  1.4633 -1.8192
 8390SOL    HW236633   1.289   1.101   2.856  1.1800  3.8262  0.2074
 8391SOL     OW36634   1.761   3.292   3.805  0.0657 -0.0688 -0.3788
 8391SOL    HW136635   1.814   3.363   3.767 -0.7124  1.2833  1.0911
 8391SOL    HW236636   1.689   3.277   3.743 -0.6093  0.7928  0.1968
 8392SOL     OW36637   1.636   3.974  14.529 -0.5329 -0.3123  0.1064
 8392SOL    HW136638   1.711   3.982  14.470  0.7046 -0.7650  1.6219
 8392SOL    HW236639   1.571   4.002  14.465 -2.9656  0.2402  2.8142
 8393SOL     OW36640   2.431   1.233   6.422  0.2040  0.0313 -0.4363
 8393SOL    HW136641   2.438   1.148   6.379 -2.0631  0.4506 -1.6497
 8393SOL    HW236642   2.416   1.293   6.350 -0.0207  0.9022  0.3338
 8394SOL     OW36643   4.681   2.746   8.631  0.0436  0.3841  0.1290
 8394SOL    HW136644   4.633   2.681   8.683 -0.4028  0.1715 -0.5594
 8394SOL    HW236645   0.049   2.715   8.652 -0.1984 -0.1473  0.3719
 8395SOL     OW36646   1.186   2.728   5.354 -0.3648  0.0188 -0.0957
 8395SOL    HW136647   1.258   2.679   5.394 -1.0382  0.2409  1.4108
 8395SOL    HW236648   1.216   2.757   5.268 -2.5911 -1.2951 -1.3152
 8396SOL     OW36649   0.400   0.562   7.909  0.8469  0.0649 -0.5617
 8396SOL    HW136650   0.473   0.583   7.968  0.1246 -1.9823  1.0546
 8396SOL    HW236651   0.381   0.653   7.887  0.1903 -0.4568 -2.1096
 8397SOL     OW36652   4.554   3.498   1.488  0.3856  0.1825  0.1857
 8397SOL    HW136653   4.477   3.527   1.439 -0.1878  0.4308  1.2340
 8397SOL    HW236654   4.544   3.555   1.564 -0.4224  0.7806 -0.3645
 8398SOL     OW36655   3.069   1.958   4.850 -0.4271  0.0717  0.9660
 8398SOL    HW136656   3.090   2.015   4.776 -1.4167 -2.4420 -1.2395
 8398SOL    HW236657   2.978   1.982   4.864 -0.7036 -0.0196 -0.6103
 8399SOL     OW36658   0.708   0.558  16.100 -0.2735  0.1681  0.2257
 8399SOL    HW136659   0.724   0.616  16.174  2.7677 -1.2866  0.6788
 8399SOL    HW236660   0.707   0.473  16.146 -1.0505  0.2420  0.3561
 8400SOL     OW36661   4.601   1.377   2.432  0.3196 -0.0148  0.1165
 8400SOL    HW136662   4.649   1.364   2.351 -0.5548 -0.9214 -0.2576
 8400SOL    HW236663   4.508   1.356   2.421  0.2692 -0.3700  1.1717
 8401SOL     OW36664   0.524   0.084   6.639 -0.0385  0.4645  0.3314
 8401SOL    HW136665   0.570   0.051   6.562  2.7541  1.8061  1.3954
 8401SOL    HW236666   0.498   0.001   6.678  1.1901 -0.2975 -0.4641
 8402SOL     OW36667   0.272   4.103   2.481 -0.2495  0.0357  0.3752
 8402SOL    HW136668   0.307   4.050   2.553 -0.5286 -0.4984  0.1185
 8402SOL    HW236669   0.199   4.048   2.454  2.0574 -1.5342 -2.7902
 8403SOL     OW36670   1.860   0.257   6.418  0.0935  0.0025 -0.1053
 8403SOL    HW136671   1.943   0.228   6.381 -0.6832  0.9403 -2.6005
 8403SOL    HW236672   1.870   0.340   6.464  2.8175 -0.0505 -0.6040
 8404SOL     OW36673   4.590   0.426   6.662 -0.0422  0.6828  0.2982
 8404SOL    HW136674   4.631   0.350   6.623  0.4895  1.2845 -0.3026
 8404SOL    HW236675   4.502   0.416   6.627 -0.0809  1.0964  0.2827
 8405SOL     OW36676   2.342   3.527   2.799  0.0639 -0.4618 -0.5489
 8405SOL    HW136677   2.335   3.439   2.836 -1.7085  0.4516  1.2773
 8405SOL    HW236678   2.252   3.541   2.770  0.3515  2.8605  0.1700
 8406SOL     OW36679   2.697   4.250  12.237  0.0245  0.0526 -0.1001
 8406SOL    HW136680   2.661   4.331  12.201 -0.3352 -0.5664 -1.1250
 8406SOL    HW236681   2.756   4.292  12.299  1.1585  1.8222 -2.3766
 8407SOL     OW36682   2.489   3.977  10.999  0.0098  0.0880 -0.3159
 8407SOL    HW136683   2.481   4.072  11.010  0.2753  0.2887 -1.8445
 8407SOL    HW236684   2.398   3.957  11.017  0.2337  0.1563  0.9110
 8408SOL     OW36685   3.999   2.432   4.041 -0.3098  0.1512  0.3999
 8408SOL    HW136686   3.917   2.482   4.050 -1.4727 -1.5141 -0.9665
 8408SOL    HW236687   3.964   2.345   4.020 -1.1936  0.3175  1.2106
 8409SOL     OW36688   2.287   3.242   6.149  0.1828  0.3420  0.3622
 8409SOL    HW136689   2.194   3.261   6.145  0.0281 -0.0763  1.8886
 8409SOL    HW236690   2.317   3.327   6.117  0.2350  0.9984  2.1757
 8410SOL     OW36691   0.640   1.766   8.071 -0.1120 -0.5717 -0.0946
 8410SOL    HW136692   0.584   1.770   8.148 -1.4223 -0.4802 -1.0448
 8410SOL    HW236693   0.674   1.855   8.061  1.1003 -1.1814 -1.5302
 8411SOL     OW36694   2.866   3.389   2.887  0.2758  0.6601 -0.1505
 8411SOL    HW136695   2.864   3.482   2.865  1.9617  0.3658 -1.5842
 8411SOL    HW236696   2.868   3.350   2.799 -1.0544 -1.1352  0.6347
 8412SOL     OW36697   4.687   4.593   1.530 -0.4033 -0.2185 -0.4538
 8412SOL    HW136698   4.671   4.676   1.485 -1.5351 -0.2630 -0.1321
 8412SOL    HW236699   4.626   4.590   1.603 -0.6726 -0.5818 -0.6937
 8413SOL     OW36700   0.297   0.028   4.579  0.4907 -0.0799 -0.0552
 8413SOL    HW136701   0.370   0.068   4.533  0.1063  0.1218 -0.4942
 8413SOL    HW236702   0.219   0.046   4.526  0.7317 -0.8523 -0.6682
 8414SOL     OW36703   3.573   2.559   6.499 -0.1273  0.0203 -0.4913
 8414SOL    HW136704   3.593   2.465   6.502 -4.1724 -0.7862  1.5853
 8414SOL    HW236705   3.643   2.598   6.551 -0.4591  0.0105 -0.0401
 8415SOL     OW36706   0.985   1.002   2.368 -0.5175 -0.5225 -0.1766
 8415SOL    HW136707   1.071   0.988   2.329 -1.4882 -2.1944 -1.7200
 8415SOL    HW236708   0.975   0.916   2.408 -1.9146  0.5370  1.7618
 8416SOL     OW36709   1.067   2.255   8.750 -0.1113 -0.2550 -0.6251
 8416SOL    HW136710   1.050   2.346   8.775  0.2948 -0.0221 -1.1975
 8416SOL    HW236711   0.996   2.254   8.686 -0.3130  2.1169 -0.4462
 8417SOL     OW36712   3.358   2.016   9.565  0.1779  0.7022 -0.1005
 8417SOL    HW136713   3.295   1.965   9.615  2.3777 -2.4342 -0.4980
 8417SOL    HW236714   3.369   2.097   9.616  0.8802  0.6469 -0.1544
 8418SOL     OW36715   1.652   4.550   6.009  0.2915 -0.0362  0.3496
 8418SOL    HW136716   1.720   4.589   5.954 -1.3162 -1.4171 -2.6123
 8418SOL    HW236717   1.586   4.538   5.941  0.9262  1.2627 -0.4939
 8419SOL     OW36718   1.247   4.606   9.993 -0.2412 -0.3180 -0.4420
 8419SOL    HW136719   1.254   4.645   9.906  0.5240 -1.7551 -1.0138
 8419SOL    HW236720   1.167   4.556   9.980 -1.3602  1.3194  0.0466
 8420SOL     OW36721   4.039   1.439   1.052  0.5084  0.4886  0.2419
 8420SOL    HW136722   4.015   1.465   1.141 -0.1858 -0.7246  0.4070
 8420SOL    HW236723   4.117   1.492   1.035  0.4781  0.1200 -1.0693
 8421SOL     OW36724   3.509   2.022   7.629 -0.0614 -0.1127  0.2709
 8421SOL    HW136725   3.598   2.010   7.597 -0.4073  0.5470 -0.9208
 8421SOL    HW236726   3.500   1.930   7.655  0.8670 -0.5016 -0.8120
 8422SOL     OW36727   0.749   2.918   8.632 -0.4188  0.3701  0.0626
 8422SOL    HW136728   0.703   2.972   8.696  0.3064 -0.0618  0.9542
 8422SOL    HW236729   0.832   2.903   8.679  0.3917 -3.3277 -2.4926
 8423SOL     OW36730   0.739   1.242   9.083 -0.1637  0.0913  0.2349
 8423SOL    HW136731   0.780   1.184   9.020 -0.6436  1.4822 -1.3770
 8423SOL    HW236732   0.701   1.170   9.133  0.1541 -1.4797 -1.8086
 8424SOL     OW36733   0.065   2.651   7.253 -0.8592  0.1224  0.3112
 8424SOL    HW136734   0.072   2.700   7.171 -0.3428 -1.7995 -0.7876
 8424SOL    HW236735   0.066   2.558   7.230  0.8378  0.5256 -1.2927
 8425SOL     OW36736   0.804   1.391  16.666  1.5080  0.1656  0.2911
 8425SOL    HW136737   0.716   1.427  16.666  0.6157 -2.0383  0.0810
 8425SOL    HW236738   0.807   1.369  16.572  0.5113  4.5621 -0.7559
 8426SOL     OW36739   2.946   1.962   2.199  0.1714 -0.5387 -0.5520
 8426SOL    HW136740   3.004   1.886   2.209 -2.0324 -2.0878  0.6370
 8426SOL    HW236741   3.003   2.004   2.136  2.7984 -1.0899  1.4661
 8427SOL     OW36742   0.059   3.793   7.626  0.1793 -0.3112  0.0164
 8427SOL    HW136743   0.088   3.848   7.554 -0.3666  0.0472  0.0690
 8427SOL    HW236744   0.103   3.836   7.700 -0.7187 -1.4640  1.2352
 8428SOL     OW36745   0.539   3.282   8.304  0.0467  0.1287 -0.7323
 8428SOL    HW136746   0.604   3.217   8.274 -1.4971 -1.3441 -0.8942
 8428SOL    HW236747   0.607   3.348   8.291 -0.3782  0.7720  0.3303
 8429SOL     OW36748   2.901   4.037   4.357 -0.4585 -0.4377  0.5995
 8429SOL    HW136749   2.898   4.038   4.261  3.2456 -3.7934  0.4156
 8429SOL    HW236750   2.889   4.131   4.370  2.0377 -0.0870  0.4718
 8430SOL     OW36751   0.457   2.668   1.967 -0.0442 -0.0997 -0.7099
 8430SOL    HW136752   0.494   2.755   1.952 -0.6596  0.1227 -0.9367
 8430SOL    HW236753   0.369   2.690   1.935 -0.3236 -0.3173 -0.1021
 8431SOL     OW36754   2.518   3.886   2.223  0.3918 -0.1717  0.3086
 8431SOL    HW136755   2.572   3.810   2.248 -1.5498 -2.1961 -1.6470
 8431SOL    HW236756   2.544   3.892   2.131  2.8522  0.0616  0.9931
 8432SOL     OW36757   2.184   3.353   2.150  0.1628 -0.1565  0.4951
 8432SOL    HW136758   2.155   3.317   2.066 -1.0247 -1.6008  1.5296
 8432SOL    HW236759   2.101   3.375   2.192  0.3767  0.4942  0.5797
 8433SOL     OW36760   0.177   0.147   2.828  0.3629  0.3158 -0.2346
 8433SOL    HW136761   0.102   0.189   2.786  0.2617 -2.2655 -2.6055
 8433SOL    HW236762   0.245   0.159   2.762  0.5088  3.5683  0.5382
 8434SOL     OW36763   0.890   1.809  11.907 -0.0241  0.6151  0.8431
 8434SOL    HW136764   0.908   1.783  11.997 -1.1276  1.5363  1.3218
 8434SOL    HW236765   0.901   1.904  11.914 -3.0069  1.0254 -0.2378
 8435SOL     OW36766   3.988   1.334   6.513  0.4590  0.2804  0.0259
 8435SOL    HW136767   3.925   1.267   6.489 -1.5945  2.1869  0.1212
 8435SOL    HW236768   4.030   1.292   6.588 -1.4145 -1.2161  0.2237
 8436SOL     OW36769   2.776   3.177  11.302 -0.2236 -0.3378  0.1687
 8436SOL    HW136770   2.810   3.202  11.388  0.2141  0.7988 -0.3322
 8436SOL    HW236771   2.684   3.174  11.329 -0.5074 -0.4184 -0.7994
 8437SOL     OW36772   1.069   1.293   6.767  0.0041 -0.3886  0.0912
 8437SOL    HW136773   1.070   1.384   6.797 -1.0221 -0.2252 -0.3713
 8437SOL    HW236774   1.129   1.280   6.694  0.9435  0.8964  0.6282
 8438SOL     OW36775   4.661   0.033   6.327  0.1767 -0.0072  0.3513
 8438SOL    HW136776   0.008   4.711   6.275  0.9535  0.1069  1.2713
 8438SOL    HW236777   4.581   0.039   6.275 -0.2307 -0.3973  0.9338
 8439SOL     OW36778   3.765   3.264   7.229 -0.0090  0.0778  0.4080
 8439SOL    HW136779   3.728   3.294   7.146  0.3518  0.3631  0.3475
 8439SOL    HW236780   3.767   3.352   7.265  0.4943  0.2557 -0.0464
 8440SOL     OW36781   1.485   3.502   4.627 -0.5946  0.7435  0.0619
 8440SOL    HW136782   1.431   3.443   4.574 -0.3772 -1.9789  2.9745
 8440SOL    HW236783   1.516   3.561   4.558 -0.6545 -0.0613 -0.6510
 8441SOL     OW36784   0.078   0.922  15.325  1.0464  0.0495 -0.0152
 8441SOL    HW136785   0.153   0.918  15.384  0.5355 -1.9841  0.5029
 8441SOL    HW236786   0.117   0.879  15.249 -1.3941  0.8018 -1.6964
 8442SOL     OW36787   4.606   3.715   5.812  0.2665  0.1540  0.2952
 8442SOL    HW136788   4.583   3.807   5.827  0.6567  0.0290  1.6888
 8442SOL    HW236789   4.697   3.707   5.841  0.2550 -0.2598  0.2116
 8443SOL     OW36790   0.869   0.198   1.258 -0.1605 -0.1816  0.2875
 8443SOL    HW136791   0.930   0.160   1.321 -1.1041 -1.7170  0.2761
 8443SOL    HW236792   0.794   0.138   1.262 -1.9933  2.0512 -0.0960
 8444SOL     OW36793   4.695   3.435  10.147 -0.1679 -0.1706  0.6488
 8444SOL    HW136794   0.013   3.523  10.141  1.2258 -0.6594  2.5518
 8444SOL    HW236795   4.702   3.407  10.056 -0.7505  0.9157  0.2635
 8445SOL     OW36796   1.984   1.744  12.841  0.1447  0.0969  0.4443
 8445SOL    HW136797   1.959   1.677  12.777 -0.6166 -1.7119  2.5940
 8445SOL    HW236798   1.898   1.775  12.870 -0.7347 -2.5429  0.7126
 8446SOL     OW36799   0.007   1.881   6.334 -0.0831  0.4548 -0.7387
 8446SOL    HW136800   4.719   1.916   6.422 -1.3289 -2.9482  0.4919
 8446SOL    HW236801   0.015   1.787   6.353 -2.8882 -0.0144 -1.8758
 8447SOL     OW36802   1.865   0.575  11.540 -0.3657 -0.0578 -0.3328
 8447SOL    HW136803   1.871   0.501  11.601 -2.2020 -0.5148 -0.6963
 8447SOL    HW236804   1.856   0.537  11.453 -0.2919  2.6106 -1.5035
 8448SOL     OW36805   0.113   4.524  10.839  0.7335 -0.0865 -0.1818
 8448SOL    HW136806   0.191   4.489  10.882  0.5799 -0.0804  0.1055
 8448SOL    HW236807   0.079   4.446  10.795  0.7700 -2.0828  3.3176
 8449SOL     OW36808   2.790   2.923   3.913  0.3938 -0.1711 -0.0255
 8449SOL    HW136809   2.819   2.998   3.964  0.2103 -0.9501  1.2154
 8449SOL    HW236810   2.831   2.939   3.828  1.0924  1.2029  0.5617
 8450SOL     OW36811   2.643   1.407   2.681 -0.3106 -0.0121  0.2935
 8450SOL    HW136812   2.652   1.360   2.598  0.0592 -0.2266  0.4538
 8450SOL    HW236813   2.586   1.480   2.658  2.1380  1.8536  0.0833
 8451SOL     OW36814   2.456   2.009   2.713  0.3385  0.0953 -0.0825
 8451SOL    HW136815   2.502   2.093   2.720 -0.9283  0.6155  1.9611
 8451SOL    HW236816   2.532   1.958   2.683 -0.6250 -0.6854 -1.1911
 8452SOL     OW36817   1.564   3.181   3.648  0.4591  0.7225  0.9035
 8452SOL    HW136818   1.591   3.110   3.589  0.8444  1.2110  0.4962
 8452SOL    HW236819   1.490   3.211   3.595  0.2580  1.7715  1.7731
 8453SOL     OW36820   3.933   2.914  12.360 -0.0576  0.0774  0.1115
 8453SOL    HW136821   3.915   2.837  12.414 -3.3312  2.1291  1.9469
 8453SOL    HW236822   3.900   2.993  12.404 -0.3611  0.4947 -0.8484
 8454SOL     OW36823   4.406   1.699   7.273  0.2862 -0.0726 -0.3183
 8454SOL    HW136824   4.351   1.656   7.338  0.9869 -2.6009 -1.4029
 8454SOL    HW236825   4.471   1.634   7.248  2.3954  1.5896  0.8149
 8455SOL     OW36826   3.711   0.037  17.013 -0.0979  0.0439 -0.0391
 8455SOL    HW136827   3.789   0.025  17.067  0.0038 -0.1865 -0.2376
 8455SOL    HW236828   3.687   0.128  17.031  1.1267  0.4453 -0.4789
 8456SOL     OW36829   3.803   0.063   0.018 -0.0176 -0.4235 -0.5628
 8456SOL    HW136830   3.712   0.056  17.673  0.0368 -2.6953 -0.2140
 8456SOL    HW236831   3.796   4.720   0.089  2.3379  0.1449  0.1581
 8457SOL     OW36832   3.100   4.637   9.163  0.1505 -0.0381  0.2729
 8457SOL    HW136833   3.066   4.635   9.074 -0.4425 -0.0862  0.5020
 8457SOL    HW236834   3.018   4.607   9.202  0.2812  1.4187  1.6664
 8458SOL     OW36835   0.440   2.920   8.068  0.1013  0.8373 -0.0242
 8458SOL    HW136836   0.488   2.896   7.988 -0.1663  0.2145  0.0064
 8458SOL    HW236837   0.504   2.892   8.134  0.8687 -0.7673 -1.4273
 8459SOL     OW36838   1.166   2.042   9.676  0.6434 -0.0064 -0.4604
 8459SOL    HW136839   1.083   2.022   9.719  0.6600 -0.1908 -0.5137
 8459SOL    HW236840   1.229   2.020   9.744  0.7816 -0.8963 -0.8696
 8460SOL     OW36841   4.516   3.394  14.970 -0.5529  0.6404  0.0413
 8460SOL    HW136842   4.557   3.451  15.035  0.6394  1.5183 -1.4804
 8460SOL    HW236843   4.494   3.457  14.902  2.9808  0.9153 -0.8271
 8461SOL     OW36844   3.907   3.373   6.108 -0.3681  0.4801  0.3352
 8461SOL    HW136845   3.993   3.342   6.135  0.1041  1.3323 -0.1800
 8461SOL    HW236846   3.931   3.439   6.042  1.0349  1.6586  2.0221
 8462SOL     OW36847   1.032   1.097  10.857  0.8565  0.0983 -0.2725
 8462SOL    HW136848   1.118   1.090  10.899 -0.4119 -1.6352  2.0706
 8462SOL    HW236849   1.041   1.039  10.782  2.2227  0.2898 -0.2544
 8463SOL     OW36850   2.087   1.965   4.221  0.1117  0.1973 -0.2311
 8463SOL    HW136851   1.993   1.979   4.232  0.0030 -0.0215 -0.8845
 8463SOL    HW236852   2.113   2.052   4.190  0.9640  0.4876  1.2960
 8464SOL     OW36853   3.480   3.330   3.587  0.0284 -0.2303  0.2169
 8464SOL    HW136854   3.556   3.384   3.610 -1.1244  0.5373  2.2792
 8464SOL    HW236855   3.481   3.271   3.663 -0.3206 -0.4334  0.0575
 8465SOL     OW36856   3.619   1.709   4.958 -0.1307  0.3848  0.1753
 8465SOL    HW136857   3.531   1.673   4.971 -0.7164  0.9851 -2.1824
 8465SOL    HW236858   3.627   1.713   4.863  0.5717  2.5492  0.3365
 8466SOL     OW36859   3.234   3.023   7.810 -0.1646 -0.2041  0.2295
 8466SOL    HW136860   3.232   2.988   7.721 -1.1100 -0.2086  0.2584
 8466SOL    HW236861   3.148   3.064   7.809 -0.2311 -0.3630 -0.7126
 8467SOL     OW36862   1.053   0.596   5.720  0.6906 -0.5071  0.1313
 8467SOL    HW136863   1.080   0.626   5.633  0.9259 -2.2377 -0.3954
 8467SOL    HW236864   1.006   0.675   5.747  1.9373  0.7026 -1.2168
 8468SOL     OW36865   2.766   1.443   8.972  0.1705 -0.2052  0.1845
 8468SOL    HW136866   2.709   1.510   9.010 -0.6195 -1.6587  1.5367
 8468SOL    HW236867   2.839   1.436   9.032  1.3357  0.9231 -1.0909
 8469SOL     OW36868   3.767   1.985   1.985 -0.6638  0.0669 -0.6580
 8469SOL    HW136869   3.759   1.906   1.931  3.4009 -0.1902 -0.8287
 8469SOL    HW236870   3.724   1.946   2.061  0.7215 -1.3120 -0.5907
 8470SOL     OW36871   1.487   3.577   3.405  0.0983 -0.3859 -0.4196
 8470SOL    HW136872   1.504   3.610   3.493  1.9466 -0.9012 -0.5914
 8470SOL    HW236873   1.392   3.566   3.412  0.1028 -0.5661 -0.6284
 8471SOL     OW36874   1.589   0.660   5.073  0.2185  0.2047 -0.3052
 8471SOL    HW136875   1.651   0.727   5.042 -1.0514  0.6881 -1.7982
 8471SOL    HW236876   1.638   0.620   5.144 -1.3860  3.0678  2.4190
 8472SOL     OW36877   2.633   1.021  10.131  0.0272  0.2372  0.3225
 8472SOL    HW136878   2.714   1.060  10.097 -0.2513  0.5787  0.0501
 8472SOL    HW236879   2.649   0.927  10.122 -0.2856  0.2807 -0.7110
 8473SOL     OW36880   4.189   2.476  14.848  0.2075 -0.2644  0.2702
 8473SOL    HW136881   4.145   2.552  14.886  1.0469  0.0118  0.6957
 8473SOL    HW236882   4.142   2.406  14.893 -2.2195 -0.3142 -2.3683
 8474SOL     OW36883   1.758   2.672   2.262  0.3041 -0.2022  0.2367
 8474SOL    HW136884   1.706   2.650   2.339 -0.8821  0.5867 -0.3373
 8474SOL    HW236885   1.784   2.761   2.287  2.4098 -0.3276 -1.5381
 8475SOL     OW36886   4.368   4.058   1.809 -0.3488 -0.2083  0.0047
 8475SOL    HW136887   4.439   4.006   1.772  1.0402  0.4482  1.7921
 8475SOL    HW236888   4.398   4.077   1.898  0.9274 -1.1629 -0.2225
 8476SOL     OW36889   2.787   1.111   8.823  0.2832  0.1330  1.2839
 8476SOL    HW136890   2.711   1.084   8.875 -0.4824  0.9639  0.6018
 8476SOL    HW236891   2.830   1.025   8.815 -0.7708 -0.3948  1.2368
 8477SOL     OW36892   1.801   1.969   2.710  0.0485  0.5358 -0.2713
 8477SOL    HW136893   1.863   2.042   2.707 -0.1197  0.6504 -0.9531
 8477SOL    HW236894   1.824   1.918   2.633  1.5178 -0.9413  1.1397
 8478SOL     OW36895   1.955   0.310   7.126  0.4485 -0.7674 -0.5225
 8478SOL    HW136896   1.969   0.245   7.195  1.0013  0.5897  0.6302
 8478SOL    HW236897   1.862   0.332   7.131  0.0973 -1.8501 -2.1653
 8479SOL     OW36898   1.263   4.437   4.163  0.1210  0.2784  0.1265
 8479SOL    HW136899   1.288   4.345   4.167 -1.8783 -0.3470 -1.4557
 8479SOL    HW236900   1.182   4.443   4.213  0.6448  0.1546  0.9791
 8480SOL     OW36901   2.736   0.468   8.969 -0.2418  0.2430 -0.0673
 8480SOL    HW136902   2.771   0.480   9.057 -1.3103  1.4026  0.1979
 8480SOL    HW236903   2.803   0.411   8.930  0.7898  0.3373  1.5458
 8481SOL     OW36904   0.001   3.499   3.324 -0.1672 -0.1393  0.4007
 8481SOL    HW136905   4.682   3.496   3.411 -1.3319 -0.6480 -0.1431
 8481SOL    HW236906   4.658   3.533   3.261 -0.9229 -2.3544 -0.0316
 8482SOL     OW36907   2.325   0.776   8.167  0.0153 -0.1649  0.3640
 8482SOL    HW136908   2.394   0.835   8.138  1.2045 -1.3483  0.7669
 8482SOL    HW236909   2.259   0.840   8.192 -0.2543 -0.6189  0.8182
 8483SOL     OW36910   3.586   2.941  15.066 -0.2209  0.1060  0.0947
 8483SOL    HW136911   3.668   2.925  15.020  1.2893 -0.7973  3.0877
 8483SOL    HW236912   3.542   3.019  15.032 -2.3244 -0.0780  2.4016
 8484SOL     OW36913   1.705   1.766   2.869 -1.1932 -0.0171 -0.4820
 8484SOL    HW136914   1.746   1.829   2.810 -1.7036  2.7751  2.1477
 8484SOL    HW236915   1.614   1.755   2.842 -1.4578  1.6059 -0.2263
 8485SOL     OW36916   2.477   2.908   5.306  0.5633 -0.0120 -0.2162
 8485SOL    HW136917   2.450   2.848   5.237 -1.5757  1.1409 -0.3690
 8485SOL    HW236918   2.396   2.901   5.356  0.5019 -0.3336 -0.3622
 8486SOL     OW36919   2.599   0.877   5.563  0.0948  0.2621 -0.1577
 8486SOL    HW136920   2.522   0.834   5.597 -0.0666  0.1460 -0.6660
 8486SOL    HW236921   2.664   0.838   5.621  0.9202  0.4068 -0.9814
 8487SOL     OW36922   2.672   1.963  10.026  0.0345 -0.6310 -0.0133
 8487SOL    HW136923   2.748   2.001   9.982 -2.1322  2.6413 -0.9206
 8487SOL    HW236924   2.687   1.870  10.009 -0.0432 -0.6122 -0.1883
 8488SOL     OW36925   1.856   0.714  13.236 -0.6372  0.1378  0.3767
 8488SOL    HW136926   1.930   0.678  13.284 -0.6718  0.0888  0.3930
 8488SOL    HW236927   1.870   0.803  13.268  0.2420 -0.1354  0.7394
 8489SOL     OW36928   0.546   3.293   8.619 -0.1547 -0.0752 -0.4834
 8489SOL    HW136929   0.534   3.252   8.533 -0.0780 -0.0698 -0.4963
 8489SOL    HW236930   0.639   3.273   8.631 -0.9645 -2.9070  1.0992
 8490SOL     OW36931   2.012   2.086   8.117 -0.6465 -0.0712 -0.3978
 8490SOL    HW136932   1.986   1.997   8.140  1.4721 -0.3907  0.7333
 8490SOL    HW236933   2.013   2.120   8.206 -1.9766 -1.1381  0.0097
 8491SOL     OW36934   0.038   1.629   4.940  0.3354 -0.1749 -0.2386
 8491SOL    HW136935   0.035   1.707   4.994  0.7227 -0.2697 -0.0817
 8491SOL    HW236936   0.119   1.654   4.895 -0.4107  0.2287 -1.3499
 8492SOL     OW36937   0.481   4.653   0.432  0.3501 -0.0092 -0.1378
 8492SOL    HW136938   0.562   4.659   0.483 -0.3735 -0.3516  1.0517
 8492SOL    HW236939   0.486   0.022   0.399  0.2441  0.0387 -0.0241
 8493SOL     OW36940   1.317   0.865   3.925  0.0975 -0.6736  0.1552
 8493SOL    HW136941   1.405   0.894   3.902  0.1450  0.9007  2.3800
 8493SOL    HW236942   1.270   0.907   3.853  2.2785 -0.9077 -1.4044
 8494SOL     OW36943   0.146   3.666   2.663 -0.6778 -0.4613 -0.3556
 8494SOL    HW136944   0.184   3.579   2.647  1.4277  0.3414  0.2183
 8494SOL    HW236945   0.065   3.651   2.710 -0.0295 -2.3927  0.1328
 8495SOL     OW36946   0.161   1.652   8.879  0.2483 -0.0779  0.6827
 8495SOL    HW136947   0.106   1.578   8.854  1.4315 -1.1316  1.2525
 8495SOL    HW236948   0.159   1.644   8.974 -1.1484  1.5282  0.7912
 8496SOL     OW36949   0.325   0.915   1.984 -0.0990 -0.5501  0.5265
 8496SOL    HW136950   0.314   0.822   2.005  1.5324 -0.2719  2.5290
 8496SOL    HW236951   0.290   0.947   2.067 -0.3205  0.5575  0.0050
 8497SOL     OW36952   1.266   3.505   8.433  0.3603  0.5321  0.0438
 8497SOL    HW136953   1.224   3.420   8.438  0.8483  0.3544  1.2761
 8497SOL    HW236954   1.199   3.564   8.400  2.0467  1.5195 -1.6208
 8498SOL     OW36955   0.749   3.273   7.959 -0.3283  0.4568 -0.3455
 8498SOL    HW136956   0.839   3.302   7.968 -1.0676  2.0819  1.6158
 8498SOL    HW236957   0.762   3.219   7.880 -0.2329  2.4715 -1.6962
 8499SOL     OW36958   1.161   3.175   6.420 -0.0003 -0.1822  0.4268
 8499SOL    HW136959   1.204   3.260   6.430  1.4971 -0.8787 -0.0264
 8499SOL    HW236960   1.213   3.120   6.479 -1.6670 -1.6940  0.4992
 8500SOL     OW36961   1.992   1.541   9.651  0.2417 -0.7599 -0.0022
 8500SOL    HW136962   2.067   1.486   9.631  0.7162  0.3303 -1.1969
 8500SOL    HW236963   1.991   1.551   9.746 -2.3758  0.3388 -0.1283
 8501SOL     OW36964   0.959   2.963   9.911  0.1520  0.3183 -0.0812
 8501SOL    HW136965   0.899   2.985   9.982  0.2920 -1.0943  0.4667
 8501SOL    HW236966   1.040   2.968   9.963  0.9420 -2.2193 -1.0849
 8502SOL     OW36967   3.558   0.351   3.957 -0.0904  0.1443 -0.3436
 8502SOL    HW136968   3.572   0.443   3.978 -1.2971  0.0827  0.7179
 8502SOL    HW236969   3.613   0.341   3.880 -0.1821 -1.6650 -0.1755
 8503SOL     OW36970   3.600   1.940   2.229  0.3457 -0.2815 -0.1800
 8503SOL    HW136971   3.524   1.964   2.282  0.4358  0.0172 -0.1846
 8503SOL    HW236972   3.663   2.005   2.259 -0.9748  0.4216  1.0957
 8504SOL     OW36973   4.358   4.532   2.789  0.1718  0.4192  0.1414
 8504SOL    HW136974   4.294   4.591   2.827 -0.5390 -0.4110  0.2415
 8504SOL    HW236975   4.440   4.582   2.787  1.4238 -1.5788  1.0239
 8505SOL     OW36976   3.716   3.765   0.491  0.3433 -0.7589  0.0910
 8505SOL    HW136977   3.625   3.768   0.521 -0.9229 -0.8433 -3.6827
 8505SOL    HW236978   3.697   3.745   0.399 -2.3102 -1.3069  0.7703
 8506SOL     OW36979   0.867   4.655   7.724 -0.0440 -0.3863 -0.2964
 8506SOL    HW136980   0.940   4.706   7.690  0.0345  0.4692  1.1406
 8506SOL    HW236981   0.808   4.651   7.650  0.5952 -0.9175 -0.7791
 8507SOL     OW36982   2.022   0.118   0.097 -0.2699  0.1621 -0.1665
 8507SOL    HW136983   1.951   0.076   0.147  1.3027 -0.4599  1.5484
 8507SOL    HW236984   1.994   0.096   0.008  3.0977  0.6809 -1.3489
 8508SOL     OW36985   3.346   4.605   7.067  0.4903 -0.1640 -0.0116
 8508SOL    HW136986   3.375   4.520   7.033 -0.4316 -0.6870  0.5323
 8508SOL    HW236987   3.398   4.624   7.145 -0.1749 -1.0094  0.6344
 8509SOL     OW36988   4.063   4.374   2.397 -0.2701 -0.3089  0.0388
 8509SOL    HW136989   4.036   4.391   2.487 -1.4621 -0.2578 -0.3257
 8509SOL    HW236990   3.981   4.332   2.371 -0.8224  0.8576 -0.1160
 8510SOL     OW36991   3.398   0.675   3.813  0.0008 -0.4212 -0.2264
 8510SOL    HW136992   3.367   0.741   3.875  0.7076 -1.5966  1.4083
 8510SOL    HW236993   3.311   0.652   3.780 -1.0244  1.1649  1.4063
 8511SOL     OW36994   1.967   3.965   9.377  0.7110  0.0976  0.2448
 8511SOL    HW136995   1.878   3.962   9.412  0.1225  3.0123 -0.9722
 8511SOL    HW236996   2.019   3.984   9.455  0.6311  2.5416 -0.3188
 8512SOL     OW36997   4.688   1.814   4.214 -0.2225  0.1809 -0.0747
 8512SOL    HW136998   4.676   1.755   4.139  0.8801  0.7111 -0.6843
 8512SOL    HW236999   4.674   1.755   4.287  0.2646  0.6176  0.3760
 8513SOL     OW37000   0.371   3.072   6.050 -0.0382 -0.6351  0.2034
 8513SOL    HW137001   0.381   3.094   5.957 -2.2053  0.1841  0.1606
 8513SOL    HW237002   0.290   3.118   6.069 -0.3075 -1.1941  0.3952
 8514SOL     OW37003   2.515   2.266   5.097  0.1316 -0.1312  0.4637
 8514SOL    HW137004   2.538   2.252   5.005 -0.2552  0.7300  0.2335
 8514SOL    HW237005   2.587   2.320   5.130 -1.9005  2.4000  0.8015
 8515SOL     OW37006   1.873   0.136   8.014  0.4879  0.0209  0.8536
 8515SOL    HW137007   1.926   0.107   8.088  0.9601  1.5685  1.1324
 8515SOL    HW237008   1.868   0.231   8.027  0.4178 -0.0520  1.3830
 8516SOL     OW37009   1.623   3.602   5.398 -0.0774  0.1603 -0.1839
 8516SOL    HW137010   1.652   3.542   5.329  1.9470  0.4453  0.4162
 8516SOL    HW237011   1.580   3.671   5.348  0.0747 -1.4251 -2.4984
 8517SOL     OW37012   4.689   3.025   7.847 -0.2677 -0.4568  0.2968
 8517SOL    HW137013   0.055   3.040   7.886 -1.1908  0.8156  1.8299
 8517SOL    HW237014   4.718   3.006   7.758 -0.3653 -0.5597  0.2876
 8518SOL     OW37015   2.077   3.930  12.863 -0.3052  0.3726 -0.2135
 8518SOL    HW137016   2.079   3.845  12.818  0.7089  1.1485 -1.6110
 8518SOL    HW237017   2.138   3.984  12.813  0.0869 -0.4549 -0.6341
 8519SOL     OW37018   3.717   0.913   3.955 -0.2956  1.0238  0.7491
 8519SOL    HW137019   3.687   0.884   4.041  1.5950 -0.9546  0.7412
 8519SOL    HW237020   3.812   0.920   3.966 -0.4281  0.6000  2.1132
 8520SOL     OW37021   4.397   1.519   4.011  0.8849  0.2477  0.4271
 8520SOL    HW137022   4.354   1.573   4.078  0.3024  1.0295 -0.5850
 8520SOL    HW237023   4.342   1.524   3.933  3.3083  0.1699 -1.3028
 8521SOL     OW37024   4.675   2.276   6.173 -0.3737 -1.2193 -0.1954
 8521SOL    HW137025   0.019   2.279   6.243 -0.6858 -0.0437  0.0386
 8521SOL    HW237026   4.720   2.238   6.097 -0.1234 -0.2956 -0.5072
 8522SOL     OW37027   1.252   4.439   7.309 -0.5366  0.2850  0.2181
 8522SOL    HW137028   1.160   4.453   7.288 -0.1809  1.1024 -0.8242
 8522SOL    HW237029   1.244   4.443   7.404 -1.0523  0.9718  0.1505
 8523SOL     OW37030   2.774   1.265   5.900 -0.2260 -0.0315  0.0556
 8523SOL    HW137031   2.762   1.216   5.981  1.0493 -1.3286 -0.5503
 8523SOL    HW237032   2.836   1.210   5.853 -0.0660  0.7637 -0.6578
 8524SOL     OW37033   2.328   3.092   9.490  0.0208  0.4148 -0.0921
 8524SOL    HW137034   2.278   3.134   9.560  0.4596  0.0018  0.4588
 8524SOL    HW237035   2.318   3.162   9.425  1.6208 -0.2734 -1.0814
 8525SOL     OW37036   4.430   0.761  13.755 -0.1453  0.3422 -0.8298
 8525SOL    HW137037   4.470   0.805  13.830 -0.4580 -1.7634  0.5968
 8525SOL    HW237038   4.410   0.675  13.794 -1.8019  1.8169  1.6059
 8526SOL     OW37039   2.620   2.726   4.904 -0.3928 -0.4909  0.1330
 8526SOL    HW137040   2.715   2.731   4.894 -0.4528  0.6843  0.0911
 8526SOL    HW237041   2.585   2.648   4.860 -1.6734 -0.7342  1.6081
 8527SOL     OW37042   1.377   2.089   3.400  0.2071  0.3291 -0.1357
 8527SOL    HW137043   1.419   2.058   3.320  2.2408 -0.1218  1.0938
 8527SOL    HW237044   1.369   2.183   3.384  0.3905  0.7425  2.1546
 8528SOL     OW37045   3.773   4.146  11.991 -0.5431 -0.3205 -0.2179
 8528SOL    HW137046   3.856   4.121  11.951 -1.3248 -1.5446 -1.0595
 8528SOL    HW237047   3.778   4.241  11.990 -2.3889 -0.2565 -2.0400
 8529SOL     OW37048   1.995   1.947  13.664  0.3513 -0.3140  0.1484
 8529SOL    HW137049   1.955   1.861  13.677 -0.3914 -0.1353 -0.9436
 8529SOL    HW237050   1.910   1.988  13.651 -0.4043 -0.9608  2.9916
 8530SOL     OW37051   2.172   1.850   7.904 -0.5593  0.5643  0.5115
 8530SOL    HW137052   2.257   1.891   7.920 -0.5261  0.1088  1.5471
 8530SOL    HW237053   2.188   1.758   7.884 -1.1183  0.7842 -0.9428
 8531SOL     OW37054   3.999   1.649   7.369 -0.5451  0.0310 -0.2245
 8531SOL    HW137055   3.986   1.596   7.448 -1.0833 -1.4627 -1.3297
 8531SOL    HW237056   4.064   1.595   7.323 -0.9681 -0.8178  0.1644
 8532SOL     OW37057   2.211   2.833  12.301 -0.0806  0.0977  0.5188
 8532SOL    HW137058   2.128   2.821  12.253 -0.4785  1.1716  0.9203
 8532SOL    HW237059   2.284   2.848  12.241 -0.1874 -1.5618 -0.0267
 8533SOL     OW37060   3.791   1.621   8.852  0.1251  0.0989 -0.6574
 8533SOL    HW137061   3.865   1.583   8.899 -0.2262  1.0884  0.6989
 8533SOL    HW237062   3.745   1.544   8.819 -0.5704  0.4405 -0.4918
 8534SOL     OW37063   2.630   0.363   6.875 -0.8315  0.3706  0.3223
 8534SOL    HW137064   2.691   0.363   6.801 -2.4431 -0.8293 -1.0156
 8534SOL    HW237065   2.656   0.436   6.932 -0.3491  1.9738 -1.9511
 8535SOL     OW37066   2.271   0.216   8.267 -0.2174  0.1045 -0.1486
 8535SOL    HW137067   2.344   0.198   8.327 -1.7668 -0.5813  1.5259
 8535SOL    HW237068   2.267   0.310   8.284  2.2702  0.2403 -0.2740
 8536SOL     OW37069   0.249   3.866   6.037 -0.5873 -0.0508  0.4572
 8536SOL    HW137070   0.177   3.922   6.008  0.0500 -0.6678 -2.3290
 8536SOL    HW237071   0.308   3.937   6.063  0.8384 -2.3556  3.4515
 8537SOL     OW37072   1.732   0.673   6.993  0.1903  0.1562  0.7181
 8537SOL    HW137073   1.661   0.628   6.947 -1.7028  0.2264  3.5779
 8537SOL    HW237074   1.757   0.742   6.931 -0.6325 -0.7682 -0.6436
 8538SOL     OW37075   0.604   2.861   8.280 -0.0800  0.2506 -0.5832
 8538SOL    HW137076   0.691   2.859   8.320  0.2554 -1.0167 -1.3952
 8538SOL    HW237077   0.560   2.917   8.344  2.2122 -0.8003  1.9297
 8539SOL     OW37078   4.067   1.242   7.712 -0.3838  0.2383 -0.3173
 8539SOL    HW137079   4.094   1.154   7.685  0.8461  0.8810 -1.2152
 8539SOL    HW237080   4.147   1.258   7.762  1.0139 -0.4587 -2.3419
 8540SOL     OW37081   3.644   2.565   9.738  0.2220  0.5442 -0.2507
 8540SOL    HW137082   3.642   2.621   9.815  0.8457 -0.7189  0.6749
 8540SOL    HW237083   3.686   2.486   9.770  0.2790  0.9388  0.6549
 8541SOL     OW37084   3.829   2.616   7.607 -0.2208 -0.2475 -0.1791
 8541SOL    HW137085   3.836   2.576   7.520  0.5832 -1.8832  0.6357
 8541SOL    HW237086   3.754   2.672   7.588  0.1661  1.1274  2.3554
 8542SOL     OW37087   1.807   0.214   2.488 -0.3754  0.0143 -0.0383
 8542SOL    HW137088   1.784   0.297   2.529  0.9946  0.9915 -1.2595
 8542SOL    HW237089   1.794   0.226   2.394 -1.5900 -0.9375  0.0009
 8543SOL     OW37090   1.621   2.039   9.677  0.4400 -0.0785  0.2736
 8543SOL    HW137091   1.684   2.028   9.605 -0.3729  0.4348 -0.5100
 8543SOL    HW237092   1.675   2.048   9.756  2.9390  0.2436 -1.4864
 8544SOL     OW37093   0.409   0.807   6.645  0.2615 -0.2981 -0.1510
 8544SOL    HW137094   0.332   0.767   6.686  2.5518 -1.3173  3.1686
 8544SOL    HW237095   0.460   0.727   6.645  0.3021 -0.2541 -1.8708
 8545SOL     OW37096   1.316   3.182   2.355 -0.2749  0.1031 -0.2204
 8545SOL    HW137097   1.321   3.087   2.351 -1.0382  0.0590 -0.1833
 8545SOL    HW237098   1.354   3.212   2.272  1.8472 -2.5294 -0.2103
 8546SOL     OW37099   1.945   0.786   1.371 -0.5107 -0.0318  0.3229
 8546SOL    HW137100   1.974   0.720   1.307 -0.4792 -0.1153  0.4218
 8546SOL    HW237101   1.863   0.811   1.329  0.3179  0.6140 -0.9269
 8547SOL     OW37102   3.718   4.117   2.020  0.1457  0.0313 -0.2771
 8547SOL    HW137103   3.780   4.191   2.018  0.6496 -0.3794  0.2087
 8547SOL    HW237104   3.781   4.045   2.011  0.6967  0.3273  1.3152
 8548SOL     OW37105   4.646   2.951   7.339  0.0933  0.5426  0.5123
 8548SOL    HW137106   4.607   2.876   7.294 -0.2412  1.3900 -0.6032
 8548SOL    HW237107   4.708   2.994   7.281 -1.1248  0.5307 -0.7956
 8549SOL     OW37108   1.894   4.602  10.107  0.0878 -0.6448 -0.6081
 8549SOL    HW137109   1.869   4.674  10.049  0.5788 -1.6918 -2.1235
 8549SOL    HW237110   1.837   4.534  10.072  0.4228 -0.4394 -1.5467
 8550SOL     OW37111   4.707   0.564  15.701  1.1192 -0.7850  0.4908
 8550SOL    HW137112   4.715   0.589  15.609 -1.2347 -1.3036  0.1394
 8550SOL    HW237113   4.617   0.532  15.701  0.8419 -0.0352 -1.9562
 8551SOL     OW37114   0.236   2.472   1.995  0.1970 -0.0240  0.0228
 8551SOL    HW137115   0.250   2.405   1.928 -1.4807  1.2316 -1.5902
 8551SOL    HW237116   0.231   2.555   1.947 -0.9233  0.2371  0.5829
 8552SOL     OW37117   0.324   1.926   9.611 -0.5370  0.2317 -0.5677
 8552SOL    HW137118   0.401   1.918   9.555  0.6381 -1.0085  1.2558
 8552SOL    HW237119   0.330   1.848   9.665 -2.1186 -0.6918 -1.7173
 8553SOL     OW37120   2.685   4.671   5.470 -0.2841  0.1675  0.1117
 8553SOL    HW137121   2.743   4.596   5.482 -0.6216 -0.0884  0.1535
 8553SOL    HW237122   2.611   4.657   5.530 -1.4095  2.0835 -0.8463
 8554SOL     OW37123   2.991   0.899   8.541  0.2946 -0.3026 -0.2694
 8554SOL    HW137124   2.978   0.993   8.528  1.5865  0.0412  0.9509
 8554SOL    HW237125   2.953   0.852   8.467 -2.6367  1.0469  0.3444
 8555SOL     OW37126   4.659   2.173   6.825 -0.2175 -0.1567  0.0948
 8555SOL    HW137127   4.605   2.112   6.875  0.1170  0.7507  1.5674
 8555SOL    HW237128   0.026   2.150   6.854  0.0864 -0.3480 -0.9725
 8556SOL     OW37129   2.863   0.730  11.471  0.3572 -0.0030 -0.5879
 8556SOL    HW137130   2.823   0.644  11.459 -0.6851  0.7186 -2.3158
 8556SOL    HW237131   2.955   0.707  11.454  0.2572 -2.0996  1.6451
 8557SOL     OW37132   2.685   1.318   0.841 -0.1844  0.1175 -0.3461
 8557SOL    HW137133   2.642   1.390   0.888 -0.9269 -0.0439 -0.7920
 8557SOL    HW237134   2.622   1.314   0.769 -0.0805 -3.6009 -0.2179
 8558SOL     OW37135   4.175   0.385   9.026 -0.6802  0.2879 -0.5351
 8558SOL    HW137136   4.238   0.313   9.026 -0.1996  0.7069 -0.8894
 8558SOL    HW237137   4.209   0.445   9.094 -2.0645 -1.3529  1.5992
 8559SOL     OW37138   3.372   4.501   5.409 -0.8862  0.3669  0.2889
 8559SOL    HW137139   3.366   4.407   5.390  0.0264  0.1757  0.9769
 8559SOL    HW237140   3.405   4.496   5.498  0.4468 -0.8113 -0.2653
 8560SOL     OW37141   3.190   1.587   6.697  0.1219  0.0574 -0.0293
 8560SOL    HW137142   3.094   1.584   6.701  0.0296  2.1061 -0.5174
 8560SOL    HW237143   3.212   1.581   6.790  1.7214  0.7163 -0.3596
 8561SOL     OW37144   3.879   0.126  16.782 -0.1436 -0.3202 -0.0798
 8561SOL    HW137145   3.913   0.062  16.844 -0.8069 -0.4453  0.1613
 8561SOL    HW237146   3.792   0.108  16.818 -0.2193  1.2601  0.5467
 8562SOL     OW37147   0.856   0.323   7.323 -0.2410 -0.0998  0.1800
 8562SOL    HW137148   0.819   0.247   7.277 -1.4938  2.2173 -2.6943
 8562SOL    HW237149   0.947   0.299   7.342  0.0589  1.5268  0.7771
 8563SOL     OW37150   4.210   0.927   6.891 -0.2279 -0.5378 -0.1501
 8563SOL    HW137151   4.252   0.871   6.826  2.3462  1.1415  0.0484
 8563SOL    HW237152   4.127   0.884   6.911  0.6924 -2.1752  0.1406
 8564SOL     OW37153   4.449   1.657   5.649  0.6075  0.3501 -0.0706
 8564SOL    HW137154   4.370   1.710   5.638  1.5429  1.6499 -0.4857
 8564SOL    HW237155   4.524   1.713   5.671  1.8503 -0.9764 -0.9009
 8565SOL     OW37156   0.672   0.370   8.788  0.0240 -0.0165  0.0547
 8565SOL    HW137157   0.590   0.323   8.805  0.6042 -0.2433  2.2777
 8565SOL    HW237158   0.658   0.441   8.851  1.3519 -0.0624  0.4033
 8566SOL     OW37159   4.204   0.682   5.392  0.0196  0.4872 -0.0433
 8566SOL    HW137160   4.236   0.592   5.388 -2.4418 -0.5166  2.4822
 8566SOL    HW237161   4.128   0.659   5.444  0.5797 -0.3597  0.3912
 8567SOL     OW37162   0.440   0.380   5.275 -0.6797  0.2924 -0.1460
 8567SOL    HW137163   0.354   0.346   5.300 -0.1085 -1.1553 -0.1444
 8567SOL    HW237164   0.448   0.344   5.187  0.1804  1.0692 -0.3898
 8568SOL     OW37165   1.686   2.753  11.178  0.0644 -0.3848  0.5199
 8568SOL    HW137166   1.733   2.786  11.102  0.8396 -2.1151  0.2694
 8568SOL    HW237167   1.744   2.735  11.253 -0.4978 -0.1007  1.0263
 8569SOL     OW37168   4.250   1.249   3.599 -0.2644  0.2340  0.7495
 8569SOL    HW137169   4.158   1.256   3.574  0.7359  1.2783 -2.5814
 8569SOL    HW237170   4.279   1.171   3.551  0.1131  1.2301 -0.6315
 8570SOL     OW37171   1.126   2.465   7.177 -0.1935 -0.0529 -0.2084
 8570SOL    HW137172   1.110   2.428   7.263  0.1051  4.9417  1.9615
 8570SOL    HW237173   1.036   2.451   7.148 -0.1109 -1.5352  0.2662
 8571SOL     OW37174   1.828   2.019   4.206  0.3512 -0.1276 -0.0102
 8571SOL    HW137175   1.807   2.111   4.194 -0.9356 -0.2661  1.1354
 8571SOL    HW237176   1.791   1.981   4.126  0.7338 -1.9098  0.6527
 8572SOL     OW37177   2.386   2.791  15.647 -0.0156  0.0636 -0.2968
 8572SOL    HW137178   2.387   2.887  15.641  0.4621  0.0680 -0.1584
 8572SOL    HW237179   2.333   2.781  15.726  0.4219 -0.0055 -0.0076
 8573SOL     OW37180   4.006   3.749   1.714 -0.0196 -0.0934 -0.1403
 8573SOL    HW137181   3.911   3.761   1.706  0.0837 -0.5097 -2.0451
 8573SOL    HW237182   4.037   3.831   1.675  1.8385 -0.3987  0.7016
 8574SOL     OW37183   2.888   4.330   4.388  0.7553  0.2932 -0.0984
 8574SOL    HW137184   2.930   4.384   4.455  0.0799 -0.0936  0.6547
 8574SOL    HW237185   2.946   4.345   4.314  2.4716  0.7193  1.3298
 8575SOL     OW37186   0.670   2.276   6.491  0.2558  0.2198  0.0207
 8575SOL    HW137187   0.592   2.248   6.538  1.0569 -1.8409  0.0824
 8575SOL    HW237188   0.745   2.226   6.523  1.0816  1.3872 -0.0451
 8576SOL     OW37189   1.090   0.910   7.714  0.1796 -0.1144  0.1528
 8576SOL    HW137190   1.089   0.832   7.658 -1.0262 -0.5085  0.7241
 8576SOL    HW237191   1.110   0.860   7.793  0.7349  0.2121  0.2206
 8577SOL     OW37192   3.935   4.506   2.938  0.2703  0.2339 -0.2865
 8577SOL    HW137193   3.890   4.426   2.968 -1.0666  1.8956  2.1687
 8577SOL    HW237194   4.015   4.464   2.907  1.4413  0.1447  2.7919
 8578SOL     OW37195   0.975   0.139  14.105  0.3938  0.1659  0.2802
 8578SOL    HW137196   1.008   0.217  14.059 -1.3412 -1.1568 -3.1850
 8578SOL    HW237197   1.053   0.109  14.152 -0.4567 -1.3248  0.7403
 8579SOL     OW37198   3.263   0.768   3.442 -0.7113  0.0554  0.1404
 8579SOL    HW137199   3.233   0.802   3.358  0.7605  1.2288  0.1095
 8579SOL    HW237200   3.355   0.792   3.449 -0.2605 -1.8704  0.9759
 8580SOL     OW37201   3.917   0.834   9.048  0.3807 -0.7151 -0.4573
 8580SOL    HW137202   3.898   0.843   8.954 -0.6023  2.9737  0.1052
 8580SOL    HW237203   3.940   0.742   9.056 -0.8574 -0.9780  0.0612
 8581SOL     OW37204   2.802   0.578   1.916  0.3567  0.2927  0.2617
 8581SOL    HW137205   2.827   0.488   1.939 -0.7292 -0.3466 -1.0062
 8581SOL    HW237206   2.878   0.613   1.963  0.1009  2.1556 -0.7358
 8582SOL     OW37207   0.517   4.258  14.704 -0.0018 -0.1936  0.0597
 8582SOL    HW137208   0.545   4.239  14.614  2.5760 -0.6556  0.9793
 8582SOL    HW237209   0.484   4.173  14.733 -1.7703  0.4369 -0.1029
 8583SOL     OW37210   1.880   1.444  14.272  0.4201 -0.5567 -0.0569
 8583SOL    HW137211   1.800   1.485  14.304 -0.6384 -2.8522  0.2381
 8583SOL    HW237212   1.879   1.356  14.308  0.5105  0.1496  1.6599
 8584SOL     OW37213   2.741   2.702   2.975 -0.1024  0.0450 -0.4835
 8584SOL    HW137214   2.782   2.697   2.889 -0.5187 -1.2223 -0.6050
 8584SOL    HW237215   2.653   2.680   2.945 -0.5755  0.0964  0.8459
 8585SOL     OW37216   1.105   3.285   1.819 -0.1254 -0.2468 -0.3574
 8585SOL    HW137217   1.179   3.342   1.799  1.5671 -2.4807 -0.4196
 8585SOL    HW237218   1.090   3.305   1.912 -0.0642  1.8260 -0.7922
 8586SOL     OW37219   1.451   4.116   9.768  0.2408 -0.1248  0.7103
 8586SOL    HW137220   1.491   4.198   9.738 -2.1409  0.5269 -0.6298
 8586SOL    HW237221   1.465   4.054   9.697 -0.0138 -1.2006  1.5925
 8587SOL     OW37222   1.849   3.940   1.442  0.5671  0.1287 -0.7845
 8587SOL    HW137223   1.822   3.993   1.517 -0.3406 -2.4818  0.7122
 8587SOL    HW237224   1.878   3.857   1.479 -0.5611 -0.7733 -1.8793
 8588SOL     OW37225   1.277   2.717   5.865 -0.2089 -0.3875 -0.3422
 8588SOL    HW137226   1.272   2.808   5.897  1.3528 -0.7509  0.9472
 8588SOL    HW237227   1.366   2.697   5.896 -0.1425  0.3320 -0.0636
 8589SOL     OW37228   0.367   2.880   0.023  0.2416  0.3703 -0.2088
 8589SOL    HW137229   0.456   2.898   0.055 -1.1428  3.6582  1.8003
 8589SOL    HW237230   0.388   2.821  17.637 -0.0265 -0.0501  0.0613
 8590SOL     OW37231   4.206   1.105   5.518  0.2406 -0.1656  0.1305
 8590SOL    HW137232   4.161   1.187   5.538  2.2041  0.9567 -0.1201
 8590SOL    HW237233   4.207   1.066   5.605  0.7813  1.8686  1.0295
 8591SOL     OW37234   3.348   3.552   2.191 -0.5861 -0.0563  0.3008
 8591SOL    HW137235   3.328   3.461   2.215 -0.8567  0.0588  0.5121
 8591SOL    HW237236   3.303   3.557   2.106 -1.0235  0.1913  0.5449
 8592SOL     OW37237   1.021   0.332  11.812  0.1932  0.1205 -0.2938
 8592SOL    HW137238   1.012   0.278  11.891  1.7220  2.2450  1.3497
 8592SOL    HW237239   0.960   0.400  11.840 -0.7431 -0.1768 -1.6510
 8593SOL     OW37240   0.817   2.872   4.101 -0.0259  0.1220  0.1624
 8593SOL    HW137241   0.775   2.834   4.178  1.3288 -0.9376  0.3680
 8593SOL    HW237242   0.828   2.791   4.052  2.7798 -1.5218  3.5117
 8594SOL     OW37243   2.779   2.059   8.715 -0.1140 -0.2843  0.2940
 8594SOL    HW137244   2.751   2.113   8.641  1.6194  0.1111 -0.0808
 8594SOL    HW237245   2.792   1.972   8.677 -0.1388  1.7085 -4.3725
 8595SOL     OW37246   3.253   1.873   0.008  0.4781 -0.2687 -0.0973
 8595SOL    HW137247   3.309   1.897   0.081 -0.6320 -2.9015  1.6119
 8595SOL    HW237248   3.197   1.805   0.046  1.2374 -0.9333 -0.1829
 8596SOL     OW37249   0.262   4.336   8.518 -0.2549 -0.4746  0.3194
 8596SOL    HW137250   0.299   4.414   8.478 -0.6460 -1.6715 -2.4149
 8596SOL    HW237251   0.183   4.370   8.558 -0.7434 -1.4058  0.1471
 8597SOL     OW37252   1.080   3.518   4.594 -0.3740  0.0697 -0.3649
 8597SOL    HW137253   1.033   3.537   4.513 -2.7475 -1.5196  0.6350
 8597SOL    HW237254   1.141   3.592   4.600  1.8768 -1.7836 -0.5291
 8598SOL     OW37255   1.000   3.499   2.829 -1.2009  0.1349  0.5276
 8598SOL    HW137256   0.922   3.491   2.773 -0.9083 -1.8777  0.4004
 8598SOL    HW237257   1.056   3.438   2.781 -0.7348  0.4777  0.6358
 8599SOL     OW37258   2.950   3.430  13.572  0.2936 -0.3757  0.1536
 8599SOL    HW137259   2.991   3.470  13.649  1.5461 -2.0944  0.3696
 8599SOL    HW237260   2.991   3.482  13.503 -0.4269  1.6295  1.2124
 8600SOL     OW37261   2.061   4.199   7.594  0.1225 -0.3927 -0.4399
 8600SOL    HW137262   2.097   4.248   7.519  0.4099 -0.3058 -0.2475
 8600SOL    HW237263   2.090   4.253   7.668  0.8282  0.1507 -1.1063
 8601SOL     OW37264   4.449   3.013   9.403 -0.3705 -0.1293 -0.1926
 8601SOL    HW137265   4.362   2.985   9.374 -1.1810  0.8162  1.2702
 8601SOL    HW237266   4.475   3.087   9.348  2.6097 -0.8112  0.3030
 8602SOL     OW37267   4.271   2.839   7.228  0.3008 -0.1236 -0.2585
 8602SOL    HW137268   4.247   2.809   7.316  1.6108 -1.3337 -0.3239
 8602SOL    HW237269   4.353   2.797   7.204  0.9480  1.2212 -0.4325
 8603SOL     OW37270   1.705   1.433   7.768  0.7467  0.5911 -0.1365
 8603SOL    HW137271   1.702   1.408   7.861  1.6824 -0.3786 -0.3584
 8603SOL    HW237272   1.795   1.407   7.746  0.6515  0.1546 -0.0068
 8604SOL     OW37273   2.839   1.683   4.763 -0.4980  0.6256 -0.4263
 8604SOL    HW137274   2.777   1.709   4.831  0.0519  2.0812 -0.4651
 8604SOL    HW237275   2.789   1.732   4.698 -2.3425 -1.7482 -0.7779
 8605SOL     OW37276   2.198   0.541   1.019  0.0768 -0.1039  0.6015
 8605SOL    HW137277   2.245   0.459   1.035 -1.8314 -0.9295  2.0579
 8605SOL    HW237278   2.170   0.533   0.928  0.4552  3.9272  0.1414
 8606SOL     OW37279   3.753   1.133  14.407  0.3040 -0.1502 -0.4900
 8606SOL    HW137280   3.726   1.127  14.499  1.7087  0.6730 -0.0121
 8606SOL    HW237281   3.826   1.195  14.406 -1.2954  1.7474  0.5118
 8607SOL     OW37282   0.952   3.354  10.303  0.2019 -0.2875  0.1764
 8607SOL    HW137283   0.932   3.404  10.382  3.4674  0.3726  0.5677
 8607SOL    HW237284   1.047   3.361  10.294  0.1518  1.9755  1.4040
 8608SOL     OW37285   3.735   3.496   1.949  0.3889  0.5986  0.1386
 8608SOL    HW137286   3.715   3.555   2.022 -1.1759  2.9511 -2.2147
 8608SOL    HW237287   3.650   3.465   1.917  0.8449 -1.0296  0.5121
 8609SOL     OW37288   3.906   2.271   3.775 -0.5885 -0.6972 -0.3601
 8609SOL    HW137289   3.825   2.240   3.816 -0.0561  0.3846  1.5134
 8609SOL    HW237290   3.889   2.362   3.752  2.6495 -0.6825 -2.6679
 8610SOL     OW37291   4.504   3.942   6.302  0.2919 -0.1303 -0.1757
 8610SOL    HW137292   4.491   3.970   6.211 -2.5294  0.0955  0.2989
 8610SOL    HW237293   4.587   3.984   6.324  0.3714 -0.4042  0.0409
 8611SOL     OW37294   0.520   3.280   4.443 -0.3537 -0.2528 -0.3456
 8611SOL    HW137295   0.499   3.188   4.460 -1.2418  0.1991  1.0399
 8611SOL    HW237296   0.555   3.276   4.354  0.4740  1.8860 -0.1215
 8612SOL     OW37297   1.449   3.428   6.711 -0.3777 -0.3140 -0.2611
 8612SOL    HW137298   1.414   3.501   6.762 -1.6798  0.1779 -1.8137
 8612SOL    HW237299   1.395   3.357   6.745  0.4061 -0.5841  0.3993
 8613SOL     OW37300   2.198   4.420   7.431 -0.4439  0.1005 -0.3010
 8613SOL    HW137301   2.227   4.510   7.415 -2.2967  0.3874 -1.9248
 8613SOL    HW237302   2.255   4.403   7.506 -1.2905  0.6910  0.4710
 8614SOL     OW37303   2.140   3.620   7.936  0.2083 -0.3904  0.1433
 8614SOL    HW137304   2.077   3.548   7.939 -0.4190  0.1584  0.1860
 8614SOL    HW237305   2.080   3.693   7.954 -3.6014 -4.3099  3.4971
 8615SOL     OW37306   3.129   2.794   2.896  0.4252  0.7211 -0.3557
 8615SOL    HW137307   3.214   2.771   2.932  0.2145  1.3861  0.5431
 8615SOL    HW237308   3.111   2.867   2.955  0.0212  0.6399 -0.3720
 8616SOL     OW37309   4.499   0.490   9.043 -0.4976 -0.1883  0.2965
 8616SOL    HW137310   4.494   0.489   8.947 -2.6074  1.3193  0.3928
 8616SOL    HW237311   4.595   0.489   9.047 -0.4422  0.1916 -0.7720
 8617SOL     OW37312   3.567   2.573  11.675 -0.6971 -0.2417  0.1049
 8617SOL    HW137313   3.506   2.500  11.660  0.4065 -1.6010  2.3631
 8617SOL    HW237314   3.545   2.605  11.762 -0.6954  2.6843 -0.9597
 8618SOL     OW37315   2.709   0.706  10.979  0.3565 -0.1346  0.4126
 8618SOL    HW137316   2.632   0.740  11.024 -0.1384  0.0201 -0.5565
 8618SOL    HW237317   2.703   0.741  10.890  0.7149 -0.0990  0.3990
 8619SOL     OW37318   3.845   3.354   4.255 -0.9002 -0.2351 -0.3390
 8619SOL    HW137319   3.872   3.420   4.319  2.8943 -2.5805  0.4500
 8619SOL    HW237320   3.832   3.277   4.310  0.8648 -0.3427 -0.0746
 8620SOL     OW37321   2.647   2.805   7.788  0.0486  0.3740 -0.2048
 8620SOL    HW137322   2.625   2.841   7.875 -2.0151  0.2813 -0.6852
 8620SOL    HW237323   2.564   2.828   7.746  0.2508 -0.7356 -1.2141
 8621SOL     OW37324   1.728   1.648   1.284 -0.9617  0.5760  0.5917
 8621SOL    HW137325   1.776   1.727   1.260  0.0899  0.1568  1.3432
 8621SOL    HW237326   1.734   1.642   1.379  1.1774  0.3113  0.4288
 8622SOL     OW37327   1.268   4.285   9.912  0.1044  0.2446  0.2410
 8622SOL    HW137328   1.260   4.337   9.832 -4.9942  0.1891  0.7289
 8622SOL    HW237329   1.315   4.208   9.879 -0.4451  0.8890 -2.0762
 8623SOL     OW37330   0.183   0.627   4.779  0.2278 -0.2079 -0.1215
 8623SOL    HW137331   0.103   0.667   4.747 -0.3507 -1.4316 -0.1756
 8623SOL    HW237332   0.151   0.615   4.868  2.3392 -2.7687  0.3098
 8624SOL     OW37333   0.834   2.684   6.732  0.2307 -0.2023  0.5481
 8624SOL    HW137334   0.815   2.610   6.676  0.2240 -0.6937  1.1954
 8624SOL    HW237335   0.925   2.697   6.709  0.1550  2.0511  1.5076
 8625SOL     OW37336   1.757   3.216   4.063  0.1515 -0.2013 -0.4794
 8625SOL    HW137337   1.687   3.171   4.017  0.5051 -1.5921  0.3290
 8625SOL    HW237338   1.785   3.264   3.985 -0.1152  0.6107 -0.0813
 8626SOL     OW37339   2.416   1.954   7.725  0.8180  0.5112 -0.5719
 8626SOL    HW137340   2.418   2.020   7.795 -0.9198  0.1281 -0.1547
 8626SOL    HW237341   2.395   2.008   7.649  2.3386 -2.5749 -3.1902
 8627SOL     OW37342   3.997   0.708   2.486 -0.5305 -0.1368 -0.4784
 8627SOL    HW137343   4.034   0.791   2.516  1.7433 -0.7175 -1.6620
 8627SOL    HW237344   3.989   0.720   2.391  2.3475 -0.4943 -0.7767
 8628SOL     OW37345   3.668   1.267  13.312 -0.1153  0.4597 -0.2091
 8628SOL    HW137346   3.760   1.288  13.298 -0.3194  1.4710 -0.0370
 8628SOL    HW237347   3.660   1.281  13.406  1.7910 -0.9509  0.1501
 8629SOL     OW37348   3.456   4.516   0.001  0.0061  0.3709 -0.2568
 8629SOL    HW137349   3.422   4.587   0.055  2.5375  2.3470 -1.2357
 8629SOL    HW237350   3.520   4.560  17.631 -0.9267 -0.7359 -2.1934
 8630SOL     OW37351   2.049   1.570   2.665 -0.3325  0.0557  0.3089
 8630SOL    HW137352   2.018   1.655   2.632 -2.6691 -0.3361  1.5176
 8630SOL    HW237353   2.110   1.548   2.595 -1.0997 -0.3463 -0.2341
 8631SOL     OW37354   2.816   1.765   6.605  0.6474  0.0939  0.4328
 8631SOL    HW137355   2.833   1.759   6.511  1.0480  2.8770  0.3113
 8631SOL    HW237356   2.861   1.690   6.644  1.1908  0.5976  0.7741
 8632SOL     OW37357   2.683   1.687   4.056  0.2427  0.5514 -0.0349
 8632SOL    HW137358   2.667   1.603   4.014  4.0732  0.2455 -0.8521
 8632SOL    HW237359   2.600   1.730   4.034  0.7731  2.1942  1.1197
 8633SOL     OW37360   3.018   2.077  17.088  0.6506  0.0095  0.9824
 8633SOL    HW137361   3.091   2.138  17.078 -0.3272  0.5385 -2.9950
 8633SOL    HW237362   3.053   2.005  17.036  2.3009  1.2866  0.3394
 8634SOL     OW37363   0.615   0.812   7.129  0.1824 -0.4666 -0.3812
 8634SOL    HW137364   0.677   0.784   7.060  0.1052  0.7073 -0.9239
 8634SOL    HW237365   0.672   0.816   7.206  1.4336  0.9682 -1.3732
 8635SOL     OW37366   1.345   2.243   8.632 -0.0166 -0.6025  0.3186
 8635SOL    HW137367   1.257   2.245   8.671  1.6719 -1.8155  4.1462
 8635SOL    HW237368   1.339   2.177   8.563  0.5259 -0.7701  0.4356
 8636SOL     OW37369   2.576   1.501  16.764  0.7702 -0.0185  0.6977
 8636SOL    HW137370   2.498   1.485  16.816  0.1820 -0.0096 -0.1811
 8636SOL    HW237371   2.633   1.512  16.840  0.9902 -4.3302  1.1797
 8637SOL     OW37372   2.055   2.796  10.502 -0.1733 -0.6349 -0.1020
 8637SOL    HW137373   2.000   2.815  10.578  1.9361  2.5319  0.6628
 8637SOL    HW237374   2.005   2.718  10.479 -2.9207  1.0714  0.0319
 8638SOL     OW37375   1.767   3.489   7.350 -0.5441 -0.8029 -0.1891
 8638SOL    HW137376   1.701   3.555   7.374 -0.1329 -0.0805 -1.0466
 8638SOL    HW237377   1.851   3.529   7.375 -1.6726 -0.3946  3.0137
 8639SOL     OW37378   1.215   4.719   2.909  0.0423 -0.1371 -0.3525
 8639SOL    HW137379   1.264   4.709   2.991 -1.7958 -2.4343  0.4849
 8639SOL    HW237380   1.215   4.627   2.885 -2.9255 -0.1115 -0.4728
 8640SOL     OW37381   0.390   3.201   5.817 -0.1053 -0.1945  0.0889
 8640SOL    HW137382   0.412   3.279   5.765 -1.1267 -0.0654 -0.1594
 8640SOL    HW237383   0.351   3.144   5.751  0.0909 -0.6408  0.3591
 8641SOL     OW37384   2.823   2.015   1.355  0.7923  0.2555  0.0659
 8641SOL    HW137385   2.889   1.982   1.417 -0.5532 -0.3241  1.1854
 8641SOL    HW237386   2.877   2.052   1.285 -0.5857 -1.3946 -1.8320
 8642SOL     OW37387   0.457   1.384   6.269  0.4081 -0.0683  0.1983
 8642SOL    HW137388   0.511   1.315   6.230  1.6896  1.5828 -0.9631
 8642SOL    HW237389   0.528   1.417   6.324  0.0120  0.5848  0.3261
 8643SOL     OW37390   0.596   2.083   4.242  0.1134  0.0788 -0.1776
 8643SOL    HW137391   0.662   2.063   4.176  0.5762  0.9468  0.0266
 8643SOL    HW237392   0.515   2.051   4.202  0.2591  0.0823 -0.4713
 8644SOL     OW37393   2.833   3.113   4.112 -0.4855  0.7937 -0.3479
 8644SOL    HW137394   2.758   3.160   4.077  0.5013  1.6399 -1.3231
 8644SOL    HW237395   2.886   3.190   4.134  1.5392 -0.8393  0.5416
 8645SOL     OW37396   0.633   1.188  13.263  0.0455 -0.7229  0.2976
 8645SOL    HW137397   0.674   1.240  13.193 -0.7647  0.3547  0.6215
 8645SOL    HW237398   0.660   1.099  13.243 -1.5409 -1.0782 -0.1892
 8646SOL     OW37399   0.860   0.398   0.005 -0.1270  0.1374 -0.1212
 8646SOL    HW137400   0.872   0.382   0.099 -2.3181  1.4058  0.3651
 8646SOL    HW237401   0.868   0.493   0.002  1.5952  0.0547  1.9277
 8647SOL     OW37402   1.675   3.849   8.591  0.2803  0.0752  0.1844
 8647SOL    HW137403   1.726   3.771   8.616  3.1379  1.9894  0.3317
 8647SOL    HW237404   1.745   3.904   8.556  0.4143 -0.5965 -0.5965
 8648SOL     OW37405   1.253   2.965   3.097 -0.4014 -0.0193  0.8436
 8648SOL    HW137406   1.309   3.000   3.166  0.6084 -1.4352  0.7472
 8648SOL    HW237407   1.307   2.954   3.018 -1.3281  1.4006  0.0109
 8649SOL     OW37408   1.054   2.690   4.528 -0.5849  0.1861  0.1475
 8649SOL    HW137409   1.055   2.615   4.588 -1.1025  0.5314  0.5872
 8649SOL    HW237410   0.999   2.648   4.462  0.2812  0.9074 -1.0430
 8650SOL     OW37411   0.291   4.213  11.319 -0.5304 -0.1152  0.6736
 8650SOL    HW137412   0.323   4.237  11.406  0.8967  0.8328 -0.1159
 8650SOL    HW237413   0.365   4.240  11.265  0.2815 -1.2762  1.2123
 8651SOL     OW37414   0.990   2.817   7.006  0.2218 -0.2278 -0.7678
 8651SOL    HW137415   0.951   2.898   6.975  0.2187 -0.2264 -0.7601
 8651SOL    HW237416   0.947   2.761   6.941  0.9537 -0.3447 -1.1457
 8652SOL     OW37417   4.287   0.346   5.733  0.2115  0.3177 -0.4728
 8652SOL    HW137418   4.307   0.437   5.756 -1.7477 -0.1314  3.0415
 8652SOL    HW237419   4.330   0.351   5.648 -2.1807  0.1236 -1.6987
 8653SOL     OW37420   3.859   2.057   3.258 -0.3002  0.1939  0.7315
 8653SOL    HW137421   3.852   2.020   3.170  1.5964 -1.7685  1.4077
 8653SOL    HW237422   3.934   2.114   3.244 -1.8260  2.0359 -0.0756
 8654SOL     OW37423   4.489   0.963  13.235  0.0861  0.5728 -0.6755
 8654SOL    HW137424   4.442   1.040  13.266 -0.2379 -0.8885  2.4015
 8654SOL    HW237425   4.413   0.907  13.220  1.0717 -1.4096  1.7841
 8655SOL     OW37426   1.614   4.114   2.686  0.1630 -0.4699 -0.1476
 8655SOL    HW137427   1.567   4.076   2.760  0.1731 -1.0754 -0.4481
 8655SOL    HW237428   1.672   4.039   2.671 -0.4346 -0.7441 -1.1632
 8656SOL     OW37429   2.520   0.196   8.821 -0.0027  0.5058  0.0499
 8656SOL    HW137430   2.528   0.131   8.891 -0.0320 -1.4700 -1.7878
 8656SOL    HW237431   2.558   0.278   8.853  0.6678 -0.1982  1.0387
 8657SOL     OW37432   3.140   0.923  16.682 -0.1598 -0.0451  0.6051
 8657SOL    HW137433   3.205   0.933  16.613 -2.5250 -2.1790 -1.9542
 8657SOL    HW237434   3.078   0.870  16.631 -0.5538  2.0753 -1.1279
 8658SOL     OW37435   0.938   0.982   3.911  0.6669  0.7954 -0.4135
 8658SOL    HW137436   1.011   1.021   3.959 -1.4467  3.8705  0.2718
 8658SOL    HW237437   0.916   1.053   3.851 -1.7769  1.0383  0.7741
 8659SOL     OW37438   1.254   0.894   1.512  0.1395  0.0878  0.2226
 8659SOL    HW137439   1.323   0.891   1.447  1.0057 -1.9115  1.2517
 8659SOL    HW237440   1.176   0.912   1.459 -0.3221 -2.0907  0.1614
 8660SOL     OW37441   4.101   3.130   8.917 -0.1058  0.0167  0.6249
 8660SOL    HW137442   4.112   3.106   8.825  1.0305 -1.0590  1.0365
 8660SOL    HW237443   4.194   3.126   8.940 -0.0211 -0.6594  0.1439
 8661SOL     OW37444   0.940   0.117   9.357 -0.1127 -0.5748  0.1755
 8661SOL    HW137445   1.021   0.112   9.306 -0.5018  0.1049 -0.5212
 8661SOL    HW237446   0.946   0.211   9.378 -1.0459 -1.1969  3.1717
 8662SOL     OW37447   0.952   0.677   2.713  0.3874  0.1650 -0.1905
 8662SOL    HW137448   0.919   0.666   2.802 -0.6886 -0.1173 -0.6307
 8662SOL    HW237449   1.030   0.622   2.719 -0.0972 -0.5140 -0.1668
 8663SOL     OW37450   1.925   0.427   8.052  0.1362 -0.1027 -0.0477
 8663SOL    HW137451   1.899   0.416   7.961 -1.0636  0.6517  0.2021
 8663SOL    HW237452   1.863   0.493   8.083  0.9390  0.3020  0.6913
 8664SOL     OW37453   3.096   0.234   7.171  0.7415  0.2360  0.2828
 8664SOL    HW137454   3.009   0.202   7.192  0.2659  3.8779  3.9425
 8664SOL    HW237455   3.122   0.170   7.104 -1.3704 -1.1057  0.7653
 8665SOL     OW37456   2.168   2.982  16.529  0.5780 -0.2687  0.0008
 8665SOL    HW137457   2.157   2.952  16.619 -1.6662  0.5981  0.0207
 8665SOL    HW237458   2.257   3.017  16.533  1.0659 -1.5400  0.1928
 8666SOL     OW37459   3.635   4.263   5.474  0.1894  0.4585  0.3972
 8666SOL    HW137460   3.654   4.187   5.529 -0.3204  0.5640  0.7218
 8666SOL    HW237461   3.561   4.225   5.427  1.2918 -2.4005  0.9300
 8667SOL     OW37462   1.021   0.629   6.532  0.1374  0.2637 -0.0256
 8667SOL    HW137463   0.937   0.646   6.574  0.7998  0.2092  1.3209
 8667SOL    HW237464   1.051   0.552   6.582 -2.4310  0.5962  2.0494
 8668SOL     OW37465   1.630   1.037   3.191 -0.2735 -0.3287 -0.4068
 8668SOL    HW137466   1.632   0.946   3.162  0.1966  0.4062 -2.6418
 8668SOL    HW237467   1.537   1.049   3.208 -1.1698 -2.9077 -3.5034
 8669SOL     OW37468   3.158   0.456   6.743  0.5207 -0.1211  0.4179
 8669SOL    HW137469   3.198   0.526   6.795  1.0454 -1.5181  1.8967
 8669SOL    HW237470   3.101   0.417   6.809 -0.2650 -2.2326 -1.4939
 8670SOL     OW37471   3.051   0.625   6.010 -0.1063 -0.4197  0.4949
 8670SOL    HW137472   3.027   0.595   5.922 -0.5971  1.3119  0.0337
 8670SOL    HW237473   3.029   0.557   6.073  1.1846 -0.5990  0.7325
 8671SOL     OW37474   1.707   1.521   3.188  0.6142  0.7615  0.0460
 8671SOL    HW137475   1.779   1.578   3.214  0.2231  1.8967 -1.3584
 8671SOL    HW237476   1.720   1.515   3.093  2.3324  0.1134  0.3313
 8672SOL     OW37477   3.867   0.723  17.158 -1.0446 -0.3817 -0.6533
 8672SOL    HW137478   3.784   0.770  17.160 -0.9171 -0.2738  2.0123
 8672SOL    HW237479   3.904   0.730  17.069  2.0149  0.1050  0.6416
 8673SOL     OW37480   4.096   2.194   6.974  0.0711 -0.5880 -0.1338
 8673SOL    HW137481   4.178   2.224   7.011 -0.0085  0.0850 -0.5090
 8673SOL    HW237482   4.033   2.221   7.041 -1.0381 -1.6265 -0.7482
 8674SOL     OW37483   1.909   2.219   5.789 -0.0769 -0.0633  0.2814
 8674SOL    HW137484   1.958   2.240   5.710  0.6260 -0.5967  0.5667
 8674SOL    HW237485   1.976   2.172   5.839  2.0137 -1.4059 -3.8476
 8675SOL     OW37486   1.977   2.200   5.279  0.0841  0.6736 -0.0178
 8675SOL    HW137487   2.020   2.277   5.243  1.4975  0.5725  1.4632
 8675SOL    HW237488   1.911   2.174   5.215  1.3270 -1.6090 -0.3903
 8676SOL     OW37489   3.821   2.192   5.651  0.5118  0.3819 -0.1323
 8676SOL    HW137490   3.801   2.252   5.722 -2.9631 -1.5970  0.5740
 8676SOL    HW237491   3.800   2.247   5.575  1.3821  0.2786 -0.4485
 8677SOL     OW37492   3.206   1.541  10.876  0.2799 -0.0480 -0.0772
 8677SOL    HW137493   3.232   1.616  10.930  0.3376 -0.7140  0.8337
 8677SOL    HW237494   3.115   1.538  10.908 -0.0693  1.0903 -0.9546
 8678SOL     OW37495   2.101   1.825   6.029 -0.5507 -0.3773  0.4606
 8678SOL    HW137496   2.030   1.887   6.012  0.0530  0.6834  1.8546
 8678SOL    HW237497   2.078   1.780   6.110 -0.6028 -1.2434 -0.0291
 8679SOL     OW37498   3.477   1.262   8.909 -0.4591  0.0676  0.2258
 8679SOL    HW137499   3.394   1.216   8.893 -0.3812 -0.6000  1.7621
 8679SOL    HW237500   3.455   1.289   8.998 -1.4007 -0.7744  0.2517
 8680SOL     OW37501   3.918   1.258   6.138  0.3539 -0.3712 -0.5459
 8680SOL    HW137502   3.929   1.340   6.187 -0.7959 -0.8451  0.4957
 8680SOL    HW237503   3.866   1.204   6.198 -0.9460  1.1388 -0.2974
 8681SOL     OW37504   4.486   2.506   5.993  0.2485 -0.3500 -0.0973
 8681SOL    HW137505   4.545   2.574   5.960 -1.0540  1.2364  0.8812
 8681SOL    HW237506   4.538   2.428   5.971  0.9593 -0.2188  1.1693
 8682SOL     OW37507   1.467   1.298  16.235 -0.6771 -0.3489  0.2156
 8682SOL    HW137508   1.416   1.281  16.315  0.4770  0.6138  1.1682
 8682SOL    HW237509   1.424   1.238  16.175 -2.7184  0.9690  0.3709
 8683SOL     OW37510   3.025   2.360   3.289  0.0901 -0.4249 -0.3369
 8683SOL    HW137511   3.068   2.311   3.219  1.5055  0.2948  0.0219
 8683SOL    HW237512   2.951   2.400   3.245 -1.2310 -1.4641  0.9264
 8684SOL     OW37513   1.831   2.437   5.107  0.3826  0.2866 -0.1275
 8684SOL    HW137514   1.913   2.432   5.155 -0.3845 -0.3709  1.1152
 8684SOL    HW237515   1.849   2.386   5.028  0.6065 -1.2739  0.9408
 8685SOL     OW37516   1.088   0.615  12.429 -0.4752  0.2237  0.1763
 8685SOL    HW137517   1.077   0.700  12.386 -1.5432  0.3867  0.7612
 8685SOL    HW237518   1.089   0.634  12.523  0.5370 -0.4941  0.3095
 8686SOL     OW37519   2.813   2.384   7.894 -0.2651 -0.1223 -0.4678
 8686SOL    HW137520   2.724   2.390   7.929  0.0974  1.5390  0.1763
 8686SOL    HW237521   2.801   2.445   7.822  0.2209 -0.1176 -0.5452
 8687SOL     OW37522   0.755   4.718   8.959 -0.3351 -0.0963  0.0462
 8687SOL    HW137523   0.713   0.013   8.874 -1.0793 -1.3138  0.1806
 8687SOL    HW237524   0.681   0.006   9.019  1.1059 -0.4163  1.8370
 8688SOL     OW37525   0.243   3.455   6.636 -0.4328  0.1957  0.3347
 8688SOL    HW137526   0.331   3.418   6.628 -0.5705  0.0923 -0.8091
 8688SOL    HW237527   0.203   3.427   6.554  0.3540 -1.5062  0.5378
 8689SOL     OW37528   2.959   0.160   6.790 -0.0543  0.1736 -0.1255
 8689SOL    HW137529   2.966   0.236   6.847 -0.6553 -0.9228  1.4305
 8689SOL    HW237530   3.036   0.113   6.823  0.6588  1.1230 -0.4560
 8690SOL     OW37531   0.880   2.603   4.332 -0.0504  0.5345  0.1171
 8690SOL    HW137532   0.902   2.566   4.247 -0.8083 -0.3301  0.2975
 8690SOL    HW237533   0.797   2.648   4.316 -0.5778  0.0065  1.3423
 8691SOL     OW37534   2.931   2.188   8.923 -0.0745 -0.1030 -0.6174
 8691SOL    HW137535   2.893   2.171   8.837 -0.9471 -1.5833  0.0492
 8691SOL    HW237536   2.847   2.211   8.965 -0.1212  0.7289 -1.1655
 8692SOL     OW37537   0.575   3.711   4.861  0.4789 -0.1778  0.1356
 8692SOL    HW137538   0.540   3.672   4.781  1.1298  1.7276 -1.0685
 8692SOL    HW237539   0.640   3.643   4.880 -0.1419 -0.2958  1.8538
 8693SOL     OW37540   2.325   1.491  15.416  0.8067 -0.5242  0.0982
 8693SOL    HW137541   2.343   1.505  15.508  2.3786 -1.5617 -0.0423
 8693SOL    HW237542   2.268   1.562  15.386  0.7949 -0.8698 -0.7139
 8694SOL     OW37543   4.034   1.825   0.293  0.1185 -0.8036 -0.2864
 8694SOL    HW137544   4.060   1.832   0.201  0.4792  2.1545  0.0390
 8694SOL    HW237545   4.092   1.883   0.342  0.5764  0.0135 -1.8009
 8695SOL     OW37546   4.649   2.034   6.560 -0.3778  0.1920 -0.0788
 8695SOL    HW137547   4.652   2.081   6.643 -0.3102 -1.8612  1.0680
 8695SOL    HW237548   4.561   1.996   6.565 -1.2807  2.4004  0.7453
 8696SOL     OW37549   0.080   0.097   8.937  0.4965  0.0321 -0.2359
 8696SOL    HW137550   0.004   0.052   8.899 -0.3540  2.8476 -1.8603
 8696SOL    HW237551   0.136   0.105   8.860 -0.9954  1.4786 -1.1764
 8697SOL     OW37552   2.124   0.177   2.687 -0.4945  0.0030  0.3620
 8697SOL    HW137553   2.100   0.230   2.763 -0.0617  0.7270 -0.0015
 8697SOL    HW237554   2.216   0.200   2.676 -0.0183 -0.8326  2.5588
 8698SOL     OW37555   2.976   3.140   0.646 -0.5358 -0.1131 -0.1489
 8698SOL    HW137556   3.004   3.209   0.706  1.2938 -0.5881 -0.4654
 8698SOL    HW237557   2.926   3.084   0.705  2.3638 -1.7829  0.7597
 8699SOL     OW37558   3.139   4.685  16.368 -0.4879 -0.2113  0.3826
 8699SOL    HW137559   3.059   4.647  16.402 -0.9755  1.2023  0.8064
 8699SOL    HW237560   3.198   4.609  16.376  0.1077  0.0509 -1.4855
 8700SOL     OW37561   2.070   4.691   2.951  0.1423 -0.5480 -0.2834
 8700SOL    HW137562   2.164   4.686   2.967 -0.3092 -0.1829  2.5904
 8700SOL    HW237563   2.049   4.680   2.858  0.3078 -1.6568 -0.1908
 8701SOL     OW37564   3.548   4.351  13.247  0.3422  0.6720  0.3493
 8701SOL    HW137565   3.535   4.257  13.240  1.8403  0.7099 -2.9845
 8701SOL    HW237566   3.493   4.385  13.175 -1.9591  0.0150  1.8072
 8702SOL     OW37567   4.609   0.527   4.996  0.1318 -0.0570  0.0425
 8702SOL    HW137568   4.595   0.471   4.920 -0.4248  1.6587 -1.1379
 8702SOL    HW237569   4.601   0.617   4.963  0.6240 -0.0584 -0.0842
 8703SOL     OW37570   0.696   1.149   7.478 -0.3390 -0.0584  0.1512
 8703SOL    HW137571   0.652   1.127   7.396  0.1158 -0.1055 -0.0795
 8703SOL    HW237572   0.649   1.092   7.539 -0.0618 -0.6818 -0.2218
 8704SOL     OW37573   3.765   4.435   7.932 -0.3568  0.4559 -0.3269
 8704SOL    HW137574   3.754   4.389   7.848 -1.1101 -2.3402  1.3077
 8704SOL    HW237575   3.860   4.445   7.942 -0.3333  1.6929 -1.6902
 8705SOL     OW37576   0.825   3.402   8.626 -0.2713  0.4933  0.4047
 8705SOL    HW137577   0.864   3.393   8.713  2.4320 -1.7800 -1.0110
 8705SOL    HW237578   0.799   3.494   8.625 -0.4777  0.4450  2.7996
 8706SOL     OW37579   3.615   0.393   6.472  0.2428 -0.3458 -0.1124
 8706SOL    HW137580   3.665   0.349   6.541 -0.2760 -1.9979 -0.7778
 8706SOL    HW237581   3.655   0.480   6.475  1.3448 -0.8548 -0.0519
 8707SOL     OW37582   1.595   1.013  15.619 -0.2427  0.2022  0.0167
 8707SOL    HW137583   1.658   1.056  15.560  0.0156  2.0519  1.6245
 8707SOL    HW237584   1.625   1.062  15.696 -0.7806  1.1820 -0.3901
 8708SOL     OW37585   1.346   2.144   2.126  0.5943  0.9925 -0.5083
 8708SOL    HW137586   1.324   2.131   2.218 -1.1498 -2.2781 -1.3753
 8708SOL    HW237587   1.441   2.156   2.129  0.8111 -1.2122  1.6982
 8709SOL     OW37588   3.457   1.917   3.154  0.2021 -0.2753 -0.0511
 8709SOL    HW137589   3.444   1.862   3.231 -0.5643 -0.1164 -0.0619
 8709SOL    HW237590   3.532   1.873   3.115 -1.4565 -2.8120 -0.3545
 8710SOL     OW37591   0.669   0.621   6.245 -0.8388  0.1716  0.1508
 8710SOL    HW137592   0.762   0.641   6.248 -0.7482 -0.2766  0.4359
 8710SOL    HW237593   0.661   0.619   6.150  3.2225 -0.5461 -0.1839
 8711SOL     OW37594   0.147   0.512  12.702  0.2302  0.0400 -0.3654
 8711SOL    HW137595   0.144   0.570  12.626 -3.5146  0.0241 -0.2244
 8711SOL    HW237596   0.072   0.533  12.759  0.1073 -3.2660  0.6952
 8712SOL     OW37597   1.055   0.076   1.422  0.4712  0.1828  0.8109
 8712SOL    HW137598   1.074   0.131   1.498 -3.1444 -0.6597  2.3133
 8712SOL    HW237599   1.095   4.713   1.448  0.8154  0.3571  0.8387
 8713SOL     OW37600   2.992   3.184   0.126  0.4713 -0.1880  0.1908
 8713SOL    HW137601   2.917   3.233   0.091  1.0185  0.1242 -0.5567
 8713SOL    HW237602   3.037   3.187   0.041  1.0158 -2.0585  0.4328
 8714SOL     OW37603   2.461   1.037   7.822  0.1240  0.0169  0.0224
 8714SOL    HW137604   2.477   0.951   7.784  1.9435  0.3092  0.1087
 8714SOL    HW237605   2.549   1.073   7.810 -0.2369  1.0958  0.5952
 8715SOL     OW37606   2.052   3.035   5.044 -0.2736  0.5031  0.4438
 8715SOL    HW137607   2.022   2.972   4.979  2.8512 -0.7268  0.1999
 8715SOL    HW237608   2.088   3.105   4.990 -1.2124  1.5657  1.1904
 8716SOL     OW37609   1.213   2.160   3.184  0.1877  0.4051 -0.1164
 8716SOL    HW137610   1.146   2.164   3.116 -0.6233  1.2607  0.7401
 8716SOL    HW237611   1.169   2.104   3.247  2.1280  1.0417  1.8149
 8717SOL     OW37612   2.287   1.415   3.538 -0.3278  0.0049 -0.1903
 8717SOL    HW137613   2.281   1.328   3.499 -1.1746  0.4010 -0.9628
 8717SOL    HW237614   2.209   1.414   3.594  1.5061 -0.7555  2.3651
 8718SOL     OW37615   3.538   0.030  15.924 -0.4783 -0.2250  0.0512
 8718SOL    HW137616   3.483   0.050  15.848  0.0417  1.6164  0.1515
 8718SOL    HW237617   3.625   0.024  15.885 -0.6998  2.3231 -0.8291
 8719SOL     OW37618   4.205   0.833   8.886 -0.1957 -0.6269 -0.4813
 8719SOL    HW137619   4.164   0.753   8.855  0.9763 -1.2383 -0.4420
 8719SOL    HW237620   4.130   0.867   8.935 -0.1191  2.4129 -2.3858
 8720SOL     OW37621   3.827   1.762   7.695 -0.3523 -0.4449 -0.4283
 8720SOL    HW137622   3.872   1.703   7.756  0.2650  0.7486  0.2755
 8720SOL    HW237623   3.794   1.830   7.753  2.4711  1.3358 -0.8898
 8721SOL     OW37624   3.442   0.939   3.193  0.4030  0.1827 -0.0967
 8721SOL    HW137625   3.391   0.869   3.152 -0.1203  0.6684 -0.2726
 8721SOL    HW237626   3.502   0.888   3.247 -2.3328 -1.7326  1.0885
 8722SOL     OW37627   0.819   3.162   6.634  0.2544 -0.4973  0.4640
 8722SOL    HW137628   0.870   3.096   6.588 -1.8171 -3.3252  2.1688
 8722SOL    HW237629   0.874   3.239   6.621 -0.7870  0.3472  1.0038
 8723SOL     OW37630   4.033   4.457   3.932  0.4491  0.3047 -0.5167
 8723SOL    HW137631   3.952   4.508   3.929 -0.0213 -0.4669 -0.7694
 8723SOL    HW237632   4.037   4.406   3.852  0.2945  1.2360 -1.1242
 8724SOL     OW37633   1.177   0.751   4.780 -0.1802 -0.0266 -0.0434
 8724SOL    HW137634   1.268   0.730   4.757  0.1034 -1.1260  2.1559
 8724SOL    HW237635   1.169   0.813   4.707  2.2210 -1.5767 -1.6123
 8725SOL     OW37636   1.513   1.812   4.480 -0.3563 -0.3740  0.4333
 8725SOL    HW137637   1.497   1.718   4.495  0.0252 -0.6044 -0.6091
 8725SOL    HW237638   1.606   1.815   4.460 -0.7583  0.9319 -1.2228
 8726SOL     OW37639   3.244   2.887   6.511  0.1983  0.1304  0.8417
 8726SOL    HW137640   3.188   2.944   6.457 -0.2736  1.1221  2.3995
 8726SOL    HW237641   3.331   2.892   6.473  0.3626  2.7721  1.6046
 8727SOL     OW37642   2.206   1.443   4.024  0.0511  0.0322  0.0646
 8727SOL    HW137643   2.152   1.364   4.024  0.9360 -0.5747 -1.0734
 8727SOL    HW237644   2.285   1.403   3.986  0.3638 -0.5266  1.2770
 8728SOL     OW37645   3.074   3.409  14.203  0.2635  0.4842 -0.2983
 8728SOL    HW137646   3.090   3.324  14.244 -0.1156  1.4462  1.8635
 8728SOL    HW237647   3.046   3.375  14.118  0.1966  2.2241 -0.9753
 8729SOL     OW37648   0.105   1.861  15.576 -0.5769  0.2549 -0.2271
 8729SOL    HW137649   0.150   1.822  15.650  1.0193  2.4280 -0.0566
 8729SOL    HW237650   0.077   1.783  15.526 -1.6140  0.2566  0.3604
 8730SOL     OW37651   0.285   3.257  11.823 -0.4013  0.3505  0.3042
 8730SOL    HW137652   0.308   3.289  11.736 -0.7414 -2.4615 -0.8028
 8730SOL    HW237653   0.234   3.333  11.852 -1.8746 -0.2659 -0.6707
 8731SOL     OW37654   0.432   2.461   9.044  0.2381  0.7257  0.1141
 8731SOL    HW137655   0.503   2.468   9.107 -1.1513  0.6822  1.6788
 8731SOL    HW237656   0.359   2.451   9.105 -0.7913  3.1517 -0.7238
 8732SOL     OW37657   2.550   1.424   4.249 -0.7250  0.2998 -0.2319
 8732SOL    HW137658   2.479   1.489   4.242 -0.7847  0.0548 -1.8621
 8732SOL    HW237659   2.522   1.357   4.311 -3.3010  2.1753  0.6484
 8733SOL     OW37660   0.228   2.278   9.146 -0.2650  0.3704  0.1927
 8733SOL    HW137661   0.270   2.208   9.196  0.7808  1.1048  0.3522
 8733SOL    HW237662   0.169   2.227   9.091 -0.8140  1.9878 -0.7277
 8734SOL     OW37663   3.597   2.211   3.742 -0.0365  0.1401  0.0258
 8734SOL    HW137664   3.568   2.292   3.700  0.3771 -0.7240 -1.9372
 8734SOL    HW237665   3.540   2.215   3.819 -0.6297  1.0967 -0.4597
 8735SOL     OW37666   3.898   1.331   7.354  0.0193 -0.5907 -0.8537
 8735SOL    HW137667   3.971   1.357   7.297 -0.6478  3.2324  0.0492
 8735SOL    HW237668   3.899   1.397   7.424 -0.2782 -0.3313 -1.0957
 8736SOL     OW37669   2.776   4.087   3.626 -0.1799 -0.0385  0.1454
 8736SOL    HW137670   2.843   4.141   3.584  0.7311 -1.3537 -0.1132
 8736SOL    HW237671   2.793   4.000   3.589 -0.4643  0.1050 -0.3146
 8737SOL     OW37672   1.483   2.064   3.881 -0.3777  0.1727  0.5506
 8737SOL    HW137673   1.414   2.057   3.815 -2.1456  3.8934  2.0264
 8737SOL    HW237674   1.422   2.049   3.954 -0.7096  1.5982  0.5756
 8738SOL     OW37675   0.952   2.992   2.544  0.0245 -0.2498 -0.1294
 8738SOL    HW137676   0.937   3.086   2.560  1.0948  0.0092 -0.6354
 8738SOL    HW237677   0.881   2.958   2.599  1.8781 -0.3017  2.2513
 8739SOL     OW37678   2.896   3.113   5.480  0.4752 -0.9929  0.3640
 8739SOL    HW137679   2.859   3.108   5.568 -2.0847 -2.9483 -0.8603
 8739SOL    HW237680   2.828   3.083   5.420 -0.1514 -0.7509  0.9600
 8740SOL     OW37681   3.163   1.520   3.719  0.1150 -0.1236  0.2378
 8740SOL    HW137682   3.108   1.519   3.797  0.6206  1.3062  0.6281
 8740SOL    HW237683   3.246   1.537   3.764 -0.0207 -1.8631  1.1170
 8741SOL     OW37684   0.273   3.458  10.660  0.4435  0.4953  0.0457
 8741SOL    HW137685   0.206   3.485  10.598 -1.2433  1.4273  2.2671
 8741SOL    HW237686   0.343   3.519  10.637  0.7652 -0.0244 -0.3542
 8742SOL     OW37687   2.821   4.567   6.436  0.1938  0.3451  0.9897
 8742SOL    HW137688   2.836   4.516   6.516  1.1457  0.4490  0.8860
 8742SOL    HW237689   2.902   4.563   6.385 -0.7586  1.3538 -0.6059
 8743SOL     OW37690   4.469   3.874  14.607  0.0972  0.0764  0.0006
 8743SOL    HW137691   4.540   3.930  14.576  0.3303 -0.4296 -0.3825
 8743SOL    HW237692   4.400   3.939  14.621  0.8068  0.8548 -0.1328
 8744SOL     OW37693   2.424   1.708   1.434  0.5721 -0.2705  0.3136
 8744SOL    HW137694   2.467   1.760   1.365 -0.6558 -0.7997 -0.8614
 8744SOL    HW237695   2.473   1.745   1.507 -1.1988  0.1636  1.2879
 8745SOL     OW37696   0.516   4.636  10.003  0.0894 -0.0857  0.0940
 8745SOL    HW137697   0.442   4.691  10.029 -0.4081 -0.4549 -0.5379
 8745SOL    HW237698   0.460   4.584   9.945 -1.1848  3.0710 -1.4796
 8746SOL     OW37699   0.256   0.169  11.154  0.1703 -0.1754 -0.1820
 8746SOL    HW137700   0.284   0.078  11.159 -2.0314 -0.7403  1.6703
 8746SOL    HW237701   0.160   0.167  11.159  0.2524 -0.7726  1.0647
 8747SOL     OW37702   1.046   1.778   0.157 -0.3767  0.2702  0.5103
 8747SOL    HW137703   1.109   1.707   0.165 -1.4838 -0.8397 -0.7091
 8747SOL    HW237704   1.009   1.785   0.245 -1.8795  1.4112 -0.2001
 8748SOL     OW37705   4.664   4.232   9.214 -0.6500  0.0173 -0.4287
 8748SOL    HW137706   4.612   4.227   9.294 -0.4792 -0.9732 -0.3818
 8748SOL    HW237707   4.700   4.143   9.208  0.0086  0.2189  0.4500
 8749SOL     OW37708   0.733   3.506   6.790  0.4171  0.0445 -0.2908
 8749SOL    HW137709   0.794   3.479   6.858  0.3329 -1.8768 -0.9599
 8749SOL    HW237710   0.790   3.544   6.723 -0.6471  0.5668 -0.8978
 8750SOL     OW37711   4.385   1.417   4.818  0.4721  0.0480 -0.4537
 8750SOL    HW137712   4.460   1.448   4.767 -1.2271  3.5126 -0.8776
 8750SOL    HW237713   4.411   1.446   4.905 -0.9074 -2.3070  0.7457
 8751SOL     OW37714   4.683   3.347   5.547 -0.5118 -0.3085  0.1138
 8751SOL    HW137715   0.051   3.318   5.569 -1.2938 -1.7820  1.3066
 8751SOL    HW237716   4.683   3.377   5.456 -0.1134  1.9405  0.8597
 8752SOL     OW37717   0.540   0.573   6.704  0.1656  0.1213 -0.1477
 8752SOL    HW137718   0.551   0.548   6.612 -0.0706  2.1537 -0.7218
 8752SOL    HW237719   0.630   0.575   6.736  0.1084  0.0234  0.0211
 8753SOL     OW37720   0.703   4.335   8.306  0.1134  0.1239 -0.8085
 8753SOL    HW137721   0.672   4.403   8.247 -0.7023  0.7502  0.3532
 8753SOL    HW237722   0.628   4.324   8.363 -0.3359 -0.0280 -1.4233
 8754SOL     OW37723   1.848   4.289  15.780  0.3622 -0.1625 -0.2623
 8754SOL    HW137724   1.880   4.223  15.841  0.2707 -0.6097 -0.6995
 8754SOL    HW237725   1.932   4.333  15.781  0.4636 -0.3927  0.9093
 8755SOL     OW37726   4.228   0.784   4.438 -0.1041  0.4648 -0.3270
 8755SOL    HW137727   4.247   0.744   4.523  2.9396 -1.7988 -2.0685
 8755SOL    HW237728   4.306   0.759   4.388 -0.4001  0.1618 -0.6323
 8756SOL     OW37729   3.523   0.986   2.397  0.7682 -0.1819  0.7849
 8756SOL    HW137730   3.578   0.914   2.366  0.0478 -0.3431 -0.0998
 8756SOL    HW237731   3.535   0.992   2.492 -0.1893 -1.0203  0.9549
 8757SOL     OW37732   1.275   4.126   5.530  0.1119 -0.2653  0.0765
 8757SOL    HW137733   1.364   4.099   5.556  0.6607  0.1217 -1.3975
 8757SOL    HW237734   1.297   4.186   5.460  0.6749 -0.4738  0.0717
 8758SOL     OW37735   3.998   1.468   4.493  0.2555  0.2192  0.4876
 8758SOL    HW137736   3.949   1.455   4.412  1.4458 -1.5955  0.0408
 8758SOL    HW237737   3.939   1.531   4.533 -0.4937 -0.4247  0.4056
 8759SOL     OW37738   0.846   1.223  12.447 -0.3253 -0.2921  0.1294
 8759SOL    HW137739   0.886   1.242  12.532  0.4995  0.6118 -0.4716
 8759SOL    HW237740   0.827   1.132  12.468  1.2855 -0.2804  1.6507
 8760SOL     OW37741   4.407   0.206  10.416 -0.3098  0.2982  0.1921
 8760SOL    HW137742   4.433   0.189  10.506  0.3673  1.1299  0.1512
 8760SOL    HW237743   4.342   0.275  10.426  1.5705  2.0968 -0.0742
 8761SOL     OW37744   2.876   4.291   1.371  0.4661 -0.3668  0.0285
 8761SOL    HW137745   2.821   4.215   1.353 -0.4029 -0.0535  1.3684
 8761SOL    HW237746   2.846   4.321   1.457 -0.1577 -0.5539 -0.1214
 8762SOL     OW37747   2.929   2.738   1.910  0.3896  0.0020 -0.1066
 8762SOL    HW137748   2.973   2.820   1.887 -1.7956  1.4431  0.7263
 8762SOL    HW237749   2.871   2.725   1.835  1.0379 -0.7767 -0.4713
 8763SOL     OW37750   4.197   3.099   7.763  0.1562 -0.5131  0.5286
 8763SOL    HW137751   4.124   3.053   7.803  0.2579 -0.8953  0.2762
 8763SOL    HW237752   4.231   3.147   7.839 -1.9367 -1.3175  1.9711
 8764SOL     OW37753   0.569   3.112   0.617 -0.0548  0.3021 -0.9359
 8764SOL    HW137754   0.475   3.094   0.618 -0.1731  1.0135  0.9216
 8764SOL    HW237755   0.574   3.060   0.697 -0.8039 -1.3758 -1.9880
 8765SOL     OW37756   4.170   4.292  15.735 -0.4362  0.2661 -0.3939
 8765SOL    HW137757   4.130   4.205  15.731  1.9050 -0.7460 -1.7694
 8765SOL    HW237758   4.152   4.310  15.828  0.0527  2.7700 -0.7858
 8766SOL     OW37759   2.192   0.935   5.912 -0.0554  0.1225 -0.0752
 8766SOL    HW137760   2.163   0.844   5.912 -0.8312  0.3621  2.4453
 8766SOL    HW237761   2.279   0.926   5.953 -0.2612 -0.3873  0.2466
 8767SOL     OW37762   0.250   0.506   3.485 -0.0131  0.1706  0.0879
 8767SOL    HW137763   0.338   0.519   3.449 -1.0415  0.3443 -2.3975
 8767SOL    HW237764   0.265   0.500   3.579 -1.5743  0.0168  0.3286
 8768SOL     OW37765   0.310   4.280  10.381 -0.4315  0.0449  0.3941
 8768SOL    HW137766   0.306   4.296  10.287 -0.4047 -1.4178  0.1366
 8768SOL    HW237767   0.300   4.367  10.418 -2.1332 -0.2838  0.6825
 8769SOL     OW37768   2.269   3.257  16.053  0.1045  0.6392  0.2878
 8769SOL    HW137769   2.343   3.317  16.059  1.3624 -0.8320 -0.7136
 8769SOL    HW237770   2.206   3.295  16.114  0.0691  1.0579 -0.0131
 8770SOL     OW37771   3.010   2.896   4.477 -0.1953 -0.1919 -0.0418
 8770SOL    HW137772   3.062   2.976   4.480  2.6373 -2.0193 -0.9430
 8770SOL    HW237773   2.951   2.914   4.403 -0.9154  1.1476  0.8584
 8771SOL     OW37774   4.334   0.903   5.386 -0.0520  0.3198  0.0230
 8771SOL    HW137775   4.276   0.828   5.390 -0.4747  0.5537 -1.5946
 8771SOL    HW237776   4.277   0.975   5.413  0.0014 -0.3423  1.8953
 8772SOL     OW37777   2.673   0.792   2.461 -0.1518 -0.0784 -0.2574
 8772SOL    HW137778   2.697   0.719   2.404  1.6919 -0.3524  0.8691
 8772SOL    HW237779   2.580   0.775   2.475 -0.2962  1.1518  0.2586
 8773SOL     OW37780   0.272   4.704   6.315  0.1370  0.4080  0.1226
 8773SOL    HW137781   0.271   0.067   6.362  0.7040 -0.6850  2.0752
 8773SOL    HW237782   0.194   4.696   6.260 -0.5638 -0.9670  1.3217
 8774SOL     OW37783   1.267   2.043   4.775 -0.1558 -0.2236 -0.1286
 8774SOL    HW137784   1.236   2.057   4.685 -0.5509  0.2191  0.0690
 8774SOL    HW237785   1.240   2.120   4.825  1.9337  0.4638 -0.0806
 8775SOL     OW37786   2.623   2.077  16.908  0.1776  0.3619  0.2551
 8775SOL    HW137787   2.585   2.164  16.916  2.3778  1.3305  0.1688
 8775SOL    HW237788   2.631   2.051  17.000  1.2548 -1.4008 -0.3232
 8776SOL     OW37789   1.357   2.353   3.282  0.6205  0.2627 -0.1053
 8776SOL    HW137790   1.291   2.295   3.244 -1.2086  1.6912  0.8633
 8776SOL    HW237791   1.302   2.431   3.290 -1.7540 -1.3856 -0.6397
 8777SOL     OW37792   2.284   2.401   6.858  0.1942 -0.0507  0.4376
 8777SOL    HW137793   2.367   2.372   6.895  0.5297 -0.9740 -1.0320
 8777SOL    HW237794   2.246   2.318   6.886  1.0208  0.4569  3.0445
 8778SOL     OW37795   4.460   0.657   6.934 -0.1290  0.4662 -0.0701
 8778SOL    HW137796   4.432   0.569   6.955  1.3550  0.2358  0.9753
 8778SOL    HW237797   4.446   0.694   7.021  0.8275 -0.4078  0.4536
 8779SOL     OW37798   2.511   0.318   5.967 -0.1158  0.2719  0.1829
 8779SOL    HW137799   2.509   0.224   5.982  2.4538 -0.0269 -1.4469
 8779SOL    HW237800   2.417   0.332   5.978 -0.2206 -1.0109  0.9554
 8780SOL     OW37801   1.200   3.954   2.415  0.2481  0.2297  0.4624
 8780SOL    HW137802   1.270   3.903   2.457 -0.1209 -0.8483 -0.2136
 8780SOL    HW237803   1.126   3.935   2.472 -1.4942  2.9191 -0.9104
 8781SOL     OW37804   2.484   2.333  14.545  0.0750  0.8190  0.2164
 8781SOL    HW137805   2.508   2.322  14.454  0.6834 -0.6396  0.5659
 8781SOL    HW237806   2.557   2.287  14.586  0.1175  0.2465 -0.5050
 8782SOL     OW37807   3.211   3.265  13.949 -0.1322  0.3863 -0.3320
 8782SOL    HW137808   3.211   3.184  13.897  0.0310  1.0734 -1.3880
 8782SOL    HW237809   3.121   3.252  13.980  0.3455 -2.0916  0.0360
 8783SOL     OW37810   2.599   1.762   7.769 -0.5204  0.4191 -0.5288
 8783SOL    HW137811   2.523   1.820   7.771  0.3988  1.6412 -1.3677
 8783SOL    HW237812   2.610   1.752   7.864  2.0037 -1.4373 -1.0136
 8784SOL     OW37813   2.634   2.488   3.671  0.1163 -0.0438 -0.0763
 8784SOL    HW137814   2.567   2.533   3.723 -1.0130 -0.6008 -1.0497
 8784SOL    HW237815   2.683   2.442   3.739 -0.8751 -0.2636  0.4967
 8785SOL     OW37816   2.621   1.336  16.504 -0.4472 -0.5290 -0.2135
 8785SOL    HW137817   2.607   1.416  16.554 -2.1873 -0.7884 -0.3125
 8785SOL    HW237818   2.659   1.272  16.564 -1.5080 -0.1606  0.8514
 8786SOL     OW37819   1.090   0.380   9.010  0.0879 -0.0167 -0.3089
 8786SOL    HW137820   1.008   0.334   9.029  0.6479 -0.6027  0.7043
 8786SOL    HW237821   1.153   0.309   9.006 -0.2830 -0.2687 -1.6269
 8787SOL     OW37822   0.078   2.816   0.711  0.3351  0.0849  0.1913
 8787SOL    HW137823   0.001   2.771   0.677  1.2568  0.0373 -1.8217
 8787SOL    HW237824   0.129   2.742   0.744  0.6428  0.7551  1.2426
 8788SOL     OW37825   2.988   0.889   0.026 -0.4585  0.2717  0.4387
 8788SOL    HW137826   2.967   0.950   0.097  0.4309  1.3889 -0.2539
 8788SOL    HW237827   2.997   0.811   0.080  1.8774  0.6955  0.6586
 8789SOL     OW37828   3.322   1.499   8.097 -0.0115 -0.5521 -0.4500
 8789SOL    HW137829   3.386   1.555   8.053 -1.7958 -0.4014 -2.8521
 8789SOL    HW237830   3.372   1.441   8.154 -0.3211 -1.6493 -1.3105
 8790SOL     OW37831   0.923   4.507   9.356 -0.1847 -0.2337  0.0262
 8790SOL    HW137832   0.912   4.473   9.445  1.9495  0.5629  0.5763
 8790SOL    HW237833   0.922   4.600   9.377  0.2739 -0.0644 -0.7189
 8791SOL     OW37834   4.381   3.086   7.072  0.3703  0.5958 -0.1191
 8791SOL    HW137835   4.339   3.007   7.106  0.7815  1.7723  3.1057
 8791SOL    HW237836   4.341   3.156   7.124 -0.2096  1.0595 -1.1813
 8792SOL     OW37837   2.752   3.037   2.533 -0.4708  0.2091  0.0943
 8792SOL    HW137838   2.712   3.026   2.446  0.9998 -1.6086 -0.3348
 8792SOL    HW237839   2.683   3.090   2.573 -1.5440 -2.4050  1.6458
 8793SOL     OW37840   0.244   1.886   5.916  0.3615  0.9641  0.4050
 8793SOL    HW137841   0.297   1.935   5.853  0.3693 -1.1216 -1.1979
 8793SOL    HW237842   0.289   1.909   5.998  2.8908 -0.7665 -0.5393
 8794SOL     OW37843   3.946   1.747   2.053 -0.2186 -0.4789  0.6383
 8794SOL    HW137844   3.948   1.841   2.069 -0.2021 -0.0926 -1.6626
 8794SOL    HW237845   3.960   1.738   1.959 -0.7699 -0.7713  0.5824
 8795SOL     OW37846   3.022   1.657  16.637 -1.0504 -0.2415  0.2375
 8795SOL    HW137847   2.995   1.573  16.672 -0.0060 -0.1173  1.3447
 8795SOL    HW237848   2.967   1.653  16.559  1.7538 -1.4235 -1.7046
 8796SOL     OW37849   1.862   1.558   9.274  0.4786 -0.7046  0.1822
 8796SOL    HW137850   1.881   1.482   9.219  1.9904 -1.1001  1.2643
 8796SOL    HW237851   1.783   1.591   9.231  1.0030  0.4309  0.1155
 8797SOL     OW37852   0.381   1.041   2.871 -0.0133 -0.3818 -0.1041
 8797SOL    HW137853   0.319   1.091   2.817  0.4043  1.3981  1.0729
 8797SOL    HW237854   0.443   1.027   2.800 -1.9164  0.9839 -2.0330
 8798SOL     OW37855   3.682   1.110   0.447  0.2243 -0.3974 -0.4451
 8798SOL    HW137856   3.719   1.035   0.493  3.4128  1.5139  0.0874
 8798SOL    HW237857   3.594   1.080   0.426 -0.2508  0.7327 -0.0533
 8799SOL     OW37858   1.718   4.443   6.399  0.1000  0.3353 -0.4855
 8799SOL    HW137859   1.812   4.438   6.414 -0.1187 -1.3348  0.3762
 8799SOL    HW237860   1.709   4.513   6.334 -3.9360  1.3256  1.1459
 8800SOL     OW37861   4.600   0.805  16.760  0.5418 -0.1106  0.3094
 8800SOL    HW137862   4.621   0.809  16.854  1.2792  0.5200  0.1157
 8800SOL    HW237863   4.513   0.765  16.769 -1.0917  3.5177  0.9463
 8801SOL     OW37864   3.297   3.511   5.497  0.5290  0.2847 -0.2591
 8801SOL    HW137865   3.330   3.429   5.533 -1.7516  0.0335  1.2297
 8801SOL    HW237866   3.310   3.506   5.402 -2.4707 -0.2882 -0.6486
 8802SOL     OW37867   2.709   0.722   4.497 -0.9106 -0.3280  0.3658
 8802SOL    HW137868   2.661   0.742   4.416  0.5185  1.8482  0.0606
 8802SOL    HW237869   2.686   0.798   4.550  0.2143 -1.1605  2.0106
 8803SOL     OW37870   2.163   1.432   5.983 -0.2349 -0.7254 -0.7738
 8803SOL    HW137871   2.169   1.390   5.898 -0.5470 -1.0122 -0.6571
 8803SOL    HW237872   2.068   1.435   5.995 -0.1960  2.3037 -1.0807
 8804SOL     OW37873   2.700   1.883   5.971  0.1949  0.8703 -0.0676
 8804SOL    HW137874   2.685   1.971   5.936  1.6627  1.1850  0.0906
 8804SOL    HW237875   2.792   1.895   5.992 -0.3621 -0.6408  3.1936
 8805SOL     OW37876   2.284   1.491   8.650 -0.1051 -0.1829 -0.1234
 8805SOL    HW137877   2.367   1.479   8.603  0.9736  0.4184  1.6500
 8805SOL    HW237878   2.301   1.439   8.728  2.7585 -0.6513 -1.0880
 8806SOL     OW37879   3.046   4.378   3.056 -0.0513  0.3665 -0.1357
 8806SOL    HW137880   3.063   4.409   3.144  2.4647  0.2107 -0.5756
 8806SOL    HW237881   2.995   4.298   3.069 -0.8445  0.6015 -1.7553
 8807SOL     OW37882   3.453   1.393   1.412  0.0198 -0.2617 -0.0751
 8807SOL    HW137883   3.484   1.435   1.332  0.0357  0.4684  0.3189
 8807SOL    HW237884   3.532   1.363   1.458  0.2970  0.8668  0.1954
 8808SOL     OW37885   3.457   1.264   4.768 -0.3838  0.0324  0.4393
 8808SOL    HW137886   3.490   1.318   4.697 -0.4772  0.3050  0.6006
 8808SOL    HW237887   3.502   1.182   4.751 -0.2729  0.0479  0.6600
 8809SOL     OW37888   4.397   1.795  15.453  0.3395 -0.2886  0.0716
 8809SOL    HW137889   4.398   1.718  15.397  3.1954 -0.3878  0.2521
 8809SOL    HW237890   4.478   1.827  15.413  1.1820 -0.7863  1.3475
 8810SOL     OW37891   4.135   0.590  16.266  0.0805  0.1530  0.1772
 8810SOL    HW137892   4.054   0.602  16.317 -1.7888  0.7339 -2.9537
 8810SOL    HW237893   4.137   0.674  16.220  1.3493 -0.5144 -0.9403
 8811SOL     OW37894   0.104   2.222   3.333 -0.4925 -0.0513  0.1789
 8811SOL    HW137895   0.097   2.166   3.257 -0.3694 -0.2994  0.3488
 8811SOL    HW237896   0.192   2.257   3.315 -0.5653  0.3763  0.6555
 8812SOL     OW37897   3.684   2.600  10.561  0.5539  0.0114  0.1391
 8812SOL    HW137898   3.687   2.587  10.655 -0.5650  0.1773  0.1867
 8812SOL    HW237899   3.603   2.557  10.534  0.9740 -1.3900  1.1248
 8813SOL     OW37900   3.837   3.519   5.714  0.2214 -0.5109  0.0946
 8813SOL    HW137901   3.842   3.515   5.618 -1.2824 -1.9885  0.0760
 8813SOL    HW237902   3.820   3.426   5.727 -2.0413 -0.0281  0.6715
 8814SOL     OW37903   2.929   4.206  16.321 -0.4490  0.1985  0.6362
 8814SOL    HW137904   2.868   4.280  16.314 -2.6549 -1.7553 -1.1054
 8814SOL    HW237905   2.912   4.159  16.239  1.2244 -1.4858  1.2575
 8815SOL     OW37906   1.523   0.002   2.411 -0.1091 -0.3637 -0.3698
 8815SOL    HW137907   1.556   0.061   2.344  1.2320  1.2417  1.6930
 8815SOL    HW237908   1.456   0.057   2.450 -1.7702 -1.7697 -1.2489
 8816SOL     OW37909   0.947   2.388  11.788  0.2293 -0.3308  0.3464
 8816SOL    HW137910   0.862   2.348  11.767 -0.7914  2.3639 -0.6777
 8816SOL    HW237911   0.919   2.479  11.793  1.5466 -0.0919  2.8811
 8817SOL     OW37912   2.616   1.694  17.187 -0.2354 -0.0090  0.8852
 8817SOL    HW137913   2.594   1.645  17.266 -0.3549  1.8473  2.0159
 8817SOL    HW237914   2.609   1.632  17.115  1.3918  1.1323 -0.2571
 8818SOL     OW37915   1.282   2.115   9.163 -0.1211  0.3546 -0.3155
 8818SOL    HW137916   1.369   2.123   9.203  0.4448 -0.7746 -1.3121
 8818SOL    HW237917   1.310   2.099   9.073  0.3390 -1.1711  0.0877
 8819SOL     OW37918   2.357   0.049  15.723 -0.2982 -0.2637 -0.8836
 8819SOL    HW137919   2.350   4.707  15.652 -3.3730 -2.1452  1.1025
 8819SOL    HW237920   2.266   0.047  15.751  0.1019  1.6645  0.5779
 8820SOL     OW37921   4.152   0.101   0.816 -0.2640  0.0520 -0.1210
 8820SOL    HW137922   4.162   0.053   0.899  4.0886 -1.1570 -1.3055
 8820SOL    HW237923   4.210   0.046   0.763 -0.5656 -1.2301  0.8622
 8821SOL     OW37924   2.595   4.488   9.115  0.1509  0.0484 -0.1618
 8821SOL    HW137925   2.518   4.537   9.088  1.1804  1.6414 -0.2164
 8821SOL    HW237926   2.551   4.406   9.135  1.3901 -0.9200 -1.3983
 8822SOL     OW37927   2.847   3.124   6.454 -0.2026 -0.3963  0.2220
 8822SOL    HW137928   2.789   3.196   6.428 -0.2165 -0.6201 -0.3646
 8822SOL    HW237929   2.801   3.041   6.447  0.5829 -0.9763  1.8658
 8823SOL     OW37930   0.126   2.344   6.590 -0.2174 -0.4721  0.5237
 8823SOL    HW137931   0.148   2.334   6.497 -0.5889  1.1148  0.2790
 8823SOL    HW237932   0.157   2.433   6.605 -0.0544 -0.3639 -0.4881
 8824SOL     OW37933   2.005   2.131   6.254 -0.3462  0.1471  0.6684
 8824SOL    HW137934   1.920   2.102   6.222 -0.7806 -0.1358  2.0859
 8824SOL    HW237935   2.071   2.087   6.201 -0.6107  1.4385 -0.7169
 8825SOL     OW37936   0.714   2.830   6.431 -0.2960  0.5256 -0.2523
 8825SOL    HW137937   0.674   2.846   6.516  0.5253 -0.6193  0.3302
 8825SOL    HW237938   0.805   2.857   6.444 -0.1883  0.5387 -1.0011
 8826SOL     OW37939   3.912   4.083   5.743  0.9488  0.2061  0.3387
 8826SOL    HW137940   3.925   3.989   5.758 -0.5789 -0.3001 -1.5570
 8826SOL    HW237941   3.909   4.108   5.835  0.2082  0.4332  0.2524
 8827SOL     OW37942   2.274   1.052  15.584 -0.2566  0.0908 -0.5165
 8827SOL    HW137943   2.229   1.137  15.583  2.8106  1.6793 -1.2481
 8827SOL    HW237944   2.341   1.059  15.652 -2.0023  0.8519  1.1436
 8828SOL     OW37945   2.921   2.302   7.075  0.1164  0.4441 -0.2183
 8828SOL    HW137946   2.984   2.315   7.146  1.8907 -1.4364 -1.4280
 8828SOL    HW237947   2.970   2.359   7.017  2.3098 -0.2567  0.9390
 8829SOL     OW37948   2.591   3.845   5.897 -0.1363 -0.7174  1.0150
 8829SOL    HW137949   2.582   3.774   5.833 -0.9423  0.9939 -0.7504
 8829SOL    HW237950   2.554   3.921   5.853  0.9733 -1.0803 -0.5333
 8830SOL     OW37951   3.405   0.152   5.408  0.0245  0.0696  0.1570
 8830SOL    HW137952   3.315   0.179   5.422 -0.0378  0.2679 -0.6154
 8830SOL    HW237953   3.413   0.070   5.457 -0.9631 -0.3083 -0.3248
 8831SOL     OW37954   2.777   1.487   7.731  0.0997 -0.1799  0.2177
 8831SOL    HW137955   2.797   1.552   7.664  0.1624 -1.6987 -1.2530
 8831SOL    HW237956   2.833   1.412   7.709  0.7684  1.2476 -3.0605
 8832SOL     OW37957   0.455   4.301   9.067 -0.0065  0.2527  0.5087
 8832SOL    HW137958   0.363   4.326   9.072  0.2519  0.9326  2.0172
 8832SOL    HW237959   0.449   4.217   9.113  2.2035 -0.7255 -0.9836
 8833SOL     OW37960   0.664   4.632   2.727 -0.3507 -0.3780 -0.4279
 8833SOL    HW137961   0.733   4.697   2.744  1.5832 -2.7458  0.7438
 8833SOL    HW237962   0.679   4.565   2.794  0.6399 -0.0588 -0.3235
 8834SOL     OW37963   2.938   3.595  14.015  0.5993 -0.0218 -0.0159
 8834SOL    HW137964   2.845   3.596  13.992  0.2007 -1.7702  1.5439
 8834SOL    HW237965   2.934   3.573  14.108  3.4746  0.9668  0.3413
 8835SOL     OW37966   3.071   0.067   2.034  0.0604  0.3160 -0.1382
 8835SOL    HW137967   3.126   0.124   1.981 -0.5986 -1.9677 -3.3036
 8835SOL    HW237968   3.137   0.001   2.056  0.5594  0.7357 -0.3938
 8836SOL     OW37969   1.511   0.434   8.141  0.0631 -0.1310  0.3254
 8836SOL    HW137970   1.447   0.400   8.077  1.0725 -0.0898 -0.7013
 8836SOL    HW237971   1.575   0.363   8.140  1.3684  1.0656 -0.6598
 8837SOL     OW37972   4.531   3.636  14.814  0.2066  0.3017 -0.1016
 8837SOL    HW137973   4.621   3.664  14.801 -0.5595  2.8305  0.1750
 8837SOL    HW237974   4.506   3.617  14.724 -0.6770  2.3058 -0.2813
 8838SOL     OW37975   0.364   1.319  17.551 -0.2016 -0.2998  0.0207
 8838SOL    HW137976   0.340   1.233  17.587  0.7070 -1.4409 -2.1446
 8838SOL    HW237977   0.389   1.297  17.462 -1.5769 -1.1556 -0.1586
 8839SOL     OW37978   3.122   0.499  11.801  0.1122 -0.2192 -0.0414
 8839SOL    HW137979   3.172   0.425  11.834 -1.1622 -0.8161  0.5306
 8839SOL    HW237980   3.127   0.486  11.706 -2.4184 -0.2659 -0.1512
 8840SOL     OW37981   4.180   2.870   3.563 -0.3391  0.2857 -0.2414
 8840SOL    HW137982   4.171   2.957   3.601 -1.0943  0.5953 -1.1453
 8840SOL    HW237983   4.086   2.852   3.564 -0.1017 -0.9927 -2.4893
 8841SOL     OW37984   1.436   2.645   5.659 -0.0994 -0.4273  0.3305
 8841SOL    HW137985   1.368   2.682   5.714  1.4817  1.9851  0.6339
 8841SOL    HW237986   1.456   2.731   5.623 -0.9910  0.6990  2.5498
 8842SOL     OW37987   1.262   1.534   6.946 -0.2340  0.4290  0.5844
 8842SOL    HW137988   1.302   1.542   7.033  1.9973  0.4818 -0.4635
 8842SOL    HW237989   1.259   1.438   6.938 -0.4595  0.4242  0.7137
 8843SOL     OW37990   4.528   1.405  11.649 -0.3086  0.1292  0.2006
 8843SOL    HW137991   4.464   1.373  11.713 -0.3477  1.8560  1.0265
 8843SOL    HW237992   4.502   1.348  11.576  2.8459 -2.5324  1.1559
 8844SOL     OW37993   3.322   4.250   8.945 -0.4655 -0.2119  0.0596
 8844SOL    HW137994   3.399   4.197   8.925  0.3189  0.4795  1.2069
 8844SOL    HW237995   3.364   4.325   8.988 -1.2027  0.2747 -0.0820
 8845SOL     OW37996   2.633   1.844   5.190 -0.3013  0.3072 -0.4703
 8845SOL    HW137997   2.648   1.907   5.260 -1.9600  0.0122  0.1453
 8845SOL    HW237998   2.646   1.759   5.232 -0.7410 -0.0681 -1.0975
 8846SOL     OW37999   0.853   3.386   7.425 -0.3052  0.1347 -0.1880
 8846SOL    HW138000   0.827   3.307   7.377  3.0130 -2.1802  1.8117
 8846SOL    HW238001   0.767   3.421   7.451 -1.1952 -0.8549 -1.8290
 8847SOL     OW38002   0.968   3.986   3.432 -0.3889 -0.9061 -0.7605
 8847SOL    HW138003   1.042   3.976   3.372 -0.6921 -2.9663 -0.8161
 8847SOL    HW238004   0.903   4.006   3.365 -0.9343 -1.9646 -0.5597
 8848SOL     OW38005   3.468   1.574   8.977 -0.3268  0.3450 -0.2843
 8848SOL    HW138006   3.536   1.564   9.044  1.0900  2.8978 -1.3379
 8848SOL    HW238007   3.392   1.535   9.021 -0.8880 -1.8355 -3.1644
 8849SOL     OW38008   3.475   0.050   4.764  0.1357  0.1187  0.1576
 8849SOL    HW138009   3.516   0.118   4.816  1.8749 -0.7667 -0.0653
 8849SOL    HW238010   3.545   4.706   4.755  0.8996  0.5173  3.4255
 8850SOL     OW38011   0.104   0.784  17.300  0.0105  0.1045  0.0761
 8850SOL    HW138012   0.061   0.809  17.381  0.0501 -1.0021  0.4343
 8850SOL    HW238013   0.188   0.823  17.324 -0.5646  0.6502  1.2004
 8851SOL     OW38014   2.750   4.224  10.520  0.1275  0.1157  0.2827
 8851SOL    HW138015   2.790   4.249  10.603  0.8314  1.0521 -0.3352
 8851SOL    HW238016   2.747   4.129  10.526  1.1621  0.1619  1.5555
 8852SOL     OW38017   0.357   2.435   7.272  0.4418 -0.0082  0.0693
 8852SOL    HW138018   0.452   2.443   7.270  0.4885 -0.0944  1.4637
 8852SOL    HW238019   0.345   2.364   7.336  1.0701 -0.8640 -0.7571
 8853SOL     OW38020   1.334   4.585  12.769  0.5299 -0.1973  0.2892
 8853SOL    HW138021   1.383   4.584  12.687  0.0199  1.8032 -0.0437
 8853SOL    HW238022   1.406   4.587  12.832 -0.6951  0.0515  1.6913
 8854SOL     OW38023   4.330   0.635   6.520 -0.1313 -0.1799 -0.2612
 8854SOL    HW138024   4.394   0.576   6.478  0.1067 -0.4358  0.4525
 8854SOL    HW238025   4.249   0.591   6.493 -0.4337 -0.0902  0.5073
 8855SOL     OW38026   1.714   4.250   7.818  0.1067 -0.0842 -0.2407
 8855SOL    HW138027   1.669   4.175   7.857 -1.2854  0.4484 -0.8211
 8855SOL    HW238028   1.808   4.234   7.823  0.3724  1.2904 -0.7199
 8856SOL     OW38029   1.102   0.751   7.946  0.1795  0.0263 -0.0694
 8856SOL    HW138030   1.036   0.773   8.012 -0.9311 -0.0227 -1.1524
 8856SOL    HW238031   1.182   0.758   7.997  0.8165  2.2798 -1.3715
 8857SOL     OW38032   0.060   1.288   6.829  0.2151  0.0945 -0.0386
 8857SOL    HW138033   0.071   1.193   6.822 -1.0012  0.0125 -0.7591
 8857SOL    HW238034   0.054   1.322   6.740  3.2046  0.8435  0.0636
 8858SOL     OW38035   2.824   4.443   5.559  0.0917 -0.0245 -0.0526
 8858SOL    HW138036   2.858   4.372   5.614  0.7670  0.8807  0.7269
 8858SOL    HW238037   2.902   4.449   5.504  1.0811 -0.7403  1.2538
 8859SOL     OW38038   1.849   0.110   2.823  0.3570  0.4073 -0.0716
 8859SOL    HW138039   1.796   0.066   2.889 -1.3139 -0.7813 -2.2110
 8859SOL    HW238040   1.868   0.198   2.855  0.3213 -0.2758  1.8188
 8860SOL     OW38041   3.056   2.442   3.932  0.5495 -0.3507 -0.0230
 8860SOL    HW138042   2.969   2.416   3.900  0.7165  0.7357 -1.3262
 8860SOL    HW238043   3.030   2.530   3.961 -2.9123 -1.4536  0.2283
 8861SOL     OW38044   2.014   1.089  14.832  1.1509  0.0443  0.1922
 8861SOL    HW138045   1.952   1.096  14.904  2.1919 -2.6956  1.3529
 8861SOL    HW238046   2.095   1.057  14.872  0.7248  0.4122  1.3562
 8862SOL     OW38047   1.331   1.219   6.986 -0.1501  0.3102 -0.1693
 8862SOL    HW138048   1.407   1.237   7.041  0.9844  1.0755 -1.9782
 8862SOL    HW238049   1.252   1.212   7.039  0.5698  0.5654  0.9225
 8863SOL     OW38050   3.139   2.594  16.879 -0.0172  0.0525  0.1015
 8863SOL    HW138051   3.139   2.686  16.850 -0.8692 -0.0485 -0.2200
 8863SOL    HW238052   3.221   2.554  16.850 -1.1805 -0.5560 -2.3980
 8864SOL     OW38053   1.628   2.495   4.195 -0.0777  0.3125 -0.0204
 8864SOL    HW138054   1.571   2.422   4.219  0.8603  0.0332  1.3294
 8864SOL    HW238055   1.612   2.570   4.252 -1.3463  0.5144 -0.6426
 8865SOL     OW38056   2.376   3.128  12.253 -0.0511  0.4898 -0.1531
 8865SOL    HW138057   2.359   3.205  12.198  1.3703  1.5473  0.8755
 8865SOL    HW238058   2.358   3.055  12.194 -1.6114  0.7687 -0.0260
 8866SOL     OW38059   1.375   4.634   9.694 -0.1294  0.3947 -0.2322
 8866SOL    HW138060   1.449   4.695   9.694 -0.1366  0.4092  0.2606
 8866SOL    HW238061   1.316   4.689   9.643 -2.3000 -1.0856  0.6728
 8867SOL     OW38062   2.888   4.698  11.592 -0.3040 -0.0462 -0.3975
 8867SOL    HW138063   2.895   0.034  11.669  2.3521  0.6797 -1.1903
 8867SOL    HW238064   2.855   4.617  11.631 -2.2656  0.9764  0.1091
 8868SOL     OW38065   1.744   2.583  15.581  0.1127  0.2186  0.5739
 8868SOL    HW138066   1.836   2.609  15.583  0.6456 -1.3751 -2.9370
 8868SOL    HW238067   1.724   2.537  15.662  1.6622  0.0522  0.8719
 8869SOL     OW38068   1.361   4.081  15.434  0.2991 -0.0156  0.1313
 8869SOL    HW138069   1.454   4.099  15.421  0.4079 -0.2318  0.5849
 8869SOL    HW238070   1.367   4.093  15.529  1.4629  0.7897 -0.0329
 8870SOL     OW38071   2.606   4.720   7.448 -0.4349  0.3552  0.3901
 8870SOL    HW138072   2.636   4.635   7.416  0.4338  0.4527  0.9416
 8870SOL    HW238073   2.592   4.708   7.542 -0.2674 -1.3572  0.2045
 8871SOL     OW38074   3.612   1.763   9.514  0.5118 -0.9949 -0.7648
 8871SOL    HW138075   3.665   1.839   9.490  1.1384 -0.8123  1.1677
 8871SOL    HW238076   3.576   1.806   9.592  1.0440 -0.4735 -0.8049
 8872SOL     OW38077   3.175   4.056   6.136 -0.1627 -0.9468 -0.0663
 8872SOL    HW138078   3.152   3.963   6.139  1.3758 -1.2577  1.8367
 8872SOL    HW238079   3.265   4.048   6.103 -0.2352  1.4490 -0.8167
 8873SOL     OW38080   0.919   0.496   7.008  0.1593 -0.6734  0.6132
 8873SOL    HW138081   1.000   0.472   7.052  0.9277 -1.1559 -1.0344
 8873SOL    HW238082   0.910   0.417   6.953 -0.3528 -1.0974  1.3082
 8874SOL     OW38083   4.165   2.388   5.818 -0.2618  0.1382 -0.2582
 8874SOL    HW138084   4.167   2.298   5.786  2.7296 -0.0138  0.3570
 8874SOL    HW238085   4.217   2.432   5.750  0.6923 -0.3408  0.1574
 8875SOL     OW38086   0.779   1.353   7.676  0.5641  0.8644 -0.1837
 8875SOL    HW138087   0.835   1.301   7.735  0.7253  0.8426 -0.3578
 8875SOL    HW238088   0.739   1.289   7.617  0.0614 -0.2625  1.3730
 8876SOL     OW38089   1.467   4.627   4.345 -0.1828 -0.0411  0.0922
 8876SOL    HW138090   1.408   4.660   4.413  0.3400  0.2837  0.3930
 8876SOL    HW238091   1.492   4.543   4.385 -2.9856 -1.4695 -1.1404
 8877SOL     OW38092   2.855   2.752   3.278 -0.0472 -0.0610 -0.4333
 8877SOL    HW138093   2.786   2.713   3.331  0.2069 -0.5208 -0.4421
 8877SOL    HW238094   2.889   2.681   3.224 -0.5575  1.2244 -2.4727
 8878SOL     OW38095   1.161   1.114   4.051  0.7671 -0.0911 -0.1681
 8878SOL    HW138096   1.184   1.207   4.056 -1.1859  0.3416  0.6263
 8878SOL    HW238097   1.227   1.082   3.989  0.7280  0.1259 -0.3219
 8879SOL     OW38098   0.895   2.242   9.575  0.3774  0.0951 -0.0731
 8879SOL    HW138099   0.960   2.199   9.519  1.1165  0.1687  0.7193
 8879SOL    HW238100   0.953   2.291   9.635  0.7006 -0.9719  0.4954
 8880SOL     OW38101   1.728   4.389   8.481  0.0245  0.2471 -0.3210
 8880SOL    HW138102   1.675   4.459   8.443 -1.0777  1.1356  2.8365
 8880SOL    HW238103   1.785   4.420   8.551 -2.4381 -0.3038  1.9499
 8881SOL     OW38104   4.595   2.641   9.287  0.3942  0.5213 -0.1947
 8881SOL    HW138105   4.525   2.576   9.299  0.7975  0.3460  1.2483
 8881SOL    HW238106   4.679   2.598   9.272  1.1517  1.3275  1.7611
 8882SOL     OW38107   2.225   1.841   9.871  0.0778 -0.3731  0.5520
 8882SOL    HW138108   2.309   1.865   9.910  1.6914 -1.8570 -1.9725
 8882SOL    HW238109   2.207   1.916   9.814 -1.3153  0.9871  2.7946
 8883SOL     OW38110   3.599   1.896  15.201 -0.4237 -0.2760  0.0876
 8883SOL    HW138111   3.547   1.967  15.162  1.0203  1.4668  1.3663
 8883SOL    HW238112   3.628   1.945  15.277  0.5950  1.7763 -1.6134
 8884SOL     OW38113   3.460   3.358   5.826  0.5202 -0.0236 -0.2194
 8884SOL    HW138114   3.447   3.303   5.748 -0.0143  1.9592 -1.5287
 8884SOL    HW238115   3.481   3.291   5.891 -0.4524  1.2154  1.3619
 8885SOL     OW38116   2.792   3.088   3.403  0.1912  0.2581 -0.1192
 8885SOL    HW138117   2.865   3.026   3.393 -1.7562 -1.9999 -0.3858
 8885SOL    HW238118   2.777   3.092   3.497 -1.4687 -1.6056 -0.3166
 8886SOL     OW38119   2.646   4.601   6.229  0.6258 -0.0042  0.4008
 8886SOL    HW138120   2.701   4.604   6.307  1.4284  0.0663 -0.1740
 8886SOL    HW238121   2.692   4.652   6.163  0.9813  0.7986  1.2610
 8887SOL     OW38122   0.571   1.597   6.909 -0.9893 -0.5645  0.3005
 8887SOL    HW138123   0.620   1.530   6.956 -0.8385 -1.1121 -0.6618
 8887SOL    HW238124   0.544   1.550   6.831  0.5914  0.3322 -0.7925
 8888SOL     OW38125   4.689   2.963   6.119  0.0407 -0.1665 -0.1987
 8888SOL    HW138126   0.002   3.051   6.105  0.8735 -0.3225  0.8389
 8888SOL    HW238127   4.600   2.972   6.085 -0.5678  1.5304  1.8578
 8889SOL     OW38128   4.427   1.906   3.591 -0.2438 -0.1263 -0.2685
 8889SOL    HW138129   4.504   1.913   3.535 -1.7428  3.3481 -1.9383
 8889SOL    HW238130   4.355   1.902   3.528 -0.0852 -0.9936 -0.3861
 8890SOL     OW38131   3.347   0.615   5.058 -0.1136  0.3072 -0.4894
 8890SOL    HW138132   3.422   0.562   5.034 -0.7839 -0.2217 -1.4446
 8890SOL    HW238133   3.296   0.589   4.981 -0.2341 -0.4190 -0.1604
 8891SOL     OW38134   2.432   0.410   2.376  0.0567  0.1773 -0.2800
 8891SOL    HW138135   2.352   0.463   2.381 -1.4411 -2.1982  0.5423
 8891SOL    HW238136   2.402   0.319   2.377  1.7175 -0.3510  0.5944
 8892SOL     OW38137   3.047   3.945   8.073 -0.4571 -0.3319 -0.1346
 8892SOL    HW138138   3.122   4.005   8.076  0.0868 -1.0346  0.6213
 8892SOL    HW238139   2.973   4.005   8.064  0.6362  0.8833 -1.0159
 8893SOL     OW38140   4.518   1.955   9.604  0.3440  0.1647 -0.0689
 8893SOL    HW138141   4.549   2.043   9.625  0.2755 -0.0896  1.0930
 8893SOL    HW238142   4.511   1.947   9.509  2.4453  0.7261 -0.2484
 8894SOL     OW38143   1.745   1.678   7.135  0.0731  0.5049 -0.0547
 8894SOL    HW138144   1.724   1.726   7.055 -0.3313 -2.7375 -1.8557
 8894SOL    HW238145   1.780   1.595   7.104 -0.0399  0.1769  0.6851
 8895SOL     OW38146   4.241   1.335   6.690 -0.3400  0.2645 -0.2577
 8895SOL    HW138147   4.323   1.315   6.644  0.0121  0.6242  0.2137
 8895SOL    HW238148   4.262   1.422   6.724 -0.6793  0.0399  0.5219
 8896SOL     OW38149   2.814   1.385   0.304  0.1480  0.6106 -0.0768
 8896SOL    HW138150   2.899   1.417   0.274  0.7904  1.3724  2.6408
 8896SOL    HW238151   2.788   1.331   0.228 -0.7103 -0.1583  0.7638
 8897SOL     OW38152   1.752   2.115  10.327 -0.2165  0.3420  0.0693
 8897SOL    HW138153   1.802   2.093  10.248 -1.7768 -2.6497 -0.0912
 8897SOL    HW238154   1.825   2.140  10.383 -1.1072  0.7635  1.0451
 8898SOL     OW38155   3.135   3.765   4.532 -0.2043  0.2294  0.4206
 8898SOL    HW138156   3.098   3.731   4.613  0.7523 -0.7306  0.4537
 8898SOL    HW238157   3.200   3.830   4.560  1.7046 -1.7799  0.6821
 8899SOL     OW38158   2.069   0.654   4.830 -0.2856  0.0189 -0.3155
 8899SOL    HW138159   2.020   0.683   4.753 -0.9754  0.0864  0.1576
 8899SOL    HW238160   2.147   0.711   4.823 -0.4276  0.3298  0.7219
 8900SOL     OW38161   0.037   4.396  12.553  0.0496  0.5659 -0.5566
 8900SOL    HW138162   4.680   4.357  12.593  0.0170  0.5913 -0.5948
 8900SOL    HW238163   0.093   4.321  12.530 -1.4556 -1.1850  1.4745
 8901SOL     OW38164   3.882   0.360  15.855 -0.7425  0.2255  0.0495
 8901SOL    HW138165   3.790   0.383  15.867 -1.1332 -0.6326 -1.4291
 8901SOL    HW238166   3.908   0.422  15.787  2.7892 -1.0474  0.2060
 8902SOL     OW38167   1.029   1.592  13.008 -0.3675 -0.2971 -0.3779
 8902SOL    HW138168   1.016   1.583  13.103  0.0527  0.0626 -0.2857
 8902SOL    HW238169   1.088   1.519  12.987  0.6750  0.3327  0.3388
 8903SOL     OW38170   1.971   2.829  12.161  0.0202  0.1120 -0.2487
 8903SOL    HW138171   1.930   2.915  12.153 -1.6087 -0.5732  0.8146
 8903SOL    HW238172   1.890   2.778  12.162  1.0959 -1.6427 -1.5653
 8904SOL     OW38173   2.771   0.948   5.099  0.3129 -0.1130 -0.3220
 8904SOL    HW138174   2.736   0.881   5.157 -1.6343  2.3190  1.2941
 8904SOL    HW238175   2.864   0.952   5.124 -0.0971 -1.3550  1.3389
 8905SOL     OW38176   3.805   3.395   8.562  0.2355  0.0024  0.7819
 8905SOL    HW138177   3.799   3.454   8.487  0.2802  0.1539  0.8975
 8905SOL    HW238178   3.728   3.343   8.540  0.3170 -0.3984  1.4700
 8906SOL     OW38179   2.122   3.080  10.691 -0.2597  0.0415 -0.5468
 8906SOL    HW138180   2.027   3.075  10.699 -0.4092  1.2899 -1.4266
 8906SOL    HW238181   2.132   3.148  10.757 -3.2811  1.4733 -1.5278
 8907SOL     OW38182   2.914   2.922  11.392 -0.5660 -0.4881  0.0904
 8907SOL    HW138183   2.884   2.964  11.473  0.3168  0.5869 -0.1294
 8907SOL    HW238184   2.876   2.982  11.329 -1.7264 -0.0755  1.1791
 8908SOL     OW38185   3.061   0.142   5.549  0.2427 -0.2045 -0.2751
 8908SOL    HW138186   2.997   0.177   5.611 -0.3926 -0.6962 -0.6477
 8908SOL    HW238187   3.007   0.148   5.470  0.3376 -0.5401 -0.3672
 8909SOL     OW38188   1.570   0.487   9.001 -0.2293 -0.1221 -0.1489
 8909SOL    HW138189   1.482   0.506   9.034 -1.0787 -0.3398 -2.2979
 8909SOL    HW238190   1.599   0.574   8.972 -1.3292  0.5421  0.7369
 8910SOL     OW38191   0.277   2.558   4.239  0.6877 -0.1562  0.6567
 8910SOL    HW138192   0.229   2.610   4.174  0.8130 -1.1956 -0.2816
 8910SOL    HW238193   0.215   2.490   4.266  0.3522  0.1807  0.7336
 8911SOL     OW38194   1.187   3.587   3.636 -0.0641 -0.0547 -0.1544
 8911SOL    HW138195   1.199   3.582   3.541 -2.5900  1.9058 -0.5719
 8911SOL    HW238196   1.130   3.664   3.641  0.5271  0.5231 -2.2068
 8912SOL     OW38197   1.701   2.532   7.396 -0.4210  0.2130 -0.2050
 8912SOL    HW138198   1.716   2.621   7.428 -1.1730  0.3133 -0.1195
 8912SOL    HW238199   1.617   2.511   7.438 -0.6876  1.3982 -0.1663
 8913SOL     OW38200   1.226   0.646   2.384 -0.3932 -0.4140 -0.1600
 8913SOL    HW138201   1.152   0.680   2.335  0.5717  0.0477 -1.3029
 8913SOL    HW238202   1.259   0.588   2.315 -0.0802  0.9041 -1.1139
 8914SOL     OW38203   1.783   0.683  11.072  0.1234  0.4170 -0.2278
 8914SOL    HW138204   1.742   0.703  10.987  0.5429  1.3279 -0.2155
 8914SOL    HW238205   1.774   0.769  11.111  0.4128  0.8219 -1.0519
 8915SOL     OW38206   2.474   2.243  12.683 -0.0217  0.4879  0.0761
 8915SOL    HW138207   2.434   2.299  12.616  2.1097  0.7053 -0.9913
 8915SOL    HW238208   2.403   2.204  12.735  1.0916 -1.1525  0.3588
 8916SOL     OW38209   4.235   4.338  13.854  0.1396  0.2074  0.2301
 8916SOL    HW138210   4.266   4.426  13.832 -1.6600  1.0238  1.0026
 8916SOL    HW238211   4.276   4.281  13.789  1.4316  2.7284 -1.1853
 8917SOL     OW38212   3.156   2.695   4.612 -0.0516  0.2961  0.1984
 8917SOL    HW138213   3.090   2.755   4.579  1.0971 -0.0506 -2.6883
 8917SOL    HW238214   3.159   2.735   4.699 -0.8218 -1.7748  1.1986
 8918SOL     OW38215   3.615   4.429   2.892 -0.1071 -0.0695 -0.1570
 8918SOL    HW138216   3.591   4.517   2.921  0.2060  0.0796 -0.3504
 8918SOL    HW238217   3.593   4.418   2.799 -1.0338  0.1917  0.0332
 8919SOL     OW38218   0.738   4.541   4.957  0.2959 -0.0420 -0.2629
 8919SOL    HW138219   0.827   4.529   4.989 -0.1582  0.8179  1.3194
 8919SOL    HW238220   0.699   4.512   5.040 -0.7461  0.3253 -0.6163
 8920SOL     OW38221   2.793   2.990   3.123 -0.4197  0.1986 -0.4792
 8920SOL    HW138222   2.753   3.036   3.197 -0.1821  0.9021 -0.7934
 8920SOL    HW238223   2.795   2.904   3.164 -0.9727  0.9452  1.1236
 8921SOL     OW38224   1.810   0.959  10.101  0.2131 -0.6515 -0.1877
 8921SOL    HW138225   1.800   1.031  10.163  1.0089 -1.6145  1.0543
 8921SOL    HW238226   1.737   0.984  10.044  0.0575  0.1426  0.3521
 8922SOL     OW38227   2.930   1.155  13.480 -0.4090 -0.3163 -0.1394
 8922SOL    HW138228   2.922   1.131  13.572  0.2437  0.2019  0.0541
 8922SOL    HW238229   3.014   1.201  13.472 -2.9436  4.2841 -0.3164
 8923SOL     OW38230   0.464   3.649  14.469  0.7641 -0.4385  0.4638
 8923SOL    HW138231   0.400   3.713  14.500  0.5795 -0.7120  0.6474
 8923SOL    HW238232   0.432   3.637  14.379  1.9227 -0.1463  0.0225
 8924SOL     OW38233   2.108   3.716  12.731  0.4664  0.2838  0.0892
 8924SOL    HW138234   2.044   3.686  12.666  0.3832  1.8222 -0.5447
 8924SOL    HW238235   2.192   3.713  12.685 -0.1529  0.5823 -1.0736
 8925SOL     OW38236   1.937   3.808  12.266 -0.3091 -0.0421 -0.3380
 8925SOL    HW138237   1.934   3.723  12.310  0.3719 -0.1728 -0.5309
 8925SOL    HW238238   2.017   3.849  12.300 -0.6073 -0.7983  1.2927
 8926SOL     OW38239   1.905   2.275   0.398 -0.1521 -0.4518  0.3374
 8926SOL    HW138240   1.998   2.271   0.374  0.1533  0.8019  1.2784
 8926SOL    HW238241   1.869   2.278   0.310  1.4288 -2.1102 -0.3849
 8927SOL     OW38242   2.566   4.215   3.371 -0.5472 -0.1792  0.5015
 8927SOL    HW138243   2.506   4.289   3.384  0.3918  0.4999  1.0495
 8927SOL    HW238244   2.580   4.187   3.462  1.7761 -2.2596 -0.4871
 8928SOL     OW38245   1.892   4.001   7.530  0.2698 -0.4826  0.2364
 8928SOL    HW138246   1.963   4.062   7.548 -0.9272  1.6734 -2.3611
 8928SOL    HW238247   1.878   3.966   7.618  0.1673 -0.8923  0.0585
 8929SOL     OW38248   0.602   2.361   5.966  0.1299  0.2373  0.1010
 8929SOL    HW138249   0.686   2.396   5.938 -0.4089  1.0271 -0.5252
 8929SOL    HW238250   0.556   2.445   5.968 -4.0444 -1.9747 -1.9447
 8930SOL     OW38251   1.253   2.532   3.854 -0.0082 -0.0984  0.0536
 8930SOL    HW138252   1.313   2.514   3.926 -0.6835  0.9165  0.8778
 8930SOL    HW238253   1.177   2.563   3.903  1.4025  0.9038  1.6079
 8931SOL     OW38254   3.197   1.949   3.675  0.8131  0.5515 -0.6765
 8931SOL    HW138255   3.154   1.888   3.616  0.0969 -1.4933  1.9758
 8931SOL    HW238256   3.279   1.900   3.672  0.0919 -0.6086 -1.5312
 8932SOL     OW38257   2.002   3.719   1.567  0.3241 -0.0585  0.4765
 8932SOL    HW138258   2.030   3.743   1.656  0.7630  0.3526  0.2285
 8932SOL    HW238259   2.079   3.729   1.511  0.6128  3.4372  1.5037
 8933SOL     OW38260   0.043   2.411  14.457  0.3786 -0.1055  0.4189
 8933SOL    HW138261   0.095   2.470  14.512  1.7568  0.3088 -1.3665
 8933SOL    HW238262   0.037   2.329  14.505  0.3195 -0.7158 -0.6438
 8934SOL     OW38263   4.566   3.041   8.388 -0.5599 -0.3327 -0.5324
 8934SOL    HW138264   4.652   3.029   8.428 -0.7201 -1.8151 -0.6349
 8934SOL    HW238265   4.549   2.953   8.353  0.5510 -1.1737  0.9969
 8935SOL     OW38266   4.312   4.687  10.835  0.3120 -0.7179 -0.9116
 8935SOL    HW138267   4.277   4.638  10.761 -4.2024  0.0737  0.6608
 8935SOL    HW238268   4.313   4.627  10.910 -0.6864 -0.9075 -1.0473
 8936SOL     OW38269   2.222   0.149  12.775  0.5597 -0.0831 -0.5106
 8936SOL    HW138270   2.142   0.156  12.827  0.0864 -2.0785 -0.9648
 8936SOL    HW238271   2.204   0.215  12.709  0.1439 -1.1953 -1.5081
 8937SOL     OW38272   1.279   1.483   8.163 -0.2803  0.1590  0.5712
 8937SOL    HW138273   1.222   1.559   8.168  1.2330  1.2707  0.9191
 8937SOL    HW238274   1.221   1.408   8.157 -1.9841  1.4320  1.1710
 8938SOL     OW38275   2.102   4.216   5.075 -0.7487 -0.0589 -0.3458
 8938SOL    HW138276   2.194   4.190   5.072 -0.3372  1.5950 -1.6702
 8938SOL    HW238277   2.103   4.311   5.069 -0.9807 -0.0940 -0.9697
 8939SOL     OW38278   0.670   4.249   5.746  0.0286 -0.2563 -0.8263
 8939SOL    HW138279   0.724   4.243   5.667  0.9888  0.5370 -0.2392
 8939SOL    HW238280   0.720   4.314   5.796 -1.0190  1.5297 -2.0692
 8940SOL     OW38281   2.098   2.006  10.972  0.2574  0.6567  0.3348
 8940SOL    HW138282   2.154   2.029  11.046 -3.0796  0.9193  2.7904
 8940SOL    HW238283   2.042   2.083  10.977 -2.8255 -1.5773  0.0140
 8941SOL     OW38284   1.051   3.113   7.642  0.2443  0.3122  0.3374
 8941SOL    HW138285   1.136   3.120   7.684  0.4907 -0.7981  0.0333
 8941SOL    HW238286   1.043   3.018   7.646  1.4373  0.0776 -2.5515
 8942SOL     OW38287   0.764   4.672  12.966  0.0811  0.2560 -0.1911
 8942SOL    HW138288   0.742   0.039  12.935 -0.1160  0.3260  0.1593
 8942SOL    HW238289   0.857   4.690  12.980  0.4563 -2.2087  0.4150
 8943SOL     OW38290   3.359   4.025   4.241 -0.5248 -0.5469 -0.8458
 8943SOL    HW138291   3.280   4.028   4.294  2.1897 -0.7097  3.1678
 8943SOL    HW238292   3.323   3.975   4.168 -1.0304  1.4883 -1.9925
 8944SOL     OW38293   0.701   4.675   0.585 -0.0474 -0.1370 -0.3402
 8944SOL    HW138294   0.710   4.596   0.639  1.1104 -0.2541 -0.6890
 8944SOL    HW238295   0.794   4.673   0.562 -0.2231  1.7154 -1.1733
 8945SOL     OW38296   3.360   0.598   1.138  0.8507 -0.2163 -0.0561
 8945SOL    HW138297   3.394   0.672   1.087 -0.7211  1.6486  1.6260
 8945SOL    HW238298   3.272   0.629   1.159  0.5291 -0.9054 -0.3825
 8946SOL     OW38299   0.023   3.119   6.464  0.1621 -0.5611  0.6417
 8946SOL    HW138300   4.662   3.108   6.414 -0.0128  0.4046  0.7263
 8946SOL    HW238301   4.701   3.152   6.543 -1.2250 -1.5906  0.3241
 8947SOL     OW38302   0.882   0.398   5.634 -0.3940  0.7284 -0.5205
 8947SOL    HW138303   0.872   0.418   5.541 -1.2314 -0.6372 -0.7321
 8947SOL    HW238304   0.923   0.480   5.663  3.5043 -1.0954 -0.8984
 8948SOL     OW38305   2.190   0.444  14.679  0.2418 -0.1967  0.0670
 8948SOL    HW138306   2.108   0.434  14.728 -1.0266  1.3418 -1.7540
 8948SOL    HW238307   2.182   0.527  14.634  3.8313 -0.0581 -0.3007
 8949SOL     OW38308   4.454   3.561   5.633 -0.2628  0.0373 -0.2189
 8949SOL    HW138309   4.507   3.602   5.564 -1.2669 -1.9956 -2.1803
 8949SOL    HW238310   4.510   3.590   5.706  1.2201 -2.1511 -0.4856
 8950SOL     OW38311   4.025   4.055  15.786 -0.6408  0.4011 -0.5127
 8950SOL    HW138312   3.989   4.019  15.867  1.3229 -0.7030 -0.1402
 8950SOL    HW238313   4.066   3.972  15.761  0.8487  1.3157 -1.0782
 8951SOL     OW38314   2.021   0.698   4.271  0.3127 -0.7068  0.1254
 8951SOL    HW138315   2.089   0.703   4.204  0.8397  0.3384  0.7429
 8951SOL    HW238316   1.994   0.790   4.277 -1.1470 -1.1486  0.3017
 8952SOL     OW38317   4.502   3.606  15.464 -0.3870  0.0252  0.0543
 8952SOL    HW138318   4.545   3.691  15.457  1.1099 -0.8285 -0.9261
 8952SOL    HW238319   4.536   3.572  15.546 -0.1012 -4.0421 -1.7722
 8953SOL     OW38320   2.736   1.836   5.454  0.0555  0.4099  0.2337
 8953SOL    HW138321   2.696   1.814   5.538 -0.3672  0.1971 -0.0258
 8953SOL    HW238322   2.769   1.755   5.415  0.9260  1.0314 -0.3320
 8954SOL     OW38323   4.535   2.362   8.910 -0.7685  0.2979 -0.3999
 8954SOL    HW138324   4.441   2.343   8.912 -0.1323 -2.6658  1.4151
 8954SOL    HW238325   4.560   2.278   8.949 -0.9467  0.6557  0.5024
 8955SOL     OW38326   1.900   3.248   7.258  0.2933  0.7844 -0.2836
 8955SOL    HW138327   1.860   3.333   7.275  0.0825  0.7593 -0.6653
 8955SOL    HW238328   1.989   3.274   7.234  0.0312  1.8212 -0.1390
 8956SOL     OW38329   0.164   4.172  14.797  0.6573 -0.0403  0.1673
 8956SOL    HW138330   0.193   4.258  14.767 -2.1021  1.2441  1.2318
 8956SOL    HW238331   0.232   4.113  14.762 -0.0048 -1.4517  1.2554
 8957SOL     OW38332   0.294   4.662   9.007 -0.0522 -0.0534  0.0269
 8957SOL    HW138333   0.227   0.006   8.986  0.0931  0.9370  2.6623
 8957SOL    HW238334   0.310   4.691   9.097  0.0990  0.0991 -0.0491
 8958SOL     OW38335   3.413   4.004   6.024  0.2057 -0.1730  0.0015
 8958SOL    HW138336   3.483   4.069   6.026  1.5138 -1.5114 -1.6650
 8958SOL    HW238337   3.451   3.920   5.996  0.3857 -0.1283  0.1156
 8959SOL     OW38338   4.231   1.278  16.614  0.0341  0.1838 -0.2850
 8959SOL    HW138339   4.146   1.303  16.579  0.3994 -0.2298 -1.4567
 8959SOL    HW238340   4.284   1.333  16.557  1.0676 -0.3176  0.1945
 8960SOL     OW38341   2.779   0.607  14.038  0.0761  0.0460  0.1021
 8960SOL    HW138342   2.719   0.597  14.112 -2.2900 -0.6474 -1.8909
 8960SOL    HW238343   2.852   0.550  14.063 -0.3101 -0.1775  0.6992
 8961SOL     OW38344   2.377   2.094   9.330 -0.2848 -0.0011 -0.2666
 8961SOL    HW138345   2.461   2.131   9.303 -0.4100  0.1815 -0.4064
 8961SOL    HW238346   2.391   2.005   9.297 -0.0198 -0.0366 -0.0531
 8962SOL     OW38347   3.944   0.152   8.618 -0.2170  0.4344  0.2024
 8962SOL    HW138348   3.876   0.102   8.664  0.5924 -0.4548  0.4462
 8962SOL    HW238349   3.943   0.095   8.541 -0.9991 -1.4768  1.6291
 8963SOL     OW38350   1.671   0.399   3.688  0.3534 -0.4000 -0.0016
 8963SOL    HW138351   1.679   0.356   3.603  0.0727  0.2970 -0.3814
 8963SOL    HW238352   1.576   0.393   3.698  0.1528  0.7942 -1.2171
 8964SOL     OW38353   0.814   2.632  15.579  0.6235  0.3624  0.3370
 8964SOL    HW138354   0.892   2.580  15.592  1.6134  0.9016 -3.2700
 8964SOL    HW238355   0.812   2.664  15.669 -0.8436 -1.0633  0.7920
 8965SOL     OW38356   1.333   0.056  11.626  0.3066  0.3892 -0.3249
 8965SOL    HW138357   1.279   0.110  11.569 -0.2544 -0.8674 -1.0040
 8965SOL    HW238358   1.416   0.053  11.578  0.6122 -1.3381  0.2940
 8966SOL     OW38359   1.949   3.419   2.248  0.3414  0.0915 -0.2831
 8966SOL    HW138360   1.948   3.493   2.187 -0.6229  0.6017  0.3424
 8966SOL    HW238361   1.875   3.443   2.305  2.2406  1.6690  1.5460
 8967SOL     OW38362   1.975   3.401   7.958  0.3383 -0.0976  0.0460
 8967SOL    HW138363   1.921   3.402   7.879  0.8555  1.5976 -0.2933
 8967SOL    HW238364   1.916   3.362   8.022  2.2514 -0.3413  1.6400
 8968SOL     OW38365   4.632   0.588   8.120 -0.0351  0.1699 -0.1952
 8968SOL    HW138366   4.566   0.623   8.059  0.1637  0.2635 -0.3571
 8968SOL    HW238367   4.585   0.507   8.138  1.3627 -0.0092  2.6543
 8969SOL     OW38368   1.790   0.196   1.328 -0.3105 -0.4804 -0.6084
 8969SOL    HW138369   1.797   0.262   1.258 -2.6613  1.5191  1.0367
 8969SOL    HW238370   1.700   0.165   1.317 -1.2587  1.6960  1.0508
 8970SOL     OW38371   3.407   1.994   9.290  0.3649  0.0754  0.3181
 8970SOL    HW138372   3.484   1.956   9.333 -0.1817 -1.5181 -0.1006
 8970SOL    HW238373   3.381   2.055   9.358  0.0853  0.2920  0.0181
 8971SOL     OW38374   1.939   3.738  14.849 -0.1627 -0.7297 -0.1825
 8971SOL    HW138375   1.981   3.713  14.932  1.2948  0.2469 -0.6282
 8971SOL    HW238376   1.931   3.831  14.870  0.2823 -1.0634  1.4914
 8972SOL     OW38377   4.441   4.071   4.051 -0.0558  0.1874  0.3443
 8972SOL    HW138378   4.450   4.037   3.962  0.5710 -2.1782  1.3068
 8972SOL    HW238379   4.457   3.994   4.105 -3.1477 -0.1898  0.7663
 8973SOL     OW38380   1.411   3.831  11.106 -0.6115  0.0313 -0.8243
 8973SOL    HW138381   1.327   3.803  11.069  0.4275  0.9727 -3.9405
 8973SOL    HW238382   1.390   3.911  11.154  1.1376  0.3591 -0.6135
 8974SOL     OW38383   0.930   3.857   4.639  0.3129  0.2326  0.0946
 8974SOL    HW138384   1.018   3.844   4.603 -0.3962  1.6455 -2.2105
 8974SOL    HW238385   0.917   3.949   4.613 -1.8366 -0.3921 -1.0350
 8975SOL     OW38386   2.364   0.541  15.338 -0.4016  0.0730 -0.5669
 8975SOL    HW138387   2.449   0.533  15.295 -0.3818  0.2662 -0.5656
 8975SOL    HW238388   2.314   0.475  15.289  1.2705  0.4335 -2.7898
 8976SOL     OW38389   1.185   1.695   8.734  0.9019  0.0647 -0.6872
 8976SOL    HW138390   1.235   1.763   8.779 -0.2949 -0.4209  1.3366
 8976SOL    HW238391   1.139   1.737   8.661  2.2230  1.3518 -0.7905
 8977SOL     OW38392   0.176   3.469   5.127 -0.1233 -0.3498  0.1531
 8977SOL    HW138393   0.271   3.474   5.122 -0.2133  1.1889 -0.1380
 8977SOL    HW238394   0.148   3.511   5.046 -1.5499 -0.4150  0.5965
 8978SOL     OW38395   1.854   3.649   9.854  0.1765  0.1728 -0.2183
 8978SOL    HW138396   1.936   3.678   9.813  0.5868  0.1512  0.5973
 8978SOL    HW238397   1.863   3.675   9.945 -0.4156  1.0586 -0.4201
 8979SOL     OW38398   0.128   3.602  16.173 -0.3359  0.1508  0.1296
 8979SOL    HW138399   0.102   3.538  16.239 -0.9807 -0.0741 -0.3411
 8979SOL    HW238400   0.201   3.641  16.222 -1.1557 -1.1386  2.3884
 8980SOL     OW38401   1.925   1.708   6.547  0.1625 -0.4440  0.4542
 8980SOL    HW138402   1.910   1.614   6.545 -2.2628  0.0003 -2.4423
 8980SOL    HW238403   1.987   1.732   6.615 -1.6705  1.6170  1.3997
 8981SOL     OW38404   0.607   0.009  16.562  0.1499 -0.5324 -0.2064
 8981SOL    HW138405   0.579   4.639  16.575 -2.5308  0.0626 -1.7361
 8981SOL    HW238406   0.538   0.066  16.597  1.9528  0.2819  2.0324
 8982SOL     OW38407   3.871   3.907   1.964  0.0720  0.0972 -0.2020
 8982SOL    HW138408   3.868   3.846   1.891 -0.0493  0.4279 -0.4694
 8982SOL    HW238409   3.963   3.933   1.970  0.0452 -0.6180  3.3147
 8983SOL     OW38410   3.248   3.105   4.963  0.2116 -0.3944 -0.7308
 8983SOL    HW138411   3.237   3.147   5.048  0.3421  0.5031 -1.1531
 8983SOL    HW238412   3.232   3.182   4.908  1.1727 -0.0946 -0.6058
 8984SOL     OW38413   0.587   3.839  10.089 -0.5956 -0.2192  0.2081
 8984SOL    HW138414   0.534   3.764  10.063  0.3247 -0.2235 -1.6561
 8984SOL    HW238415   0.557   3.901  10.022 -0.7895 -0.7972 -0.2400
 8985SOL     OW38416   0.228   3.965   6.397  0.8238 -0.1577  0.1834
 8985SOL    HW138417   0.305   3.911   6.378  1.7054  1.0146  0.3826
 8985SOL    HW238418   0.279   4.045   6.383 -1.0594  1.0015  0.0105
 8986SOL     OW38419   4.340   2.721   4.660 -0.0202 -0.0109 -0.2586
 8986SOL    HW138420   4.264   2.698   4.713 -0.1757 -1.4382 -1.0963
 8986SOL    HW238421   4.357   2.809   4.694  0.4631  0.1518 -0.9165
 8987SOL     OW38422   1.010   0.560   2.213  0.5300 -0.0311  0.2894
 8987SOL    HW138423   1.023   0.466   2.206  0.8392  0.0523 -0.2683
 8987SOL    HW238424   1.025   0.597   2.126 -0.3473  0.0287  0.1697
 8988SOL     OW38425   0.095   3.753   9.304 -0.0936  0.3335 -0.0697
 8988SOL    HW138426   0.068   3.712   9.387 -2.4085  0.9689 -0.5288
 8988SOL    HW238427   0.071   3.674   9.255 -1.0288  0.8088 -0.3739
 8989SOL     OW38428   4.714   0.994  16.595 -0.2448 -0.0907 -0.2669
 8989SOL    HW138429   4.669   0.927  16.646 -0.8717  2.7405  2.9509
 8989SOL    HW238430   4.700   0.963  16.506 -3.6833 -0.5081  0.4312
 8990SOL     OW38431   0.827   0.544  10.473  0.3490  0.6334  0.1495
 8990SOL    HW138432   0.921   0.543  10.492  0.1230 -0.2697  1.2398
 8990SOL    HW238433   0.804   0.621  10.525 -1.8683  0.6980 -0.9359
 8991SOL     OW38434   2.489   1.254   9.151 -0.0022  0.0683 -0.2037
 8991SOL    HW138435   2.453   1.225   9.235 -1.6030  0.4206 -0.7712
 8991SOL    HW238436   2.581   1.259   9.178 -0.4021  0.6741  1.0551
 8992SOL     OW38437   0.288   2.223  10.182  0.3575  0.0196  0.1549
 8992SOL    HW138438   0.366   2.253  10.229 -0.2613  0.3597  0.9575
 8992SOL    HW238439   0.250   2.206  10.268  1.2303  3.1548  1.1936
 8993SOL     OW38440   2.858   0.622   4.691 -0.1693 -0.0111  0.3586
 8993SOL    HW138441   2.859   0.531   4.662 -0.4426 -0.1872  0.9284
 8993SOL    HW238442   2.811   0.658   4.616 -0.5141 -0.0096  0.5784
 8994SOL     OW38443   1.550   0.803   3.090 -0.3331  0.1226 -0.8763
 8994SOL    HW138444   1.557   0.775   2.999  0.9958 -2.1628 -0.0841
 8994SOL    HW238445   1.506   0.726   3.126  0.3179  0.9645  1.7083
 8995SOL     OW38446   0.390   1.028   3.241 -0.0073  0.0869 -0.2882
 8995SOL    HW138447   0.439   1.063   3.167 -0.4392 -0.6493 -0.9150
 8995SOL    HW238448   0.349   0.953   3.197  0.7894 -0.7052  0.3247
 8996SOL     OW38449   0.810   2.296  15.985 -0.0917 -0.2834 -0.0764
 8996SOL    HW138450   0.754   2.322  16.057 -1.1880 -0.0400 -1.0141
 8996SOL    HW238451   0.747   2.299  15.913  2.4757  1.2702 -2.2771
 8997SOL     OW38452   1.196   3.406   9.327 -0.1694  0.3079  0.6517
 8997SOL    HW138453   1.152   3.353   9.393 -0.5038  0.0898  0.2554
 8997SOL    HW238454   1.280   3.411   9.373  0.4284 -0.1220 -0.3950
 8998SOL     OW38455   2.166   4.012   1.630 -0.7408  0.4988  0.4869
 8998SOL    HW138456   2.195   4.102   1.642 -2.1618  1.0372 -0.0532
 8998SOL    HW238457   2.138   4.028   1.540  2.7069  1.0830 -0.4805
 8999SOL     OW38458   0.344   3.997   4.720 -0.2488 -0.0375 -0.1598
 8999SOL    HW138459   0.417   4.045   4.758 -0.7439 -0.5287  1.4257
 8999SOL    HW238460   0.275   4.059   4.743 -0.0052  0.2983 -0.3454
 9000SOL     OW38461   4.658   3.376   9.423 -0.1335 -0.5803 -0.2523
 9000SOL    HW138462   4.695   3.294   9.457 -0.6812 -0.0002  1.7540
 9000SOL    HW238463   4.607   3.339   9.351 -1.9618 -0.0583  0.7545
 9001SOL     OW38464   2.109   0.923   8.232  0.2516 -0.2252  0.3793
 9001SOL    HW138465   2.014   0.934   8.240 -0.1452 -2.9939 -0.4989
 9001SOL    HW238466   2.116   0.920   8.136  0.1805  1.2636  0.3270
 9002SOL     OW38467   0.087   3.077  15.373 -0.2231  0.3364 -0.6605
 9002SOL    HW138468   0.071   3.074  15.278  1.3956 -0.6339 -0.8955
 9002SOL    HW238469   0.182   3.072  15.379 -0.2258 -0.6877 -1.4095
 9003SOL     OW38470   2.754   4.386   4.770 -0.2249  0.1517  0.2572
 9003SOL    HW138471   2.825   4.327   4.743  1.0671  1.9054 -0.1616
 9003SOL    HW238472   2.693   4.369   4.698 -0.8457 -1.2603  1.1199
 9004SOL     OW38473   2.167   1.103   8.425 -0.4295  0.1247 -0.4561
 9004SOL    HW138474   2.261   1.114   8.413 -0.3526 -0.1572 -0.1379
 9004SOL    HW238475   2.146   1.034   8.362  1.5079 -0.4462 -0.4715
 9005SOL     OW38476   1.793   2.453   8.140  0.1822  0.0060 -0.2133
 9005SOL    HW138477   1.752   2.375   8.178 -0.2735 -0.1716 -1.0695
 9005SOL    HW238478   1.794   2.515   8.213  0.3979  1.5034 -1.4954
 9006SOL     OW38479   3.102   1.739   4.629 -0.4275  0.2461  0.0255
 9006SOL    HW138480   3.134   1.805   4.691 -1.0318 -1.0517  1.7198
 9006SOL    HW238481   3.008   1.729   4.648 -0.3440  0.0332  0.3252
 9007SOL     OW38482   4.674   1.337   5.830 -0.2002  0.0919  0.4952
 9007SOL    HW138483   4.594   1.388   5.818  0.6344  1.2258 -0.2408
 9007SOL    HW238484   4.653   1.257   5.782 -2.2784  1.0807 -0.2575
 9008SOL     OW38485   3.592   1.397   1.969 -0.0056  0.3267  0.1254
 9008SOL    HW138486   3.584   1.333   2.039 -0.3545  0.7587  0.4737
 9008SOL    HW238487   3.677   1.374   1.931  1.3086  1.1364  2.6069
 9009SOL     OW38488   3.360   2.624   9.702 -0.3148 -0.3071 -1.1184
 9009SOL    HW138489   3.367   2.720   9.708 -1.6286 -0.2912  0.0697
 9009SOL    HW238490   3.453   2.600   9.699 -0.7959 -2.1182 -1.2988
 9010SOL     OW38491   2.313   3.444   8.906  0.5031 -0.1091  0.2351
 9010SOL    HW138492   2.266   3.480   8.981  1.8710  1.2475  0.4392
 9010SOL    HW238493   2.333   3.351   8.916  0.5397 -0.1141  0.1130
 9011SOL     OW38494   1.524   4.704   8.722  0.1577 -0.0628 -0.3108
 9011SOL    HW138495   1.435   4.678   8.746  0.7463 -0.0512  1.8489
 9011SOL    HW238496   1.540   0.058   8.780  0.5705 -0.3647 -0.0381
 9012SOL     OW38497   4.014   3.950   5.127  0.3546  0.2624  0.4790
 9012SOL    HW138498   4.055   4.035   5.141  2.4638 -0.6044 -0.3225
 9012SOL    HW238499   3.930   3.974   5.167 -0.3216 -0.6659 -0.3818
 9013SOL     OW38500   1.615   2.200   2.135  0.3688 -0.8989  0.4047
 9013SOL    HW138501   1.590   2.283   2.176 -2.1603 -1.7968  0.6502
 9013SOL    HW238502   1.674   2.173   2.206  1.9296  1.4067  0.0065
 9014SOL     OW38503   3.178   4.293   1.349  0.2484 -0.0947  0.3426
 9014SOL    HW138504   3.147   4.203   1.344 -0.3112  0.0212  1.7162
 9014SOL    HW238505   3.099   4.343   1.329  0.7767  1.8138  3.0406
 9015SOL     OW38506   0.938   3.341   8.870  0.4051 -0.1220  0.4999
 9015SOL    HW138507   0.847   3.332   8.897  0.8435  1.5416  2.5315
 9015SOL    HW238508   0.976   3.391   8.943 -1.0688  0.1076  1.1095
 9016SOL     OW38509   1.631   0.098   1.954 -0.0397  0.3410 -0.1511
 9016SOL    HW138510   1.699   0.062   1.897  2.0529  1.6914  1.4748
 9016SOL    HW238511   1.679   0.139   2.026 -0.7021  1.3422 -0.2779
 9017SOL     OW38512   2.453   3.187  13.880  0.0296 -0.6398 -0.1698
 9017SOL    HW138513   2.381   3.243  13.910  1.8605  2.8142 -2.1357
 9017SOL    HW238514   2.414   3.116  13.830  0.5472 -1.1704  0.1749
 9018SOL     OW38515   3.582   1.364   5.226  0.2597 -0.0923  0.2331
 9018SOL    HW138516   3.654   1.315   5.186  1.3022  1.1933  0.5427
 9018SOL    HW238517   3.599   1.369   5.321 -0.4151  1.1176  0.2911
 9019SOL     OW38518   0.901   3.153   9.166 -0.4809  0.1462 -0.6909
 9019SOL    HW138519   0.933   3.238   9.134  1.4867 -0.2491  0.2465
 9019SOL    HW238520   0.873   3.184   9.253  0.6920  0.8725 -0.5581
 9020SOL     OW38521   3.859   1.115   2.946  0.0508  0.9289 -0.6860
 9020SOL    HW138522   3.883   1.066   3.025 -2.9126  0.0607 -0.3081
 9020SOL    HW238523   3.904   1.070   2.876  1.0957  0.2361  0.4398
 9021SOL     OW38524   1.224   0.748   1.279  0.2108 -0.1540  0.0553
 9021SOL    HW138525   1.134   0.771   1.254  0.6990 -0.8011 -2.2866
 9021SOL    HW238526   1.260   0.753   1.190 -0.6077  1.1814 -0.2009
 9022SOL     OW38527   1.964   3.169  10.460 -0.2244 -0.2941  0.1250
 9022SOL    HW138528   1.905   3.198  10.530  0.7184 -0.2323  0.8959
 9022SOL    HW238529   2.049   3.174  10.504  0.3834 -0.9241 -1.0046
 9023SOL     OW38530   0.295   3.451  10.315  0.1422 -0.3258 -0.1303
 9023SOL    HW138531   0.214   3.427  10.360 -1.7486  2.7995 -1.8378
 9023SOL    HW238532   0.314   3.388  10.246 -1.3507  1.2302 -1.9753
 9024SOL     OW38533   3.582   4.647   8.289  0.1258 -1.2984 -0.0175
 9024SOL    HW138534   3.570   4.639   8.195  0.0176  0.6447 -0.1670
 9024SOL    HW238535   3.545   4.567   8.328 -2.4891 -1.3735 -2.6625
 9025SOL     OW38536   1.379   1.782   5.876 -0.0818  0.0403  0.4622
 9025SOL    HW138537   1.409   1.696   5.906 -0.3988 -0.2225  0.0201
 9025SOL    HW238538   1.320   1.814   5.944  1.2921 -0.6233  1.9739
 9026SOL     OW38539   2.492   2.657   9.540 -0.5716  0.0991 -0.4631
 9026SOL    HW138540   2.540   2.637   9.459 -0.4668  1.3232 -0.7102
 9026SOL    HW238541   2.560   2.667   9.606 -0.5616  1.6027 -0.6963
 9027SOL     OW38542   2.541   0.352   5.606  0.3214 -0.0434  0.0559
 9027SOL    HW138543   2.538   0.305   5.522 -0.1133 -3.3962  1.9384
 9027SOL    HW238544   2.460   0.314   5.640  0.8824 -0.5427  0.8281
 9028SOL     OW38545   1.664   1.312   5.966  0.1685  0.2144 -0.0119
 9028SOL    HW138546   1.666   1.341   6.057 -4.0354  3.9362 -1.1152
 9028SOL    HW238547   1.632   1.222   5.974  2.5796 -0.7083 -0.7658
 9029SOL     OW38548   2.167   1.969   2.660 -0.2417  0.3984 -0.1097
 9029SOL    HW138549   2.138   2.021   2.736  0.7554 -0.1055  0.6151
 9029SOL    HW238550   2.261   1.971   2.676 -0.4464  1.2533  1.0265
 9030SOL     OW38551   2.503   4.488  12.381 -0.6392  0.4927 -0.4584
 9030SOL    HW138552   2.582   4.470  12.433 -0.7659 -0.7828 -0.7050
 9030SOL    HW238553   2.500   4.580  12.406  0.4850  0.5476 -0.5332
 9031SOL     OW38554   2.945   3.544   9.222  0.2395 -0.0049 -0.1533
 9031SOL    HW138555   2.880   3.476   9.209  1.1574 -0.5704 -1.9078
 9031SOL    HW238556   3.021   3.525   9.166 -1.4368 -1.3583 -1.9797
 9032SOL     OW38557   3.383   0.520  17.114 -0.7555 -0.3438 -0.5462
 9032SOL    HW138558   3.329   0.475  17.179 -0.9508 -0.2818 -0.6669
 9032SOL    HW238559   3.443   0.449  17.093 -0.6920 -0.2466 -0.6936
 9033SOL     OW38560   1.265   3.154   1.428 -0.3922  0.1121  0.4775
 9033SOL    HW138561   1.271   3.118   1.340  0.1198 -0.2537  0.6655
 9033SOL    HW238562   1.290   3.245   1.414 -0.3173  0.1724  1.0070
 9034SOL     OW38563   1.693   1.207  16.829  0.1242 -0.6158 -0.2571
 9034SOL    HW138564   1.612   1.259  16.831  1.7433  1.9890 -2.2430
 9034SOL    HW238565   1.728   1.255  16.754 -0.3373 -4.7289 -3.0901
 9035SOL     OW38566   4.186   2.912   2.981  0.9182  0.2042 -0.1569
 9035SOL    HW138567   4.253   2.865   2.932  1.2030 -1.8380  2.2393
 9035SOL    HW238568   4.133   2.845   3.023  0.4815  0.6667  0.0430
 9036SOL     OW38569   1.648   2.330   3.165 -0.3550 -0.5307  0.7490
 9036SOL    HW138570   1.697   2.293   3.092  0.0339  3.5523 -1.0179
 9036SOL    HW238571   1.562   2.340   3.125 -0.1733  0.2078  0.5401
 9037SOL     OW38572   2.539   3.558   3.932  0.6573  0.2994 -0.1280
 9037SOL    HW138573   2.481   3.483   3.917  3.0998 -1.3371 -1.5343
 9037SOL    HW238574   2.514   3.624   3.867 -1.8030 -0.9480 -0.4463
 9038SOL     OW38575   2.731   1.497   5.636 -0.4139 -0.4095 -0.1353
 9038SOL    HW138576   2.658   1.518   5.577  0.8839 -0.2375 -1.6939
 9038SOL    HW238577   2.727   1.575   5.691  0.5312 -1.4994  1.4789
 9039SOL     OW38578   0.469   2.422   9.572  0.8797 -0.2617  0.6808
 9039SOL    HW138579   0.510   2.336   9.584  0.1227 -0.8592 -1.0496
 9039SOL    HW238580   0.544   2.480   9.587 -1.8518  2.9217  2.0594
 9040SOL     OW38581   2.650   0.107   3.235 -0.0658  0.2844  0.1860
 9040SOL    HW138582   2.669   0.181   3.177 -2.7978  1.2497  0.5362
 9040SOL    HW238583   2.599   0.050   3.177  0.1566 -0.1539  0.4264
 9041SOL     OW38584   3.441   2.317  15.335  0.0851  0.0988  0.5493
 9041SOL    HW138585   3.405   2.381  15.273 -1.8115  0.1003  1.6378
 9041SOL    HW238586   3.534   2.330  15.349  0.4201 -2.9585  1.1034
 9042SOL     OW38587   4.434   0.855   7.728 -0.1946  0.1691  0.2381
 9042SOL    HW138588   4.476   0.771   7.749 -0.2500  0.0380 -0.1815
 9042SOL    HW238589   4.432   0.897   7.814 -0.8863 -0.0871  0.3555
 9043SOL     OW38590   1.154   3.387   5.030 -0.4901  0.0737 -0.0545
 9043SOL    HW138591   1.241   3.397   5.070 -1.8643 -2.3069  3.4701
 9043SOL    HW238592   1.133   3.473   4.993  1.1616  0.9376  0.9834
 9044SOL     OW38593   1.193   1.988   8.712  0.3839  0.4077  0.2964
 9044SOL    HW138594   1.120   2.044   8.739 -2.4943 -1.8442 -2.7810
 9044SOL    HW238595   1.149   1.928   8.651 -1.9476 -0.1187  2.5164
 9045SOL     OW38596   2.509   3.470   5.287  0.0365  0.2971 -1.1242
 9045SOL    HW138597   2.465   3.443   5.206 -1.4412 -2.6058  0.6047
 9045SOL    HW238598   2.544   3.386   5.316 -1.3592  0.6140  1.4907
 9046SOL     OW38599   3.733   3.570   4.944  0.1384 -0.0529  0.4866
 9046SOL    HW138600   3.824   3.545   4.955 -0.1740 -1.3873  0.0975
 9046SOL    HW238601   3.701   3.489   4.904 -0.9387  0.3972  0.4214
 9047SOL     OW38602   3.853   3.792  12.896  0.0494 -0.6502  0.0200
 9047SOL    HW138603   3.866   3.818  12.805  3.9987  0.5660  0.9425
 9047SOL    HW238604   3.781   3.729  12.897  0.8573 -1.5458  2.3271
 9048SOL     OW38605   2.186   0.401   3.652  0.2371 -0.0519 -0.1589
 9048SOL    HW138606   2.165   0.495   3.656  0.9525  0.1169 -0.3876
 9048SOL    HW238607   2.281   0.395   3.654 -0.0267 -3.7389  0.6104
 9049SOL     OW38608   0.730   4.620   6.662 -0.4852 -0.3214  0.2197
 9049SOL    HW138609   0.681   4.607   6.581 -2.6226 -0.4931  1.5595
 9049SOL    HW238610   0.748   4.527   6.674 -0.3198 -0.2616  0.4354
 9050SOL     OW38611   3.051   2.826   9.265 -0.0392 -0.4398  0.6184
 9050SOL    HW138612   3.030   2.804   9.175  1.6528 -0.8955  0.3453
 9050SOL    HW238613   3.010   2.912   9.275 -1.8099 -1.2549  0.4387
 9051SOL     OW38614   2.424   1.173   0.370 -0.3600 -0.2051  0.3088
 9051SOL    HW138615   2.427   1.169   0.275  2.2160  0.0450  0.3857
 9051SOL    HW238616   2.462   1.088   0.393 -0.4361 -0.2908  0.1182
 9052SOL     OW38617   0.665   0.822   7.804 -0.0425  0.2664 -0.3472
 9052SOL    HW138618   0.666   0.760   7.732  0.8193  0.5215 -0.5607
 9052SOL    HW238619   0.638   0.765   7.876  0.0829  1.6910  0.8363
 9053SOL     OW38620   0.850   1.380   9.362  0.2698  0.1793 -0.0525
 9053SOL    HW138621   0.761   1.350   9.348  0.4131 -1.3831  2.2759
 9053SOL    HW238622   0.895   1.307   9.318  0.2835  0.8331 -1.1195
 9054SOL     OW38623   1.032   3.669   8.438  0.2117 -0.4137 -0.6779
 9054SOL    HW138624   0.955   3.648   8.491  1.6251 -0.0182  1.4957
 9054SOL    HW238625   1.049   3.762   8.452  1.6469 -0.7044 -0.4552
 9055SOL     OW38626   4.651   3.343   7.619 -0.2314 -0.4381  0.1100
 9055SOL    HW138627   0.014   3.390   7.619  0.6702 -2.0501  1.4923
 9055SOL    HW238628   4.654   3.311   7.709 -0.1568 -0.8120 -0.0250
 9056SOL     OW38629   4.227   1.147   1.239  0.2057 -0.1153 -0.3885
 9056SOL    HW138630   4.207   1.058   1.211 -1.4175  0.0104  0.3179
 9056SOL    HW238631   4.321   1.156   1.225  0.6590 -3.5315  0.4963
 9057SOL     OW38632   3.718   2.730  10.829  0.2368 -0.0707  0.1753
 9057SOL    HW138633   3.771   2.670  10.882  0.1873  0.1994  0.5303
 9057SOL    HW238634   3.648   2.733  10.894  1.2136  0.0369  1.2112
 9058SOL     OW38635   0.194   1.957   8.316 -0.5080 -1.0883  0.3676
 9058SOL    HW138636   0.124   2.004   8.361 -0.3819 -2.1386  1.6428
 9058SOL    HW238637   0.265   1.974   8.377 -0.6209 -0.1503  0.2385
 9059SOL     OW38638   4.104   4.710   9.727 -0.5713 -0.2005  0.5742
 9059SOL    HW138639   4.024   4.658   9.725  0.7803 -2.2760 -0.0094
 9059SOL    HW238640   4.063   0.069   9.761 -0.1175  0.4288 -0.3749
 9060SOL     OW38641   1.345   3.274   3.526  0.4633 -0.4671  0.2914
 9060SOL    HW138642   1.292   3.235   3.456 -0.2956 -0.5361  0.8982
 9060SOL    HW238643   1.271   3.320   3.567  0.4111  0.8024 -1.2153
 9061SOL     OW38644   3.907   1.842   4.818  0.1948 -0.5777 -0.1830
 9061SOL    HW138645   3.917   1.937   4.817 -0.3276 -0.5192  0.0613
 9061SOL    HW238646   3.872   1.829   4.906  0.0658 -0.0223 -0.1544
 9062SOL     OW38647   4.021   0.770  16.938 -0.8290 -0.3281 -0.0473
 9062SOL    HW138648   4.036   0.851  16.988 -1.3535 -0.3610  0.1689
 9062SOL    HW238649   4.007   0.804  16.849 -1.0826  1.3336  0.6314
 9063SOL     OW38650   0.205   2.970   9.019 -0.3567 -0.0422 -0.4351
 9063SOL    HW138651   0.162   3.026   8.954 -0.5064  2.4052  1.7901
 9063SOL    HW238652   0.133   2.942   9.075 -1.0783 -0.0822 -1.3757
 9064SOL     OW38653   1.486   3.884  10.747  0.0660 -0.2713 -0.6949
 9064SOL    HW138654   1.393   3.874  10.768  0.5886  2.1920  2.6929
 9064SOL    HW238655   1.531   3.849  10.825  0.7901  2.1162 -0.0655
 9065SOL     OW38656   1.690   0.467  10.094  0.3739 -0.1976  0.3889
 9065SOL    HW138657   1.645   0.552  10.091  0.9216  0.1417  1.4691
 9065SOL    HW238658   1.741   0.477  10.014 -0.6147  0.6732 -0.1473
 9066SOL     OW38659   3.632   1.327   2.433 -0.0246  0.1176  0.3565
 9066SOL    HW138660   3.644   1.272   2.510 -2.1026  0.5775  1.0143
 9066SOL    HW238661   3.686   1.404   2.447 -0.8358  0.8679 -0.6086
 9067SOL     OW38662   1.988   4.573   3.372  0.5050  0.2953  0.0756
 9067SOL    HW138663   1.960   4.489   3.335 -0.6544  0.8238 -0.2565
 9067SOL    HW238664   2.075   4.578   3.334 -0.2440  0.6488 -1.5886
 9068SOL     OW38665   2.212   2.409   4.566 -0.2731  0.1355  0.5690
 9068SOL    HW138666   2.179   2.437   4.481 -0.8719 -1.9366  0.1249
 9068SOL    HW238667   2.295   2.374   4.536 -0.4880 -0.7730  1.0313
 9069SOL     OW38668   3.202   2.204   3.915 -0.2345  0.1128  0.5871
 9069SOL    HW138669   3.140   2.136   3.940  0.4400 -0.4256  0.8231
 9069SOL    HW238670   3.152   2.285   3.926 -1.1964 -0.9070  3.8515
 9070SOL     OW38671   0.078   3.632  15.532 -1.0342  0.1194  0.4706
 9070SOL    HW138672   0.164   3.651  15.569 -0.7550  1.3313 -0.8204
 9070SOL    HW238673   0.089   3.553  15.480 -0.4232  1.3226 -1.2081
 9071SOL     OW38674   3.694   3.430  14.825 -0.1798  0.4230 -0.3666
 9071SOL    HW138675   3.732   3.515  14.848 -0.9080  0.4177  0.8769
 9071SOL    HW238676   3.633   3.459  14.757  0.7097  1.8348 -0.5722
 9072SOL     OW38677   3.612   2.345  10.730  0.7398 -0.5065 -0.0864
 9072SOL    HW138678   3.696   2.311  10.699  0.8201 -0.0864 -0.3289
 9072SOL    HW238679   3.569   2.353  10.644 -1.3122 -1.6258  0.8292
 9073SOL     OW38680   2.780   0.730   9.402  0.6205 -0.3309 -0.3233
 9073SOL    HW138681   2.838   0.753   9.329  0.4115 -1.1330 -0.7479
 9073SOL    HW238682   2.808   0.641   9.423  1.3770 -0.1146 -0.3998
 9074SOL     OW38683   4.083   1.432  10.460 -0.3782 -0.1176 -0.2852
 9074SOL    HW138684   4.082   1.421  10.365  0.2499  1.6074 -0.4915
 9074SOL    HW238685   4.165   1.477  10.481 -1.6807  2.4825 -0.7550
 9075SOL     OW38686   2.960   0.764   9.204  0.3456  0.0076  0.6910
 9075SOL    HW138687   2.990   0.696   9.143 -0.4217  1.1721 -0.9526
 9075SOL    HW238688   3.007   0.838   9.166  0.0679 -0.2813 -0.2118
 9076SOL     OW38689   0.813   1.965  14.785 -0.4258 -0.5971  0.1424
 9076SOL    HW138690   0.898   1.997  14.815  0.3299 -3.9356  1.5451
 9076SOL    HW238691   0.821   1.873  14.760  0.5630 -1.0762  2.1572
 9077SOL     OW38692   3.881   2.715   4.094 -0.5047 -0.6516  0.2881
 9077SOL    HW138693   3.830   2.721   4.013 -1.7140  0.9389  1.1641
 9077SOL    HW238694   3.954   2.775   4.079 -0.1148 -1.5169 -1.3166
 9078SOL     OW38695   2.809   0.797   5.727  0.1974 -0.2019 -0.1266
 9078SOL    HW138696   2.881   0.841   5.683  1.6142 -1.0150  1.3880
 9078SOL    HW238697   2.828   0.704   5.732  0.4969 -0.0116  2.2683
 9079SOL     OW38698   1.524   2.295   4.676  0.1722 -0.1570  0.3731
 9079SOL    HW138699   1.532   2.387   4.649 -1.4202 -0.1628 -0.1014
 9079SOL    HW238700   1.437   2.286   4.714  0.6842 -1.3688  1.2447
 9080SOL     OW38701   1.870   1.416   8.334  0.1487  0.0365  0.6752
 9080SOL    HW138702   1.806   1.483   8.358  0.0628  0.6872 -1.3153
 9080SOL    HW238703   1.819   1.337   8.353 -0.7690  0.7724  1.2693
 9081SOL     OW38704   0.377   0.347   8.748  0.2405 -0.0852  0.0483
 9081SOL    HW138705   0.318   0.395   8.807  0.7049 -2.0296  2.1147
 9081SOL    HW238706   0.336   0.260   8.743  0.0211 -0.0013  0.3349
 9082SOL     OW38707   2.504   3.017   0.839 -0.3260  0.4349  0.4104
 9082SOL    HW138708   2.440   3.074   0.798 -1.5231 -0.9560  0.3192
 9082SOL    HW238709   2.582   3.043   0.791 -0.1689 -0.3580  0.2248
 9083SOL     OW38710   2.077   2.115   7.865  0.1820  0.6529  0.1061
 9083SOL    HW138711   2.057   2.124   7.958  2.0693  2.1977  0.3653
 9083SOL    HW238712   2.119   2.029   7.867 -0.8275  0.1232 -1.1636
 9084SOL     OW38713   1.413   2.704   6.499  0.0089  0.3699  0.1732
 9084SOL    HW138714   1.491   2.676   6.546  1.0571  1.9406 -0.6179
 9084SOL    HW238715   1.451   2.774   6.446  2.4996  0.2920  1.8389
 9085SOL     OW38716   1.090   3.688  14.323  0.1494 -0.2096  0.0823
 9085SOL    HW138717   1.062   3.779  14.334 -1.3235 -0.2962 -2.7867
 9085SOL    HW238718   1.069   3.647  14.407  1.8419 -0.9102  0.1626
 9086SOL     OW38719   0.516   4.430   1.755  0.0618  0.0492  0.4910
 9086SOL    HW138720   0.452   4.473   1.698 -0.1071 -2.1828 -0.9801
 9086SOL    HW238721   0.461   4.397   1.826 -1.2127 -0.3926 -0.7062
 9087SOL     OW38722   3.897   0.461  13.865 -0.6600 -0.0663  1.3803
 9087SOL    HW138723   3.935   0.493  13.783  1.3795  0.4029  2.5183
 9087SOL    HW238724   3.956   0.388  13.884 -1.0461 -1.1543 -1.6051
 9088SOL     OW38725   3.887   1.382   1.771 -0.1799  0.2118 -0.6387
 9088SOL    HW138726   3.906   1.419   1.857 -1.7926 -0.3247 -0.0669
 9088SOL    HW238727   3.967   1.373   1.719  0.1590  1.0760 -0.2795
 9089SOL     OW38728   1.034   4.556   4.353  0.0333 -0.4300  0.4994
 9089SOL    HW138729   1.016   4.609   4.275  1.9254  1.1358  1.1217
 9089SOL    HW238730   1.042   4.627   4.417 -1.1306 -0.2470  0.4438
 9090SOL     OW38731   4.205   3.239   4.720 -0.3324  0.4892 -0.2470
 9090SOL    HW138732   4.206   3.202   4.632  0.0014 -0.2556  0.0678
 9090SOL    HW238733   4.143   3.178   4.761  0.2789  0.2565  0.3319
 9091SOL     OW38734   1.526   3.866   4.021 -0.0990 -1.0322 -0.6302
 9091SOL    HW138735   1.451   3.838   3.968 -0.7020  1.3688 -1.0324
 9091SOL    HW238736   1.538   3.784   4.068  0.2126  1.2364  3.2390
 9092SOL     OW38737   2.884   0.917   2.252 -0.5455 -0.1146  0.3814
 9092SOL    HW138738   2.860   0.985   2.316 -1.5834 -0.2204  0.1087
 9092SOL    HW238739   2.921   0.852   2.311 -1.9772 -0.1467  1.2539
 9093SOL     OW38740   4.339   3.864   7.434  0.0036 -0.2314  0.4554
 9093SOL    HW138741   4.327   3.950   7.473 -0.7443 -0.7930  1.4675
 9093SOL    HW238742   4.390   3.828   7.506  1.6235  3.9160  1.3833
 9094SOL     OW38743   3.157   0.375   5.718  0.3020 -0.1609  0.0723
 9094SOL    HW138744   3.188   0.395   5.806 -1.3853 -1.2824  0.9053
 9094SOL    HW238745   3.146   0.281   5.734 -0.0607 -0.5274 -2.3354
 9095SOL     OW38746   3.289   4.299   5.592 -0.5014  0.3066 -0.1576
 9095SOL    HW138747   3.329   4.250   5.664 -0.7307 -0.8027 -0.7914
 9095SOL    HW238748   3.207   4.251   5.581 -0.4473  0.3944 -0.8864
 9096SOL     OW38749   0.699   3.389  10.209 -0.1315 -0.0832 -0.8052
 9096SOL    HW138750   0.776   3.343  10.242 -0.6856 -1.0717 -0.8986
 9096SOL    HW238751   0.656   3.400  10.294 -0.4621  1.2547 -1.1353
 9097SOL     OW38752   3.364   0.227   2.201 -0.6767  0.5069  0.2576
 9097SOL    HW138753   3.440   0.282   2.217  0.1638 -0.4553 -0.4481
 9097SOL    HW238754   3.407   0.145   2.225 -2.4115  0.3559  2.9551
 9098SOL     OW38755   4.360   1.212   1.951 -0.1242 -0.0854 -0.3093
 9098SOL    HW138756   4.277   1.177   1.985 -0.1348  0.0169 -0.2324
 9098SOL    HW238757   4.386   1.285   2.007  0.1364 -0.3654 -0.0640
 9099SOL     OW38758   3.525   0.287  14.651  0.6187 -0.3367 -0.2165
 9099SOL    HW138759   3.555   0.203  14.686  3.5840  0.7831 -0.0550
 9099SOL    HW238760   3.601   0.333  14.614  0.4174  0.7918  0.7945
 9100SOL     OW38761   2.714   2.319   6.578  0.1697 -0.8427  0.0651
 9100SOL    HW138762   2.794   2.349   6.621 -0.6315  1.2519  0.0706
 9100SOL    HW238763   2.648   2.351   6.639  0.6339 -1.6118  0.9694
 9101SOL     OW38764   3.457   2.222   3.447  0.2455  0.4188 -0.3322
 9101SOL    HW138765   3.470   2.163   3.522 -1.7773 -1.4716 -1.4480
 9101SOL    HW238766   3.374   2.258   3.479  0.5637  1.2009 -0.4053
 9102SOL     OW38767   2.482   2.348  15.294 -0.3999 -0.0531 -0.0980
 9102SOL    HW138768   2.522   2.266  15.263  0.9918  0.7852 -0.5134
 9102SOL    HW238769   2.458   2.319  15.382 -1.3317 -0.7918 -0.5853
 9103SOL     OW38770   1.424   1.068   2.945  0.7939  0.2439  0.0243
 9103SOL    HW138771   1.447   0.994   3.002  0.9081 -0.1831 -0.5712
 9103SOL    HW238772   1.506   1.119   2.944  1.0718 -0.1852  2.2184
 9104SOL     OW38773   2.376   1.694  16.127  0.4148  0.1146  0.0002
 9104SOL    HW138774   2.421   1.611  16.142 -0.9624 -0.5213  0.5986
 9104SOL    HW238775   2.361   1.730  16.214 -0.0226  0.2632 -0.1325
 9105SOL     OW38776   1.101   0.923   7.106 -0.5596 -0.2745 -0.1340
 9105SOL    HW138777   1.095   1.018   7.103 -0.0300 -0.2410 -0.1942
 9105SOL    HW238778   1.191   0.905   7.135 -0.3841 -2.9167 -2.2596
 9106SOL     OW38779   0.378   4.444  17.431  0.6909  0.1893  0.1075
 9106SOL    HW138780   0.462   4.421  17.391  0.8808  0.4253  0.3767
 9106SOL    HW238781   0.333   4.446  17.346 -0.2400 -0.3177  0.5955
 9107SOL     OW38782   4.379   1.211  17.078  0.3274  0.1669  0.1595
 9107SOL    HW138783   4.467   1.227  17.112  0.7849 -0.3240 -0.7714
 9107SOL    HW238784   4.360   1.302  17.054  1.5533  0.3775 -0.0056
 9108SOL     OW38785   4.596   3.213   4.679  0.4500  0.2394 -0.0510
 9108SOL    HW138786   4.600   3.152   4.753 -1.8721 -0.4262 -0.4630
 9108SOL    HW238787   4.604   3.148   4.610 -0.2519 -1.4867  1.4919
 9109SOL     OW38788   2.683   0.263   0.745  0.6448  0.3163 -0.3066
 9109SOL    HW138789   2.734   0.194   0.788  0.6803  0.7283  0.3032
 9109SOL    HW238790   2.607   0.216   0.711  1.3678  0.1134 -1.6536
 9110SOL     OW38791   1.052   0.668   4.011 -0.3173  0.6428 -0.3751
 9110SOL    HW138792   1.003   0.693   3.933 -0.8313 -2.2952 -0.9918
 9110SOL    HW238793   1.056   0.753   4.055 -2.0915  2.2252 -3.2847
 9111SOL     OW38794   1.735   2.802   6.319  0.0245  0.1495  0.7402
 9111SOL    HW138795   1.813   2.787   6.265 -1.5242 -1.9004 -0.9094
 9111SOL    HW238796   1.723   2.714   6.356 -0.8972 -1.0601 -2.4305
 9112SOL     OW38797   1.556   2.926   7.224 -0.0834 -0.6724 -0.2732
 9112SOL    HW138798   1.645   2.946   7.194  0.6703 -1.8764  1.1214
 9112SOL    HW238799   1.521   3.010   7.255 -2.5166 -1.3834 -1.1290
 9113SOL     OW38800   3.981   2.715   7.199 -0.2611  0.1840 -0.2962
 9113SOL    HW138801   4.047   2.647   7.190  1.1652  1.5246  0.0668
 9113SOL    HW238802   3.996   2.769   7.277  0.0616 -1.8566  1.0570
 9114SOL     OW38803   0.435   4.166   4.926 -0.6022  0.3454 -0.1237
 9114SOL    HW138804   0.495   4.200   4.991 -0.3480 -0.4921  0.0858
 9114SOL    HW238805   0.361   4.226   4.929 -0.0860  0.9717  0.0917
 9115SOL     OW38806   0.159   2.705   6.270  0.9609 -0.8684 -0.3819
 9115SOL    HW138807   0.174   2.766   6.342  0.0500 -0.0075 -0.9190
 9115SOL    HW238808   0.066   2.699   6.295  1.0169  1.7139  0.4112
 9116SOL     OW38809   1.043   0.470   3.094 -0.2135 -0.3755  0.6719
 9116SOL    HW138810   0.968   0.506   3.141 -1.3155 -2.0776  0.2028
 9116SOL    HW238811   1.065   0.394   3.146 -1.7303 -2.8348 -2.2826
 9117SOL     OW38812   0.193   0.443   5.572 -0.1458  0.1434  0.7932
 9117SOL    HW138813   0.113   0.493   5.592  0.5842  0.9994  1.5953
 9117SOL    HW238814   0.169   0.396   5.493  3.8371 -2.3001  1.0949
 9118SOL     OW38815   2.436   4.002   1.389 -0.3359  0.5522 -0.2675
 9118SOL    HW138816   2.424   4.096   1.405 -1.0670  0.4669 -0.3361
 9118SOL    HW238817   2.383   3.998   1.309 -2.0706  1.2229  0.8384
 9119SOL     OW38818   1.507   3.794   8.874 -0.1496  0.0077 -0.0575
 9119SOL    HW138819   1.530   3.800   8.781  0.8150 -0.6586  0.1399
 9119SOL    HW238820   1.517   3.699   8.888 -2.5764 -0.3195 -0.6049
 9120SOL     OW38821   3.744   3.519   9.383  0.0115 -0.3319 -0.2441
 9120SOL    HW138822   3.656   3.552   9.398  0.5888 -0.1920  2.8948
 9120SOL    HW238823   3.798   3.598   9.394  2.5018 -1.7975 -1.7814
 9121SOL     OW38824   0.245   1.117   7.356  0.4003 -0.4609  0.1564
 9121SOL    HW138825   0.322   1.171   7.342 -0.9820  1.5290  0.2489
 9121SOL    HW238826   0.269   1.049   7.292  3.1872 -1.0264  1.8510
 9122SOL     OW38827   2.472   3.602   8.752  0.1474 -0.2142  0.0446
 9122SOL    HW138828   2.423   3.552   8.817 -0.5749  1.2622  0.6313
 9122SOL    HW238829   2.539   3.540   8.723  1.1902  0.2802  1.3814
 9123SOL     OW38830   0.907   3.045   6.876 -0.2676 -0.2764  0.0871
 9123SOL    HW138831   0.866   3.087   6.800 -0.7001 -0.6230  0.1364
 9123SOL    HW238832   0.913   3.120   6.936  2.3908  0.1688 -0.7030
 9124SOL     OW38833   4.167   4.466   5.770 -0.0376  0.1176 -0.3762
 9124SOL    HW138834   4.080   4.478   5.732 -1.5211 -1.7298  2.4711
 9124SOL    HW238835   4.211   4.435   5.691 -0.1183 -1.6391  0.2662
 9125SOL     OW38836   0.141   3.051   0.218  0.2401  0.4925  0.6889
 9125SOL    HW138837   0.235   3.044   0.202 -0.1861 -0.0012 -1.4959
 9125SOL    HW238838   0.142   3.013   0.307  0.8707 -1.0072  0.0535
 9126SOL     OW38839   3.257   3.641   6.459 -0.0874 -0.2799  0.1648
 9126SOL    HW138840   3.296   3.728   6.457 -0.4982 -0.1042 -0.1653
 9126SOL    HW238841   3.209   3.640   6.376 -0.3701 -0.5537  0.3331
 9127SOL     OW38842   1.924   1.739   8.039 -0.2723 -0.5703  0.3169
 9127SOL    HW138843   1.867   1.782   7.975  0.5590 -1.1183 -0.7966
 9127SOL    HW238844   2.011   1.748   7.999 -0.5016  0.3698  0.0412
 9128SOL     OW38845   0.209   0.442   3.205  0.4418 -0.8752  0.1529
 9128SOL    HW138846   0.199   0.353   3.238  0.9816 -0.1870  2.1238
 9128SOL    HW238847   0.222   0.483   3.290 -2.2564 -1.6358  0.9276
 9129SOL     OW38848   3.759   3.988   9.405  0.6072 -0.1853  1.0956
 9129SOL    HW138849   3.801   4.037   9.476  3.6776  0.9888 -1.5354
 9129SOL    HW238850   3.673   3.979   9.447  0.6799 -0.8575  1.0968
 9130SOL     OW38851   3.743   3.248   3.837 -0.0042 -0.7108  0.1442
 9130SOL    HW138852   3.665   3.252   3.893 -1.2651 -0.4963 -1.6398
 9130SOL    HW238853   3.811   3.204   3.889  1.0099  2.0825  1.1871
 9131SOL     OW38854   2.986   0.385   6.963 -0.6942 -0.1229  0.1419
 9131SOL    HW138855   2.997   0.335   7.043  2.5003 -0.8525 -0.7308
 9131SOL    HW238856   2.906   0.430   6.989  1.3126  3.4246  0.2827
 9132SOL     OW38857   1.949   2.245  10.986  0.0546 -0.2621  0.3999
 9132SOL    HW138858   1.949   2.255  10.890  2.4702 -1.6208  0.2619
 9132SOL    HW238859   1.892   2.319  11.007  0.7044  0.7590 -1.4089
 9133SOL     OW38860   2.546   0.459   4.578 -0.2973 -0.1678 -0.7629
 9133SOL    HW138861   2.638   0.434   4.581 -0.0904  0.6389 -0.4796
 9133SOL    HW238862   2.551   0.553   4.593  0.5229  0.1483 -2.9092
 9134SOL     OW38863   0.836   0.185   5.795 -0.0068 -0.4486 -0.2122
 9134SOL    HW138864   0.914   0.137   5.824  1.5076  2.3098  0.1772
 9134SOL    HW238865   0.865   0.263   5.749  0.0401 -1.0590 -1.2249
 9135SOL     OW38866   3.824   2.396   7.772  0.2995 -0.3151  0.1523
 9135SOL    HW138867   3.829   2.470   7.711 -4.0158  0.4906  0.7530
 9135SOL    HW238868   3.916   2.381   7.791  0.0316 -1.0111  0.9027
 9136SOL     OW38869   1.573   1.308   9.309 -0.3681  0.7039 -0.1796
 9136SOL    HW138870   1.637   1.248   9.271  2.4940  1.8852  2.7547
 9136SOL    HW238871   1.629   1.357   9.370 -0.5125  1.1275 -0.3905
 9137SOL     OW38872   3.049   3.355   7.006  0.4620 -0.3486  0.0224
 9137SOL    HW138873   3.122   3.407   6.972  1.8805  0.0071  3.5319
 9137SOL    HW238874   2.987   3.376   6.936 -0.2536 -0.4904  0.6126
 9138SOL     OW38875   3.128   0.812   8.775  0.4245  0.8237  0.3252
 9138SOL    HW138876   3.066   0.835   8.705  1.0552  1.3659 -0.0552
 9138SOL    HW238877   3.214   0.805   8.734 -0.0531 -0.7241 -0.4135
 9139SOL     OW38878   1.717   3.433   5.624 -0.9862 -0.6023 -0.4850
 9139SOL    HW138879   1.669   3.351   5.613 -1.4147 -0.6376  1.5725
 9139SOL    HW238880   1.661   3.491   5.573 -0.1188  0.5973 -0.0976
 9140SOL     OW38881   1.354   0.591   6.315 -0.1008 -0.1981  0.0504
 9140SOL    HW138882   1.397   0.564   6.396  0.5938 -1.6509 -0.8143
 9140SOL    HW238883   1.416   0.656   6.282 -0.1812 -0.3813 -0.4556
 9141SOL     OW38884   2.620   0.435   8.543 -0.6943  0.0494 -0.0488
 9141SOL    HW138885   2.600   0.422   8.636  0.0145  0.5432  0.1717
 9141SOL    HW238886   2.569   0.513   8.521 -0.4592  0.1888 -0.0934
 9142SOL     OW38887   0.895   0.921  14.354 -0.4002 -0.5022  0.2689
 9142SOL    HW138888   0.975   0.911  14.301  0.3924  1.1384  1.1635
 9142SOL    HW238889   0.850   0.837  14.352  0.0576 -0.7648  1.1143
 9143SOL     OW38890   1.375   3.758   8.316 -0.7115 -0.4587 -0.3118
 9143SOL    HW138891   1.405   3.667   8.323  0.6471  0.0704  0.6517
 9143SOL    HW238892   1.401   3.778   8.406  0.3226 -2.2346 -0.2157
 9144SOL     OW38893   3.872   3.380   2.549 -0.2525  0.4840  0.2393
 9144SOL    HW138894   3.961   3.345   2.552 -0.2523  0.6078  1.6448
 9144SOL    HW238895   3.819   3.306   2.578 -0.7895  1.4534  1.7105
 9145SOL     OW38896   2.109   2.596   6.783  0.0366  0.6446  0.1942
 9145SOL    HW138897   2.177   2.633   6.727 -0.2424 -0.0625 -0.6148
 9145SOL    HW238898   2.158   2.517   6.802 -1.1115  0.4708  2.4743
 9146SOL     OW38899   2.633   2.462  14.817 -0.1272 -0.5107  0.1200
 9146SOL    HW138900   2.626   2.419  14.732 -0.4948 -0.6105  0.2002
 9146SOL    HW238901   2.551   2.511  14.823  1.0820  1.1753  3.0275
 9147SOL     OW38902   2.107   2.244   0.674  0.0902 -0.6193 -0.1329
 9147SOL    HW138903   2.071   2.218   0.590 -1.6432  0.1926  0.3580
 9147SOL    HW238904   2.180   2.182   0.676 -0.6330 -1.4956 -1.1295
 9148SOL     OW38905   2.131   2.890  11.945 -0.0973 -0.4589 -0.0619
 9148SOL    HW138906   2.057   2.866  12.001 -0.1178 -1.3004 -0.4531
 9148SOL    HW238907   2.156   2.808  11.902  2.2090  1.1754 -1.8796
 9149SOL     OW38908   2.842   0.475  16.493  0.6529 -0.1224  0.0650
 9149SOL    HW138909   2.757   0.514  16.511  0.0951 -1.0677 -0.4717
 9149SOL    HW238910   2.901   0.523  16.551  1.8184 -0.5660 -0.7457
 9150SOL     OW38911   1.497   0.448   4.849  0.3047  0.2161 -0.2241
 9150SOL    HW138912   1.580   0.473   4.889  0.3244 -3.4763  2.0430
 9150SOL    HW238913   1.486   0.366   4.897 -2.8356  0.6598 -0.2347
 9151SOL     OW38914   2.446   0.173   2.903  0.2465  0.1661  0.1677
 9151SOL    HW138915   2.377   0.236   2.918 -1.5402 -1.6673 -0.3538
 9151SOL    HW238916   2.446   0.176   2.807 -0.7558 -1.0956  0.1233
 9152SOL     OW38917   1.238   3.539   8.702  0.4248  0.4715 -0.7256
 9152SOL    HW138918   1.151   3.576   8.681  0.5578 -0.5014 -2.9786
 9152SOL    HW238919   1.255   3.495   8.619  0.0572 -1.7413  0.3729
 9153SOL     OW38920   4.702   2.750  11.041 -0.2176 -0.0053 -0.0592
 9153SOL    HW138921   0.014   2.712  10.959  1.8797 -0.6573  1.0939
 9153SOL    HW238922   0.068   2.770  11.076  0.2961 -0.6651 -0.9456
 9154SOL     OW38923   0.507   0.330   7.999  0.0363  0.0652 -0.2275
 9154SOL    HW138924   0.475   0.293   8.081  1.6419  0.0760  0.3904
 9154SOL    HW238925   0.446   0.398   7.967  1.1866  0.6157 -1.2538
 9155SOL     OW38926   2.908   3.373   4.167 -0.2197  0.5462  0.1834
 9155SOL    HW138927   2.850   3.449   4.169  1.0229  1.5856 -2.7540
 9155SOL    HW238928   2.945   3.400   4.251 -2.7683  0.3083  1.3882
 9156SOL     OW38929   2.509   1.076  11.340 -0.0762 -0.1761 -0.3048
 9156SOL    HW138930   2.584   1.018  11.327 -1.2364 -1.6500 -0.4807
 9156SOL    HW238931   2.467   1.045  11.420  0.5891 -0.2033  0.0288
 9157SOL     OW38932   3.026   3.917   2.238 -0.1989 -0.4884  0.0508
 9157SOL    HW138933   3.115   3.944   2.214  0.6328 -0.7188  2.8846
 9157SOL    HW238934   3.014   3.976   2.313  0.4028 -0.8584  0.4379
 9158SOL     OW38935   4.585   3.155   5.276  0.1176 -0.5562  0.1190
 9158SOL    HW138936   4.658   3.093   5.273  2.2511  1.9122  0.4365
 9158SOL    HW238937   4.638   3.233   5.257 -0.1363  0.5502  3.7713
 9159SOL     OW38938   3.931   1.659   4.246 -0.2676  0.4338  0.5984
 9159SOL    HW138939   3.860   1.625   4.192 -0.3181 -0.8045  1.4360
 9159SOL    HW238940   3.885   1.708   4.314 -1.0517 -1.0132  1.1098
 9160SOL     OW38941   2.955   2.750   0.306 -0.2844 -0.4735  0.5966
 9160SOL    HW138942   2.946   2.799   0.224 -0.7599 -0.3467  0.7250
 9160SOL    HW238943   3.045   2.717   0.304 -1.1103 -2.6795 -0.5760
 9161SOL     OW38944   1.100   0.356   3.889  0.0247 -0.0906  0.3963
 9161SOL    HW138945   1.075   0.432   3.837  0.2947  0.9000  1.6944
 9161SOL    HW238946   1.095   0.393   3.977 -1.4706  0.5180  0.0584
 9162SOL     OW38947   1.510   4.084   8.946 -0.7103 -0.3582 -0.4445
 9162SOL    HW138948   1.500   3.991   8.926 -3.2041 -0.9892  3.7120
 9162SOL    HW238949   1.601   4.085   8.917 -0.6857 -4.0829 -0.5092
 9163SOL     OW38950   0.767   3.438   5.884 -0.5168  0.0752 -0.0987
 9163SOL    HW138951   0.804   3.360   5.842 -2.4843 -0.1177 -1.5152
 9163SOL    HW238952   0.691   3.395   5.923 -2.0976  1.2952 -1.8160
 9164SOL     OW38953   0.253   0.585   7.618 -0.2985  0.1911 -0.2527
 9164SOL    HW138954   0.180   0.632   7.577  0.2325 -0.3036 -1.7862
 9164SOL    HW238955   0.288   0.527   7.550  1.1751 -1.0465  1.5721
 9165SOL     OW38956   2.403   1.034   6.911 -0.4195  0.3120 -0.0780
 9165SOL    HW138957   2.450   1.117   6.915  3.1075 -1.6277 -0.9837
 9165SOL    HW238958   2.425   1.003   6.823  2.3423  0.8004  0.4455
 9166SOL     OW38959   3.380   1.937  12.395  0.6129  0.1795  0.3678
 9166SOL    HW138960   3.373   1.908  12.486 -0.3869 -2.2395 -0.4898
 9166SOL    HW238961   3.289   1.966  12.392  0.1400 -1.2707  1.1334
 9167SOL     OW38962   2.616   3.793   1.121  0.0763 -0.1462  0.1379
 9167SOL    HW138963   2.693   3.842   1.152 -1.8733  2.4141  0.9234
 9167SOL    HW238964   2.661   3.719   1.081  1.6424  0.2959  1.0319
 9168SOL     OW38965   4.264   2.501   3.009  0.2409 -0.2066  0.1440
 9168SOL    HW138966   4.281   2.486   2.916 -4.2320  0.7368 -0.8335
 9168SOL    HW238967   4.354   2.507   3.041  0.0151  3.8970  0.0532
 9169SOL     OW38968   1.143   0.963   5.744  0.3498  0.4778 -0.0608
 9169SOL    HW138969   1.159   0.932   5.833 -0.0618  0.0358 -0.1407
 9169SOL    HW238970   1.217   0.925   5.697 -0.8249 -0.8359 -0.8839
 9170SOL     OW38971   4.605   3.239   7.969  0.2636  0.0675  0.2761
 9170SOL    HW138972   4.633   3.161   7.921 -0.8862 -0.1461 -0.0615
 9170SOL    HW238973   4.685   3.290   7.976  0.8326 -0.9384  1.0329
 9171SOL     OW38974   1.303   0.144   5.220  0.0811 -0.1228 -0.1708
 9171SOL    HW138975   1.376   0.157   5.280 -0.0345  0.4038 -0.1471
 9171SOL    HW238976   1.330   0.054   5.203 -0.4869 -0.6209  1.5706
 9172SOL     OW38977   4.057   2.046   1.166 -0.1853  0.1950 -0.3544
 9172SOL    HW138978   4.065   1.990   1.089  2.5728 -0.3545  0.3234
 9172SOL    HW238979   4.140   2.033   1.213 -0.9053  1.3875  1.2444
 9173SOL     OW38980   3.941   4.256   3.386 -0.2563  0.6249  0.2617
 9173SOL    HW138981   3.884   4.274   3.461 -0.0932 -0.7754  0.7202
 9173SOL    HW238982   3.905   4.180   3.339  0.0728  1.7895 -1.8743
 9174SOL     OW38983   4.086   4.373  14.314  0.2038  0.1500 -0.1578
 9174SOL    HW138984   4.162   4.315  14.307 -1.0411 -1.7612  2.0720
 9174SOL    HW238985   4.011   4.317  14.294  0.3965 -1.1108  2.5668
 9175SOL     OW38986   4.217   0.030   2.882 -0.1076  0.6259  0.4047
 9175SOL    HW138987   4.200   0.081   2.961  0.7445 -0.9317  1.5972
 9175SOL    HW238988   4.285   0.081   2.837  0.7383 -1.0706 -0.2292
 9176SOL     OW38989   4.522   3.815   4.703 -0.6933 -0.6995 -0.6343
 9176SOL    HW138990   4.446   3.870   4.724 -1.6403 -2.2019 -0.1274
 9176SOL    HW238991   4.591   3.882   4.700 -1.0080 -0.2178  2.5832
 9177SOL     OW38992   0.970   0.458  16.576 -0.0793  0.0461  0.2689
 9177SOL    HW138993   1.042   0.507  16.535  0.9489 -0.7909  1.0833
 9177SOL    HW238994   0.890   0.496  16.540  0.4085  1.3741  0.5804
 9178SOL     OW38995   1.986   2.254   4.398  0.3581 -0.3159 -0.4930
 9178SOL    HW138996   1.998   2.338   4.353 -2.9202  1.4122  1.8290
 9178SOL    HW238997   1.893   2.234   4.388  0.2535  0.3566 -0.8945
 9179SOL     OW38998   2.650   0.905  17.640 -0.4375 -0.7032 -0.3065
 9179SOL    HW138999   2.715   0.866  17.582 -1.6386 -2.3742 -0.5516
 9179SOL    HW239000   2.673   0.876   0.043  1.1982 -0.1732 -0.5620
 9180SOL     OW39001   4.397   3.096  14.885 -0.7509 -0.3258  0.1211
 9180SOL    HW139002   4.318   3.135  14.922  0.7623  3.4559 -0.5904
 9180SOL    HW239003   4.431   3.159  14.821 -3.6034  2.1454  1.0286
 9181SOL     OW39004   3.342   4.590  17.161 -0.2422 -0.2025 -0.3518
 9181SOL    HW139005   3.270   4.631  17.114  0.0245 -1.9301 -2.2831
 9181SOL    HW239006   3.338   4.500  17.127 -0.6994 -0.4270  0.2869
 9182SOL     OW39007   4.631   1.497   4.696  0.2027 -0.3572 -0.1499
 9182SOL    HW139008   4.669   1.426   4.643 -0.5902 -2.0478  1.5294
 9182SOL    HW239009   4.684   1.499   4.776  0.3756 -0.8337 -0.2480
 9183SOL     OW39010   4.223   2.210   3.461 -0.0907 -0.3535 -0.1131
 9183SOL    HW139011   4.314   2.182   3.459 -0.3638 -1.2432 -0.2202
 9183SOL    HW239012   4.231   2.303   3.478 -0.3612 -0.6167  1.5515
 9184SOL     OW39013   3.706   0.585  15.258  0.0806  0.0832  0.7663
 9184SOL    HW139014   3.730   0.601  15.349  3.2383  1.3477 -0.2542
 9184SOL    HW239015   3.715   0.670  15.215  0.5976 -1.0827 -1.4380
 9185SOL     OW39016   1.681   1.238   8.432  0.2365 -0.4617 -0.0429
 9185SOL    HW139017   1.689   1.293   8.509  0.1925 -0.4968 -0.0127
 9185SOL    HW239018   1.587   1.233   8.414  0.5339 -0.9046 -1.5210
 9186SOL     OW39019   0.850   2.624  15.310  0.7291 -0.1891  0.1593
 9186SOL    HW139020   0.840   2.606  15.404 -0.2102 -3.4467 -0.5477
 9186SOL    HW239021   0.943   2.610  15.298  0.7899 -0.5413  1.0101
 9187SOL     OW39022   3.251   2.299   1.496 -0.1704  0.0004  0.1407
 9187SOL    HW139023   3.183   2.255   1.445 -0.6486  1.5234 -0.5365
 9187SOL    HW239024   3.232   2.389   1.471  1.0985  0.3158  0.3327
 9188SOL     OW39025   1.329   3.841   2.169 -0.2566  0.4755 -0.0840
 9188SOL    HW139026   1.363   3.787   2.098 -0.2752  0.2961  0.0425
 9188SOL    HW239027   1.340   3.768   2.230 -0.6009  1.4419  1.1338
 9189SOL     OW39028   2.852   2.863   4.255  0.1600  0.0556 -0.2983
 9189SOL    HW139029   2.770   2.825   4.223 -0.1501  1.4796 -1.1925
 9189SOL    HW239030   2.841   2.949   4.215  0.5709  0.5011  0.5411
 9190SOL     OW39031   2.836   0.955   3.545 -0.1956 -0.3835 -0.3518
 9190SOL    HW139032   2.875   1.017   3.484 -0.2487  0.8115  0.8373
 9190SOL    HW239033   2.774   0.918   3.482  1.0653  1.0305 -2.4210
 9191SOL     OW39034   2.045   4.151   4.755 -0.2141  0.4185 -0.2086
 9191SOL    HW139035   2.120   4.191   4.710 -1.7095  1.5572 -1.6844
 9191SOL    HW239036   2.055   4.058   4.737 -3.7877 -0.0769  0.3862
 9192SOL     OW39037   3.847   3.228   8.982 -0.4738 -0.5256  0.4543
 9192SOL    HW139038   3.824   3.136   8.972 -1.0800 -0.5094  1.8383
 9192SOL    HW239039   3.943   3.229   8.985 -0.4994 -1.9020  1.5316
 9193SOL     OW39040   0.272   4.693   3.048  0.1016  0.6514  0.1257
 9193SOL    HW139041   0.276   0.040   2.980 -0.5928  0.0175 -0.5588
 9193SOL    HW239042   0.225   4.623   3.002  2.1613 -1.5218  1.3118
 9194SOL     OW39043   4.182   2.623   4.125 -0.7481 -0.2502  0.7334
 9194SOL    HW139044   4.212   2.614   4.216  1.3384  0.6189  0.1328
 9194SOL    HW239045   4.138   2.540   4.105 -1.3320 -0.1428  1.5522
 9195SOL     OW39046   0.092   2.470   9.286  0.5694  0.0126 -0.4721
 9195SOL    HW139047   0.152   2.443   9.355 -1.7948 -1.3147  1.0466
 9195SOL    HW239048   0.134   2.417   9.218  1.0517  0.8570 -0.8419
 9196SOL     OW39049   2.097   2.434   5.212 -0.4072 -0.2209 -0.1214
 9196SOL    HW139050   2.149   2.447   5.292  0.0006  0.5995 -0.5184
 9196SOL    HW239051   2.169   2.420   5.150  1.0475 -0.8756  1.6965
 9197SOL     OW39052   2.002   2.549   6.345 -0.4605  0.1886  0.0742
 9197SOL    HW139053   1.962   2.494   6.413  0.3492  1.4340  1.5484
 9197SOL    HW239054   2.070   2.490   6.312 -0.2516  1.1018 -1.1205
 9198SOL     OW39055   2.403   1.886   2.953  0.0399 -0.1188 -0.4017
 9198SOL    HW139056   2.419   1.957   2.891 -0.1582 -0.2960 -0.6539
 9198SOL    HW239057   2.350   1.825   2.902  0.4780  1.1203 -2.3554
 9199SOL     OW39058   0.135   1.026   3.688  0.2593  0.3458 -0.5013
 9199SOL    HW139059   0.193   0.982   3.627  0.8898  1.7232 -0.9076
 9199SOL    HW239060   0.083   0.955   3.724  0.4621  0.3397 -0.2200
 9200SOL     OW39061   0.690   3.921   9.000  0.0052  0.3494  0.3854
 9200SOL    HW139062   0.761   3.957   9.054  1.1939 -0.8125 -0.3932
 9200SOL    HW239063   0.726   3.943   8.914 -1.4637  0.1814 -0.2720
 9201SOL     OW39064   0.043   2.304   8.752  0.6736  0.2784 -0.4979
 9201SOL    HW139065   4.696   2.348   8.803  0.0065  1.3475 -2.3309
 9201SOL    HW239066   0.028   2.211   8.772 -0.8265  0.2925 -1.6094
 9202SOL     OW39067   1.938   0.459  14.779  0.4035  0.1022 -0.0824
 9202SOL    HW139068   1.875   0.530  14.768  0.0603  0.0499  1.5623
 9202SOL    HW239069   1.888   0.390  14.823  0.3537  0.3097  0.1880
 9203SOL     OW39070   1.246   0.277   9.795  0.0846  0.0296  0.0352
 9203SOL    HW139071   1.224   0.363   9.829 -3.2807  0.9595 -4.4745
 9203SOL    HW239072   1.157   0.245   9.778  0.1122  0.6620 -1.2818
 9204SOL     OW39073   0.147   2.223   5.547 -0.3154 -0.1416  0.5230
 9204SOL    HW139074   0.150   2.150   5.485  1.3421  1.1098 -0.9162
 9204SOL    HW239075   0.060   2.263   5.549  0.0626  0.7178  0.0280
 9205SOL     OW39076   0.426   3.344   9.569  0.1754  0.6437 -0.4260
 9205SOL    HW139077   0.439   3.407   9.640  1.1850  0.9008 -0.8417
 9205SOL    HW239078   0.351   3.379   9.521 -0.9998 -1.2051  0.0529
 9206SOL     OW39079   0.697   0.716   7.566 -0.4216  0.4044  0.6074
 9206SOL    HW139080   0.786   0.688   7.548 -0.6838  0.4607 -0.8176
 9206SOL    HW239081   0.655   0.674   7.490  1.4072  1.6784 -1.1085
 9207SOL     OW39082   4.502   2.409   4.428  0.2885 -0.2384 -0.1189
 9207SOL    HW139083   4.506   2.415   4.333  1.4244  2.2016  0.0668
 9207SOL    HW239084   4.500   2.314   4.438 -1.4376 -0.0080  1.8349
 9208SOL     OW39085   4.364   4.312   5.869 -0.5057  0.0805  0.0382
 9208SOL    HW139086   4.350   4.308   5.774  1.3092  3.1001 -0.3340
 9208SOL    HW239087   4.282   4.353   5.897 -0.4762 -0.2261  0.5831
 9209SOL     OW39088   4.297   1.564   9.843 -0.3513 -0.4847  0.1810
 9209SOL    HW139089   4.256   1.599   9.922 -0.9234  0.0753 -0.3625
 9209SOL    HW239090   4.219   1.540   9.794 -1.5593 -2.0621  2.8517
 9210SOL     OW39091   3.628   1.740   1.527  0.0281 -0.4488  0.5194
 9210SOL    HW139092   3.559   1.738   1.461  0.5417  0.2409 -0.0419
 9210SOL    HW239093   3.614   1.660   1.578  1.9073 -0.4589  1.0289
 9211SOL     OW39094   4.250   4.253  13.299  0.0660 -0.2690 -0.3012
 9211SOL    HW139095   4.215   4.170  13.268  1.0721 -1.3493  1.4528
 9211SOL    HW239096   4.241   4.306  13.220 -3.8239  0.0097  0.3017
 9212SOL     OW39097   1.399   0.985   9.641  0.4197  0.0208 -0.1207
 9212SOL    HW139098   1.403   0.966   9.547 -1.3050 -1.8761  0.2004
 9212SOL    HW239099   1.436   1.073   9.645  0.8636 -0.1821  0.2428
 9213SOL     OW39100   2.948   3.890   7.516 -0.5268 -0.2210 -0.2901
 9213SOL    HW139101   3.007   3.832   7.468 -0.1557 -1.1251  1.2741
 9213SOL    HW239102   2.913   3.939   7.442  0.3867 -0.1775 -0.6997
 9214SOL     OW39103   2.066   0.507  10.574  0.1440 -0.2025 -0.6220
 9214SOL    HW139104   2.036   0.423  10.609  0.5935 -0.0119  0.2297
 9214SOL    HW239105   1.978   0.544  10.573  0.4492  0.5569  0.5977
 9215SOL     OW39106   1.764   3.128  14.979 -0.2900 -0.0576  0.2253
 9215SOL    HW139107   1.793   3.044  15.016 -3.1773 -1.8345 -1.5469
 9215SOL    HW239108   1.707   3.104  14.906 -2.5335  0.5963  1.7740
 9216SOL     OW39109   1.641   3.323   6.520 -0.3046  0.5642  0.1465
 9216SOL    HW139110   1.574   3.332   6.588  0.5989 -2.3030  1.4368
 9216SOL    HW239111   1.640   3.229   6.504 -1.5310  0.9412 -1.9238
 9217SOL     OW39112   0.077   2.286  17.341  0.3725 -0.2860 -0.3459
 9217SOL    HW139113   0.068   2.335  17.260 -0.7174 -0.8369 -0.5573
 9217SOL    HW239114   0.039   2.201  17.318  2.0524 -1.4595  1.1202
 9218SOL     OW39115   0.464   2.116   8.741  0.8950 -0.4339  0.1188
 9218SOL    HW139116   0.450   2.082   8.652  1.7182  1.1772 -0.6431
 9218SOL    HW239117   0.393   2.178   8.755  0.3072 -1.3413  1.1520
 9219SOL     OW39118   4.316   1.740   8.647 -0.2570 -0.0239  0.3899
 9219SOL    HW139119   4.331   1.812   8.708 -0.2658  0.3098 -0.0002
 9219SOL    HW239120   4.398   1.739   8.598 -0.5655 -0.6530 -0.1183
 9220SOL     OW39121   3.878   4.005   3.575 -0.1377 -0.7033  0.2247
 9220SOL    HW139122   3.848   3.924   3.618 -1.4226 -0.0416  0.5708
 9220SOL    HW239123   3.964   3.983   3.541 -0.9324 -0.3225 -2.0499
 9221SOL     OW39124   3.574   2.120   0.509  0.0307  0.1971 -0.2181
 9221SOL    HW139125   3.583   2.206   0.467  0.3113  1.1005  1.6804
 9221SOL    HW239126   3.626   2.142   0.587 -1.2864  2.3108  0.0714
 9222SOL     OW39127   0.076   2.269  13.157 -0.3123  0.1439  0.0892
 9222SOL    HW139128   0.076   2.365  13.148  3.4277  0.2849  1.4142
 9222SOL    HW239129   0.147   2.248  13.097 -0.0535  2.1412 -0.3341
 9223SOL     OW39130   3.823   1.646   4.588 -0.3004  0.2914  0.4290
 9223SOL    HW139131   3.729   1.644   4.602 -0.6951  2.8331 -1.8317
 9223SOL    HW239132   3.839   1.683   4.675 -0.4801  2.1991 -0.3562
 9224SOL     OW39133   1.855   4.029   3.472  0.1324  0.0311  0.0899
 9224SOL    HW139134   1.796   4.023   3.547  1.7496  0.1113  1.3601
 9224SOL    HW239135   1.810   3.969   3.411  0.8899 -0.7354  0.2786
 9225SOL     OW39136   1.845   3.066   7.773  0.2511  0.5267  0.6590
 9225SOL    HW139137   1.771   3.051   7.831 -0.2250  1.9666  0.4022
 9225SOL    HW239138   1.808   3.065   7.684  0.2139  2.4140  0.6637
 9226SOL     OW39139   0.703   3.873   6.386 -0.0452 -0.0014  0.2185
 9226SOL    HW139140   0.793   3.875   6.419  0.3331 -0.7930 -0.7615
 9226SOL    HW239141   0.707   3.913   6.299 -0.6806  1.1219  0.7197
 9227SOL     OW39142   0.224   3.056   3.004 -0.3158 -0.1126  0.0285
 9227SOL    HW139143   0.194   2.982   3.056  0.7051 -0.5921 -0.0813
 9227SOL    HW239144   0.157   3.124   3.016 -1.2569 -0.8993 -0.7608
 9228SOL     OW39145   0.625   1.119   7.011 -0.6845 -0.0803 -0.9354
 9228SOL    HW139146   0.573   1.039   7.007  0.4117 -0.7476 -1.7177
 9228SOL    HW239147   0.676   1.128   6.931 -0.0267 -1.8254 -0.7202
 9229SOL     OW39148   3.839   1.116   8.091  0.0494  0.5080 -0.3935
 9229SOL    HW139149   3.888   1.115   8.010 -0.6878  0.2600 -0.8350
 9229SOL    HW239150   3.848   1.204   8.128 -0.1785 -0.1298  1.2123
 9230SOL     OW39151   2.711   0.896  11.292  0.4716  0.3896 -0.1597
 9230SOL    HW139152   2.774   0.920  11.224  0.2074 -0.6092 -0.7595
 9230SOL    HW239153   2.773   0.863  11.357 -0.1793 -1.8913 -0.7027
 9231SOL     OW39154   1.885   1.799  10.390 -0.1112 -0.1569 -0.0543
 9231SOL    HW139155   1.864   1.770  10.479 -0.9651 -1.2009 -0.6079
 9231SOL    HW239156   1.803   1.803  10.341  0.8526 -1.7467 -1.8065
 9232SOL     OW39157   2.429   1.487   7.393 -0.1867 -0.0302 -0.3708
 9232SOL    HW139158   2.467   1.566   7.354  1.3834 -0.9736 -0.7912
 9232SOL    HW239159   2.464   1.487   7.482  0.0593 -0.1387 -0.4644
 9233SOL     OW39160   3.657   1.705   1.936  0.8795  0.5638  0.3821
 9233SOL    HW139161   3.685   1.636   1.996  1.9454  0.1841 -0.5508
 9233SOL    HW239162   3.638   1.658   1.854 -0.2053  0.0713  0.9150
 9234SOL     OW39163   1.384   0.179  15.909 -0.1906 -0.2144  0.0184
 9234SOL    HW139164   1.464   0.163  15.860 -0.7624 -0.3978 -0.8472
 9234SOL    HW239165   1.323   0.113  15.877 -1.2070  0.6280  0.2064
 9235SOL     OW39166   3.294   4.335   4.504 -0.2143  0.0915 -0.1864
 9235SOL    HW139167   3.262   4.391   4.575  1.9061 -0.1551  0.9712
 9235SOL    HW239168   3.381   4.306   4.530  0.5543  1.6125 -1.1063
 9236SOL     OW39169   2.562   3.079  11.448  0.1590 -0.0139  0.1092
 9236SOL    HW139170   2.496   3.013  11.469 -1.0510  1.0622 -0.2861
 9236SOL    HW239171   2.631   3.039  11.500 -0.1837 -1.0453 -0.2253
 9237SOL     OW39172   3.433   1.044   6.709 -0.3848 -0.1710 -0.0759
 9237SOL    HW139173   3.364   1.059   6.644 -0.6496  2.4093  0.8264
 9237SOL    HW239174   3.371   1.040   6.782  1.0680 -1.8749  1.0546
 9238SOL     OW39175   1.038   1.438   2.133  0.3910 -0.0599  0.0371
 9238SOL    HW139176   1.114   1.481   2.094 -0.3369  0.4648 -0.7860
 9238SOL    HW239177   1.079   1.400   2.211 -0.9827  0.2723  0.9212
 9239SOL     OW39178   4.679   2.659   3.313 -0.3881  0.0648  0.2132
 9239SOL    HW139179   4.665   2.574   3.353 -2.2362 -0.1441 -0.8413
 9239SOL    HW239180   4.592   2.673   3.273 -1.9319 -1.2293  3.1215
 9240SOL     OW39181   0.323   1.654   3.911  0.2889  0.6425  0.0259
 9240SOL    HW139182   0.413   1.648   3.943  0.0986 -1.6551  0.1338
 9240SOL    HW239183   0.340   1.658   3.817 -2.9242  0.5473 -0.5535
 9241SOL     OW39184   2.070   1.125   8.985  0.9400 -0.4900 -0.3763
 9241SOL    HW139185   2.145   1.069   8.964 -0.4732 -1.3972 -2.9163
 9241SOL    HW239186   2.034   1.137   8.898 -1.6640  2.0936  1.0395
 9242SOL     OW39187   1.961   2.088   9.141  0.1228 -0.2218 -0.2341
 9242SOL    HW139188   1.940   2.034   9.065 -2.2694  1.4276 -0.7517
 9242SOL    HW239189   1.967   2.176   9.105  0.2933 -0.9851 -2.0519
 9243SOL     OW39190   1.390   2.050   8.910 -0.0769 -0.4538  0.9866
 9243SOL    HW139191   1.422   2.137   8.886  0.6091  0.0701  3.8295
 9243SOL    HW239192   1.313   2.054   8.853  1.5892  0.7429 -1.1932
 9244SOL     OW39193   4.003   1.732   5.408 -0.0554 -0.1644  0.0327
 9244SOL    HW139194   4.050   1.672   5.350 -1.9649  0.2663 -1.9396
 9244SOL    HW239195   3.924   1.752   5.357  0.6154  0.0458 -0.9190
 9245SOL     OW39196   1.054   2.819   3.014 -0.0895  0.2370  0.6912
 9245SOL    HW139197   1.126   2.859   3.062  0.1901 -0.6900  1.0462
 9245SOL    HW239198   0.982   2.858   3.064  1.7567  1.1793  2.5986
 9246SOL     OW39199   2.378   1.825   9.485  0.1609 -0.0028  0.4639
 9246SOL    HW139200   2.405   1.910   9.520 -0.9178 -0.4693  2.4112
 9246SOL    HW239201   2.293   1.848   9.447  0.3064 -1.3824 -0.6915
 9247SOL     OW39202   2.977   0.609   2.768 -0.0421 -0.3294 -0.0730
 9247SOL    HW139203   2.947   0.524   2.800  0.1737 -0.5262 -0.4003
 9247SOL    HW239204   3.069   0.604   2.794  0.2862  1.5214 -0.8983
 9248SOL     OW39205   0.327   3.776   2.869  0.1652 -0.2732  0.7904
 9248SOL    HW139206   0.258   3.727   2.825 -1.8843  1.2321  2.3118
 9248SOL    HW239207   0.372   3.713   2.925  0.0509 -1.1843 -0.1388
 9249SOL     OW39208   0.987   3.712   3.110 -0.5029  0.7985 -0.0189
 9249SOL    HW139209   0.932   3.744   3.038 -0.1438  0.1552 -0.5847
 9249SOL    HW239210   0.943   3.638   3.150 -0.5525  1.1360  0.5535
 9250SOL     OW39211   4.537   2.959  11.045 -0.0450  0.0506 -0.2536
 9250SOL    HW139212   4.598   2.884  11.050 -1.2817 -0.8937  0.6146
 9250SOL    HW239213   4.592   3.012  10.987  3.0030 -0.7071  1.9129
 9251SOL     OW39214   2.040   0.827   3.305  0.7073 -0.3870 -0.3608
 9251SOL    HW139215   2.063   0.912   3.267  0.6208 -0.6532 -1.0029
 9251SOL    HW239216   2.121   0.779   3.322  0.2337 -2.0191 -2.6921
 9252SOL     OW39217   2.065   2.434   0.899  0.4140 -0.1523 -0.0521
 9252SOL    HW139218   1.993   2.481   0.856  0.6267  1.0638  0.9144
 9252SOL    HW239219   2.071   2.360   0.839  2.2093  0.6826 -0.9001
 9253SOL     OW39220   0.576   1.855   0.082 -0.2133 -0.1082 -0.1064
 9253SOL    HW139221   0.664   1.842   0.117 -1.2861 -2.3863  1.7606
 9253SOL    HW239222   0.595   1.899  17.685 -1.1456  2.5208  1.0553
 9254SOL     OW39223   1.676   2.180   0.229  0.1226 -0.2354 -0.0350
 9254SOL    HW139224   1.608   2.113   0.230  1.5612 -1.6796  2.1832
 9254SOL    HW239225   1.648   2.233   0.154 -1.3767  1.4563  1.7200
 9255SOL     OW39226   3.737   4.447   3.288  0.3076 -0.6246  0.0986
 9255SOL    HW139227   3.660   4.397   3.317  1.2283 -0.9789  1.9067
 9255SOL    HW239228   3.808   4.383   3.300 -1.3212 -2.5966 -0.7850
 9256SOL     OW39229   3.645   3.894   7.743 -0.4402  0.4053  0.0924
 9256SOL    HW139230   3.629   3.910   7.650 -0.1853 -0.8517 -0.1698
 9256SOL    HW239231   3.718   3.835   7.724 -0.0797 -0.0947  3.0264
 9257SOL     OW39232   0.158   1.825   4.571  0.5848 -0.5332  0.3115
 9257SOL    HW139233   0.071   1.801   4.603  0.5322  0.9485  1.3094
 9257SOL    HW239234   0.183   1.899   4.627 -0.2066 -0.0552  0.0190
 9258SOL     OW39235   2.430   1.678  16.442 -0.2393 -0.3996  0.2991
 9258SOL    HW139236   2.372   1.742  16.482  0.5291  0.1559  0.5255
 9258SOL    HW239237   2.519   1.692  16.476  0.4068  1.0357 -1.9988
 9259SOL     OW39238   3.753   2.628   4.921 -0.1645 -0.1413  0.8632
 9259SOL    HW139239   3.786   2.578   4.996 -0.0213 -0.2110  0.7534
 9259SOL    HW239240   3.783   2.577   4.845 -0.7524  0.1358  0.4445
 9260SOL     OW39241   2.726   3.594   1.692  0.1369  0.1077  0.0322
 9260SOL    HW139242   2.732   3.586   1.788 -2.2946  1.1678  0.2898
 9260SOL    HW239243   2.633   3.594   1.669  0.5557 -1.2012 -1.6468
 9261SOL     OW39244   3.633   0.299   4.805 -0.3763  0.3436 -0.0958
 9261SOL    HW139245   3.600   0.302   4.715 -0.4335 -1.2994 -0.1315
 9261SOL    HW239246   3.721   0.264   4.789 -0.8620 -0.3833 -1.2535
 9262SOL     OW39247   1.813   2.287   7.292  0.0178 -0.1758 -0.1417
 9262SOL    HW139248   1.764   2.363   7.324 -0.4441 -1.0155  1.1259
 9262SOL    HW239249   1.827   2.316   7.202  1.0300 -0.8202 -0.1811
 9263SOL     OW39250   2.861   3.771   1.326 -0.3247 -0.0570  0.2720
 9263SOL    HW139251   2.773   3.787   1.359 -0.6866  0.3395 -0.8680
 9263SOL    HW239252   2.897   3.718   1.397  0.5630 -0.2448 -0.3201
 9264SOL     OW39253   0.922   0.102   6.600  0.1326 -0.2418  0.0731
 9264SOL    HW139254   0.842   0.062   6.635  0.3083 -0.3777  0.3222
 9264SOL    HW239255   0.986   0.073   6.666  0.0267  1.1017  0.7651
 9265SOL     OW39256   1.522   4.586  13.030  0.5220  0.2748 -0.5887
 9265SOL    HW139257   1.580   4.511  13.041 -2.7105 -2.2551 -1.1083
 9265SOL    HW239258   1.582   4.644  13.077  2.1419 -0.8557 -1.2541
 9266SOL     OW39259   0.050   2.984   7.596 -0.1776  0.2604  0.3452
 9266SOL    HW139260   0.117   3.047   7.570 -0.5346  0.8597  0.8899
 9266SOL    HW239261   0.001   2.961   7.516  0.3768  0.7345 -0.1291
 9267SOL     OW39262   0.353   1.673   4.245  0.2286 -0.2757  0.2204
 9267SOL    HW139263   0.340   1.735   4.317  1.7833 -0.4138  0.6131
 9267SOL    HW239264   0.278   1.697   4.191  0.3828 -0.1196  0.0739
 9268SOL     OW39265   4.688   0.622   5.259 -0.4051  0.2907  0.5767
 9268SOL    HW139266   4.667   0.582   5.174 -0.1881 -1.3872  1.3185
 9268SOL    HW239267   0.050   0.576   5.272  0.0003  0.1033 -2.6376
 9269SOL     OW39268   0.934   4.049   2.229  0.0928 -0.6383  0.0727
 9269SOL    HW139269   0.912   4.073   2.319 -0.4727  0.1685 -0.2824
 9269SOL    HW239270   0.865   4.091   2.178 -1.9789 -2.9387  0.9767
 9270SOL     OW39271   0.881   2.513   8.633  0.4240  0.4638  0.2172
 9270SOL    HW139272   0.801   2.562   8.653 -1.1830 -2.2058  0.2749
 9270SOL    HW239273   0.944   2.571   8.675 -0.0434  1.1258  0.0146
 9271SOL     OW39274   3.738   1.645   8.420  0.0718 -0.4305  0.1655
 9271SOL    HW139275   3.646   1.651   8.394  0.9240  1.9789 -2.4497
 9271SOL    HW239276   3.741   1.697   8.500  1.8098 -0.2488 -0.0199
 9272SOL     OW39277   4.446   3.056   5.721 -0.4402 -0.5113 -0.0690
 9272SOL    HW139278   4.400   3.070   5.638  1.8864  2.3242 -0.8850
 9272SOL    HW239279   4.475   3.147   5.730 -0.5531 -0.2828 -1.9569
 9273SOL     OW39280   0.425   1.255  17.300 -0.2917  0.2350 -0.2178
 9273SOL    HW139281   0.414   1.299  17.216  0.0156  1.4285  0.3594
 9273SOL    HW239282   0.419   1.164  17.270 -0.9736 -0.3339  1.6017
 9274SOL     OW39283   1.665   3.620   6.650  0.4195  0.3820  0.1025
 9274SOL    HW139284   1.722   3.572   6.590 -1.2917 -0.8221 -0.5722
 9274SOL    HW239285   1.593   3.558   6.636  0.4974  0.4251 -0.4961
 9275SOL     OW39286   2.939   3.841  10.105  0.2623 -0.0406  0.7001
 9275SOL    HW139287   2.977   3.846  10.017 -0.0641  0.0594  0.5638
 9275SOL    HW239288   2.889   3.760  10.098  0.6346 -0.4729  3.1247
 9276SOL     OW39289   3.943   3.909   8.468 -0.4080  0.1030 -0.5013
 9276SOL    HW139290   4.035   3.932   8.478 -1.1319  2.1039  1.5432
 9276SOL    HW239291   3.937   3.896   8.373 -0.6498 -0.2172 -0.4433
 9277SOL     OW39292   2.540   1.058   8.955 -0.3693  0.3301  0.7060
 9277SOL    HW139293   2.446   1.043   8.941  0.1712 -0.7455 -1.7210
 9277SOL    HW239294   2.536   1.134   9.014  0.8849  0.9815 -0.0625
 9278SOL     OW39295   1.455   1.348   3.152 -0.5430  0.2484 -0.1573
 9278SOL    HW139296   1.539   1.394   3.145 -0.8868  0.7994 -0.7299
 9278SOL    HW239297   1.407   1.368   3.071 -0.0810  0.1776 -0.4495
 9279SOL     OW39298   2.652   2.258   8.518 -0.3313 -0.1769  0.0508
 9279SOL    HW139299   2.565   2.219   8.518  0.3946 -1.8194  1.1537
 9279SOL    HW239300   2.640   2.345   8.556 -0.2926 -0.4891  0.7930
 9280SOL     OW39301   3.417   1.435   2.756  0.6613 -0.1568  0.2610
 9280SOL    HW139302   3.417   1.427   2.661 -0.2884 -0.6870  0.3008
 9280SOL    HW239303   3.377   1.519   2.777 -1.6525 -0.6351 -2.2901
 9281SOL     OW39304   3.828   0.157   2.533 -0.4771 -0.6888  0.2250
 9281SOL    HW139305   3.798   0.093   2.597 -0.8261 -1.3466 -0.5900
 9281SOL    HW239306   3.915   0.182   2.565  0.1846  0.7021 -2.6330
 9282SOL     OW39307   1.796   3.732   7.753 -0.1086 -0.1279  0.4878
 9282SOL    HW139308   1.797   3.793   7.826  2.0548 -2.4486  2.3827
 9282SOL    HW239309   1.885   3.745   7.720 -0.2888 -0.9656 -0.3520
 9283SOL     OW39310   4.430   2.369  10.442 -0.1403  0.2213  0.2775
 9283SOL    HW139311   4.430   2.396  10.534  0.4907  1.6142 -0.1233
 9283SOL    HW239312   4.360   2.419  10.399 -2.1204 -1.1187  1.9450
 9284SOL     OW39313   3.186   1.777   5.414  0.1072 -0.4362 -0.6482
 9284SOL    HW139314   3.241   1.839   5.366  2.2155  0.0768  2.3602
 9284SOL    HW239315   3.182   1.704   5.352 -1.2888  0.7522 -1.9475
 9285SOL     OW39316   0.174   1.625   1.827  0.5637 -0.1488 -0.2814
 9285SOL    HW139317   0.204   1.696   1.885  1.1508 -0.0961 -0.6586
 9285SOL    HW239318   0.255   1.578   1.809 -0.0348 -1.3171  0.0843
 9286SOL     OW39319   4.635   0.476   3.382  0.0241 -0.0162 -0.1389
 9286SOL    HW139320   4.648   0.434   3.466 -0.6526 -2.6529 -1.3485
 9286SOL    HW239321   4.639   0.406   3.317  0.5084 -1.5863  1.5950
 9287SOL     OW39322   0.461   1.962  16.305  0.1813 -0.5298 -0.7613
 9287SOL    HW139323   0.441   1.890  16.364 -0.3132 -0.4792 -0.8617
 9287SOL    HW239324   0.533   1.930  16.251 -0.4925 -0.9902 -1.3831
 9288SOL     OW39325   4.104   1.446   4.830  0.2294  0.5374  0.5907
 9288SOL    HW139326   4.196   1.423   4.835  0.7125  2.8925  2.5670
 9288SOL    HW239327   4.104   1.541   4.840  0.1632  0.6526 -0.4821
 9289SOL     OW39328   1.085   0.648   6.277  0.9026  0.1473 -0.6606
 9289SOL    HW139329   1.177   0.658   6.302  0.8571 -1.2633  0.0648
 9289SOL    HW239330   1.050   0.646   6.366  2.3180  2.2474 -0.0512
 9290SOL     OW39331   1.758   0.437   2.630  0.3199  0.0060 -0.7661
 9290SOL    HW139332   1.789   0.416   2.718  2.5116  0.2823 -1.4761
 9290SOL    HW239333   1.760   0.532   2.633 -0.9331  0.0049  0.1686
 9291SOL     OW39334   1.008   2.432   2.646 -0.2867 -0.4047  0.1568
 9291SOL    HW139335   0.968   2.510   2.685 -0.1638  0.0170 -0.5534
 9291SOL    HW239336   0.976   2.433   2.556 -1.8710  0.9137  0.7270
 9292SOL     OW39337   0.371   1.584   5.723 -0.0734 -0.0270  0.0939
 9292SOL    HW139338   0.424   1.621   5.793 -1.8728  1.7052  0.5438
 9292SOL    HW239339   0.291   1.587   5.776 -0.6179 -1.9939 -0.6530
 9293SOL     OW39340   3.267   2.193  11.759 -0.1850 -0.1369 -0.3612
 9293SOL    HW139341   3.351   2.147  11.758  0.4974  1.0895  0.6057
 9293SOL    HW239342   3.195   2.133  11.741  1.2433 -1.1612 -2.7751
 9294SOL     OW39343   2.306   1.307  13.246 -0.1512  0.5862 -0.1987
 9294SOL    HW139344   2.283   1.318  13.154 -1.7040  1.4791  0.2942
 9294SOL    HW239345   2.298   1.398  13.275 -0.7110  0.0456  1.3824
 9295SOL     OW39346   4.529   2.583   2.995 -0.7422  0.1254  0.2359
 9295SOL    HW139347   4.497   2.653   3.051  0.1316  0.0634  0.8170
 9295SOL    HW239348   4.507   2.625   2.912  1.3611  2.6329  0.9588
 9296SOL     OW39349   2.531   0.687   0.899  0.3394 -0.5301  0.5415
 9296SOL    HW139350   2.583   0.765   0.883  0.4268 -0.4165  1.3571
 9296SOL    HW239351   2.585   0.613   0.869  0.6497  0.3759 -1.1348
 9297SOL     OW39352   3.746   1.682  17.300  0.4928  0.8151  0.0675
 9297SOL    HW139353   3.786   1.645  17.378  0.2190 -2.1826 -1.2425
 9297SOL    HW239354   3.816   1.730  17.256  0.4693 -0.1846 -1.0790
 9298SOL     OW39355   2.071   1.574   6.869 -0.7913  0.1997 -0.1412
 9298SOL    HW139356   2.103   1.597   6.956  0.0864  0.7235 -0.6006
 9298SOL    HW239357   2.018   1.646   6.836  0.4933  0.2419 -2.1480
 9299SOL     OW39358   2.748   3.438   6.060  0.2730 -0.0564 -0.3913
 9299SOL    HW139359   2.829   3.478   6.029  0.6487  0.0651  0.7548
 9299SOL    HW239360   2.700   3.511   6.100 -2.1287 -1.7759 -0.1250
 9300SOL     OW39361   2.081   0.062  15.770  0.2591  0.1732  0.4890
 9300SOL    HW139362   2.015   0.015  15.821 -1.2960 -0.1996 -1.8970
 9300SOL    HW239363   2.062   0.155  15.785 -2.2988 -0.2605  0.0223
 9301SOL     OW39364   0.315   2.660   3.347 -0.2652 -0.1238  0.1823
 9301SOL    HW139365   0.240   2.634   3.293 -0.7964 -0.3657  1.0419
 9301SOL    HW239366   0.285   2.652   3.437  0.7928 -0.4023  0.5118
 9302SOL     OW39367   2.882   4.076  10.292  0.3255  0.2710  0.0249
 9302SOL    HW139368   2.811   4.066  10.355  1.3015 -0.6673  0.9535
 9302SOL    HW239369   2.843   4.044  10.210  0.7272  0.3895 -0.2158
 9303SOL     OW39370   2.982   3.405   8.224 -0.1305  0.4018  0.4983
 9303SOL    HW139371   2.983   3.321   8.271 -1.8829 -0.9837 -1.9574
 9303SOL    HW239372   2.889   3.428   8.231  0.2058  1.6909  0.7954
 9304SOL     OW39373   1.475   0.765   6.127  0.1862 -0.1505 -0.2595
 9304SOL    HW139374   1.515   0.852   6.136  0.4511 -0.5202  2.1059
 9304SOL    HW239375   1.444   0.762   6.036  1.8890  0.8269 -0.8837
 9305SOL     OW39376   1.649   0.098   7.270 -0.0397  0.1906 -0.0873
 9305SOL    HW139377   1.643   0.172   7.209 -1.9569 -1.4190 -1.8418
 9305SOL    HW239378   1.737   0.064   7.250 -0.6626 -1.3341 -0.2396
 9306SOL     OW39379   0.196   2.645   8.726  0.9334 -0.0688 -0.4861
 9306SOL    HW139380   0.151   2.587   8.788  1.6693 -0.6871 -0.5414
 9306SOL    HW239381   0.270   2.671   8.781 -1.2882  0.5614  2.2475
 9307SOL     OW39382   3.689   2.624  14.373  0.0294 -0.0175  0.3713
 9307SOL    HW139383   3.780   2.617  14.403 -0.0351  3.3534  1.3264
 9307SOL    HW239384   3.689   2.556  14.306  0.1394  0.7200 -0.3744
 9308SOL     OW39385   0.043   2.350   1.448  0.3420  0.0505 -0.4796
 9308SOL    HW139386   0.073   2.265   1.415  1.9843 -0.5228  2.5054
 9308SOL    HW239387   4.687   2.327   1.501 -0.3852 -0.3992 -1.7303
 9309SOL     OW39388   3.052   1.238  17.609  0.0582  0.1425  0.2864
 9309SOL    HW139389   3.051   1.288  17.528  0.6997 -0.4095 -0.0609
 9309SOL    HW239390   3.144   1.249  17.634  0.0533 -2.3034  1.3725
 9310SOL     OW39391   1.864   2.949   6.524  0.4245  0.2560  0.3846
 9310SOL    HW139392   1.904   2.877   6.573 -1.7539 -1.4386 -0.3173
 9310SOL    HW239393   1.823   2.909   6.447  0.3965 -2.4226  1.7788
 9311SOL     OW39394   4.108   0.132  13.503  0.2847  0.1996 -0.0124
 9311SOL    HW139395   4.139   0.104  13.590 -1.4934 -0.3469  0.4506
 9311SOL    HW239396   4.187   0.165  13.461  0.5067 -1.4769 -0.9237
 9312SOL     OW39397   0.464   3.545  13.756  0.3693  0.4422  0.7117
 9312SOL    HW139398   0.551   3.539  13.718 -0.1058  0.9667 -0.4656
 9312SOL    HW239399   0.398   3.524  13.689  0.0049  1.8747  0.6167
 9313SOL     OW39400   3.629   3.988   7.485  0.2318 -0.1897  0.1450
 9313SOL    HW139401   3.598   3.978   7.395  0.0568 -2.2838  0.4407
 9313SOL    HW239402   3.678   4.070   7.476  0.1819 -0.1566  0.1712
 9314SOL     OW39403   3.335   3.425  11.681 -0.2991  0.3646  0.1694
 9314SOL    HW139404   3.274   3.359  11.714  0.4917 -0.9249 -0.9596
 9314SOL    HW239405   3.337   3.419  11.585  1.2214  1.9364  0.1068
 9315SOL     OW39406   3.757   0.426   2.561 -0.7187 -0.2042 -0.4152
 9315SOL    HW139407   3.727   0.335   2.551 -1.7260  0.3185 -2.1577
 9315SOL    HW239408   3.812   0.438   2.484  0.2750  1.1101  0.5120
 9316SOL     OW39409   0.660   2.730  10.931  0.3214 -0.2337  0.1833
 9316SOL    HW139410   0.650   2.770  10.844  3.7748  0.7823  0.2726
 9316SOL    HW239411   0.573   2.694  10.948 -0.5077  2.1965  1.0692
 9317SOL     OW39412   0.008   2.147   0.530 -0.1051 -0.1153  0.5673
 9317SOL    HW139413   4.670   2.189   0.468  1.0318  0.0531 -0.4134
 9317SOL    HW239414   0.087   2.201   0.522 -1.0671  1.1305 -0.5843
 9318SOL     OW39415   0.405   1.069   9.517  0.3267  0.3390 -0.3602
 9318SOL    HW139416   0.366   1.151   9.547 -1.3600 -0.5857 -0.0607
 9318SOL    HW239417   0.483   1.071   9.573  0.0721 -0.2593  0.0206
 9319SOL     OW39418   1.485   0.308   7.734 -0.2921  0.3445  0.4594
 9319SOL    HW139419   1.441   0.282   7.814  0.0504  1.2642  0.9469
 9319SOL    HW239420   1.512   0.229   7.687 -0.3753  0.2403  0.5856
 9320SOL     OW39421   1.807   2.454   9.747 -0.1667 -0.0899  0.1352
 9320SOL    HW139422   1.777   2.430   9.659 -0.6651  1.3555 -0.0912
 9320SOL    HW239423   1.733   2.478   9.802  0.2478  2.1599 -0.3081
 9321SOL     OW39424   0.787   4.587   3.796  0.1847  0.7542 -0.5775
 9321SOL    HW139425   0.812   4.499   3.824  2.2241  1.3536 -0.5217
 9321SOL    HW239426   0.694   4.572   3.781  0.0352  0.2804  0.8681
 9322SOL     OW39427   2.056   0.578   1.253  0.3182 -0.2226  0.4348
 9322SOL    HW139428   2.099   0.573   1.168 -0.4963 -2.0075  0.1439
 9322SOL    HW239429   2.121   0.522   1.296 -0.9085 -0.7853  1.5632
 9323SOL     OW39430   4.186   1.507   8.581 -0.4297 -0.1098  0.4296
 9323SOL    HW139431   4.178   1.477   8.671  1.3031  0.6316  0.8396
 9323SOL    HW239432   4.235   1.588   8.598  2.3306 -1.6746  0.0053
 9324SOL     OW39433   0.046   2.140   5.045 -0.0837  0.1793 -0.6390
 9324SOL    HW139434   0.080   2.214   5.096 -0.9094  1.2180 -1.5737
 9324SOL    HW239435   0.130   2.098   5.024  2.0910  3.7389  0.8805
 9325SOL     OW39436   4.014   4.180   6.539 -0.1380 -0.1886  0.2453
 9325SOL    HW139437   4.088   4.198   6.598  1.0525 -1.5613 -0.8356
 9325SOL    HW239438   4.040   4.094   6.506 -1.8378 -1.1616  1.4379
 9326SOL     OW39439   0.582   2.021  12.604 -0.0142 -0.1672  0.0095
 9326SOL    HW139440   0.572   1.930  12.575 -0.8070  0.2353 -0.9669
 9326SOL    HW239441   0.496   2.043  12.641  0.0488  0.1142 -0.0137
 9327SOL     OW39442   2.283   1.560   5.311 -0.1137  0.4939  0.3563
 9327SOL    HW139443   2.233   1.479   5.312 -0.6123  0.8113  2.6786
 9327SOL    HW239444   2.318   1.560   5.222  0.6076 -0.5587  0.6365
 9328SOL     OW39445   2.060   3.854   6.210 -0.4153 -0.0486 -0.0975
 9328SOL    HW139446   2.058   3.775   6.264 -1.3056  0.9405  1.3055
 9328SOL    HW239447   2.126   3.831   6.144 -0.9862  0.8230 -0.9752
 9329SOL     OW39448   4.165   1.989   4.524  0.0626 -0.3501 -0.1408
 9329SOL    HW139449   4.171   1.977   4.429 -4.2264  1.0286 -0.6172
 9329SOL    HW239450   4.252   1.963   4.553 -0.1890 -1.7348 -0.6523
 9330SOL     OW39451   3.805   1.141   6.476  0.2660  0.5988  0.1112
 9330SOL    HW139452   3.815   1.079   6.548 -1.5782 -0.9862 -1.0086
 9330SOL    HW239453   3.781   1.090   6.399 -0.5752 -1.1401  1.5550
 9331SOL     OW39454   2.058   1.859   6.742  0.2482  0.1823 -0.0215
 9331SOL    HW139455   2.143   1.862   6.697  0.8018  0.4778  1.0549
 9331SOL    HW239456   2.049   1.944   6.785  2.8704 -0.1053  1.0811
 9332SOL     OW39457   4.657   4.329  13.213 -0.5851 -0.1790 -0.3321
 9332SOL    HW139458   4.716   4.313  13.140  2.3960 -3.8365  2.8165
 9332SOL    HW239459   4.665   4.424  13.223 -1.8431 -0.1399  0.3464
 9333SOL     OW39460   1.378   0.792   5.651  0.3064 -0.4794 -0.0216
 9333SOL    HW139461   1.450   0.845   5.616 -0.1772  0.3706  0.2974
 9333SOL    HW239462   1.370   0.724   5.584 -0.0885  0.3613 -0.8261
 9334SOL     OW39463   2.231   2.875   7.907 -0.5533 -0.3036  0.2590
 9334SOL    HW139464   2.159   2.874   7.843  0.3027  0.1622 -0.7036
 9334SOL    HW239465   2.265   2.962   7.889 -1.9199  0.5514  1.8515
 9335SOL     OW39466   0.292   1.982   7.497  0.2951  0.5204  0.2122
 9335SOL    HW139467   0.210   1.937   7.515  1.6558 -1.7170  0.7407
 9335SOL    HW239468   0.353   1.918   7.533  2.0084  1.1530 -1.6027
 9336SOL     OW39469   3.863   3.189   3.599  0.3191 -0.2780  0.6096
 9336SOL    HW139470   3.787   3.161   3.548  0.8014  2.6394 -1.6980
 9336SOL    HW239471   3.823   3.210   3.683  0.7623  0.7648  0.5525
 9337SOL     OW39472   4.121   2.078  14.982 -0.2393  0.0195 -0.2777
 9337SOL    HW139473   4.083   2.166  14.987 -0.7880 -0.2577  0.3775
 9337SOL    HW239474   4.148   2.073  14.890  3.8348 -1.2117  1.0194
 9338SOL     OW39475   4.257   2.818  17.685 -0.6499 -0.3970 -0.0852
 9338SOL    HW139476   4.195   2.891  17.679 -1.0947 -0.6444  1.5503
 9338SOL    HW239477   4.297   2.829  17.598 -0.5473  0.1494  0.0368
 9339SOL     OW39478   2.070   2.492   4.294  0.0265  0.4480  0.2673
 9339SOL    HW139479   1.990   2.520   4.337 -1.2150 -1.1863 -0.9376
 9339SOL    HW239480   2.091   2.578   4.258  1.3838 -1.2036 -2.8975
 9340SOL     OW39481   2.038   3.175  15.875  0.1512  0.4654 -0.2625
 9340SOL    HW139482   2.019   3.121  15.951 -0.3051 -0.2494 -0.8925
 9340SOL    HW239483   2.122   3.214  15.901  0.1915 -0.0742  0.4183
 9341SOL     OW39484   0.865   3.108  10.137  0.2781 -0.1500 -0.1599
 9341SOL    HW139485   0.932   3.173  10.154  1.0748 -1.0216  0.0443
 9341SOL    HW239486   0.862   3.079  10.228 -0.6596 -0.0251 -0.1456
 9342SOL     OW39487   2.547   2.777   2.664  0.2817  0.3361 -0.6944
 9342SOL    HW139488   2.490   2.806   2.593 -2.3606 -1.6227  0.6271
 9342SOL    HW239489   2.620   2.837   2.648  0.1885  0.1708 -1.7439
 9343SOL     OW39490   4.537   2.616   5.474  0.0281 -1.0335  0.5193
 9343SOL    HW139491   4.629   2.605   5.450  0.1884 -1.0936  1.1512
 9343SOL    HW239492   4.541   2.669   5.554  0.0611 -0.0577 -0.1295
 9344SOL     OW39493   0.988   0.463   6.089  0.3004 -0.5806 -0.0187
 9344SOL    HW139494   0.927   0.532   6.063  0.9438  0.4439  1.2590
 9344SOL    HW239495   1.039   0.510   6.154 -2.1269  2.1874 -0.1248
 9345SOL     OW39496   4.458   0.107   6.617  0.1296  0.1968  0.1034
 9345SOL    HW139497   4.465   0.034   6.554 -1.6081  0.3656 -0.2865
 9345SOL    HW239498   4.544   0.091   6.656  0.3120  0.8756 -0.0344
 9346SOL     OW39499   3.151   4.642  12.473  0.5395  0.0458  0.1194
 9346SOL    HW139500   3.235   4.647  12.518  1.0971 -0.0497 -0.8989
 9346SOL    HW239501   3.133   4.549  12.484 -1.3682  0.5829  1.4087
 9347SOL     OW39502   4.110   3.673   4.162  0.1343 -0.7498  0.6842
 9347SOL    HW139503   4.151   3.687   4.247  1.0710 -0.2041  0.1524
 9347SOL    HW239504   4.099   3.761   4.126 -2.9932 -2.2928 -2.1561
 9348SOL     OW39505   2.265   4.443  10.378 -0.3240 -0.1329  0.3710
 9348SOL    HW139506   2.336   4.381  10.365 -2.1046 -2.0413 -0.3482
 9348SOL    HW239507   2.305   4.489  10.452 -0.3182 -0.5044  0.5947
 9349SOL     OW39508   3.600   2.630   9.341  0.0773  0.7231  0.4519
 9349SOL    HW139509   3.548   2.553   9.320  0.5661  0.9627 -1.6533
 9349SOL    HW239510   3.532   2.696   9.354  1.9717  2.2000  2.7623
 9350SOL     OW39511   2.215   1.371   9.328  0.5177  0.3077  0.0978
 9350SOL    HW139512   2.279   1.439   9.346  1.2756 -0.4086  0.1276
 9350SOL    HW239513   2.155   1.366   9.402 -1.0830  0.4981 -1.2021
 9351SOL     OW39514   1.819   3.118   6.136 -0.2357  0.0156  0.3259
 9351SOL    HW139515   1.860   3.041   6.177  0.8259 -0.8297 -2.3221
 9351SOL    HW239516   1.774   3.068   6.068  0.5397 -0.1500 -0.0701
 9352SOL     OW39517   3.351   1.949   2.332  0.3469  0.5921  0.2315
 9352SOL    HW139518   3.292   1.980   2.263 -2.1206  0.3854  2.2852
 9352SOL    HW239519   3.327   1.997   2.411 -1.5354 -0.5916  0.3708
 9353SOL     OW39520   0.700   2.108   2.008 -0.2183 -0.2173 -0.5512
 9353SOL    HW139521   0.685   2.040   1.943  2.9831 -2.4825  1.0500
 9353SOL    HW239522   0.776   2.154   1.973 -0.3643  0.8387  0.5122
 9354SOL     OW39523   2.912   1.211  10.091 -0.1907  0.1072  0.0454
 9354SOL    HW139524   2.902   1.195  10.185  0.1399 -0.6704 -0.0492
 9354SOL    HW239525   3.005   1.192  10.083 -0.1202 -0.0986  1.3394
 9355SOL     OW39526   2.273   1.338   6.225 -0.1723 -0.7243 -0.4558
 9355SOL    HW139527   2.232   1.376   6.303 -0.4172 -0.4972 -0.6936
 9355SOL    HW239528   2.214   1.365   6.155 -0.7248  1.2365  0.7769
 9356SOL     OW39529   3.568   1.044   7.327 -0.4287 -0.4107  0.3637
 9356SOL    HW139530   3.664   1.043   7.324 -0.4851 -0.9331 -1.6256
 9356SOL    HW239531   3.557   1.079   7.415  1.1088 -0.2824  0.5153
 9357SOL     OW39532   3.635   0.028   6.690  0.0960 -0.2002  0.0664
 9357SOL    HW139533   3.545   0.046   6.719  0.6399  1.3254  0.7382
 9357SOL    HW239534   3.622   0.034   6.595 -0.7176 -3.3467 -0.0252
 9358SOL     OW39535   4.469   3.751   0.635 -0.6566  0.1386  0.5030
 9358SOL    HW139536   4.491   3.751   0.542 -1.5259 -0.0063  0.2979
 9358SOL    HW239537   4.441   3.659   0.630  1.4000 -0.3775 -1.4000
 9359SOL     OW39538   4.379   3.894  11.791  0.0254  0.2112  0.1569
 9359SOL    HW139539   4.447   3.955  11.762 -1.9652  3.0473  1.3948
 9359SOL    HW239540   4.349   3.922  11.878 -0.6298  1.5735 -0.5005
 9360SOL     OW39541   3.581   3.631   2.555  0.1923  0.1564 -0.4658
 9360SOL    HW139542   3.592   3.554   2.610  1.0535  1.6981  1.5345
 9360SOL    HW239543   3.499   3.659   2.596  0.1853 -0.5566  0.0170
 9361SOL     OW39544   4.410   4.323   3.256  1.0119 -0.0517  0.4509
 9361SOL    HW139545   4.431   4.287   3.342 -1.1457 -0.2097  0.9165
 9361SOL    HW239546   4.315   4.335   3.258  1.0010 -0.0106 -0.4935
 9362SOL     OW39547   2.556   0.777   8.971  0.3164 -0.5352  0.0164
 9362SOL    HW139548   2.544   0.749   9.062 -0.6749  1.2505  0.4497
 9362SOL    HW239549   2.527   0.869   8.967 -1.4428 -1.0614  0.8319
 9363SOL     OW39550   1.765   4.198  15.188 -0.5658  0.1391  0.3365
 9363SOL    HW139551   1.687   4.246  15.217 -2.0268  0.0414 -3.4738
 9363SOL    HW239552   1.744   4.106  15.201 -1.2587  0.2540  0.0246
 9364SOL     OW39553   1.237   0.895   3.360  0.0341  0.2654  0.0170
 9364SOL    HW139554   1.279   0.975   3.330  1.1757 -0.1307  0.5695
 9364SOL    HW239555   1.163   0.881   3.301  0.2315  2.8683 -0.8220
 9365SOL     OW39556   1.466   3.011   6.916  0.1258  0.4985 -0.1437
 9365SOL    HW139557   1.403   3.022   6.986  2.6719  0.0554  2.2356
 9365SOL    HW239558   1.419   2.941   6.870  1.9665 -0.7639 -0.1161
 9366SOL     OW39559   2.340   3.917   6.485  0.0942  0.3759  0.1865
 9366SOL    HW139560   2.347   3.841   6.427  1.4238  2.0292 -1.7858
 9366SOL    HW239561   2.354   3.997   6.436 -1.9290  0.0934 -0.8545
 9367SOL     OW39562   1.437   3.741   4.369  0.0490  0.3814 -0.0558
 9367SOL    HW139563   1.499   3.703   4.307 -0.2401  0.5520 -0.4456
 9367SOL    HW239564   1.366   3.763   4.309  0.1981  2.1425  0.4110
 9368SOL     OW39565   0.010   3.984   5.946 -0.4096  0.4848 -0.0336
 9368SOL    HW139566   0.007   4.014   5.855  0.2954 -3.1597 -1.2314
 9368SOL    HW239567   4.665   4.036   5.992 -0.7876  0.4195 -0.5058
 9369SOL     OW39568   3.782   3.185   7.827  0.6770  0.1548 -0.5316
 9369SOL    HW139569   3.861   3.156   7.871  0.3524 -0.9203 -0.6475
 9369SOL    HW239570   3.734   3.102   7.817 -1.0279  0.8221  2.0721
 9370SOL     OW39571   1.112   4.412   2.004  0.3270  0.0195 -0.5243
 9370SOL    HW139572   1.046   4.432   2.072 -2.0025 -2.3016 -2.1394
 9370SOL    HW239573   1.169   4.358   2.058 -0.2492 -0.6235 -0.5533
 9371SOL     OW39574   0.832   3.190   2.925 -0.3089  0.0951  0.3538
 9371SOL    HW139575   0.780   3.250   2.978 -3.0083 -3.1666  1.4470
 9371SOL    HW239576   0.894   3.163   2.992 -1.4899 -0.1672  1.3485
 9372SOL     OW39577   1.339   3.144   7.751 -0.3276 -0.7173  0.1168
 9372SOL    HW139578   1.418   3.107   7.712  1.2511  2.9375 -0.1993
 9372SOL    HW239579   1.329   3.093   7.832 -0.9231 -1.0997 -0.1981
 9373SOL     OW39580   3.056   3.569   5.666  0.2703 -0.2230  0.2101
 9373SOL    HW139581   3.125   3.514   5.628 -0.5151 -0.0536 -1.4548
 9373SOL    HW239582   3.090   3.652   5.632 -0.3127  0.2820  0.8603
 9374SOL     OW39583   2.176   4.707   5.916 -0.3732  0.0219 -0.1725
 9374SOL    HW139584   2.175   0.013   5.825 -0.1363  1.3998  0.2261
 9374SOL    HW239585   2.086   4.684   5.939 -0.6605 -0.0493 -1.4049
 9375SOL     OW39586   2.131   0.004   4.543  0.9192 -0.3718 -0.3506
 9375SOL    HW139587   2.215   0.050   4.531 -0.2205  1.3444 -1.7226
 9375SOL    HW239588   2.069   0.069   4.510 -0.1646 -0.1753  2.0506
 9376SOL     OW39589   0.353   4.468  10.961 -0.7569  0.2436  0.0689
 9376SOL    HW139590   0.338   4.521  11.039 -2.0409  0.9371 -0.6640
 9376SOL    HW239591   0.414   4.402  10.994  0.8742  0.5317 -2.3952
 9377SOL     OW39592   3.798   0.025  15.852 -0.2300 -0.6272  1.1245
 9377SOL    HW139593   3.852   0.104  15.851 -0.2189 -0.6107  2.2864
 9377SOL    HW239594   3.833   4.698  15.777 -1.9812 -1.6937  0.9917
 9378SOL     OW39595   2.916   2.516   8.812 -0.1032  0.1738  0.4769
 9378SOL    HW139596   2.832   2.533   8.854 -0.2129  0.9107 -0.0393
 9378SOL    HW239597   2.963   2.472   8.883  2.1175 -0.5510 -1.4205
 9379SOL     OW39598   1.987   1.082   3.471 -0.7347  0.0841 -0.3140
 9379SOL    HW139599   1.971   1.155   3.411 -0.5877  0.1766 -0.2416
 9379SOL    HW239600   2.082   1.090   3.470 -0.6407 -0.4737  3.1984
 9380SOL     OW39601   3.278   2.541   3.773  0.1840 -0.1672 -0.2231
 9380SOL    HW139602   3.272   2.475   3.704  1.7417 -0.0265 -0.5095
 9380SOL    HW239603   3.215   2.510   3.838 -1.0055  0.6649 -0.9799
 9381SOL     OW39604   1.290   0.696   8.139 -0.6411  0.5664  0.3486
 9381SOL    HW139605   1.336   0.614   8.156 -0.1117  1.1119  1.5093
 9381SOL    HW239606   1.212   0.677   8.192 -1.9029 -0.1073 -1.6925
 9382SOL     OW39607   2.374   3.326   9.224 -0.4648 -0.5815 -0.4782
 9382SOL    HW139608   2.301   3.368   9.179 -0.9063 -0.2246  0.5701
 9382SOL    HW239609   2.395   3.387   9.295  0.7943 -1.6168  0.0321
 9383SOL     OW39610   1.440   0.676   4.714 -0.6238  0.0795  0.2642
 9383SOL    HW139611   1.451   0.604   4.776 -0.0768  0.4188  0.5621
 9383SOL    HW239612   1.441   0.636   4.627 -0.0378  1.1715 -0.2371
 9384SOL     OW39613   4.214   2.954  12.240 -0.4643  0.7014  0.5733
 9384SOL    HW139614   4.144   3.020  12.239 -1.5572 -0.4784  0.4917
 9384SOL    HW239615   4.213   2.927  12.332 -0.5431 -0.4450  0.2244
 9385SOL     OW39616   2.109   3.246  15.352 -0.0373 -0.1488  0.2005
 9385SOL    HW139617   2.019   3.221  15.334  0.5131 -1.0612 -1.2580
 9385SOL    HW239618   2.107   3.221  15.444  2.0209 -0.4432  0.1692
 9386SOL     OW39619   1.067   4.178  10.619 -0.1835 -0.4243 -0.2977
 9386SOL    HW139620   1.136   4.240  10.640 -0.1941 -0.9020  1.1754
 9386SOL    HW239621   1.082   4.100  10.672  2.6168  2.2187  2.8267
 9387SOL     OW39622   3.288   2.231   7.150  0.4484 -0.1466  0.2180
 9387SOL    HW139623   3.274   2.221   7.244  0.8440 -1.7159  0.1170
 9387SOL    HW239624   3.307   2.323   7.135 -1.8837  0.3200  0.1006
 9388SOL     OW39625   0.318   2.397   2.807 -0.0550 -0.2528 -0.2683
 9388SOL    HW139626   0.241   2.411   2.752  0.6012  3.3602 -0.2455
 9388SOL    HW239627   0.340   2.308   2.778  0.9495  0.1437 -0.7388
 9389SOL     OW39628   1.924   3.642   3.976  0.2989 -0.3343  0.1270
 9389SOL    HW139629   1.976   3.718   4.002  2.4397 -1.3044 -1.3752
 9389SOL    HW239630   1.902   3.602   4.060  1.0250 -0.3279  0.3194
 9390SOL     OW39631   3.878   2.474  10.421 -0.1821  0.5846 -0.1567
 9390SOL    HW139632   3.805   2.507  10.474 -0.0803  0.4851  0.0458
 9390SOL    HW239633   3.949   2.488  10.484 -0.5986  1.7982  0.0478
 9391SOL     OW39634   3.596   2.534  13.559 -0.1179  0.0566  0.1932
 9391SOL    HW139635   3.567   2.445  13.584 -1.5994  0.4314 -0.1641
 9391SOL    HW239636   3.643   2.559  13.638 -1.8387 -0.3774  1.3760
 9392SOL     OW39637   0.690   2.276  11.715  0.1267 -0.3362  0.3347
 9392SOL    HW139638   0.609   2.293  11.762 -0.9076 -2.3034 -0.7715
 9392SOL    HW239639   0.659   2.274  11.625 -1.2809 -0.8419  0.8342
 9393SOL     OW39640   3.737   2.339   9.847  0.2991  0.5186 -0.1949
 9393SOL    HW139641   3.711   2.311   9.935  1.5075  0.1667  0.0558
 9393SOL    HW239642   3.716   2.257   9.803  2.0728 -0.1689  0.2155
 9394SOL     OW39643   1.785   3.369   6.175 -0.3039 -0.0539 -0.1370
 9394SOL    HW139644   1.735   3.396   6.098 -2.4239 -2.2695  0.4586
 9394SOL    HW239645   1.785   3.275   6.153  0.8731 -0.2706  0.8000
 9395SOL     OW39646   1.543   2.817  17.091 -0.0225  0.5897 -0.4255
 9395SOL    HW139647   1.552   2.744  17.029 -0.9045  2.3684 -2.6488
 9395SOL    HW239648   1.449   2.803  17.100  0.0283  0.0615 -0.7376
 9396SOL     OW39649   1.427   2.150   2.421  0.5184 -0.3381 -0.7426
 9396SOL    HW139650   1.415   2.245   2.428  0.2169 -0.4536  0.2749
 9396SOL    HW239651   1.427   2.125   2.513  1.5203  1.2415 -0.3240
 9397SOL     OW39652   4.528   2.663   6.550 -0.0287  0.4001 -0.0811
 9397SOL    HW139653   4.514   2.710   6.468 -0.4015  0.4826  0.0309
 9397SOL    HW239654   4.463   2.595   6.536 -1.7903  2.2079 -0.6647
 9398SOL     OW39655   0.332   0.417   4.361 -0.2672 -0.9040 -0.0164
 9398SOL    HW139656   0.305   0.501   4.324  0.2479  0.0598  1.7536
 9398SOL    HW239657   0.252   0.405   4.413  1.3717 -3.5722  1.9086
 9399SOL     OW39658   1.026   2.407   2.998 -0.3113 -0.8256 -0.1678
 9399SOL    HW139659   0.933   2.408   2.974 -0.8135 -1.6492  1.8025
 9399SOL    HW239660   1.045   2.357   2.918  1.0260 -0.1281 -0.2886
 9400SOL     OW39661   1.327   0.604   5.073  0.2869  0.1287 -0.3926
 9400SOL    HW139662   1.314   0.587   4.980  0.0064 -0.5337 -0.2336
 9400SOL    HW239663   1.401   0.665   5.076  1.2384 -1.0072 -0.2960
 9401SOL     OW39664   1.595   2.344   3.428  0.5311  0.5317 -0.3073
 9401SOL    HW139665   1.611   2.311   3.340  0.1142 -0.5892  0.0339
 9401SOL    HW239666   1.523   2.401   3.402 -0.5895 -0.0404  1.5218
 9402SOL     OW39667   1.803   2.100  13.304  0.2473  0.4662 -0.2789
 9402SOL    HW139668   1.860   2.102  13.228 -2.6969  2.2659 -2.4451
 9402SOL    HW239669   1.716   2.108  13.264 -0.5520 -1.9570  0.9336
 9403SOL     OW39670   3.611   3.953   6.641 -0.7880  0.1959  1.0420
 9403SOL    HW139671   3.616   4.040   6.600 -2.0161  0.0383  0.5614
 9403SOL    HW239672   3.693   3.950   6.692 -0.7168  1.3254  0.9917
 9404SOL     OW39673   2.061   0.231   9.910  0.3067 -0.1798 -0.4268
 9404SOL    HW139674   1.981   0.208   9.959  0.1357 -1.1000 -1.1391
 9404SOL    HW239675   2.072   0.317   9.949 -0.0447 -0.6003  0.6063
 9405SOL     OW39676   3.834   2.926  12.920 -0.7217  0.2193  0.5660
 9405SOL    HW139677   3.835   2.859  12.988 -0.3477 -0.0088  0.3432
 9405SOL    HW239678   3.749   2.953  12.954 -1.7133  0.0803 -1.7777
 9406SOL     OW39679   4.056   3.439   3.373  0.5215 -0.3428  0.3171
 9406SOL    HW139680   3.980   3.466   3.321  0.5635  1.2692  1.1053
 9406SOL    HW239681   4.054   3.495   3.451 -0.8607  0.2491 -0.1439
 9407SOL     OW39682   0.406   3.423   2.885 -0.8322 -0.1609  0.4740
 9407SOL    HW139683   0.441   3.439   2.973  2.2001 -0.0391 -0.7478
 9407SOL    HW239684   0.486   3.453   2.841 -0.0545 -1.8830  0.6877
 9408SOL     OW39685   3.198   3.549   8.247  0.1097  0.0224 -0.8271
 9408SOL    HW139686   3.144   3.471   8.258  2.4267 -2.0295 -3.8441
 9408SOL    HW239687   3.201   3.548   8.151 -1.8456 -0.0181 -0.8822
 9409SOL     OW39688   4.264   1.073   6.040 -0.3637 -0.4297 -0.6572
 9409SOL    HW139689   4.287   1.165   6.053 -1.1595 -0.2165 -0.7907
 9409SOL    HW239690   4.343   1.036   6.080 -1.6537 -0.6834  1.6464
 9410SOL     OW39691   1.829   1.423   1.127 -0.0517  0.5189  0.5787
 9410SOL    HW139692   1.794   1.472   1.201  2.0195  2.3153  0.3939
 9410SOL    HW239693   1.893   1.486   1.095  0.9324 -1.2540 -0.9077
 9411SOL     OW39694   3.974   4.142   5.463 -0.0717  0.7806 -0.4563
 9411SOL    HW139695   4.002   4.233   5.452  1.1308  0.4315 -0.3012
 9411SOL    HW239696   3.944   4.146   5.554  1.2290 -2.2864  0.1160
 9412SOL     OW39697   4.195   0.390   2.131  0.2158 -0.2223 -0.1150
 9412SOL    HW139698   4.254   0.465   2.125 -0.8107  0.6833  1.0687
 9412SOL    HW239699   4.245   0.329   2.185  0.4192  0.8991  0.9575
 9413SOL     OW39700   3.561   1.485   0.114  0.3841  0.0977  0.0332
 9413SOL    HW139701   3.566   1.447   0.201 -0.5926 -0.7861 -0.3087
 9413SOL    HW239702   3.633   1.444   0.065  0.9367  0.1869  0.7740
 9414SOL     OW39703   1.086   1.957  14.842  0.1248  0.1645  0.2221
 9414SOL    HW139704   1.154   1.994  14.898  0.2055 -0.2794  0.4226
 9414SOL    HW239705   1.140   1.932  14.767 -0.4157  0.1533 -0.1630
 9415SOL     OW39706   3.548   3.854  14.558 -0.0734 -0.1417  0.4485
 9415SOL    HW139707   3.638   3.884  14.571 -0.1005  0.1994 -0.1536
 9415SOL    HW239708   3.553   3.777  14.501 -1.0522  0.0931  0.0416
 9416SOL     OW39709   0.397   2.522   3.056 -0.2155 -0.2696 -0.9531
 9416SOL    HW139710   0.357   2.466   3.123  1.0512 -0.0412 -0.0070
 9416SOL    HW239711   0.362   2.481   2.977  1.9466 -2.4507 -0.7691
 9417SOL     OW39712   3.718   1.126  14.677  0.5615  0.3085 -0.0171
 9417SOL    HW139713   3.704   1.187  14.749 -1.8929 -1.7768  1.2637
 9417SOL    HW239714   3.753   1.047  14.718  0.4440  0.8310  1.0867
 9418SOL     OW39715   1.255   0.109   1.213  0.5296 -0.5606 -0.4195
 9418SOL    HW139716   1.195   0.045   1.174 -0.6291  0.5409 -0.4391
 9418SOL    HW239717   1.211   0.145   1.289  1.1577 -0.8711  0.0903
 9419SOL     OW39718   1.145   3.679   1.642  0.2896  0.4165 -0.3880
 9419SOL    HW139719   1.186   3.637   1.718  1.1361  0.4397 -0.8322
 9419SOL    HW239720   1.091   3.604   1.614  0.6692  0.2494 -0.6782
 9420SOL     OW39721   1.138   1.785   8.471 -0.0420 -0.3632  0.1073
 9420SOL    HW139722   1.069   1.729   8.434 -1.8941 -0.0446  3.0710
 9420SOL    HW239723   1.143   1.855   8.405 -2.6971 -0.1336  0.1462
 9421SOL     OW39724   2.259   1.670   2.831  0.4694  0.4731  0.2297
 9421SOL    HW139725   2.174   1.645   2.795  0.6348 -0.8968  0.7753
 9421SOL    HW239726   2.317   1.662   2.755  1.3207 -3.4101  1.2712
 9422SOL     OW39727   3.499   1.735   6.626 -0.0028  0.0775 -0.7187
 9422SOL    HW139728   3.466   1.675   6.559  1.9784 -0.8292 -0.8923
 9422SOL    HW239729   3.414   1.776   6.643  0.5191  0.0010  2.1028
 9423SOL     OW39730   0.573   3.160  10.010 -0.3666 -0.5778  0.1467
 9423SOL    HW139731   0.622   3.128  10.085 -0.4181  1.5251  1.0958
 9423SOL    HW239732   0.627   3.228   9.968  0.7512 -1.3158  0.3884
 9424SOL     OW39733   3.617   0.040   5.062  0.0570 -0.6091  0.2634
 9424SOL    HW139734   3.576   4.716   5.137 -0.6057  1.6735  1.2802
 9424SOL    HW239735   3.582   0.128   5.079  3.6211  0.9607 -0.4870
 9425SOL     OW39736   0.604   1.204   6.578  0.1732 -0.8857 -0.5344
 9425SOL    HW139737   0.670   1.180   6.642  0.4392  0.3762 -0.3431
 9425SOL    HW239738   0.522   1.162   6.605 -0.2191  0.9665  1.1763
 9426SOL     OW39739   2.791   3.025   8.251  0.4016 -0.1825 -0.1171
 9426SOL    HW139740   2.746   3.096   8.298 -1.6697 -2.7384  1.7683
 9426SOL    HW239741   2.751   2.951   8.298  1.1331 -0.8068 -0.4824
 9427SOL     OW39742   0.604   1.406   3.629 -0.6117  0.3729  0.0400
 9427SOL    HW139743   0.525   1.460   3.633  0.0131  1.2887  0.1669
 9427SOL    HW239744   0.610   1.375   3.539  0.5129 -0.6970  0.4879
 9428SOL     OW39745   4.258   2.276   8.995 -0.2017 -1.0748  0.3265
 9428SOL    HW139746   4.196   2.232   9.052 -0.9217  1.6621  1.6193
 9428SOL    HW239747   4.272   2.356   9.044 -0.4032 -1.9891  1.8584
 9429SOL     OW39748   2.744   0.829   3.277 -0.3224 -0.0426 -0.1065
 9429SOL    HW139749   2.757   0.884   3.199 -0.3000 -0.7881 -0.6269
 9429SOL    HW239750   2.835   0.806   3.295  0.5350  3.2668 -0.1249
 9430SOL     OW39751   3.820   0.327   6.674  0.1556  0.5005  0.4376
 9430SOL    HW139752   3.827   0.423   6.680 -0.9042  0.5288  1.2467
 9430SOL    HW239753   3.914   0.318   6.655  0.5254  1.7270  1.6040
 9431SOL     OW39754   1.524   4.366  12.740  0.3876  0.4405  0.0032
 9431SOL    HW139755   1.533   4.280  12.699 -0.4173  1.5499 -2.5621
 9431SOL    HW239756   1.518   4.424  12.664  0.1653  0.9388  0.4042
 9432SOL     OW39757   1.592   1.105  14.492 -0.5783  0.2581  0.6217
 9432SOL    HW139758   1.617   1.101  14.584  0.8989  1.9890  0.2869
 9432SOL    HW239759   1.593   1.200  14.480 -0.9354  0.2273  0.3503
 9433SOL     OW39760   4.254   1.591  12.562  0.4217  0.3422 -0.1864
 9433SOL    HW139761   4.237   1.524  12.628  2.5639 -0.9292 -0.9544
 9433SOL    HW239762   4.255   1.667  12.621  0.8715  1.0277 -1.0849
 9434SOL     OW39763   1.352   4.629   3.641  0.1753 -0.0154 -0.0672
 9434SOL    HW139764   1.421   4.643   3.706  1.2129  0.6063 -1.2984
 9434SOL    HW239765   1.316   4.717   3.630  0.0504 -0.0877 -0.2269
 9435SOL     OW39766   4.100   2.409   7.780  0.2386  0.5407 -0.1191
 9435SOL    HW139767   4.137   2.408   7.868 -1.1715 -0.1495  0.4685
 9435SOL    HW239768   4.125   2.493   7.740 -0.4211 -0.1497 -1.9758
 9436SOL     OW39769   3.167   3.237   2.899  0.4233  0.3877  0.7906
 9436SOL    HW139770   3.197   3.182   2.972  0.3840 -1.8844 -0.9086
 9436SOL    HW239771   3.095   3.178   2.878  0.2360  0.1357  2.1115
 9437SOL     OW39772   1.193   2.577   0.002  0.0154 -0.0822 -0.5256
 9437SOL    HW139773   1.233   2.546   0.083  1.1400  1.1909 -0.5885
 9437SOL    HW239774   1.244   2.520  17.632 -0.5170 -0.9450 -0.1274
 9438SOL     OW39775   4.547   3.906   7.145 -0.1650 -0.0602 -0.7632
 9438SOL    HW139776   4.642   3.913   7.141 -0.2530  1.4971 -0.1044
 9438SOL    HW239777   4.515   3.950   7.224  2.3237 -1.0105  0.7656
 9439SOL     OW39778   1.829   2.320   4.142  0.3664 -0.0495 -0.7195
 9439SOL    HW139779   1.762   2.386   4.158  0.6448  0.2541 -0.8175
 9439SOL    HW239780   1.851   2.347   4.053  1.6956 -0.9334 -0.6651
 9440SOL     OW39781   1.975   0.800   4.641 -0.6715  0.1433  0.4214
 9440SOL    HW139782   1.881   0.794   4.625 -0.2598 -1.3609 -1.3378
 9440SOL    HW239783   1.985   0.867   4.709  0.1070  0.5662 -0.1198
 9441SOL     OW39784   3.742   3.452   9.071 -0.4715  0.1555 -0.4740
 9441SOL    HW139785   3.789   3.445   9.154 -1.7528 -1.2963  0.1274
 9441SOL    HW239786   3.771   3.372   9.027  2.2868 -0.0130  1.6159
 9442SOL     OW39787   1.057   3.309  13.053  0.6687  0.8293 -0.2869
 9442SOL    HW139788   1.094   3.299  12.965  0.2517  0.3023 -0.4082
 9442SOL    HW239789   0.999   3.232  13.051  0.9057  0.5852  1.7424
 9443SOL     OW39790   3.208   3.892   7.771  0.3195  0.2427 -0.5732
 9443SOL    HW139791   3.237   3.805   7.742  1.3535  0.9119 -1.5254
 9443SOL    HW239792   3.262   3.933   7.703 -0.4892 -2.2487 -2.7240
 9444SOL     OW39793   2.672   1.960   4.742  0.1255  0.0722 -0.6858
 9444SOL    HW139794   2.740   2.023   4.765 -0.1103 -0.0034  0.2321
 9444SOL    HW239795   2.713   1.918   4.666 -1.3290  0.0587 -1.4618
 9445SOL     OW39796   1.385   2.246   8.173 -0.1791  0.5005 -0.3940
 9445SOL    HW139797   1.374   2.210   8.085 -1.8865 -0.6519  0.2936
 9445SOL    HW239798   1.479   2.263   8.169 -0.5678  2.7328  0.2884
 9446SOL     OW39799   0.593   1.987   5.547  0.4445 -0.1517 -0.1487
 9446SOL    HW139800   0.687   2.003   5.553  0.4742  0.3232 -1.9070
 9446SOL    HW239801   0.586   1.892   5.555  0.8637 -0.0662  1.2068
 9447SOL     OW39802   3.655   2.018  11.229  0.4601  0.3293 -0.0674
 9447SOL    HW139803   3.715   1.949  11.200 -0.3541 -0.4434  0.0980
 9447SOL    HW239804   3.717   2.089  11.215  0.1635  0.2532 -1.8220
 9448SOL     OW39805   0.362   2.048   4.136  0.0727  0.4369 -0.4802
 9448SOL    HW139806   0.282   2.086   4.100 -1.0392 -0.1642  1.3722
 9448SOL    HW239807   0.324   1.974   4.184  0.3735  0.9827  0.5823
 9449SOL     OW39808   3.678   2.476  15.284 -0.3319  0.8209 -0.5624
 9449SOL    HW139809   3.758   2.510  15.324  0.1964 -3.3181  2.0189
 9449SOL    HW239810   3.611   2.539  15.307  0.4844  0.7886  1.9477
 9450SOL     OW39811   1.490   1.902   4.743 -0.2724 -0.1968  0.1629
 9450SOL    HW139812   1.484   1.867   4.654 -1.1090 -0.4318  0.3194
 9450SOL    HW239813   1.416   1.962   4.749 -1.2990 -1.5542  0.9317
 9451SOL     OW39814   2.025   1.248   2.160 -0.2321 -0.7743  1.2420
 9451SOL    HW139815   1.945   1.195   2.166 -0.3174 -0.9990 -1.5134
 9451SOL    HW239816   2.016   1.304   2.236  2.1264 -0.6175  1.3828
 9452SOL     OW39817   1.439   2.657   9.362  0.4135 -0.9332 -0.0940
 9452SOL    HW139818   1.435   2.742   9.317  1.4475 -1.5210 -1.3148
 9452SOL    HW239819   1.500   2.623   9.296  0.9186  2.4473 -1.3722
 9453SOL     OW39820   3.634   1.371   3.426 -0.4028 -0.1800 -0.0657
 9453SOL    HW139821   3.678   1.350   3.344  0.8266 -1.1567  0.8569
 9453SOL    HW239822   3.586   1.289   3.441  0.5516 -0.4322  1.5460
 9454SOL     OW39823   0.467   3.440   3.170 -0.2420  0.3342 -0.0688
 9454SOL    HW139824   0.533   3.407   3.231 -1.6500 -1.1422  0.6324
 9454SOL    HW239825   0.399   3.466   3.231  0.0745  2.9673 -0.8168
 9455SOL     OW39826   2.097   3.708   8.480  0.3858 -0.0967 -0.0373
 9455SOL    HW139827   2.183   3.743   8.503 -1.5800  3.0793  2.4742
 9455SOL    HW239828   2.057   3.688   8.565 -1.0078 -1.8718 -1.0895
 9456SOL     OW39829   1.237   4.698   2.119  0.4651  0.6474  0.1539
 9456SOL    HW139830   1.231   4.624   2.180 -0.0669  0.1546 -0.5066
 9456SOL    HW239831   1.145   4.719   2.107  0.4137 -0.2019 -0.9822
 9457SOL     OW39832   1.615   0.397   3.352 -0.4616 -0.8827  0.0200
 9457SOL    HW139833   1.686   0.443   3.307 -1.6712  0.5532 -0.4042
 9457SOL    HW239834   1.538   0.445   3.321 -0.9658 -0.1791  2.3802
 9458SOL     OW39835   0.349   1.291   4.545 -0.5687  0.2127  0.0826
 9458SOL    HW139836   0.337   1.240   4.465  1.2748  0.1071 -0.1378
 9458SOL    HW239837   0.379   1.377   4.516  1.5733 -0.3649  0.5912
 9459SOL     OW39838   3.798   1.602   3.870 -0.4099  0.0814  0.2010
 9459SOL    HW139839   3.836   1.673   3.819 -1.4742  0.8420  0.4770
 9459SOL    HW239840   3.706   1.627   3.865 -0.0980  1.1810  0.0328
 9460SOL     OW39841   3.518   0.391   5.762  0.3375 -0.1043  0.7114
 9460SOL    HW139842   3.528   0.379   5.668  2.1293 -0.3739  0.9402
 9460SOL    HW239843   3.568   0.472   5.772 -0.3387  0.0088  3.2452
 9461SOL     OW39844   1.468   2.383   0.488  0.7574 -0.0052  0.2929
 9461SOL    HW139845   1.504   2.329   0.418  1.9075 -1.2418  1.8346
 9461SOL    HW239846   1.395   2.428   0.445  0.5470 -1.5442 -1.0009
 9462SOL     OW39847   3.687   2.698   1.840  0.3465 -0.1857  0.0955
 9462SOL    HW139848   3.778   2.669   1.837  1.2676  2.9297 -1.7489
 9462SOL    HW239849   3.689   2.742   1.925  1.0304  1.3289 -0.7196
 9463SOL     OW39850   3.160   3.038   8.503 -0.2112 -0.5244  0.2244
 9463SOL    HW139851   3.195   2.950   8.489 -0.0399 -0.2303 -1.2550
 9463SOL    HW239852   3.172   3.078   8.417  0.8972  0.9847  1.0704
 9464SOL     OW39853   1.906   4.623   5.354 -0.7386 -0.2952 -0.2886
 9464SOL    HW139854   1.941   4.634   5.266  2.0370  2.5093  1.1734
 9464SOL    HW239855   1.905   4.713   5.388 -0.7861  0.3561 -2.0014
 9465SOL     OW39856   3.762   4.259   3.020 -0.5780  0.0167  0.3797
 9465SOL    HW139857   3.706   4.326   2.981  1.4625  0.4383 -1.7779
 9465SOL    HW239858   3.702   4.210   3.076  0.5537 -0.7948  0.8785
 9466SOL     OW39859   2.137   2.459   8.671 -0.0666 -0.3319 -0.2497
 9466SOL    HW139860   2.212   2.517   8.686 -1.2435  0.4222  2.8393
 9466SOL    HW239861   2.113   2.477   8.580 -1.4485  1.1960  0.4081
 9467SOL     OW39862   2.896   2.677   2.725 -0.1209  0.0141  0.5753
 9467SOL    HW139863   2.917   2.585   2.744  1.1002  0.1755 -0.0350
 9467SOL    HW239864   2.954   2.719   2.788 -0.1667 -0.4870  0.9556
 9468SOL     OW39865   3.622   0.710   8.840 -0.1625  0.0579  0.3232
 9468SOL    HW139866   3.559   0.705   8.768  0.9732  0.2617 -0.6820
 9468SOL    HW239867   3.583   0.663   8.914  0.6717 -0.8723  0.1770
 9469SOL     OW39868   0.313   0.818  11.698  0.3780  0.0122  0.1862
 9469SOL    HW139869   0.279   0.906  11.683 -2.4300 -0.9351  0.9230
 9469SOL    HW239870   0.244   0.757  11.674  0.4645  0.1503 -0.4155
 9470SOL     OW39871   3.257   4.541   3.006  0.4392 -0.3133 -0.0495
 9470SOL    HW139872   3.193   4.605   3.036  0.4966 -0.4902  0.4467
 9470SOL    HW239873   3.194   4.470   2.994 -1.5883  1.3529  0.8050
 9471SOL     OW39874   0.069   2.290  17.604 -0.1283 -0.1582  0.0665
 9471SOL    HW139875   0.067   2.296  17.509  0.0460  1.3966  0.1530
 9471SOL    HW239876   0.116   2.371  17.623  0.6058 -0.2107 -1.5683
 9472SOL     OW39877   2.305   3.178   5.168  0.1260 -0.3574  0.9298
 9472SOL    HW139878   2.242   3.199   5.237 -0.3882 -1.0555  0.6754
 9472SOL    HW239879   2.246   3.143   5.102  1.2175  2.4469 -1.5047
 9473SOL     OW39880   4.405   4.188   4.489 -0.8396 -0.4932 -0.3022
 9473SOL    HW139881   4.499   4.177   4.500 -0.6347  0.0535 -1.4801
 9473SOL    HW239882   4.403   4.224   4.400  1.9421 -0.1085 -0.2077
 9474SOL     OW39883   4.557   3.740   5.433 -0.7681  0.8367 -0.1769
 9474SOL    HW139884   4.556   3.829   5.470  1.9466  0.4007  0.9316
 9474SOL    HW239885   4.650   3.726   5.418 -0.8385 -0.6848  0.8414
 9475SOL     OW39886   0.095   1.406   6.577 -0.3556 -0.4700 -0.1225
 9475SOL    HW139887   0.166   1.356   6.537 -2.1506 -1.4172 -2.0966
 9475SOL    HW239888   0.068   1.464   6.506 -0.6321  0.3637  0.6493
 9476SOL     OW39889   3.344   1.364  17.087  0.0595  0.1010  0.2572
 9476SOL    HW139890   3.435   1.352  17.115 -0.2955  0.5249  1.5806
 9476SOL    HW239891   3.338   1.457  17.107  0.3685  0.4895 -1.4928
 9477SOL     OW39892   2.511   1.269   1.832 -0.2632  0.0199  0.5851
 9477SOL    HW139893   2.555   1.201   1.884  1.2121  0.5123 -0.0190
 9477SOL    HW239894   2.421   1.237   1.836  0.0605 -1.0386 -0.2846
 9478SOL     OW39895   3.455   3.728   7.893  0.1560  0.5563 -0.0168
 9478SOL    HW139896   3.492   3.801   7.844  0.6861 -0.6691 -1.4182
 9478SOL    HW239897   3.528   3.696   7.946 -0.9505  0.7170  1.6397
 9479SOL     OW39898   2.284   0.884   4.495 -0.8513 -0.1462 -0.4433
 9479SOL    HW139899   2.349   0.949   4.468 -1.6188  0.5591 -0.6011
 9479SOL    HW239900   2.259   0.849   4.409 -1.3745 -0.8353 -0.0089
 9480SOL     OW39901   1.402   2.832   4.026 -0.5757  0.0348 -0.1937
 9480SOL    HW139902   1.395   2.842   3.931  1.0709  1.7339 -0.1307
 9480SOL    HW239903   1.463   2.759   4.033  1.8893  1.7907 -3.3250
 9481SOL     OW39904   3.989   0.312   2.929  0.1756 -0.7866  0.3205
 9481SOL    HW139905   3.943   0.228   2.934  1.4316 -1.4496  0.7123
 9481SOL    HW239906   3.936   0.372   2.876  0.2278 -0.0039  1.1517
 9482SOL     OW39907   2.338   0.297  12.122 -0.2691  0.1875  0.0824
 9482SOL    HW139908   2.253   0.343  12.121 -1.0048 -1.2227 -1.5689
 9482SOL    HW239909   2.398   0.371  12.109 -1.4468  0.5090 -3.6927
 9483SOL     OW39910   1.473   0.612  10.914  0.0540 -0.4697 -0.5898
 9483SOL    HW139911   1.496   0.545  10.849  0.8659  0.4403 -1.2472
 9483SOL    HW239912   1.538   0.677  10.885  0.0950  0.1698  0.9675
 9484SOL     OW39913   0.263   3.189   3.274  0.1340 -0.9444 -0.4098
 9484SOL    HW139914   0.345   3.238   3.273 -0.4488  0.0089 -2.2011
 9484SOL    HW239915   0.281   3.107   3.321  1.1975 -0.4737 -0.0078
 9485SOL     OW39916   2.210   0.259   7.994  0.4201 -0.2610 -0.1689
 9485SOL    HW139917   2.125   0.301   7.980  0.4911  0.1676  0.7162
 9485SOL    HW239918   2.210   0.255   8.090 -1.1924  1.3562 -0.0960
 9486SOL     OW39919   4.051   4.160   8.639 -0.0222  0.5737 -0.0758
 9486SOL    HW139920   4.036   4.110   8.558 -1.1516 -0.0391  0.5036
 9486SOL    HW239921   4.105   4.091   8.677 -1.7337 -1.3288 -1.0891
 9487SOL     OW39922   3.036   1.770  11.185 -0.5259 -0.3741 -0.4960
 9487SOL    HW139923   2.972   1.717  11.137 -1.6264  1.4294 -1.0344
 9487SOL    HW239924   3.071   1.706  11.247  1.8959 -0.0277 -1.5032
 9488SOL     OW39925   2.330   1.420   0.363  0.1300 -0.0546  0.5928
 9488SOL    HW139926   2.408   1.467   0.335 -1.4009  1.6573 -0.8135
 9488SOL    HW239927   2.355   1.329   0.350 -0.4645  0.0813 -1.4737
 9489SOL     OW39928   1.117   0.999   8.250  0.1217 -0.1197 -0.1575
 9489SOL    HW139929   1.079   0.952   8.325 -0.4407  2.0181  0.8770
 9489SOL    HW239930   1.042   1.026   8.197  1.8118  1.9021 -1.5086
 9490SOL     OW39931   3.862   4.364   8.302  0.2718 -0.0862 -0.0298
 9490SOL    HW139932   3.844   4.428   8.233  2.3919  0.8190  0.2697
 9490SOL    HW239933   3.775   4.355   8.341  1.3131  1.5146  2.6279
 9491SOL     OW39934   2.665   2.150   3.191  0.3754 -0.0106  0.3611
 9491SOL    HW139935   2.615   2.199   3.126 -1.2198  0.3234  1.8300
 9491SOL    HW239936   2.750   2.145   3.149  1.0464 -0.4103  1.7690
 9492SOL     OW39937   2.274   2.483   9.773  0.0879  0.2524  0.1491
 9492SOL    HW139938   2.191   2.459   9.816  0.2576  0.4825  0.6122
 9492SOL    HW239939   2.309   2.531   9.848  2.4318  0.0474 -0.8237
 9493SOL     OW39940   3.127   1.649   1.485  0.0413 -0.0616 -0.1031
 9493SOL    HW139941   3.186   1.667   1.559 -0.6078 -0.3363  0.4841
 9493SOL    HW239942   3.134   1.554   1.487  0.7437 -0.0220 -0.8051
 9494SOL     OW39943   0.967   2.010   9.005  1.1450  0.6739 -0.0091
 9494SOL    HW139944   1.008   2.094   9.027  2.7675 -0.8934  2.9966
 9494SOL    HW239945   0.880   2.010   9.045  1.3500  1.9156  0.4363
 9495SOL     OW39946   1.200   4.272   3.033 -0.0518 -0.1905 -0.5317
 9495SOL    HW139947   1.281   4.303   2.992  0.7215  0.5149  1.5399
 9495SOL    HW239948   1.175   4.199   2.977 -0.5779 -0.8228  0.5417
 9496SOL     OW39949   3.402   0.525   9.895 -0.1023 -0.2874 -0.0429
 9496SOL    HW139950   3.327   0.467   9.883 -0.8029  0.5469  0.2656
 9496SOL    HW239951   3.458   0.474   9.953 -1.6724  0.2380  1.9661
 9497SOL     OW39952   4.662   1.961   7.809 -0.0651 -0.0334 -0.4560
 9497SOL    HW139953   4.576   1.998   7.831  1.3422  2.2984  1.1028
 9497SOL    HW239954   4.649   1.934   7.718  1.5474 -0.1298 -0.6557
 9498SOL     OW39955   1.641   0.399  15.113  0.3971  0.1290 -0.3460
 9498SOL    HW139956   1.583   0.334  15.152  0.1355 -0.2626 -1.4078
 9498SOL    HW239957   1.697   0.361  15.046 -0.6346  0.8667 -1.6190
 9499SOL     OW39958   2.449   0.082   4.386 -0.2079  0.5063  0.2900
 9499SOL    HW139959   2.459   0.128   4.470 -0.4881 -3.9535  2.8028
 9499SOL    HW239960   2.445   0.154   4.323  1.5149  0.8496  0.5704
 9500SOL     OW39961   2.890   4.404   5.013  0.2346  0.3067  0.4099
 9500SOL    HW139962   2.836   4.422   4.937 -0.4949  2.0382  1.3330
 9500SOL    HW239963   2.823   4.377   5.076 -1.0890  0.4959 -0.9508
 9501SOL     OW39964   0.231   3.464   9.450  0.1418 -0.4864  0.3218
 9501SOL    HW139965   0.147   3.435   9.416  0.7340  0.7027 -2.1469
 9501SOL    HW239966   0.202   3.508   9.530 -1.1171 -1.2806  0.3011
 9502SOL     OW39967   3.222   1.001  13.169  0.2995 -0.6679  0.0183
 9502SOL    HW139968   3.197   0.909  13.179 -1.0954 -0.1728  1.0003
 9502SOL    HW239969   3.146   1.049  13.137 -0.1411 -0.9608  0.6332
 9503SOL     OW39970   3.708   1.349   8.500  0.4540  0.3403 -0.1851
 9503SOL    HW139971   3.724   1.437   8.465  2.8235  0.7724  1.9595
 9503SOL    HW239972   3.613   1.342   8.489  0.2781  0.5680  1.0988
 9504SOL     OW39973   2.907   0.038   7.829 -0.2119  0.0031 -0.6540
 9504SOL    HW139974   2.950   0.119   7.855  0.6911 -1.6107  2.7516
 9504SOL    HW239975   2.927   0.040   7.735  3.2204 -3.0077  0.0160
 9505SOL     OW39976   4.291   4.536   8.025 -0.2193  0.4943  0.6251
 9505SOL    HW139977   4.379   4.567   8.004  0.2768 -2.4359 -1.5190
 9505SOL    HW239978   4.288   4.519   8.119 -0.4807  3.5188  1.1756
 9506SOL     OW39979   4.536   2.059   3.062  0.4400  0.1937 -0.3508
 9506SOL    HW139980   4.543   2.154   3.052  2.4689  0.0925  0.2447
 9506SOL    HW239981   4.623   2.036   3.093 -0.5287 -1.9950  0.7058
 9507SOL     OW39982   0.110   3.055   0.843 -0.4359 -0.1160 -0.2521
 9507SOL    HW139983   0.086   3.032   0.933  2.5902 -0.4463  0.4527
 9507SOL    HW239984   0.075   2.979   0.798  1.5920 -1.9525  1.3050
 9508SOL     OW39985   4.127   4.117  10.241  0.0395  0.2180  0.2727
 9508SOL    HW139986   4.124   4.033  10.288 -0.1189 -0.9176 -1.7984
 9508SOL    HW239987   4.037   4.146  10.228 -0.0546 -0.1939  0.0153
 9509SOL     OW39988   3.322   2.370   5.524 -0.0973  0.2174 -0.0674
 9509SOL    HW139989   3.343   2.334   5.438 -0.8944  2.1465 -1.0775
 9509SOL    HW239990   3.230   2.390   5.509 -0.3698  0.2300  1.5815
 9510SOL     OW39991   1.563   3.869   0.912 -0.6781 -0.4583 -0.1348
 9510SOL    HW139992   1.523   3.951   0.943 -0.5081 -1.1141  1.8324
 9510SOL    HW239993   1.581   3.823   0.994 -0.2763 -1.4404 -0.7745
 9511SOL     OW39994   2.948   1.949   9.623  0.0205 -0.1020  0.0672
 9511SOL    HW139995   2.934   2.018   9.687  3.6316 -1.2848  2.1059
 9511SOL    HW239996   3.002   1.885   9.670  2.9172  1.7183 -0.7739
 9512SOL     OW39997   4.145   1.384  11.420  0.8737 -0.2585  0.5067
 9512SOL    HW139998   4.139   1.289  11.424  0.8040 -0.2415  0.8160
 9512SOL    HW239999   4.107   1.410  11.504  2.1135 -1.2340  1.3543
 9513SOL     OW40000   1.493   3.407   4.024 -0.4268 -0.1673  0.1611
 9513SOL    HW140001   1.493   3.312   4.023  0.7668 -0.1384 -4.9627
 9513SOL    HW240002   1.425   3.422   3.957 -0.7384 -1.0199  0.2906
 9514SOL     OW40003   2.968   4.671   8.886 -0.1825  0.0096  0.0821
 9514SOL    HW140004   2.909   4.602   8.917  0.0564  1.1124  3.0609
 9514SOL    HW240005   3.022   4.623   8.824 -1.6452  0.4207 -1.4941
 9515SOL     OW40006   1.395   2.868   8.743  0.1377 -0.1673  0.1361
 9515SOL    HW140007   1.454   2.802   8.708 -1.1006 -1.2566  0.1075
 9515SOL    HW240008   1.325   2.816   8.783  0.4193 -0.2008  0.5889
 9516SOL     OW40009   3.273   0.644  14.091 -0.0093 -0.2459 -0.1269
 9516SOL    HW140010   3.243   0.699  14.019 -2.6579 -0.4776  0.7780
 9516SOL    HW240011   3.350   0.694  14.116  1.2481 -0.9969 -2.4840
 9517SOL     OW40012   4.460   3.654   4.907  0.6387  0.5286 -0.1449
 9517SOL    HW140013   4.487   3.710   4.834  0.4476 -0.2858 -0.8436
 9517SOL    HW240014   4.489   3.567   4.879  1.8172  1.0678 -0.5864
 9518SOL     OW40015   0.208   4.229   1.284  0.4066 -0.1295  0.4142
 9518SOL    HW140016   0.179   4.290   1.352 -0.5792 -0.0522 -0.0872
 9518SOL    HW240017   0.243   4.157   1.337 -0.6784 -0.6018  0.4935
 9519SOL     OW40018   1.309   0.668  16.607  0.0205  0.3030 -0.0131
 9519SOL    HW140019   1.244   0.733  16.631 -0.9748 -1.1554  1.2223
 9519SOL    HW240020   1.375   0.729  16.573  1.1276  0.0031  1.6164
 9520SOL     OW40021   3.794   1.935   3.027 -0.1296 -0.0712 -0.0849
 9520SOL    HW140022   3.746   1.860   2.992 -0.1924 -1.4772  3.0289
 9520SOL    HW240023   3.865   1.962   2.968  0.1619 -0.1894  0.2103
 9521SOL     OW40024   3.426   0.125   6.131 -0.3575 -0.2784  0.1058
 9521SOL    HW140025   3.380   0.107   6.049 -1.6460  0.5327  0.6661
 9521SOL    HW240026   3.498   0.173   6.091 -0.9134  0.0036 -0.5499
 9522SOL     OW40027   3.730   0.754  17.633 -0.0107  0.3112  0.1233
 9522SOL    HW140028   3.689   0.681  17.680 -0.6047 -0.2967 -1.3504
 9522SOL    HW240029   3.773   0.709  17.561 -0.3471  1.9664 -1.1068
 9523SOL     OW40030   2.144   2.206   4.152  0.4451  0.6929 -0.3866
 9523SOL    HW140031   2.123   2.261   4.077 -0.8372 -0.1045 -0.6052
 9523SOL    HW240032   2.097   2.248   4.224  0.9474  0.6933 -0.0591
 9524SOL     OW40033   3.383   1.273  12.457 -0.1732  0.2555  0.7986
 9524SOL    HW140034   3.289   1.272  12.439 -0.1623 -1.8763  0.8952
 9524SOL    HW240035   3.399   1.183  12.430  1.2898  0.2781  1.5726
 9525SOL     OW40036   4.355   2.050   6.328 -0.2210 -0.1107  0.3938
 9525SOL    HW140037   4.378   2.018   6.414 -0.2649  2.4275  1.3564
 9525SOL    HW240038   4.409   2.128   6.317  2.3331 -1.9578 -0.0049
 9526SOL     OW40039   0.467   0.864   7.452 -0.3250  0.0272 -0.6994
 9526SOL    HW140040   0.496   0.774   7.444  0.2719 -0.1082  2.9764
 9526SOL    HW240041   0.407   0.870   7.378  0.3217 -1.3185 -1.3301
 9527SOL     OW40042   1.600   0.116   6.913  0.2251  0.0367  0.0656
 9527SOL    HW140043   1.549   0.110   6.833  1.1206 -1.3472 -0.3973
 9527SOL    HW240044   1.649   0.198   6.905 -1.1901  0.7197 -1.4098
 9528SOL     OW40045   0.924   1.821  17.604 -0.1056  0.2503  0.0766
 9528SOL    HW140046   0.946   1.774  17.685  0.0080  1.2288  0.6231
 9528SOL    HW240047   1.000   1.793  17.553 -0.1183 -0.0228  0.2085
 9529SOL     OW40048   4.158   1.129   7.993  0.7159 -0.1115 -0.0485
 9529SOL    HW140049   4.240   1.081   8.004  0.7028 -0.5727 -1.9584
 9529SOL    HW240050   4.140   1.162   8.081 -3.7242 -0.5326 -0.7807
 9530SOL     OW40051   3.446   4.227   7.472 -0.4129 -0.3402  0.0283
 9530SOL    HW140052   3.491   4.206   7.390  0.6300 -2.0421  1.0195
 9530SOL    HW240053   3.430   4.321   7.473 -0.6060 -0.3854  1.5903
 9531SOL     OW40054   2.834   0.827  17.444  0.2353 -0.2498  0.4788
 9531SOL    HW140055   2.903   0.766  17.470  1.8056  0.8976 -1.0031
 9531SOL    HW240056   2.890   0.886  17.393  1.5431 -1.0002  1.0315
 9532SOL     OW40057   4.666   1.828   3.746  0.0201  0.6178  0.4651
 9532SOL    HW140058   4.679   1.832   3.841  1.7921  2.1355  0.1771
 9532SOL    HW240059   4.578   1.864   3.738 -0.2329 -0.1261  0.0010
 9533SOL     OW40060   0.317   4.061   2.800  0.4312  0.4686 -0.0919
 9533SOL    HW140061   0.321   4.124   2.873 -1.2001  0.8165 -0.3037
 9533SOL    HW240062   0.330   3.976   2.844  2.2627  0.1159 -1.2926
 9534SOL     OW40063   2.698   2.091   6.279  0.2741 -0.2672 -0.2561
 9534SOL    HW140064   2.784   2.092   6.321  0.4248 -0.4021 -0.5581
 9534SOL    HW240065   2.728   2.096   6.188 -0.8625  1.9584 -0.4917
 9535SOL     OW40066   1.424   3.089  13.072 -0.4638 -0.0066  0.0811
 9535SOL    HW140067   1.329   3.084  13.062 -0.6685  0.2741  1.8899
 9535SOL    HW240068   1.453   3.086  12.980 -0.3141 -3.2316  0.2425
 9536SOL     OW40069   1.839   1.913   2.326  0.1957  0.1028 -0.0906
 9536SOL    HW140070   1.876   1.869   2.250  1.6134 -1.3522  1.4601
 9536SOL    HW240071   1.746   1.900   2.304 -0.6372  1.2113  2.8184
 9537SOL     OW40072   3.851   2.904   2.545 -0.4515  0.3396  0.2485
 9537SOL    HW140073   3.907   2.944   2.478  0.9323 -1.2355  0.4528
 9537SOL    HW240074   3.915   2.915   2.615 -0.0668 -0.1368 -0.0269
 9538SOL     OW40075   3.066   0.358   1.353 -0.1712  0.2474  0.1701
 9538SOL    HW140076   3.093   0.422   1.287 -2.8958  0.7536 -0.4466
 9538SOL    HW240077   3.070   0.410   1.433  0.2292  1.4146 -0.6078
 9539SOL     OW40078   1.914   1.370   2.773 -0.9170  0.3604 -0.2044
 9539SOL    HW140079   1.966   1.441   2.735 -0.3661  0.3744  0.5762
 9539SOL    HW240080   1.924   1.305   2.704  1.0359 -0.7113  1.0858
 9540SOL     OW40081   0.915   0.248   8.756 -0.3691  0.1852  0.1430
 9540SOL    HW140082   0.932   0.184   8.826 -0.3465 -0.4880 -0.4737
 9540SOL    HW240083   0.850   0.313   8.782 -0.9251 -0.1844 -0.3326
 9541SOL     OW40084   3.599   2.540   3.381  0.2036  0.4575  0.1402
 9541SOL    HW140085   3.586   2.447   3.361  3.5107 -0.4043  2.0522
 9541SOL    HW240086   3.606   2.571   3.290 -1.5013  2.6666  0.7735
 9542SOL     OW40087   3.540   0.357   3.540  0.6322 -0.3966 -0.5094
 9542SOL    HW140088   3.602   0.298   3.496  0.2704 -1.9860  1.1281
 9542SOL    HW240089   3.488   0.285   3.574 -0.7474  1.0298  0.3905
 9543SOL     OW40090   3.572   1.317  15.769  0.1670  0.2409 -0.3100
 9543SOL    HW140091   3.534   1.323  15.682  1.7552  1.2357 -0.9412
 9543SOL    HW240092   3.559   1.224  15.787  0.0191  0.1041 -1.1404
 9544SOL     OW40093   2.300   2.030   7.449 -0.1203 -0.0963  0.1660
 9544SOL    HW140094   2.300   2.126   7.446  0.6146 -0.1540 -1.1483
 9544SOL    HW240095   2.378   2.001   7.403 -0.8420  1.7765 -2.2064
 9545SOL     OW40096   2.547   1.455  15.219  0.7143 -0.3071  0.5507
 9545SOL    HW140097   2.507   1.388  15.163 -0.4088  0.4173  0.4948
 9545SOL    HW240098   2.482   1.467  15.287  1.4616 -1.6299  1.4934
 9546SOL     OW40099   3.026   4.404   8.409 -0.1516 -0.4651  0.5479
 9546SOL    HW140100   3.017   4.498   8.426 -1.2283 -0.1524 -1.7704
 9546SOL    HW240101   3.014   4.395   8.315 -0.7474  0.5851  0.5237
 9547SOL     OW40102   2.970   4.036   7.755  0.0826  0.4679  0.6881
 9547SOL    HW140103   2.947   3.988   7.675  3.2396  1.1294 -0.6288
 9547SOL    HW240104   3.048   3.983   7.776 -0.7627 -1.0494  0.0365
 9548SOL     OW40105   4.256   1.088  15.270 -0.1611  0.2517  0.2476
 9548SOL    HW140106   4.193   1.099  15.342 -1.3609  4.4841 -1.4337
 9548SOL    HW240107   4.229   1.163  15.218 -0.8273 -0.2378 -0.1258
 9549SOL     OW40108   2.901   2.098   9.848 -0.1913  0.7116  0.1459
 9549SOL    HW140109   2.930   2.170   9.792 -0.6325  0.4007 -0.4898
 9549SOL    HW240110   2.943   2.118   9.932 -1.1241 -0.7621  0.9696
 9550SOL     OW40111   1.375   0.445   7.018  0.3797 -0.9168 -0.2277
 9550SOL    HW140112   1.293   0.417   7.056  0.6663 -1.0639  0.2811
 9550SOL    HW240113   1.429   0.452   7.097  0.1683 -0.2914 -0.1413
 9551SOL     OW40114   1.954   0.798   5.594 -0.1559  0.1566  0.3237
 9551SOL    HW140115   1.870   0.776   5.635 -0.9212 -0.9633 -1.8726
 9551SOL    HW240116   1.956   0.893   5.610  1.6373  0.2126 -0.2043
 9552SOL     OW40117   4.103   4.533   6.414 -0.4693 -0.0378  0.0083
 9552SOL    HW140118   4.088   4.538   6.320 -1.7053  0.3923  0.2318
 9552SOL    HW240119   4.027   4.483   6.444 -0.1413 -0.0700  0.7793
 9553SOL     OW40120   0.073   4.657  13.836 -0.0997  0.3690  0.0499
 9553SOL    HW140121   0.007   4.615  13.782 -1.3216  2.7092 -0.2576
 9553SOL    HW240122   0.145   4.663  13.773 -1.5436 -0.1641 -1.6168
 9554SOL     OW40123   1.168   0.538   9.862 -0.0014  0.3902  0.3424
 9554SOL    HW140124   1.175   0.624   9.821 -2.0508  1.3067  1.9283
 9554SOL    HW240125   1.228   0.547   9.936 -3.2999  4.6529  2.4803
 9555SOL     OW40126   2.517   2.606  11.852 -0.2436 -0.5810  0.0778
 9555SOL    HW140127   2.562   2.691  11.853  0.4867 -0.9649 -1.4674
 9555SOL    HW240128   2.540   2.580  11.942  2.5826 -1.2228 -0.8219
 9556SOL     OW40129   3.974   2.953   2.293  0.2033  0.0828 -0.1683
 9556SOL    HW140130   4.037   3.022   2.273 -1.7958  2.0293  0.2580
 9556SOL    HW240131   3.940   2.934   2.206 -0.9456 -0.4002  0.3775
 9557SOL     OW40132   2.518   3.125  12.484  0.3840  0.3489 -0.1827
 9557SOL    HW140133   2.467   3.114  12.404 -1.3463  0.1766  0.9455
 9557SOL    HW240134   2.448   3.129  12.549  0.2752 -0.9738 -0.2163
 9558SOL     OW40135   0.127   2.912  10.719  0.3578  0.0048 -0.3567
 9558SOL    HW140136   0.070   2.956  10.655 -0.8067 -1.4019 -0.2755
 9558SOL    HW240137   0.167   2.983  10.769  0.7762 -1.0511  0.8126
 9559SOL     OW40138   4.523   4.102  11.647 -0.5435  0.1473  0.0342
 9559SOL    HW140139   4.569   4.178  11.682 -0.7073  1.0387 -1.6483
 9559SOL    HW240140   4.552   4.094  11.556 -1.1812 -1.3872 -0.0299
 9560SOL     OW40141   0.160   4.265   4.967 -0.1221  0.7818  0.3234
 9560SOL    HW140142   0.134   4.264   4.875 -0.6623 -1.4758  0.5225
 9560SOL    HW240143   0.117   4.348   4.988 -0.8630  1.2522 -3.0100
 9561SOL     OW40144   3.708   3.562   7.267  0.2028  0.3068 -0.2868
 9561SOL    HW140145   3.621   3.530   7.292  0.4386  0.4385  0.6882
 9561SOL    HW240146   3.714   3.632   7.332 -0.2690 -0.0020  0.0855
 9562SOL     OW40147   3.651   1.606   9.874  0.4944  0.4406 -0.0450
 9562SOL    HW140148   3.602   1.681   9.907  2.7213  1.2499  1.3721
 9562SOL    HW240149   3.597   1.580   9.799  2.1897 -2.2495 -0.3321
 9563SOL     OW40150   3.364   1.882   5.644 -0.3637  0.1653  0.7706
 9563SOL    HW140151   3.359   1.874   5.549 -0.7968  2.0404  0.6255
 9563SOL    HW240152   3.379   1.977   5.654  1.7832  0.2592 -3.1953
 9564SOL     OW40153   0.359   1.128   5.645 -0.1999  0.2542 -0.1483
 9564SOL    HW140154   0.384   1.220   5.657  3.1569 -0.8272  1.0577
 9564SOL    HW240155   0.408   1.096   5.720  0.9739  0.2848 -0.8924
 9565SOL     OW40156   0.823   2.091  13.917 -0.1377  0.1744 -0.2254
 9565SOL    HW140157   0.776   2.032  13.976  0.9847 -1.0323 -0.5354
 9565SOL    HW240158   0.773   2.080  13.837 -0.1509 -0.2106 -0.1627
 9566SOL     OW40159   1.812   1.813   8.282 -0.4355  0.3636  0.3992
 9566SOL    HW140160   1.860   1.764   8.215 -2.4838 -0.9665 -0.0992
 9566SOL    HW240161   1.721   1.826   8.253 -1.0681  0.7738  2.5663
 9567SOL     OW40162   1.829   1.428   7.338  0.5134  0.1666 -0.6231
 9567SOL    HW140163   1.848   1.417   7.245 -2.8255 -1.2989 -1.1059
 9567SOL    HW240164   1.887   1.362   7.376  1.7549  1.4497 -0.2840
 9568SOL     OW40165   2.233   3.344   6.921 -0.1142 -0.4714  0.5700
 9568SOL    HW140166   2.212   3.299   7.003  0.5181 -0.9949  0.4382
 9568SOL    HW240167   2.235   3.276   6.854  1.6057 -0.7941  0.9475
   4.72084   4.72084  17.68583
