Membrane in water
40167
    1TCq1    O1    1   2.589   2.379  11.062 -0.6244  0.1330 -0.1420
    1TCq1    C1    2   2.639   2.272  11.135 -0.3282 -0.0809  0.1641
    1TCq1    O2    3   2.728   2.196  11.107  0.3763  0.4285 -0.0734
    1TCq1    C2    4   2.589   2.298  11.274  0.0766 -0.4861 -0.0767
    1TCq1    C3    5   2.549   2.424  11.315  0.4504 -0.0748 -0.3438
    1TCq1    C4    6   2.472   2.433  11.428  0.2924 -0.0597 -0.2399
    1TCq1    C5    7   2.434   2.320  11.494  0.2447  0.3720 -0.2155
    1TCq1    C6    8   2.481   2.194  11.457 -0.2697  0.1355  0.6614
    1TCq1    C7    9   2.556   2.183  11.343  0.3430 -0.4426 -1.3364
    1TCq1    C8   10   2.394   2.085  11.493  0.1080 -0.0681 -0.8564
    1TCq1    O4   11   2.274   2.113  11.501 -0.0107  0.1006  0.2334
    1TCq1    C9   12   2.458   2.565  11.491  0.1394  0.0897 -0.9647
    1TCq1    O5   13   2.423   2.567  11.614 -0.3450  0.1703  0.7880
    1TCq1    O6   14   2.485   2.663  11.416 -0.2012  0.0754  0.4103
    1TCq1    H1   15   2.509   2.422  11.101  0.7203  2.1739  0.3785
    1TCq1    H2   16   2.568   2.518  11.263  2.2305 -1.6296 -2.5084
    1TCq1    H3   17   2.369   2.333  11.580  1.6573 -0.7721  1.0398
    1TCq1    H4   18   2.601   2.091  11.308 -0.8848 -1.4406 -0.2723
    2MPD2     C   19   2.337   1.559  11.468 -0.1395 -0.0993  0.3414
    2MPD2    C1   20   2.238   1.664  11.464 -0.1818 -0.0065 -0.5663
    2MPD2    C2   21   2.283   1.797  11.464  0.8109  0.2624  0.1311
    2MPD2    C3   22   2.417   1.831  11.475 -0.9611 -0.2219  0.1519
    2MPD2    C4   23   2.509   1.732  11.477 -0.8520 -0.4483 -0.0335
    2MPD2    C5   24   2.471   1.599  11.472  0.2856 -0.1521 -0.5895
    2MPD2     H   25   2.212   1.878  11.451 -1.8904 -2.1221 -0.0098
    2MPD2    H1   26   2.614   1.755  11.486 -0.9253 -0.7146  1.4576
    2MPD2    H2   27   2.317   1.452  11.476  0.0622 -0.0425  1.6868
    2MPD2    H3   28   2.552   1.529  11.488  0.9587  0.8233  0.3236
    2MPD2     N   29   2.464   1.966  11.490  0.1867 -0.3634 -0.0701
    2MPD2    H5   30   2.564   1.968  11.472  0.5172  1.4247  1.9843
    2MPD2    N1   31   2.098   1.642  11.471  0.3000  0.0755 -0.7366
    2MPD2    H7   32   2.052   1.733  11.474 -0.4627 -0.2095 -3.6072
    3TCq1    O1   33   1.146   4.017  10.659 -0.5265 -0.0641  0.3648
    3TCq1    C1   34   1.177   3.911  10.589  0.2324  0.4251 -0.0041
    3TCq1    O2   35   1.186   3.913  10.462 -0.5349  0.0559 -0.4923
    3TCq1    C2   36   1.172   3.787  10.668  0.3572 -0.7134 -0.5723
    3TCq1    C3   37   1.112   3.791  10.790 -0.4584  0.6123 -0.2107
    3TCq1    C4   38   1.075   3.670  10.844  0.9505 -0.3084 -0.2915
    3TCq1    C5   39   1.099   3.549  10.781  0.9642 -0.5123 -0.1417
    3TCq1    C6   40   1.139   3.559  10.650 -0.0717 -0.2734 -0.7450
    3TCq1    C7   41   1.171   3.679  10.590  0.4395 -0.0935 -0.2584
    3TCq1    C8   42   1.104   3.449  10.559 -0.3410  0.4061 -0.2138
    3TCq1    O4   43   1.115   3.462  10.437  0.0516  0.7946  0.1725
    3TCq1    C9   44   1.020   3.667  10.976 -0.3623  0.4502 -0.4262
    3TCq1    O5   45   0.986   3.556  11.027  0.0987 -0.3581  0.8134
    3TCq1    O6   46   0.999   3.780  11.029  0.6503  0.6596  0.0645
    3TCq1    H1   47   1.155   4.008  10.756  4.4767  3.5055  0.2733
    3TCq1    H2   48   1.096   3.880  10.849  1.1070  0.2326  0.7964
    3TCq1    H3   49   1.078   3.461  10.840 -0.6506 -1.1361 -1.6831
    3TCq1    H4   50   1.225   3.670  10.497  0.9393 -1.4971  0.1811
    4MPD2     C   51   0.948   2.958  10.477 -0.8453  0.1292  0.2692
    4MPD2    C1   52   0.925   2.996  10.610  0.3134 -0.4649 -0.2723
    4MPD2    C2   53   0.962   3.120  10.647  0.2127 -0.6363  0.5546
    4MPD2    C3   54   1.017   3.214  10.561  0.0633 -0.3362 -1.1511
    4MPD2    C4   55   1.036   3.172  10.434 -0.3160  0.1017 -0.4905
    4MPD2    C5   56   1.000   3.045  10.391  0.4623 -0.0733 -0.7723
    4MPD2     H   57   0.946   3.158  10.747 -3.4137 -1.5587  0.3394
    4MPD2    H1   58   1.075   3.244  10.363 -0.8917 -1.3614 -2.2692
    4MPD2    H2   59   0.924   2.860  10.439 -0.1380  0.1431 -0.2287
    4MPD2    H3   60   1.012   3.009  10.289 -0.8146  0.5546 -1.1600
    4MPD2     N   61   1.046   3.338  10.617 -0.3066 -0.2879 -0.0740
    4MPD2    H5   62   1.031   3.343  10.717 -0.8608 -0.0360 -0.1698
    4MPD2    N1   63   0.876   2.907  10.705  0.0075  0.3672 -0.7063
    4MPD2    H7   64   0.865   2.933  10.803  1.5746 -1.9861  0.1035
    5TCq1    O1   65   1.415   4.408  12.365  0.2541  0.0741  0.6434
    5TCq1    C1   66   1.355   4.469  12.258 -0.6647 -0.1006  0.3931
    5TCq1    O2   67   1.240   4.456  12.215 -0.0652  1.0440  0.3376
    5TCq1    C2   68   1.457   4.505  12.166 -0.3130  0.3518 -0.0561
    5TCq1    C3   69   1.552   4.601  12.194  0.2451  0.0266 -0.5568
    5TCq1    C4   70   1.629   4.651  12.096  0.3530  0.0030  0.1574
    5TCq1    C5   71   1.623   4.602  11.965 -0.7470 -0.3572 -0.5498
    5TCq1    C6   72   1.531   4.504  11.939  0.2314  0.1722  0.0850
    5TCq1    C7   73   1.439   4.461  12.039 -0.3546 -0.3476 -0.1770
    5TCq1    C8   74   1.526   4.437  11.809  0.3268  0.8686  0.5665
    5TCq1    O4   75   1.617   4.464  11.730  0.2166  0.2464 -0.7213
    5TCq1    C9   76   1.736   0.026  12.123 -0.9477  0.1664 -0.4514
    5TCq1    O5   77   1.776   0.097  12.026 -0.1652  0.0784  0.0881
    5TCq1    O6   78   1.742   0.069  12.243  0.2604  0.4726  0.2109
    5TCq1    H1   79   1.513   4.416  12.371  0.2887  0.1754 -0.0055
    5TCq1    H2   80   1.559   4.645  12.293  1.0850 -0.2873 -0.4830
    5TCq1    H3   81   1.692   4.629  11.886 -0.7098 -0.1952 -0.4612
    5TCq1    H4   82   1.363   4.385  12.026 -0.9877  0.1689  0.5106
    6MPD2     C   83   1.237   4.286  11.652 -0.3442  0.1156  0.5555
    6MPD2    C1   84   1.369   4.304  11.675 -0.4508  0.5613 -0.5341
    6MPD2    C2   85   1.453   4.256  11.577 -0.5114  0.2909 -0.0136
    6MPD2    C3   86   1.409   4.181  11.471  0.6421  0.4279 -0.1678
    6MPD2    C4   87   1.274   4.154  11.455  0.8494 -0.2373  0.6046
    6MPD2    C5   88   1.188   4.211  11.549 -0.2519  0.1232 -0.2154
    6MPD2     H   89   1.558   4.285  11.577 -0.7743  1.2662  1.9429
    6MPD2    H1   90   1.233   4.081  11.387  3.3265  0.8734 -2.0740
    6MPD2    H2   91   1.165   4.321  11.725  0.3026  1.0724  0.7512
    6MPD2    H3   92   1.084   4.181  11.537  0.9133 -3.4738 -1.3106
    6MPD2     N   93   1.502   4.114  11.384 -0.2358  0.4925 -0.0998
    6MPD2    H5   94   1.600   4.132  11.402 -0.3966  0.3909  0.8555
    6MPD2    N1   95   1.401   4.383  11.788 -0.1141 -0.0402  0.5413
    6MPD2    H7   96   1.321   4.403  11.847 -0.2790  1.0215 -0.0441
    7TCq1    O1   97   3.421   4.290  13.202  0.1202 -0.1731  0.3389
    7TCq1    C1   98   3.424   4.267  13.073  0.2315  0.0933  0.5981
    7TCq1    O2   99   3.364   4.336  12.992  0.2062  0.3628 -0.6305
    7TCq1    C2  100   3.467   4.131  13.028 -0.2282  0.2874 -0.1584
    7TCq1    C3  101   3.403   4.078  12.921  0.1130  0.2798 -0.1260
    7TCq1    C4  102   3.437   3.950  12.884  0.4584  0.0606  0.3530
    7TCq1    C5  103   3.528   3.875  12.945  0.6358  0.1536  0.6239
    7TCq1    C6  104   3.589   3.936  13.054  0.4549 -1.1517  0.2545
    7TCq1    C7  105   3.565   4.063  13.093  0.8160  0.7391 -0.7971
    7TCq1    C8  106   3.690   3.845  13.113  0.3340  0.5027  0.2126
    7TCq1    O4  107   3.720   3.745  13.049  0.0321  0.8617 -0.2013
    7TCq1    C9  108   3.377   3.896  12.768  0.3894 -0.1243  0.0955
    7TCq1    O5  109   3.310   3.961  12.687  0.4105  0.2194 -0.0453
    7TCq1    O6  110   3.398   3.772  12.756 -0.4535 -0.2333  0.0911
    7TCq1    H1  111   3.431   4.216  13.266  1.9535  1.6036  2.0948
    7TCq1    H2  112   3.323   4.136  12.877  0.9645  2.2721  0.9357
    7TCq1    H3  113   3.550   3.774  12.914 -0.4608  0.2150 -0.3405
    7TCq1    H4  114   3.622   4.113  13.170 -1.1908 -0.8337  1.7032
    8MPD2     C  115   3.975   3.685  13.513 -0.1526  0.3162 -0.3620
    8MPD2    C1  116   3.910   3.619  13.412  0.2534  0.0284 -0.4377
    8MPD2    C2  117   3.831   3.679  13.317  0.6355 -0.3494 -0.0404
    8MPD2    C3  118   3.812   3.816  13.327 -0.7638  0.1122  0.2841
    8MPD2    C4  119   3.874   3.881  13.433  0.5166 -0.4288  0.4128
    8MPD2    C5  120   3.962   3.821  13.525 -0.0663 -0.2418  0.1527
    8MPD2     H  121   3.799   3.622  13.231 -3.3215  1.1687  0.4191
    8MPD2    H1  122   3.861   3.985  13.459 -3.0777 -0.5602 -0.8490
    8MPD2    H2  123   4.032   3.618  13.576 -0.5857  1.3301  1.1132
    8MPD2    H3  124   4.016   3.878  13.599 -0.2575  1.5504 -1.0697
    8MPD2     N  125   3.736   3.888  13.240  0.2522  0.5945 -0.1526
    8MPD2    H5  126   3.711   3.984  13.264  2.9200  0.9253  1.3201
    8MPD2    N1  127   3.921   3.480  13.417  0.3638  0.0386  0.4416
    8MPD2    H7  128   4.002   3.445  13.468  0.7597 -0.9063 -0.8229
    9TCq1    O1  129   1.514   2.460  10.732 -0.0210  0.2611 -0.3220
    9TCq1    C1  130   1.581   2.452  10.614 -0.9700  0.0743 -0.4647
    9TCq1    O2  131   1.546   2.400  10.507  0.3388 -0.6033 -0.1214
    9TCq1    C2  132   1.716   2.468  10.645 -0.2302  0.1049  0.7664
    9TCq1    C3  133   1.808   2.396  10.580  0.1252 -0.5985  0.0767
    9TCq1    C4  134   1.936   2.415  10.616  0.2873  0.3897 -0.1007
    9TCq1    C5  135   1.974   2.499  10.705 -0.1971  0.7984  0.3421
    9TCq1    C6  136   1.881   2.579  10.766  0.4021 -0.4225  1.5922
    9TCq1    C7  137   1.750   2.561  10.739 -0.1731  0.3314 -0.6096
    9TCq1    C8  138   1.926   2.666  10.878 -0.4108  0.1277 -0.2823
    9TCq1    O4  139   2.037   2.706  10.864  0.0346  0.1515 -0.3992
    9TCq1    C9  140   2.037   2.327  10.561  0.2010 -0.2846  0.3648
    9TCq1    O5  141   2.002   2.234  10.481 -0.1796 -0.7374  0.8310
    9TCq1    O6  142   2.153   2.341  10.598 -0.4219 -0.1223  0.1860
    9TCq1    H1  143   1.581   2.489  10.798 -1.6679 -0.1970  1.5358
    9TCq1    H2  144   1.789   2.323  10.502 -0.3418  0.3125 -0.6651
    9TCq1    H3  145   2.077   2.507  10.740  0.0490 -2.6165  0.3632
    9TCq1    H4  146   1.683   2.636  10.778  0.1849  0.8944 -1.0785
   10MPD2     C  147   1.970   2.834  11.114  0.2936 -0.3017  0.6096
   10MPD2    C1  148   1.860   2.755  11.100 -0.1632  0.3162 -0.4144
   10MPD2    C2  149   1.783   2.726  11.208 -0.0553  0.1269  0.2284
   10MPD2    C3  150   1.811   2.775  11.336  0.7424  0.2803  0.0147
   10MPD2    C4  151   1.925   2.843  11.346 -0.5784 -0.4897 -0.0575
   10MPD2    C5  152   2.000   2.886  11.241 -1.0300  0.2392 -0.1675
   10MPD2     H  153   1.693   2.666  11.197  1.7798 -2.2827 -1.5206
   10MPD2    H1  154   1.968   2.874  11.441 -0.0074  1.2820 -0.8900
   10MPD2    H2  155   2.035   2.863  11.033 -0.2484  1.0574  0.6511
   10MPD2    H3  156   2.073   2.965  11.258  0.4193 -0.2307 -4.3189
   10MPD2     N  157   1.749   2.733  11.454  0.1231  0.8233 -0.3524
   10MPD2    H5  158   1.788   2.762  11.544  1.5611  3.1321 -1.7067
   10MPD2    N1  159   1.832   2.687  10.977 -0.6861 -0.6711 -0.0363
   10MPD2    H7  160   1.745   2.636  10.974 -1.1062  0.1086 -1.0571
   11TCq1    O1  161   2.889   2.775  14.202  0.0220  0.1955 -0.1613
   11TCq1    C1  162   2.774   2.709  14.211 -0.2759 -0.5516  0.2805
   11TCq1    O2  163   2.714   2.675  14.110  0.6098 -0.0161  0.5951
   11TCq1    C2  164   2.764   2.628  14.333  0.3992  0.5991 -0.5246
   11TCq1    C3  165   2.852   2.627  14.437 -0.9088  0.6952 -0.8482
   11TCq1    C4  166   2.821   2.583  14.566 -0.0138  0.5307  0.2627
   11TCq1    C5  167   2.688   2.542  14.589  0.1745 -0.1019  0.0339
   11TCq1    C6  168   2.594   2.545  14.478 -0.2574 -0.4481  0.1033
   11TCq1    C7  169   2.628   2.589  14.353 -1.0530  0.3081  0.1065
   11TCq1    C8  170   2.461   2.486  14.498  0.3553  0.7882  0.6609
   11TCq1    O4  171   2.414   2.500  14.612 -0.3903  0.4009  0.0987
   11TCq1    C9  172   2.929   2.569  14.663  0.4006 -0.4535  0.1609
   11TCq1    O5  173   3.036   2.630  14.638  0.2483 -0.0441  0.2683
   11TCq1    O6  174   2.897   2.541  14.779  0.2403  0.2386 -0.6362
   11TCq1    H1  175   2.922   2.801  14.291  0.4778  3.3986 -1.2556
   11TCq1    H2  176   2.960   2.638  14.428 -0.9997 -0.3105 -3.0775
   11TCq1    H3  177   2.654   2.506  14.685  1.2983 -1.2112  0.0141
   11TCq1    H4  178   2.564   2.591  14.265 -0.4032  0.2763 -0.3690
   12MPD2     C  179   2.157   2.463  14.459  0.2841 -0.1350  0.3075
   12MPD2    C1  180   2.246   2.428  14.364 -0.7421 -0.4905 -0.0124
   12MPD2    C2  181   2.196   2.374  14.242 -0.2085  0.4519 -0.6200
   12MPD2    C3  182   2.061   2.347  14.223 -0.2133 -0.1997 -0.4015
   12MPD2    C4  183   1.974   2.388  14.319 -0.4270  0.0515  0.1304
   12MPD2    C5  184   2.021   2.447  14.436 -0.2643  0.1095  0.4742
   12MPD2     H  185   2.270   2.343  14.169  0.0843  0.2182 -0.2209
   12MPD2    H1  186   1.867   2.394  14.306 -0.6485 -0.9052  1.4431
   12MPD2    H2  187   2.187   2.503  14.555 -1.6124  1.5911  0.1926
   12MPD2    H3  188   1.955   2.480  14.515  1.9287 -1.1051  2.8089
   12MPD2     N  189   2.019   2.278  14.106  0.1151 -0.9483 -0.1687
   12MPD2    H5  190   2.089   2.263  14.034 -2.3029 -0.8414 -2.5437
   12MPD2    N1  191   2.395   2.439  14.381  0.3104  0.5139 -0.0314
   12MPD2    H7  192   2.462   2.424  14.306 -0.4997 -1.4618 -0.3670
   13TCq1    O1  193   1.995   2.456  11.548  0.5570 -0.2668 -0.1759
   13TCq1    C1  194   2.072   2.530  11.466  0.8869 -0.1044 -0.2508
   13TCq1    O2  195   2.116   2.637  11.505 -0.1677 -0.3987  0.2226
   13TCq1    C2  196   2.045   2.489  11.332 -0.0500 -0.3950 -0.3513
   13TCq1    C3  197   2.152   2.489  11.254  0.7727  0.4195  0.3006
   13TCq1    C4  198   2.145   2.430  11.130 -0.1315 -0.3198 -0.2807
   13TCq1    C5  199   2.027   2.372  11.085  0.2030  0.3401 -0.6500
   13TCq1    C6  200   1.913   2.382  11.163 -0.3230  0.4477 -0.4226
   13TCq1    C7  201   1.928   2.430  11.288  0.4736 -0.1167 -1.0146
   13TCq1    C8  202   1.788   2.335  11.122  0.4062 -0.0940 -0.3014
   13TCq1    O4  203   1.696   2.358  11.201 -0.4688  0.4574 -0.7750
   13TCq1    C9  204   2.269   2.434  11.052  0.1717  0.1658  0.5398
   13TCq1    O5  205   2.366   2.501  11.101  0.0298 -0.5827  0.3004
   13TCq1    O6  206   2.280   2.373  10.941 -0.3411 -0.0343  0.3967
   13TCq1    H1  207   1.982   2.371  11.501  0.1194 -0.1231 -0.3212
   13TCq1    H2  208   2.243   2.528  11.298 -0.2592  1.7169  1.2885
   13TCq1    H3  209   2.027   2.330  10.985  1.1671 -2.1053  0.3724
   13TCq1    H4  210   1.844   2.427  11.356  0.4652  0.3625 -1.0041
   14MPD2     C  211   1.692   2.159  10.819  0.3346  0.0982  0.0846
   14MPD2    C1  212   1.668   2.220  10.938 -0.0949  0.0112 -0.6650
   14MPD2    C2  213   1.539   2.241  10.980 -0.8483  0.8745 -0.5788
   14MPD2    C3  214   1.431   2.175  10.915  0.3278  0.2638 -0.4194
   14MPD2    C4  215   1.457   2.089  10.812  0.9473  0.8848 -0.2270
   14MPD2    C5  216   1.580   2.098  10.759  0.0682 -0.4664  0.4185
   14MPD2     H  217   1.506   2.288  11.072 -1.3867  2.2774 -1.4852
   14MPD2    H1  218   1.385   2.028  10.757 -0.0047  1.3073  0.5491
   14MPD2    H2  219   1.791   2.146  10.779  0.1577  3.9176 -1.6470
   14MPD2    H3  220   1.592   2.038  10.670 -1.0528  1.5870 -1.1153
   14MPD2     N  221   1.308   2.168  10.972  0.5686 -0.3004 -0.0038
   14MPD2    H5  222   1.289   2.242  11.039  0.8587 -0.2271  0.0001
   14MPD2    N1  223   1.786   2.264  11.005  0.0543  0.1272  0.0228
   14MPD2    H7  224   1.877   2.245  10.965 -0.2991  0.5036 -0.9522
   15TCq1    O1  225   2.629   1.528   1.496  0.4443  0.0348  0.5553
   15TCq1    C1  226   2.656   1.497   1.624 -0.0422  0.4210  0.0006
   15TCq1    O2  227   2.580   1.521   1.717 -0.8978  0.0307 -0.3838
   15TCq1    C2  228   2.795   1.461   1.649 -0.1928  0.2141  0.2692
   15TCq1    C3  229   2.861   1.509   1.761  0.5925  0.2066 -0.1427
   15TCq1    C4  230   2.983   1.457   1.787  0.2580 -0.3290 -0.0399
   15TCq1    C5  231   3.043   1.376   1.697 -0.3616 -0.1806  0.1764
   15TCq1    C6  232   2.969   1.333   1.592 -0.1175  0.2962 -0.3982
   15TCq1    C7  233   2.843   1.369   1.569 -0.4218  0.8145 -0.1629
   15TCq1    C8  234   3.034   1.231   1.503 -0.5190 -0.4489  0.1464
   15TCq1    O4  235   3.147   1.201   1.530  0.6740  0.3775  0.0432
   15TCq1    C9  236   3.053   1.499   1.903  0.5647 -0.0150  0.3968
   15TCq1    O5  237   3.004   1.591   1.974  0.3180 -0.2639  0.0357
   15TCq1    O6  238   3.178   1.475   1.902  0.5528  0.2530 -0.6278
   15TCq1    H1  239   2.701   1.508   1.432 -0.0596 -0.7757  0.2391
   15TCq1    H2  240   2.807   1.588   1.813 -1.1319 -1.1293  0.0973
   15TCq1    H3  241   3.143   1.338   1.715 -0.5576 -0.8725 -0.1950
   15TCq1    H4  242   2.781   1.321   1.493 -0.0826 -0.6076  0.4556
   16MPD2     C  243   2.890   1.047   1.224  0.1805  0.1552 -0.5021
   16MPD2    C1  244   2.989   1.073   1.314  0.2964 -0.1934 -0.0687
   16MPD2    C2  245   3.112   1.003   1.305 -0.1601 -0.6404 -0.0389
   16MPD2    C3  246   3.120   0.896   1.217  0.0489  0.1755  0.4134
   16MPD2    C4  247   3.024   0.879   1.123  0.2348  0.5309  1.1337
   16MPD2    C5  248   2.906   0.949   1.135 -0.1771  0.2390  0.0104
   16MPD2     H  249   3.186   1.023   1.382  0.7451  1.0339 -1.3635
   16MPD2    H1  250   3.033   0.796   1.054 -1.1676  0.5430  0.9441
   16MPD2    H2  251   2.794   1.099   1.224 -2.1424 -4.1408  0.2199
   16MPD2    H3  252   2.831   0.935   1.059 -1.4043  0.8401  1.1206
   16MPD2     N  253   3.244   0.819   1.222  0.8361 -0.2868  0.7902
   16MPD2    H5  254   3.297   0.832   1.308  0.3897 -2.5211  1.4020
   16MPD2    N1  255   2.956   1.178   1.402 -0.6879  0.0111  0.0983
   16MPD2    H7  256   2.858   1.202   1.394 -0.7147 -0.4124 -0.8637
   17TCq1    O1  257   1.437   2.209  11.403 -0.0728 -0.6705 -0.2997
   17TCq1    C1  258   1.369   2.133  11.322 -0.0625 -0.1453 -0.8863
   17TCq1    O2  259   1.256   2.156  11.280 -0.2394 -0.0202 -0.0708
   17TCq1    C2  260   1.459   2.034  11.268  0.0784  0.2861  1.1304
   17TCq1    C3  261   1.402   1.920  11.220  0.0742 -0.6901 -1.1085
   17TCq1    C4  262   1.476   1.819  11.159  1.1445  0.2572 -1.0596
   17TCq1    C5  263   1.609   1.849  11.139  0.2744 -0.1704 -0.9862
   17TCq1    C6  264   1.666   1.960  11.196  1.0899 -0.4962  0.0469
   17TCq1    C7  265   1.589   2.054  11.267  0.0476 -0.3227  0.2550
   17TCq1    C8  266   1.808   1.973  11.204  0.0860  0.0305 -1.0034
   17TCq1    O4  267   1.848   2.066  11.273 -0.6715  0.4637 -0.2065
   17TCq1    C9  268   1.411   1.713  11.081 -0.0184 -0.2904  0.9164
   17TCq1    O5  269   1.287   1.715  11.079  0.0113 -0.5909 -0.1188
   17TCq1    O6  270   1.485   1.652  11.002  0.0660 -0.3699  0.5066
   17TCq1    H1  271   1.528   2.174  11.419 -0.0976 -0.1482  1.0001
   17TCq1    H2  272   1.294   1.908  11.218  0.1148 -1.8611  2.6398
   17TCq1    H3  273   1.666   1.777  11.080 -0.8283 -2.0227  0.1922
   17TCq1    H4  274   1.635   2.145  11.303  1.7135 -1.3294  0.6701
   18MPD2     C  275   2.105   1.963  11.190  0.0771  0.3035 -0.0010
   18MPD2    C1  276   2.015   1.880  11.115  0.3312  0.6164  0.3836
   18MPD2    C2  277   2.077   1.789  11.032  0.6723  0.1027 -0.1696
   18MPD2    C3  278   2.212   1.787  11.004  0.8262 -0.0974 -0.3424
   18MPD2    C4  279   2.296   1.881  11.068 -0.1867  0.3486  0.3495
   18MPD2    C5  280   2.238   1.964  11.160  0.2913  0.1680  0.1263
   18MPD2     H  281   2.010   1.720  10.983  2.4543 -2.7718  1.4914
   18MPD2    H1  282   2.400   1.887  11.039  0.6657  0.3363  3.3845
   18MPD2    H2  283   2.079   2.030  11.271 -0.9892 -1.0080  0.7190
   18MPD2    H3  284   2.299   2.038  11.211  1.1401 -0.5243  0.1201
   18MPD2     N  285   2.270   1.697  10.909 -0.6166  0.4169  0.7049
   18MPD2    H5  286   2.363   1.713  10.873 -0.0899 -0.1348  1.8313
   18MPD2    N1  287   1.874   1.887  11.116  0.0822  0.2757  0.5502
   18MPD2    H7  288   1.817   1.830  11.055  0.4193  0.5931 -0.0583
   19TMC2    C1  289   3.182   1.969  13.740 -0.3372 -0.5026  0.0421
   19TMC2    C2  290   3.098   1.945  13.637 -0.0386 -0.4753 -0.0993
   19TMC2    C3  291   2.967   1.937  13.674  0.0670 -0.8511 -0.0717
   19TMC2    C4  292   3.143   1.984  13.874  0.0818 -0.0786  0.5128
   19TMC2    C5  293   3.006   1.988  13.894  0.0311 -0.5888 -1.0356
   19TMC2    C6  294   2.917   1.958  13.796  0.5888 -0.5021  0.2978
   19TMC2     C  295   3.320   1.984  13.726 -0.2104  0.0170  0.6437
   19TMC2     O  296   3.361   2.020  13.617  0.5011  0.3381 -0.6941
   19TMC2     H  297   3.129   1.952  13.533 -2.8994  1.0592 -0.8464
   19TMC2    H1  298   3.212   2.021  13.948  1.3242  0.0689 -0.7068
   19TMC2    H2  299   2.810   1.970  13.811  0.7678 -1.6578  2.4907
   19TMC2    C7  300   2.962   1.962  14.031  0.1390 -0.3222 -0.4645
   19TMC2    C8  301   2.873   1.918  13.563  0.2971 -0.7102 -0.1585
   19TMC2    O1  302   2.846   1.940  14.051  0.1310  0.5864  0.1502
   19TMC2    O2  303   2.898   1.957  13.449 -0.1050 -0.6166 -0.3099
   19TMC2    O5  304   2.770   1.843  13.604 -0.3431 -0.3757  0.0091
   19TMC2    H5  305   2.778   1.818  13.699 -3.0072  0.2539  0.3942
   20MPD2     C  306   3.620   1.983  13.747 -0.1980 -0.9706  0.2391
   20MPD2    C1  307   3.537   1.902  13.821  0.5273  0.4147  0.4132
   20MPD2    C2  308   3.587   1.827  13.925  0.5245  0.0502  0.7253
   20MPD2    C3  309   3.720   1.821  13.948 -0.4352  0.6456  0.2836
   20MPD2    C4  310   3.808   1.893  13.873 -0.0135 -1.0044  0.1570
   20MPD2    C5  311   3.758   1.974  13.765 -0.8783  0.1020 -0.1428
   20MPD2     H  312   3.515   1.776  13.988 -1.5307  3.0341  0.8056
   20MPD2    H1  313   3.916   1.894  13.884  0.0263 -0.4640 -0.2854
   20MPD2    H2  314   3.587   2.049  13.668  0.0973 -2.1083 -0.8408
   20MPD2    H3  315   3.822   2.036  13.704  0.7890 -0.3053  1.1864
   20MPD2     N  316   3.773   1.747  14.055  0.0259  0.3929  0.3240
   20MPD2    H5  317   3.871   1.769  14.070  0.2804 -0.4544 -0.0590
   20MPD2    N1  318   3.391   1.909  13.818 -0.1111 -0.5138 -0.2839
   20MPD2    H7  319   3.337   1.852  13.882  0.1749  0.3908  0.7582
   21MPD2     C  320   0.649   2.005  14.074  0.9284 -0.1514  0.7354
   21MPD2    C1  321   0.716   1.939  14.176  0.2287  0.6542  0.5638
   21MPD2    C2  322   0.654   1.936  14.299  0.7584 -1.0447 -0.8013
   21MPD2    C3  323   0.527   1.990  14.319 -0.4371 -0.2105 -0.9309
   21MPD2    C4  324   0.472   2.063  14.224 -0.5142  0.7282 -1.1574
   21MPD2    C5  325   0.536   2.075  14.102  0.1726 -0.2362  0.0989
   21MPD2     H  326   0.704   1.874  14.371 -0.2426  0.3134  1.0548
   21MPD2    H1  327   0.372   2.106  14.230 -1.1167 -0.9053  0.8105
   21MPD2    H2  328   0.685   1.998  13.972 -0.2437  1.2503  0.2217
   21MPD2    H3  329   0.479   2.124  14.024  0.0005  1.8065  1.4742
   21MPD2     N  330   0.455   1.973  14.437 -0.9427 -0.2901  0.0676
   21MPD2    H5  331   0.366   2.020  14.441  0.1671  1.7827  0.5795
   21MPD2    N1  332   0.833   1.867  14.160  0.1863 -0.0399 -0.5440
   21MPD2    H7  333   0.872   1.816  14.239 -0.9854  0.6279  0.4630
   22TCq2    C1  334   0.492   1.902  14.542  0.1858 -0.2765  0.3933
   22TCq2    O2  335   0.595   1.837  14.569  0.4122  0.2589  0.1173
   22TCq2    C2  336   0.392   1.883  14.639  0.3273 -0.4415 -0.2952
   22TCq2    C3  337   0.394   1.774  14.722  0.5445  0.2816 -0.0643
   22TCq2    C4  338   0.296   1.744  14.810  0.5651  0.2006  0.8084
   22TCq2    C5  339   0.194   1.834  14.827  0.6171  0.0339 -0.7710
   22TCq2    C6  340   0.196   1.943  14.737 -0.1238 -0.6139  0.5908
   22TCq2    C7  341   0.297   1.981  14.651 -0.0695  0.4113  0.3951
   22TCq2    C8  342   0.113   2.056  14.777  1.2233 -0.4404  0.0729
   22TCq2    O4  343   0.088   2.062  14.895 -0.6485 -0.1710 -0.7078
   22TCq2    C9  344   0.306   1.630  14.892 -0.1388  0.1471 -0.0827
   22TCq2    O5  345   0.204   1.603  14.965  0.4313  0.0443  0.4703
   22TCq2    O6  346   0.423   1.599  14.919 -0.5644 -0.0057  0.4440
   22TCq2    H2  347   0.484   1.713  14.728 -1.2189 -2.0993  1.9297
   22TCq2    H3  348   0.110   1.813  14.891  0.8390  0.6086 -0.2875
   22TCq2    H4  349   0.307   2.079  14.606 -1.9158  0.4317  0.0462
   23MPD2     C  350   2.535   3.201  14.531 -0.0465  0.0454  0.2693
   23MPD2    C1  351   2.430   3.218  14.614  0.2398 -0.2626  0.4915
   23MPD2    C2  352   2.325   3.306  14.587 -0.2822  0.1448  0.1848
   23MPD2    C3  353   2.325   3.379  14.466 -0.2948 -0.8986  0.6348
   23MPD2    C4  354   2.435   3.365  14.385 -0.4374  0.1215  0.0692
   23MPD2    C5  355   2.533   3.274  14.415  0.4522  0.4253  0.9229
   23MPD2     H  356   2.245   3.309  14.660  0.1059  0.4236  0.5926
   23MPD2    H1  357   2.447   3.409  14.287 -1.2539 -0.0127 -0.0926
   23MPD2    H2  358   2.622   3.139  14.552  0.2749  0.7463  1.0194
   23MPD2    H3  359   2.625   3.277  14.357  0.8885 -0.6609  1.5599
   23MPD2     N  360   2.230   3.472  14.428  0.7457 -0.8610  0.0154
   23MPD2    H5  361   2.254   3.543  14.359  1.2519 -2.1273 -1.1174
   23MPD2    N1  362   2.424   3.142  14.728 -0.0040 -0.4452 -0.1859
   23MPD2    H7  363   2.342   3.161  14.785 -0.2016 -2.4724  0.1946
   24TCq2    C1  364   2.102   3.476  14.475 -0.1188  0.2514  0.5244
   24TCq2    O2  365   2.049   3.390  14.542  0.1628 -0.5310 -0.1974
   24TCq2    C2  366   2.028   3.590  14.439  0.5142  0.8246  0.8684
   24TCq2    C3  367   2.077   3.695  14.364 -0.2852 -0.1922 -0.6267
   24TCq2    C4  368   1.990   3.799  14.333 -0.6236 -0.5126  1.0180
   24TCq2    C5  369   1.854   3.802  14.378 -0.0759  1.2807 -0.3487
   24TCq2    C6  370   1.816   3.696  14.460 -0.0973  0.0586 -0.7829
   24TCq2    C7  371   1.896   3.594  14.487  0.2764 -0.7195  0.9783
   24TCq2    C8  372   1.677   3.661  14.478 -0.3220 -0.1189  0.1844
   24TCq2    O4  373   1.642   3.550  14.515 -0.1058  0.2704  0.9591
   24TCq2    C9  374   2.040   3.910  14.250  0.3849 -0.3718  0.2719
   24TCq2    O5  375   2.159   3.933  14.240 -0.0028  0.0568  0.0575
   24TCq2    O6  376   1.955   3.970  14.180 -0.0969  0.2849 -0.2356
   24TCq2    H2  377   2.175   3.698  14.319 -0.5249 -1.0562 -1.2079
   24TCq2    H3  378   1.787   3.886  14.369 -1.9692 -0.0613  1.4362
   24TCq2    H4  379   1.868   3.524  14.566 -1.0321  0.3961  1.4967
   25TMC2    C1  380   1.125   1.374  11.847  0.7387  0.7926  0.2847
   25TMC2    C2  381   1.258   1.411  11.859  0.1540 -0.9159 -0.0269
   25TMC2    C3  382   1.337   1.325  11.921  0.1826 -0.3734 -0.8989
   25TMC2    C4  383   1.075   1.258  11.897 -0.0562  0.6135  0.3102
   25TMC2    C5  384   1.153   1.177  11.979  0.3478 -0.0291 -0.2878
   25TMC2    C6  385   1.288   1.201  11.972  0.2475 -0.3349 -0.3698
   25TMC2     C  386   1.074   1.407  11.712  0.4482  0.9617  0.5472
   25TMC2     O  387   1.138   1.491  11.648  0.1174  0.1775 -0.2051
   25TMC2     H  388   1.290   1.505  11.817  0.1498 -0.6453  0.5709
   25TMC2    H1  389   0.966   1.251  11.895  0.0055 -0.3010  0.2463
   25TMC2    H2  390   1.358   1.129  12.014 -1.2143 -0.8407  1.2154
   25TMC2    C7  391   1.091   1.063  12.048  0.1388 -0.4669  0.3124
   25TMC2    C8  392   1.463   1.379  11.966 -0.5320  0.3116  0.5843
   25TMC2    O1  393   1.171   1.002  12.118  0.7919  0.2936 -0.0304
   25TMC2    O2  394   1.519   1.463  11.896  0.7287  0.1027 -0.4053
   25TMC2    O5  395   1.517   1.307  12.060 -0.0745  0.0889 -0.0772
   25TMC2    H5  396   1.441   1.263  12.104  1.5901 -2.1838  0.4924
   26MPD2     C  397   0.775   1.318  11.285 -0.0643 -0.1276 -0.6452
   26MPD2    C1  398   0.768   1.213  11.378  0.2846 -0.0389 -0.3601
   26MPD2    C2  399   0.832   1.220  11.504 -0.6693  0.1971  0.9843
   26MPD2    C3  400   0.909   1.332  11.537 -0.3233  0.7982  0.0008
   26MPD2    C4  401   0.917   1.434  11.442 -0.0370  0.3190 -1.0365
   26MPD2    C5  402   0.855   1.430  11.317  1.1531 -0.3846  0.1098
   26MPD2     H  403   0.831   1.135  11.571  0.7047 -0.0013  0.7456
   26MPD2    H1  404   0.970   1.525  11.465 -1.4636  0.4476  1.7162
   26MPD2    H2  405   0.741   1.311  11.183 -0.1161 -1.5074 -0.5287
   26MPD2    H3  406   0.852   1.517  11.253 -1.6205 -0.9104 -0.4833
   26MPD2     N  407   0.964   1.337  11.669 -0.2214 -0.5173  0.3286
   26MPD2    H5  408   0.937   1.263  11.733 -1.2045 -0.6758 -0.2727
   26MPD2    N1  409   0.709   1.093  11.319  0.2136  0.1029 -0.2698
   26MPD2    H7  410   0.708   1.093  11.218  2.0564 -0.1241 -0.2774
   27TMC2    C1  411   4.183   2.361  11.758 -0.3739  0.3251  0.5978
   27TMC2    C2  412   4.227   2.247  11.693  0.0435 -0.7167 -0.4341
   27TMC2    C3  413   4.348   2.197  11.734 -0.0860  0.8024  0.1310
   27TMC2    C4  414   4.260   2.421  11.856 -0.3497 -0.1280 -0.4866
   27TMC2    C5  415   4.378   2.360  11.901  0.9757  0.2759 -0.6136
   27TMC2    C6  416   4.420   2.244  11.839  0.0635 -0.8158 -0.0570
   27TMC2     C  417   4.036   2.369  11.764  0.0431 -0.2074 -0.3177
   27TMC2     O  418   3.975   2.328  11.667  0.5563 -0.0904 -0.0616
   27TMC2     H  419   4.167   2.196  11.619 -1.9073  1.4605 -0.3406
   27TMC2    H1  420   4.223   2.513  11.902  0.6072  0.4161 -0.8232
   27TMC2    H2  421   4.503   2.183  11.875  0.6136  0.0914  0.2206
   27TMC2    C7  422   4.400   2.360  12.044 -0.0540 -0.1466 -0.0881
   27TMC2    C8  423   4.358   2.053  11.709  0.5445  0.1461 -0.0314
   27TMC2    O1  424   4.454   2.256  12.081  0.3443  0.1006  0.5826
   27TMC2    O2  425   4.431   1.983  11.784  0.5560 -0.6348  0.1089
   27TMC2    O5  426   4.336   2.034  11.581  0.1076  0.1170  0.0269
   27TMC2    H5  427   4.295   2.111  11.537 -1.5894 -0.5105  0.4682
   28MPD2     C  428   3.617   2.389  12.055 -0.0041 -0.0631 -0.2138
   28MPD2    C1  429   3.726   2.428  12.135 -0.7257  0.6318 -0.3555
   28MPD2    C2  430   3.846   2.435  12.067 -0.3645 -0.1687 -0.7121
   28MPD2    C3  431   3.864   2.406  11.937 -0.3414 -0.2050  0.5691
   28MPD2    C4  432   3.758   2.364  11.865 -0.1039 -0.5964 -0.4686
   28MPD2    C5  433   3.633   2.351  11.922  0.2810 -0.3736  0.0075
   28MPD2     H  434   3.941   2.447  12.117  0.4104  0.0362 -2.2320
   28MPD2    H1  435   3.759   2.343  11.759 -0.1273  2.7447 -1.1123
   28MPD2    H2  436   3.520   2.384  12.103 -0.2203 -1.5522 -0.8207
   28MPD2    H3  437   3.554   2.315  11.857  0.2153 -1.5110  0.7141
   28MPD2     N  438   3.989   2.415  11.888  0.1514 -0.1462 -0.4448
   28MPD2    H5  439   4.062   2.436  11.956 -0.5831 -1.9455  0.8985
   28MPD2    N1  440   3.706   2.450  12.270  0.1936  0.0713  0.2599
   28MPD2    H7  441   3.612   2.438  12.307  0.3293 -0.2475  0.5103
   29MPD2     C  442   3.759   0.240  13.889  0.7973 -0.0205  0.2130
   29MPD2    C1  443   3.791   0.222  14.025 -0.1733  0.8239  0.7209
   29MPD2    C2  444   3.825   0.331  14.096  0.4396 -0.0324 -0.1533
   29MPD2    C3  445   3.817   0.459  14.037  0.7193  0.3418 -0.2361
   29MPD2    C4  446   3.792   0.471  13.903 -0.2660 -0.8633  0.2210
   29MPD2    C5  447   3.744   0.367  13.834 -0.0161 -0.5066  0.7503
   29MPD2     H  448   3.867   0.325  14.195 -0.5201  0.6336  0.2994
   29MPD2    H1  449   3.796   0.565  13.849 -1.1242 -1.1873 -0.4043
   29MPD2    H2  450   3.733   0.155  13.827 -0.5539 -0.3240  1.1793
   29MPD2    H3  451   3.713   0.373  13.731  1.0839 -1.9498  0.3471
   29MPD2     N  452   3.842   0.579  14.103  0.4410  0.2255 -0.0803
   29MPD2    H5  453   3.834   0.670  14.057  2.4384 -0.4865 -1.8617
   29MPD2    N1  454   3.816   0.101  14.091 -0.9697  0.1103 -0.4769
   29MPD2    H7  455   3.848   0.099  14.187  1.4602 -0.7963 -1.3227
   30TCq2    C1  456   3.858   0.591  14.244  0.3551  0.0084 -0.4032
   30TCq2    O2  457   3.825   0.507  14.325 -0.8231 -0.3093 -0.0532
   30TCq2    C2  458   3.873   0.725  14.298  0.9325  0.0769 -0.8196
   30TCq2    C3  459   3.865   0.740  14.438 -0.7621 -0.2687  0.4387
   30TCq2    C4  460   3.905   0.856  14.490 -0.7449  0.4517 -0.5309
   30TCq2    C5  461   3.945   0.962  14.407 -0.6702 -0.4270  0.0590
   30TCq2    C6  462   3.966   0.937  14.272 -0.1515 -0.2355  0.6574
   30TCq2    C7  463   3.929   0.819  14.212 -0.1588 -0.2512  0.0755
   30TCq2    C8  464   4.001   1.051  14.184  0.4343 -0.5451 -0.5485
   30TCq2    O4  465   3.983   1.038  14.061 -0.0118 -0.4294 -0.7056
   30TCq2    C9  466   3.902   0.879  14.634 -0.4345 -0.2837  0.1075
   30TCq2    O5  467   3.943   0.991  14.681 -0.1553 -0.2130  0.3659
   30TCq2    O6  468   3.893   0.776  14.709 -0.6850 -0.1439  0.0590
   30TCq2    H2  469   3.847   0.657  14.504  1.2554 -3.3307 -2.8784
   30TCq2    H3  470   3.979   1.046  14.466 -0.3128 -1.2513  1.0238
   30TCq2    H4  471   3.944   0.800  14.106 -0.8983 -2.7382  0.4256
   31MPD2     C  472   2.180   4.054  14.976 -0.0900  0.6376  0.3121
   31MPD2    C1  473   2.064   4.119  14.953  0.0198 -0.5097 -0.2919
   31MPD2    C2  474   1.952   4.079  15.024  0.3436 -0.7473 -0.3101
   31MPD2    C3  475   1.967   3.974  15.111 -0.2253 -0.3851  0.6530
   31MPD2    C4  476   2.089   3.911  15.122  0.3720 -0.7421 -0.0696
   31MPD2    C5  477   2.200   3.949  15.052  0.2674 -0.0380  0.1613
   31MPD2     H  478   1.860   4.135  15.011  1.9088  2.0224  0.7446
   31MPD2    H1  479   2.101   3.830  15.193 -0.9210 -0.5382  0.3907
   31MPD2    H2  480   2.266   4.075  14.912  0.3548  1.7126  1.2678
   31MPD2    H3  481   2.295   3.900  15.067  0.4012 -0.3552 -1.7589
   31MPD2     N  482   1.863   3.933  15.199 -0.0808 -0.0239  0.4278
   31MPD2    H5  483   1.892   3.871  15.274 -0.9795 -1.6148 -0.5447
   31MPD2    N1  484   2.074   4.235  14.869 -0.1514  0.0868  0.4335
   31MPD2    H7  485   2.168   4.265  14.846 -0.1984 -0.5406 -0.6091
   32TCq2    C1  486   1.732   3.983  15.197 -0.2894 -0.2040 -0.2479
   32TCq2    O2  487   1.684   4.054  15.112  0.0529  0.3950 -0.1672
   32TCq2    C2  488   1.654   3.971  15.322 -0.1215  0.3708 -0.3345
   32TCq2    C3  489   1.524   4.016  15.326  0.1134  0.1930  0.0368
   32TCq2    C4  490   1.467   4.024  15.452 -0.0506  0.0862 -0.0670
   32TCq2    C5  491   1.530   4.008  15.566  0.4286 -0.1168 -0.2315
   32TCq2    C6  492   1.656   3.958  15.559 -0.7532  0.5549  0.2783
   32TCq2    C7  493   1.720   3.951  15.441  0.0797  0.1499  0.2365
   32TCq2    C8  494   1.720   3.908  15.677 -0.0046  0.4647 -0.4845
   32TCq2    O4  495   1.830   3.847  15.675 -0.6919 -0.0626  0.1720
   32TCq2    C9  496   1.328   4.075  15.456  0.4187  0.3237  0.3763
   32TCq2    O5  497   1.291   4.142  15.355 -0.0752  0.0334 -0.1128
   32TCq2    O6  498   1.279   4.065  15.571  0.0928  0.3954  0.3347
   32TCq2    H2  499   1.457   4.017  15.241  0.6836  2.8388 -0.3564
   32TCq2    H3  500   1.478   4.019  15.660 -0.9637 -0.0062 -1.0279
   32TCq2    H4  501   1.819   3.908  15.441  0.0547  0.0502  3.6911
   33MPD2     C  502   2.322   1.128  10.158 -0.3151 -0.5298 -0.2154
   33MPD2    C1  503   2.235   1.211  10.228  0.4212 -0.4599  0.1076
   33MPD2    C2  504   2.102   1.228  10.181  0.6725  0.5414 -0.6272
   33MPD2    C3  505   2.070   1.188  10.051  0.1443 -0.6239 -0.3063
   33MPD2    C4  506   2.159   1.110   9.984 -0.5549 -0.4610 -0.1486
   33MPD2    C5  507   2.275   1.070  10.044  1.0424 -0.4536  0.0353
   33MPD2     H  508   2.037   1.298  10.231  0.7535  0.1673 -0.0086
   33MPD2    H1  509   2.142   1.058   9.890  1.6970 -2.5906  0.6301
   33MPD2    H2  510   2.422   1.104  10.192 -0.5929 -0.8030  0.4108
   33MPD2    H3  511   2.330   1.001   9.981 -1.3195 -2.2599 -0.0735
   33MPD2     N  512   1.938   1.200   9.994  0.2100 -0.2740  0.0138
   33MPD2    H5  513   1.928   1.186   9.893 -0.6203 -0.6191  0.1427
   33MPD2    N1  514   2.281   1.275  10.345 -0.1056  0.2493 -0.4999
   33MPD2    H7  515   2.380   1.258  10.360 -0.1000  0.3911 -0.3773
   34TCq2    C1  516   1.826   1.250  10.056 -0.1131  0.2788  0.0118
   34TCq2    O2  517   1.815   1.297  10.167 -0.1029  0.0545 -0.2202
   34TCq2    C2  518   1.710   1.269   9.965 -1.0174 -0.2645 -0.3024
   34TCq2    C3  519   1.694   1.193   9.853  0.6947 -0.2395  0.5679
   34TCq2    C4  520   1.613   1.237   9.753 -0.1568 -0.1480 -0.1526
   34TCq2    C5  521   1.533   1.350   9.765 -0.3355 -0.4661 -0.0224
   34TCq2    C6  522   1.556   1.429   9.872  0.3174 -0.2658  0.6730
   34TCq2    C7  523   1.642   1.393   9.968  0.6942  0.3614 -0.4591
   34TCq2    C8  524   1.469   1.544   9.897 -0.3851 -0.2257  0.0586
   34TCq2    O4  525   1.391   1.584   9.812 -0.2587  0.1907 -0.6235
   34TCq2    C9  526   1.619   1.168   9.635  0.2067 -0.2421 -0.1408
   34TCq2    O5  527   1.534   1.197   9.547  0.3334 -0.1839 -0.1710
   34TCq2    O6  528   1.723   1.103   9.609 -0.6564  0.3832  0.3445
   34TCq2    H2  529   1.757   1.108   9.831 -0.1797 -0.1401 -2.2653
   34TCq2    H3  530   1.467   1.383   9.685 -0.5200 -1.8822 -0.4447
   34TCq2    H4  531   1.675   1.458  10.049 -1.9515  0.5989  0.4103
   35MPD2     C  532   3.767   3.093  12.098  0.2353  0.7820  0.3522
   35MPD2    C1  533   3.685   3.029  12.009 -0.7309 -0.2863  0.1659
   35MPD2    C2  534   3.668   3.085  11.885  0.8052 -0.4408  0.2357
   35MPD2    C3  535   3.716   3.213  11.856 -0.2588 -0.3567  0.7036
   35MPD2    C4  536   3.786   3.279  11.944  0.3377 -0.4560  0.7466
   35MPD2    C5  537   3.811   3.215  12.066 -0.6132  0.5463 -0.1616
   35MPD2     H  538   3.613   3.029  11.811 -1.0070 -0.8238  1.8604
   35MPD2    H1  539   3.828   3.377  11.926  1.0931 -0.6814  1.2808
   35MPD2    H2  540   3.782   3.043  12.193 -0.7928 -2.7389 -1.3459
   35MPD2    H3  541   3.874   3.268  12.137 -2.7257  1.2198  1.2148
   35MPD2     N  542   3.675   3.274  11.735 -0.9525 -0.0982 -0.0253
   35MPD2    H5  543   3.612   3.222  11.674 -1.1096  0.7898 -0.6285
   35MPD2    N1  544   3.618   2.905  12.022 -0.0781  0.1484 -0.2832
   35MPD2    H7  545   3.564   2.874  11.942 -0.7870  0.0798  0.2213
   36TCq2    C1  546   3.699   3.402  11.685  0.1371  0.6157  0.0507
   36TCq2    O2  547   3.737   3.501  11.751  0.4003  0.6168 -0.0623
   36TCq2    C2  548   3.627   3.420  11.561  0.2779  0.2457 -0.1123
   36TCq2    C3  549   3.666   3.501  11.461 -0.3062 -0.2586 -0.5264
   36TCq2    C4  550   3.599   3.497  11.336 -0.8934  0.3740  0.1316
   36TCq2    C5  551   3.497   3.410  11.313  0.7451 -0.2206 -0.5112
   36TCq2    C6  552   3.458   3.337  11.426 -0.4563  0.2847 -0.4149
   36TCq2    C7  553   3.514   3.344  11.546  0.7907 -0.7337  0.1498
   36TCq2    C8  554   3.369   3.217  11.408  0.3629  0.3268 -0.4667
   36TCq2    O4  555   3.370   3.131  11.490 -0.0602 -0.1769 -0.1495
   36TCq2    C9  556   3.652   3.576  11.231  0.2367  0.1735  0.6825
   36TCq2    O5  557   3.761   3.634  11.243 -0.4850  0.6119  0.9505
   36TCq2    O6  558   3.610   3.540  11.116 -0.6935  0.2464  0.6867
   36TCq2    H2  559   3.744   3.576  11.474 -1.6496  0.7278  1.8411
   36TCq2    H3  560   3.454   3.395  11.215  0.5918  0.3447 -0.5270
   36TCq2    H4  561   3.469   3.284  11.625 -1.3159  1.1465  0.3952
   37TMC2    C1  562   0.639   3.873  11.277 -0.0646 -0.1601  0.2835
   37TMC2    C2  563   0.641   3.939  11.156  0.8847 -0.3025  0.0200
   37TMC2    C3  564   0.775   3.977  11.125 -0.2390 -0.0399 -0.0031
   37TMC2    C4  565   0.742   3.874  11.368 -0.3958 -0.4708 -0.2982
   37TMC2    C5  566   0.863   3.919  11.331  0.6073 -0.1423 -0.6283
   37TMC2    C6  567   0.877   3.982  11.209  0.3419  0.0787  0.2265
   37TMC2     C  568   0.536   3.770  11.289  0.0690 -0.5354  0.3857
   37TMC2     O  569   0.459   3.756  11.196 -0.6751 -0.0050  0.2369
   37TMC2     H  570   0.562   3.947  11.082 -0.4544 -0.7662  1.3890
   37TMC2    H1  571   0.739   3.841  11.472  1.1980  3.3620  0.9612
   37TMC2    H2  572   0.971   4.035  11.192 -0.8490  2.2667  0.4813
   37TMC2    C7  573   0.976   3.868  11.395 -0.4695 -0.2358  0.1908
   37TMC2    C8  574   0.790   4.041  10.995  0.1658 -0.4716  0.4988
   37TMC2    O1  575   0.967   3.863  11.517 -0.0759 -0.0170  0.0667
   37TMC2    O2  576   0.694   4.083  10.931  0.3115  0.0398 -0.3994
   37TMC2    O5  577   0.904   3.995  10.944 -0.6715 -0.2885 -0.2411
   37TMC2    H5  578   0.948   3.923  10.992 -2.4883  0.3534  2.4071
   38MPD2     C  579   0.327   3.317  11.453 -0.6780  0.1342 -0.0822
   38MPD2    C1  580   0.446   3.347  11.525  0.5646  0.3236  0.8402
   38MPD2    C2  581   0.510   3.466  11.504  0.5548 -0.3605 -0.3402
   38MPD2    C3  582   0.474   3.557  11.406  0.3454 -0.4725 -0.3632
   38MPD2    C4  583   0.367   3.524  11.331  0.7407 -0.3579  0.1800
   38MPD2    C5  584   0.295   3.408  11.352 -0.3704  0.1907  0.1990
   38MPD2     H  585   0.604   3.493  11.551  0.2024  0.4395 -0.0859
   38MPD2    H1  586   0.327   3.590  11.255  0.6679 -0.4579  0.1320
   38MPD2    H2  587   0.263   3.232  11.475 -0.8171  0.1448 -0.4369
   38MPD2    H3  588   0.203   3.377  11.303  0.1028  1.0929 -1.2597
   38MPD2     N  589   0.558   3.674  11.385 -0.0411  0.4532 -0.3943
   38MPD2    H5  590   0.648   3.667  11.430 -1.7223  1.4364  3.1130
   38MPD2    N1  591   0.500   3.267  11.625 -0.4361 -0.2071  0.2424
   38MPD2    H7  592   0.579   3.300  11.679 -0.3050 -0.8020  0.4163
   39MPD2     C  593   3.942   0.304   1.478 -0.8292 -0.5834  0.3411
   39MPD2    C1  594   3.860   0.409   1.521  0.2063  0.3389  0.0006
   39MPD2    C2  595   3.722   0.406   1.504 -0.2592  0.2998 -0.1641
   39MPD2    C3  596   3.664   0.287   1.444 -0.0053  0.1298  0.5448
   39MPD2    C4  597   3.746   0.186   1.401 -0.1475 -0.3964 -0.6195
   39MPD2    C5  598   3.881   0.197   1.418 -0.3551 -0.3494  0.1548
   39MPD2     H  599   3.663   0.493   1.532  1.3577  2.1999 -2.6371
   39MPD2    H1  600   3.703   0.088   1.384 -0.4779 -0.5730  1.2316
   39MPD2    H2  601   4.049   0.308   1.494 -0.7812  0.3321 -0.1971
   39MPD2    H3  602   3.933   0.111   1.376 -1.5332 -0.7692 -0.4304
   39MPD2     N  603   3.531   0.286   1.401 -0.0197  0.0979 -0.2451
   39MPD2    H5  604   3.504   0.214   1.334 -1.0807  0.9445 -0.7138
   39MPD2    N1  605   3.937   0.511   1.579  0.3480  0.4920 -0.3507
   39MPD2    H7  606   4.035   0.489   1.592  0.2518 -0.2355 -0.8534
   40TCq2    C1  607   3.892   0.617   1.651 -0.1732  0.3054 -0.6847
   40TCq2    O2  608   3.777   0.640   1.685 -0.8329  0.4495  0.4075
   40TCq2    C2  609   4.002   0.684   1.709 -0.1905 -0.4001  0.3550
   40TCq2    C3  610   3.968   0.778   1.812  0.2238 -0.5828 -0.4370
   40TCq2    C4  611   4.067   0.831   1.887 -0.0538 -0.8482 -0.7035
   40TCq2    C5  612   4.199   0.800   1.862 -0.3932  0.6134  0.2388
   40TCq2    C6  613   4.232   0.717   1.760  0.7442  0.2576  0.0997
   40TCq2    C7  614   4.133   0.656   1.683  0.4486 -0.4575  0.1653
   40TCq2    C8  615   4.374   0.677   1.738  0.1921  0.2404 -1.2749
   40TCq2    O4  616   4.397   0.562   1.706  0.2056 -0.3915 -0.4851
   40TCq2    C9  617   4.036   0.932   1.983  0.0458  0.0487 -0.1140
   40TCq2    O5  618   3.915   0.962   1.990  0.9327 -0.3209  0.2774
   40TCq2    O6  619   4.121   0.965   2.068  0.2524 -0.0034 -0.4271
   40TCq2    H2  620   3.865   0.803   1.837  0.7792 -0.0032  1.2059
   40TCq2    H3  621   4.272   0.841   1.931  0.6246 -0.9154  0.0955
   40TCq2    H4  622   4.168   0.600   1.597  0.2514  0.0891 -0.2617
   41TMC2    C1  623   2.798   3.345  13.784 -0.9180  0.0733 -0.1507
   41TMC2    C2  624   2.693   3.390  13.860  0.1993  0.2302 -0.3606
   41TMC2    C3  625   2.567   3.359  13.820 -0.5518  0.7939  0.6488
   41TMC2    C4  626   2.774   3.268  13.673  0.1678  1.0551  0.4230
   41TMC2    C5  627   2.646   3.246  13.632 -0.4229 -0.4479 -0.3881
   41TMC2    C6  628   2.540   3.299  13.701  0.2849  0.4377  0.3122
   41TMC2     C  629   2.932   3.372  13.835 -0.1647  0.8713 -0.8112
   41TMC2     O  630   3.025   3.386  13.755 -1.2144  0.1561 -0.9004
   41TMC2     H  631   2.706   3.442  13.954 -1.4590  1.9615 -1.1030
   41TMC2    H1  632   2.865   3.228  13.630 -1.5476 -0.6965 -1.6104
   41TMC2    H2  633   2.441   3.285  13.658 -0.2626  0.7565  1.4608
   41TMC2    C7  634   2.621   3.199  13.498 -0.1919 -0.1158 -0.1033
   41TMC2    C8  635   2.462   3.406  13.908 -0.6751 -0.1193 -0.5323
   41TMC2    O1  636   2.519   3.140  13.477  0.3993  0.3762  0.2619
   41TMC2    O2  637   2.472   3.493  13.994 -0.1370 -0.3805  0.2370
   41TMC2    O5  638   2.346   3.377  13.849 -0.5160  0.1102 -0.0871
   41TMC2    H5  639   2.341   3.285  13.814  1.1283  0.1424 -0.4183
   42MPD2     C  640   3.170   3.365  14.009  0.3648  0.2051 -0.2185
   42MPD2    C1  641   3.042   3.360  14.050  0.2632  0.2551  0.1018
   42MPD2    C2  642   3.001   3.336  14.180 -0.1903 -0.0441 -0.5286
   42MPD2    C3  643   3.101   3.310  14.276  0.3448 -0.7421  0.2016
   42MPD2    C4  644   3.237   3.306  14.230 -0.1465 -0.0347 -0.1264
   42MPD2    C5  645   3.267   3.335  14.097  0.1990  0.0369  0.5081
   42MPD2     H  646   2.897   3.332  14.208  0.0528 -0.8615  0.2341
   42MPD2    H1  647   3.318   3.282  14.298 -0.1406  3.3690  1.0205
   42MPD2    H2  648   3.192   3.374  13.903  0.4477  0.4299 -0.1826
   42MPD2    H3  649   3.371   3.322  14.068  0.1453  0.5345  0.0923
   42MPD2     N  650   3.081   3.289  14.415 -0.4369  0.1365 -0.0714
   42MPD2    H5  651   3.156   3.252  14.473 -0.1868 -0.2540 -0.6403
   42MPD2    N1  652   2.930   3.368  13.969  0.6111 -0.2330  0.3226
   42MPD2    H7  653   2.845   3.339  14.017 -0.9192  2.8250 -0.5196
   43MPD2     C  654   4.359   1.712   0.547 -0.4678 -0.3342  0.2360
   43MPD2    C1  655   4.435   1.689   0.660  0.3708 -0.3414 -0.2506
   43MPD2    C2  656   4.386   1.725   0.785  0.1080 -0.1330  0.2426
   43MPD2    C3  657   4.271   1.799   0.787  0.6288  0.1391  0.2264
   43MPD2    C4  658   4.195   1.813   0.673  1.0181  0.3410 -0.5252
   43MPD2    C5  659   4.237   1.771   0.549  0.7070 -0.1104  0.0883
   43MPD2     H  660   4.435   1.697   0.877  0.1220  1.4643  0.7149
   43MPD2    H1  661   4.103   1.867   0.688  2.0728  1.6274  1.2553
   43MPD2    H2  662   4.390   1.684   0.446  2.0382 -0.5052  1.0506
   43MPD2    H3  663   4.181   1.789   0.457 -1.1363 -0.3627  1.1517
   43MPD2     N  664   4.222   1.851   0.905 -0.1495  0.2146 -0.3086
   43MPD2    H5  665   4.135   1.903   0.902 -0.0187  0.4326 -0.3342
   43MPD2    N1  666   4.562   1.625   0.655  0.1484 -0.1404 -0.2607
   43MPD2    H7  667   4.604   1.607   0.745 -0.7191 -2.7108 -0.3540
   44TCq2    C1  668   4.193   2.138   1.405 -0.4716  0.2740 -0.6146
   44TCq2    O2  669   4.280   2.218   1.377  0.4567  0.0869  0.5019
   44TCq2    C2  670   4.150   2.044   1.297 -0.1301 -0.0762  0.5235
   44TCq2    C3  671   4.035   1.973   1.317 -0.2213  0.2575  0.5967
   44TCq2    C4  672   3.998   1.871   1.235  0.6316 -0.1184 -0.1007
   44TCq2    C5  673   4.081   1.839   1.123 -0.7586  0.3525 -0.3391
   44TCq2    C6  674   4.203   1.902   1.119 -0.3461 -0.5292  0.6514
   44TCq2    C7  675   4.241   2.004   1.205  0.1696  0.1676 -0.1234
   44TCq2    C8  676   4.291   1.864   1.022  0.0479  0.9642 -0.0020
   44TCq2    O4  677   4.417   1.869   1.035  0.2329 -0.2727  0.5647
   44TCq2    C9  678   3.865   1.814   1.251 -0.7370 -0.4238 -0.1959
   44TCq2    O5  679   3.796   1.783   1.149 -0.0341  1.0992 -0.1043
   44TCq2    O6  680   3.813   1.834   1.365 -0.0081  0.4509  0.3381
   44TCq2    H2  681   3.962   2.007   1.389  0.6520  1.5331  0.8783
   44TCq2    H3  682   4.056   1.759   1.056 -0.5594 -0.0170  0.0279
   44TCq2    H4  683   4.334   2.054   1.180 -0.1205  1.6391  1.7692
   45TMC2    C1  684   0.497   4.107   9.422 -0.2170 -0.5934  0.6309
   45TMC2    C2  685   0.532   3.974   9.431  0.4142 -0.6344  0.1227
   45TMC2    C3  686   0.628   3.940   9.525 -0.6060  0.4474  0.5610
   45TMC2    C4  687   0.550   4.195   9.508 -0.3594 -0.2883 -0.2809
   45TMC2    C5  688   0.658   4.159   9.586 -0.1693 -0.3016 -0.4607
   45TMC2    C6  689   0.692   4.033   9.605 -0.1536  0.3630  0.4979
   45TMC2     C  690   0.372   4.144   9.359  0.3161  0.3128 -0.4977
   45TMC2     O  691   0.280   4.067   9.341  0.2003  0.3318 -0.6857
   45TMC2     H  692   0.495   3.899   9.363 -1.6649 -1.2578  1.9352
   45TMC2    H1  693   0.499   4.288   9.531  1.2330  0.2811  1.0466
   45TMC2    H2  694   0.781   4.009   9.662 -1.3050  0.9484  2.5146
   45TMC2    C7  695   0.680   4.252   9.692  0.3541 -1.0058 -0.1954
   45TMC2    C8  696   0.658   3.802   9.525 -0.6331 -0.0117  0.8123
   45TMC2    O1  697   0.642   4.215   9.804  0.7581 -0.3359  0.8096
   45TMC2    O2  698   0.642   3.726   9.430  0.0999  0.7455  0.0985
   45TMC2    O5  699   0.760   3.790   9.608 -0.0871 -1.0834 -0.2173
   45TMC2    H5  700   0.745   3.852   9.682  0.1642  1.6078 -2.4045
   46MPD2     C  701   0.273   4.503   9.311  0.7196  0.6354  0.2720
   46MPD2    C1  702   0.252   4.365   9.319  0.3362  0.6960  0.5319
   46MPD2    C2  703   0.117   4.314   9.311  0.2990  0.0681 -0.9373
   46MPD2    C3  704   0.011   4.398   9.280  0.2050  0.0878 -0.2753
   46MPD2    C4  705   0.043   4.538   9.257  0.2055  0.2091  0.0427
   46MPD2    C5  706   0.169   4.587   9.277  0.3416 -0.0040 -0.8445
   46MPD2     H  707   0.097   4.214   9.350 -0.5646  0.1646 -1.1235
   46MPD2    H1  708   4.684   4.610   9.247  0.3358  0.0693 -1.9315
   46MPD2    H2  709   0.372   4.545   9.327  1.2391 -1.1850  1.9716
   46MPD2    H3  710   0.202   4.690   9.266 -0.2046  0.1787 -0.7796
   46MPD2     N  711   4.599   4.357   9.292 -0.0518  0.4172  0.2577
   46MPD2    H5  712   4.582   4.260   9.317  0.1763  0.2857 -0.0891
   46MPD2    N1  713   0.364   4.281   9.352 -0.2527 -0.5170 -0.2295
   46MPD2    H7  714   0.452   4.332   9.352 -1.0865  0.9499  0.7772
   47TMC2    C1  715   0.714   3.978   9.122  0.2002 -0.4654  0.0981
   47TMC2    C2  716   0.681   3.854   9.082  0.7589  0.2617 -0.2465
   47TMC2    C3  717   0.578   3.837   9.004  0.2439  0.2650  0.1139
   47TMC2    C4  718   0.646   4.089   9.081 -0.0018 -0.6010  0.1747
   47TMC2    C5  719   0.528   4.058   9.018  0.7748  0.7333  0.9034
   47TMC2    C6  720   0.485   3.937   8.980  0.0493 -0.3910  0.1178
   47TMC2     C  721   0.829   3.999   9.218 -0.2367  0.1601  0.0229
   47TMC2     O  722   0.860   4.111   9.252  0.0151  0.1765 -0.5164
   47TMC2     H  723   0.745   3.767   9.089  2.0177  1.2147  0.1137
   47TMC2    H1  724   0.683   4.187   9.107  1.8870 -1.6463  1.5152
   47TMC2    H2  725   0.398   3.913   8.921  0.6063 -0.3470 -0.7191
   47TMC2    C7  726   0.444   4.167   8.972  0.2699  0.2700  0.0740
   47TMC2    C8  727   0.530   3.689   8.975  0.1775  0.4131 -0.5381
   47TMC2    O1  728   0.337   4.129   8.922 -0.9255  0.3055 -0.4744
   47TMC2    O2  729   0.571   3.592   9.039  0.3618 -0.4094 -0.3403
   47TMC2    O5  730   0.446   3.696   8.870 -0.1083 -0.6799 -0.2039
   47TMC2    H5  731   0.440   3.788   8.836 -2.6228 -1.9500 -3.1849
   48MPD2     C  732   1.074   3.978   9.398 -0.2279  0.6277  0.0990
   48MPD2    C1  733   0.983   3.875   9.364 -1.0156  0.2855  0.1735
   48MPD2    C2  734   1.025   3.743   9.403 -0.5282  0.4824  0.3943
   48MPD2    C3  735   1.132   3.717   9.486  0.0174 -0.6162 -0.7749
   48MPD2    C4  736   1.207   3.829   9.525 -0.0762 -0.2018 -0.1894
   48MPD2    C5  737   1.182   3.953   9.476 -0.1919 -0.5745 -0.0939
   48MPD2     H  738   0.970   3.658   9.364 -0.0894  0.1813  0.4234
   48MPD2    H1  739   1.293   3.823   9.590 -0.0725 -0.7879 -0.2557
   48MPD2    H2  740   1.071   4.083   9.371 -0.0868  0.4512 -0.6127
   48MPD2    H3  741   1.249   4.032   9.506  0.8245 -1.9488  1.2734
   48MPD2     N  742   1.170   3.584   9.520 -0.0475  0.8468 -0.0337
   48MPD2    H5  743   1.106   3.512   9.490  0.0063  1.2228 -1.0504
   48MPD2    N1  744   0.882   3.883   9.267  0.1137 -0.3393 -1.0473
   48MPD2    H7  745   0.844   3.792   9.245  0.5413 -0.8612  0.3588
   49MPD2     C  746   1.487   0.932  10.110 -0.6639 -0.0511 -0.2792
   49MPD2    C1  747   1.354   0.963  10.078  0.0609 -0.3841  0.2380
   49MPD2    C2  748   1.272   1.024  10.169 -0.4305  0.1978  0.1916
   49MPD2    C3  749   1.315   1.046  10.300  0.3104 -0.5571  0.1080
   49MPD2    C4  750   1.445   1.008  10.328 -0.2111  0.0279 -0.5345
   49MPD2    C5  751   1.531   0.952  10.236  0.9488 -0.0811 -0.1491
   49MPD2     H  752   1.171   1.051  10.144 -0.4446  1.2560  1.3901
   49MPD2    H1  753   1.493   1.039  10.420 -0.3528 -0.5546 -0.2628
   49MPD2    H2  754   1.562   0.908  10.035 -2.5208  1.7811 -2.7159
   49MPD2    H3  755   1.633   0.936  10.266  0.9693 -0.5502 -0.4743
   49MPD2     N  756   1.240   1.117  10.393  0.4921 -0.3679 -0.1419
   49MPD2    H5  757   1.288   1.166  10.468  1.0548  0.5770 -1.1099
   49MPD2    N1  758   1.302   0.936   9.955 -0.1832  0.2122  1.2964
   49MPD2    H7  759   1.202   0.947   9.943 -0.1873 -0.7282  0.4727
   50TCq2    C1  760   1.370   0.896   9.843  0.3797 -0.3223  0.1306
   50TCq2    O2  761   1.490   0.872   9.828 -0.6606 -0.1003 -0.0611
   50TCq2    C2  762   1.276   0.852   9.730  1.1616 -0.0426  0.6389
   50TCq2    C3  763   1.330   0.835   9.607  0.1275 -0.1327  0.4110
   50TCq2    C4  764   1.260   0.764   9.517 -0.4482  0.3725 -0.2953
   50TCq2    C5  765   1.139   0.718   9.548 -0.3967 -0.4259 -0.2467
   50TCq2    C6  766   1.090   0.721   9.674 -0.6256  0.4108  0.1586
   50TCq2    C7  767   1.152   0.810   9.767  0.1097 -0.6163  0.2238
   50TCq2    C8  768   0.948   0.697   9.684 -0.1909  0.3569  0.0081
   50TCq2    O4  769   0.891   0.684   9.576 -0.4428 -0.4216 -0.1094
   50TCq2    C9  770   1.309   0.773   9.381  0.3257  0.5919 -1.0372
   50TCq2    O5  771   1.225   0.739   9.291 -0.4333 -0.1679  0.5877
   50TCq2    O6  772   1.428   0.794   9.354 -0.5511 -0.1052 -0.1386
   50TCq2    H2  773   1.428   0.870   9.575 -0.4397  0.8160 -0.2600
   50TCq2    H3  774   1.082   0.673   9.467  0.5300 -1.4622 -0.3208
   50TCq2    H4  775   1.105   0.822   9.864 -0.0590  0.4574  0.0072
   51MPD2     C  776   0.412   0.084   0.841 -0.1011 -0.1128 -0.7780
   51MPD2    C1  777   0.492   4.694   0.854 -0.0712  0.1523  0.5664
   51MPD2    C2  778   0.542   4.672   0.983  0.2484 -0.1450  0.0190
   51MPD2    C3  779   0.514   0.036   1.091 -0.3489 -0.2890  0.0292
   51MPD2    C4  780   0.442   0.151   1.071 -0.4340 -0.8039  0.1524
   51MPD2    C5  781   0.388   0.167   0.948 -0.3427 -0.5683  0.3392
   51MPD2     H  782   0.606   4.584   0.993 -2.0954 -1.8687 -0.2241
   51MPD2    H1  783   0.405   0.203   1.159  2.7918 -0.8390  1.5690
   51MPD2    H2  784   0.359   0.093   0.747 -0.1455 -1.8001 -0.9196
   51MPD2    H3  785   0.319   0.249   0.931  1.1835  0.7241  0.3394
   51MPD2     N  786   0.568   0.007   1.216 -0.4007  0.0593 -0.4575
   51MPD2    H5  787   0.541   0.065   1.295  0.7157 -0.7557  0.5162
   51MPD2    N1  788   0.524   4.608   0.744  0.0024 -0.0136  0.2196
   51MPD2    H7  789   0.585   4.532   0.770  1.9693  1.2643 -0.6544
   52TCq2    C1  790   0.655   4.622   1.246  0.2148 -0.2196  0.4650
   52TCq2    O2  791   0.719   4.545   1.173 -0.6192  0.4880 -0.4371
   52TCq2    C2  792   0.680   4.603   1.387 -0.0513 -0.0842  0.2063
   52TCq2    C3  793   0.585   4.630   1.486 -0.3124  0.2929 -0.2201
   52TCq2    C4  794   0.628   4.615   1.610  0.0000 -0.9209 -0.0141
   52TCq2    C5  795   0.756   4.579   1.636  0.1756  0.1903 -0.1136
   52TCq2    C6  796   0.850   4.571   1.535  1.2914  0.4862  0.1364
   52TCq2    C7  797   0.811   4.564   1.407  0.4434 -0.4170 -0.0127
   52TCq2    C8  798   0.991   4.536   1.563  0.5723 -0.2045 -0.0218
   52TCq2    O4  799   1.065   4.554   1.467 -0.0647 -0.0340 -0.0570
   52TCq2    C9  800   0.537   4.647   1.719 -0.3947  0.2652 -0.4329
   52TCq2    O5  801   0.437   4.715   1.688  0.3350 -0.8261  0.3973
   52TCq2    O6  802   0.578   4.620   1.836 -0.3324 -0.0259  0.0419
   52TCq2    H2  803   0.482   4.656   1.464 -0.1133  1.3763  0.1395
   52TCq2    H3  804   0.784   4.598   1.739  0.4405 -0.8785  0.0110
   52TCq2    H4  805   0.882   4.556   1.326 -0.8384  1.5438 -1.3239
   53TMC2    C1  806   1.623   3.741  11.757 -0.3595 -1.2767  0.1936
   53TMC2    C2  807   1.755   3.713  11.773 -0.2340 -0.1591  0.0268
   53TMC2    C3  808   1.794   3.703  11.900  0.3416  1.1834 -0.0970
   53TMC2    C4  809   1.535   3.745  11.857 -0.4702 -0.4829  0.2713
   53TMC2    C5  810   1.579   3.730  11.983 -0.6402  0.7807  0.5045
   53TMC2    C6  811   1.712   3.700  12.008  0.5008  0.2511  0.2339
   53TMC2     C  812   1.579   3.730  11.623  0.0312 -0.5676 -0.1442
   53TMC2     O  813   1.661   3.709  11.534 -0.0149  0.1075  0.1733
   53TMC2     H  814   1.829   3.701  11.695 -0.3387 -1.0414  0.0674
   53TMC2    H1  815   1.431   3.768  11.840 -0.4229 -1.2207 -1.0780
   53TMC2    H2  816   1.746   3.677  12.108  0.2543  4.4413  1.2938
   53TMC2    C7  817   1.477   3.700  12.083 -0.4032 -0.1966 -0.7402
   53TMC2    C8  818   1.933   3.729  11.917  0.1617  0.3230 -0.2017
   53TMC2    O1  819   1.366   3.678  12.042 -0.2249  0.0313 -0.4191
   53TMC2    O2  820   1.991   3.824  11.866 -0.4969  0.5652  0.1225
   53TMC2    O5  821   1.967   3.673  12.040  0.3871  0.5573 -0.5377
   53TMC2    H5  822   1.918   3.590  12.060 -1.5727  1.6392 -0.8254
   54MPD2     C  823   1.438   3.672  11.362  0.7118  0.8672 -0.2575
   54MPD2    C1  824   1.382   3.741  11.469  0.3819 -0.5605  0.5477
   54MPD2    C2  825   1.248   3.777  11.451 -0.3998  0.3143 -0.0067
   54MPD2    C3  826   1.194   3.774  11.323  0.5648  0.2181  0.1446
   54MPD2    C4  827   1.265   3.723  11.214  0.2343 -0.3697 -0.5451
   54MPD2    C5  828   1.388   3.677  11.235  0.5816 -0.4235  0.1086
   54MPD2     H  829   1.194   3.818  11.536 -4.2154  0.9358 -2.7378
   54MPD2    H1  830   1.217   3.728  11.117  0.8936 -0.4442 -0.8755
   54MPD2    H2  831   1.528   3.613  11.377 -0.6792 -1.3463 -0.6188
   54MPD2    H3  832   1.436   3.630  11.150 -0.0232  1.4447 -1.2512
   54MPD2     N  833   1.062   3.822  11.303  0.6358  0.1265 -0.2172
   54MPD2    H5  834   1.022   3.813  11.210 -0.3006  1.8740  0.0051
   54MPD2    N1  835   1.448   3.744  11.596  0.4472  0.1625 -0.2511
   54MPD2    H7  836   1.390   3.788  11.666  1.1584  2.4183 -1.0989
   55MPD2     C  837   2.470   1.185  17.344 -0.0487  0.0751  0.3170
   55MPD2    C1  838   2.416   1.068  17.389 -0.0204  0.0628  0.6616
   55MPD2    C2  839   2.290   1.070  17.449 -0.0714 -0.2792  0.3389
   55MPD2    C3  840   2.222   1.188  17.471  0.1596  0.4261 -0.7357
   55MPD2    C4  841   2.283   1.305  17.435 -0.3091  0.2240 -0.1247
   55MPD2    C5  842   2.410   1.306  17.380  0.0097  0.1158  0.4141
   55MPD2     H  843   2.246   0.979  17.486 -0.8287 -0.6843 -1.5643
   55MPD2    H1  844   2.247   1.407  17.445  0.3774  0.3377  1.3373
   55MPD2    H2  845   2.567   1.188  17.296 -0.5621  0.8721 -0.6595
   55MPD2    H3  846   2.461   1.398  17.355 -1.0775  0.5399 -0.2710
   55MPD2     N  847   2.097   1.176  17.540 -0.0387  0.0948 -0.6528
   55MPD2    H5  848   2.063   1.082  17.560  1.1314  0.0542  1.1658
   55MPD2    N1  849   2.499   0.953  17.362 -0.0580 -0.2273  0.1692
   55MPD2    H7  850   2.595   0.973  17.336  0.0722  0.2877  1.0833
   56TCq2    C1  851   2.464   0.832  17.408 -0.1854 -0.2273 -0.3637
   56TCq2    O2  852   2.354   0.790  17.444 -0.1585 -0.3407 -0.2316
   56TCq2    C2  853   2.570   0.732  17.404 -0.4410 -0.2487  0.7570
   56TCq2    C3  854   2.651   0.722  17.294  0.4237  1.0869 -0.2194
   56TCq2    C4  855   2.708   0.598  17.269  0.0764  0.0360 -0.6101
   56TCq2    C5  856   2.714   0.498  17.362  0.3536  0.6428 -0.3654
   56TCq2    C6  857   2.628   0.509  17.472  0.4253  0.2833  0.3259
   56TCq2    C7  858   2.547   0.624  17.486  0.3415  0.4627 -0.3648
   56TCq2    C8  859   2.589   0.384  17.537  0.4495 -0.2265 -0.1680
   56TCq2    O4  860   2.648   0.285  17.500  0.0574 -0.1256 -0.2647
   56TCq2    C9  861   2.772   0.574  17.145  0.1060 -0.2908 -0.5722
   56TCq2    O5  862   2.842   0.467  17.137 -0.3277 -0.1676 -0.4470
   56TCq2    O6  863   2.733   0.652  17.049  0.2874  0.5218  0.1343
   56TCq2    H2  864   2.667   0.808  17.231 -2.2425  0.5469 -1.6239
   56TCq2    H3  865   2.754   0.401  17.333  1.6753  0.7728  1.0633
   56TCq2    H4  866   2.500   0.636  17.584  2.1043  3.6931  0.1038
   57TMC2    C1  867   0.718   2.028  13.336  0.1025  0.3056  0.4163
   57TMC2    C2  868   0.686   1.964  13.221 -0.2715 -0.2842 -0.1905
   57TMC2    C3  869   0.786   1.896  13.153  0.1774 -0.4715 -0.5034
   57TMC2    C4  870   0.852   2.035  13.381 -0.0878  0.0604  0.0295
   57TMC2    C5  871   0.947   1.965  13.310 -0.1413  0.1459  0.1397
   57TMC2    C6  872   0.914   1.894  13.194 -0.2072 -0.3052  0.0323
   57TMC2     C  873   0.612   2.101  13.402  0.0417 -0.5315 -0.5478
   57TMC2     O  874   0.509   2.130  13.344 -0.2792 -0.1286 -0.2400
   57TMC2     H  875   0.583   1.964  13.188  0.3185 -0.7033 -1.9845
   57TMC2    H1  876   0.878   2.085  13.473  2.8832 -0.1456 -0.6933
   57TMC2    H2  877   0.996   1.843  13.146 -0.8143 -0.5857 -0.7029
   57TMC2    C7  878   1.079   2.023  13.319  0.2117  0.9454  0.5189
   57TMC2    C8  879   0.759   1.808  13.043  0.0579  0.2455  0.0123
   57TMC2    O1  880   1.071   2.140  13.362  0.0763  0.0354 -0.8576
   57TMC2    O2  881   0.835   1.791  12.950  0.1776 -0.0533  0.0298
   57TMC2    O5  882   0.680   1.714  13.089 -0.7100 -0.6170 -0.3290
   57TMC2    H5  883   0.653   1.727  13.183  0.1060 -1.6845  0.0566
   58MPD2     C  884   0.474   2.381  13.808  0.7520 -0.0559  0.1052
   58MPD2    C1  885   0.428   2.386  13.672  0.1530  0.0193 -0.2424
   58MPD2    C2  886   0.489   2.304  13.582 -0.0675  0.5127 -0.1027
   58MPD2    C3  887   0.586   2.213  13.616  0.5782  0.0725 -0.3759
   58MPD2    C4  888   0.631   2.207  13.752  0.8927  0.0359 -0.2581
   58MPD2    C5  889   0.579   2.293  13.839 -0.0225  0.6904  0.8750
   58MPD2     H  890   0.464   2.307  13.476 -0.7884 -2.8028 -0.0409
   58MPD2    H1  891   0.708   2.138  13.782  1.4261  0.8229  0.1918
   58MPD2    H2  892   0.431   2.438  13.888  0.9574  1.3810 -0.8089
   58MPD2    H3  893   0.616   2.288  13.941 -2.2572 -1.6197  1.5719
   58MPD2     N  894   0.646   2.123  13.533  0.5908 -0.0194 -0.5357
   58MPD2    H5  895   0.729   2.082  13.575  0.3584 -0.3355 -0.3914
   58MPD2    N1  896   0.346   2.489  13.615 -0.0016  0.2455  0.4201
   58MPD2    H7  897   0.315   2.476  13.520  1.0856  0.2487  0.0611
   59MPD2     C  898   3.678   2.122  13.384 -0.1644 -0.3446 -0.6522
   59MPD2    C1  899   3.759   2.090  13.278 -1.3115  0.0747 -0.1148
   59MPD2    C2  900   3.870   2.167  13.258  0.5833 -0.1610  0.1607
   59MPD2    C3  901   3.915   2.266  13.346 -0.4073 -0.0165  0.2938
   59MPD2    C4  902   3.840   2.279  13.461  0.1735 -0.0178 -0.6922
   59MPD2    C5  903   3.719   2.213  13.479 -0.3289 -0.6061  0.1418
   59MPD2     H  904   3.935   2.134  13.178 -0.8796 -1.6961 -0.3950
   59MPD2    H1  905   3.871   2.359  13.528  0.2896  1.2086 -2.2330
   59MPD2    H2  906   3.590   2.065  13.413 -0.0110  0.1955  0.8386
   59MPD2    H3  907   3.664   2.239  13.569  0.3971 -1.0315  0.7081
   59MPD2     N  908   4.028   2.353  13.330  0.7949 -0.0710 -0.5593
   59MPD2    H5  909   4.058   2.413  13.406 -0.5729  0.2474 -0.2669
   59MPD2    N1  910   3.721   1.999  13.181 -0.0593 -0.2120 -0.1274
   59MPD2    H7  911   3.784   2.000  13.102 -0.5916 -1.6906 -0.5654
   60TCq2    C1  912   3.591   1.969  13.161  0.2769  0.0112 -0.0902
   60TCq2    O2  913   3.493   2.004  13.222  0.0945 -0.0440 -0.1512
   60TCq2    C2  914   3.571   1.923  13.024 -0.3447 -0.1629  0.0922
   60TCq2    C3  915   3.675   1.879  12.950  0.3857 -0.3831 -0.0869
   60TCq2    C4  916   3.669   1.886  12.815 -0.2075 -0.1771 -0.1888
   60TCq2    C5  917   3.553   1.925  12.752  1.0564  0.2103 -0.7002
   60TCq2    C6  918   3.438   1.941  12.835  0.0643 -0.7931 -0.4830
   60TCq2    C7  919   3.452   1.951  12.970  0.4362  0.2325 -0.4123
   60TCq2    C8  920   3.313   1.988  12.775  0.3544 -0.1129  0.2921
   60TCq2    O4  921   3.214   1.941  12.819  0.1924  0.3997  0.3671
   60TCq2    C9  922   3.786   1.869  12.734  0.2845  0.1568 -0.2379
   60TCq2    O5  923   3.896   1.867  12.791 -0.0256 -0.0350  0.5752
   60TCq2    O6  924   3.764   1.835  12.616  0.0879  0.3227  0.1381
   60TCq2    H2  925   3.770   1.856  12.995  0.0530 -2.3683 -0.3960
   60TCq2    H3  926   3.553   1.921  12.643 -2.7786  0.0943 -0.6725
   60TCq2    H4  927   3.363   1.979  13.026  1.2495 -0.6218  1.3166
   61MPD2     C  928   3.173   3.991  14.265  0.0721 -0.2415  0.2328
   61MPD2    C1  929   3.127   3.985  14.393 -0.1121 -0.0856 -0.1474
   61MPD2    C2  930   3.003   4.027  14.428 -0.0012 -0.0549 -0.0977
   61MPD2    C3  931   2.925   4.094  14.335 -0.1419 -1.0140 -0.1885
   61MPD2    C4  932   2.979   4.106  14.207  0.1157  0.3098  0.0282
   61MPD2    C5  933   3.096   4.051  14.166 -0.1665 -0.1175 -0.2910
   61MPD2     H  934   2.969   4.026  14.531  3.2714 -1.8915  0.9641
   61MPD2    H1  935   2.930   4.151  14.121 -0.9083 -0.1732  0.3630
   61MPD2    H2  936   3.274   3.958  14.242  0.5082  0.0172  1.7951
   61MPD2    H3  937   3.126   4.047  14.062 -0.6930 -2.0598 -0.3631
   61MPD2     N  938   2.811   4.165  14.369 -0.2638 -0.2206  0.1192
   61MPD2    H5  939   2.785   4.245  14.312  0.6756 -0.9612 -1.3413
   61MPD2    N1  940   3.197   3.936  14.504  0.2634 -0.1486  0.0026
   61MPD2    H7  941   3.138   3.924  14.586 -0.5029 -1.6500 -0.7727
   62TCq2    C1  942   3.336   3.921  14.518 -0.9860  0.5153  0.7062
   62TCq2    O2  943   3.421   3.894  14.434  0.1337 -0.8376 -0.0900
   62TCq2    C2  944   3.370   3.904  14.655 -0.1127  0.0222 -0.4684
   62TCq2    C3  945   3.476   3.820  14.683  0.6082  0.1478  0.0412
   62TCq2    C4  946   3.516   3.824  14.812  0.2129  0.0400  0.7034
   62TCq2    C5  947   3.457   3.900  14.910  0.1383  0.1006 -0.3335
   62TCq2    C6  948   3.347   3.968  14.876 -0.4463  0.6544  0.6415
   62TCq2    C7  949   3.302   3.971  14.753  0.1034  0.0978 -0.2839
   62TCq2    C8  950   3.273   4.036  14.981 -0.8915 -0.1386 -0.3139
   62TCq2    O4  951   3.339   4.078  15.076 -0.5197  0.3097  0.4802
   62TCq2    C9  952   3.624   3.739  14.850  0.1147 -0.0539  0.3420
   62TCq2    O5  953   3.706   3.718  14.758 -0.3623 -0.2019  0.4830
   62TCq2    O6  954   3.666   3.757  14.972  0.3831  0.6879 -0.6475
   62TCq2    H2  955   3.513   3.751  14.607 -1.6124 -0.3424 -0.6024
   62TCq2    H3  956   3.493   3.889  15.011 -0.2464  0.7067 -0.1306
   62TCq2    H4  957   3.228   4.049  14.737  0.7390  1.2809  2.6648
   63TMC2    C1  958   2.932   3.778  10.881 -0.4843 -0.6260  0.6060
   63TMC2    C2  959   2.968   3.819  11.008 -0.5602  0.3113 -0.3355
   63TMC2    C3  960   3.102   3.830  11.033 -0.2946  0.3409 -0.8811
   63TMC2    C4  961   3.025   3.757  10.784 -0.1115  0.1559  0.0542
   63TMC2    C5  962   3.159   3.770  10.816 -0.0306 -0.3442  0.2528
   63TMC2    C6  963   3.199   3.809  10.935  0.7559  0.1015  0.2390
   63TMC2     C  964   2.790   3.753  10.859 -0.7344 -0.2960  0.9310
   63TMC2     O  965   2.711   3.780  10.945  0.1976 -0.0564  0.0945
   63TMC2     H  966   2.894   3.849  11.082  0.4108  0.2911  0.6483
   63TMC2    H1  967   2.995   3.738  10.682  0.9324 -3.3441  0.3791
   63TMC2    H2  968   3.303   3.832  10.959  1.4870 -1.9842 -0.9448
   63TMC2    C7  969   3.246   3.783  10.699  0.0893 -0.3266  0.3690
   63TMC2    C8  970   3.152   3.869  11.163  0.0575 -0.0863 -0.4732
   63TMC2    O1  971   3.200   3.758  10.588  0.1099 -0.4384 -1.0131
   63TMC2    O2  972   3.265   3.917  11.179 -0.2729 -0.0063  0.4469
   63TMC2    O5  973   3.054   3.865  11.254 -0.7158 -0.7533 -0.0525
   63TMC2    H5  974   2.985   3.801  11.226 -2.1573  0.7008  0.2221
   64MPD2     C  975   2.401   3.516  10.636  0.3070 -0.2386  0.1125
   64MPD2    C1  976   2.526   3.470  10.592  0.6527  0.9043 -0.6096
   64MPD2    C2  977   2.641   3.535  10.629  0.0634 -0.5020 -0.2762
   64MPD2    C3  978   2.640   3.641  10.717 -0.0877 -0.1213 -0.2635
   64MPD2    C4  979   2.521   3.695  10.761  0.3391 -0.1572  0.2105
   64MPD2    C5  980   2.410   3.633  10.711  0.9989  0.5875  0.3037
   64MPD2     H  981   2.738   3.505  10.592 -0.3331 -1.1485 -0.7818
   64MPD2    H1  982   2.507   3.781  10.826  1.4810  1.4986 -1.7310
   64MPD2    H2  983   2.309   3.462  10.617 -0.1292  0.7708 -0.6247
   64MPD2    H3  984   2.317   3.678  10.746 -1.0819 -3.5270  0.0421
   64MPD2     N  985   2.768   3.686  10.744 -0.1465  0.3027 -0.1822
   64MPD2    H5  986   2.846   3.644  10.693 -1.2319 -2.2171  0.2627
   64MPD2    N1  987   2.544   3.350  10.514  0.1018  0.6122 -0.1078
   64MPD2    H7  988   2.628   3.337  10.459 -1.5345 -0.4170 -2.3722
   65MPD2     C  989   3.565   3.106  16.204  0.7101  0.3858  0.3731
   65MPD2    C1  990   3.556   3.144  16.071 -0.1495 -0.2582 -0.0708
   65MPD2    C2  991   3.615   3.060  15.972  0.3359  0.0897  0.2470
   65MPD2    C3  992   3.665   2.939  16.006 -0.0338 -0.8126 -0.5141
   65MPD2    C4  993   3.651   2.894  16.131 -0.7717 -0.5256  0.7935
   65MPD2    C5  994   3.612   2.976  16.231 -0.1455 -0.1795  0.1296
   65MPD2     H  995   3.601   3.096  15.871  0.4857 -0.0853  0.1645
   65MPD2    H1  996   3.690   2.799  16.166 -0.2895 -0.7266 -0.2905
   65MPD2    H2  997   3.532   3.167  16.286 -0.1327  2.0628 -1.2238
   65MPD2    H3  998   3.587   2.933  16.327  1.6685 -0.6828  0.3806
   65MPD2     N  999   3.718   2.852  15.903 -0.8669 -0.6078  0.1249
   65MPD2    H5 1000   3.732   2.754  15.926 -0.1870 -0.5084  0.1417
   65MPD2    N1 1001   3.500   3.272  16.049 -0.2959 -0.7091 -0.0413
   65MPD2    H7 1002   3.464   3.322  16.129 -0.9479 -0.6389 -0.3704
   66TCq2    C1 1003   3.476   3.321  15.918  0.3403  0.3678  0.2877
   66TCq2    O2 1004   3.534   3.296  15.814  0.4136 -0.1265  0.0406
   66TCq2    C2 1005   3.388   3.442  15.924  0.2705  0.2699  0.0691
   66TCq2    C3 1006   3.305   3.458  16.036  1.1478 -0.0906 -0.3241
   66TCq2    C4 1007   3.224   3.567  16.045 -0.3038  0.5065 -0.0868
   66TCq2    C5 1008   3.222   3.655  15.935  0.1204  0.0372  0.0578
   66TCq2    C6 1009   3.301   3.631  15.825 -0.0860 -0.0485 -0.2677
   66TCq2    C7 1010   3.386   3.531  15.822 -0.1925  0.3772 -0.2326
   66TCq2    C8 1011   3.366   3.744  15.771  0.2752  0.6247  0.8133
   66TCq2    O4 1012   3.334   3.770  15.653  0.5496  0.4001  0.3224
   66TCq2    C9 1013   3.124   3.573  16.150  0.1590  0.2842  0.1215
   66TCq2    O5 1014   3.096   3.466  16.212  0.8279  0.4020  0.1157
   66TCq2    O6 1015   3.072   3.684  16.168 -0.2531 -0.3732  0.5011
   66TCq2    H2 1016   3.306   3.374  16.105  2.3898  0.8339  0.7856
   66TCq2    H3 1017   3.157   3.742  15.937  0.2495  0.0823  2.3966
   66TCq2    H4 1018   3.454   3.522  15.738 -3.6569  0.3656 -3.0324
   67MPD2     C 1019   3.983   2.755  14.019 -0.3709  0.2625 -0.5096
   67MPD2    C1 1020   3.951   2.826  14.128 -0.2331 -0.9363 -0.6141
   67MPD2    C2 1021   3.811   2.858  14.156 -0.1383 -0.1856 -1.3788
   67MPD2    C3 1022   3.702   2.807  14.083  0.3065 -0.4708 -0.7717
   67MPD2    C4 1023   3.749   2.733  13.975  0.2370 -0.1190 -0.1454
   67MPD2    C5 1024   3.879   2.715  13.941  0.0994 -1.3798 -0.2664
   67MPD2     H 1025   3.792   2.926  14.237 -0.9938 -0.9611 -0.9255
   67MPD2    H1 1026   3.673   2.689  13.910 -2.2824  3.0976  0.6168
   67MPD2    H2 1027   4.088   2.739  13.999 -0.3234  0.9760 -0.8475
   67MPD2    H3 1028   3.898   2.650  13.857  0.9374 -1.3283 -0.1099
   67MPD2     N 1029   3.567   2.841  14.085  0.1691  0.6797 -0.5387
   67MPD2    H5 1030   3.509   2.795  14.016  0.1224 -1.5294  0.9691
   67MPD2    N1 1031   4.040   2.894  14.209  0.2706  0.1418  0.0080
   67MPD2    H7 1032   3.992   2.963  14.267 -3.4013 -2.8202  0.5046
   68TCq2    C1 1033   4.176   2.873  14.228 -0.2353  0.5602 -0.3313
   68TCq2    O2 1034   4.238   2.777  14.192 -0.2311 -0.2966 -0.5656
   68TCq2    C2 1035   4.243   2.969  14.317 -0.2839  0.4750  0.8083
   68TCq2    C3 1036   4.185   3.092  14.339 -0.5518  0.8210 -0.2488
   68TCq2    C4 1037   4.230   3.158  14.454 -0.2538  0.4874  0.8067
   68TCq2    C5 1038   4.331   3.110  14.528  0.0041  0.0551  0.2592
   68TCq2    C6 1039   4.384   2.985  14.510  0.3030  0.0468 -0.1690
   68TCq2    C7 1040   4.338   2.918  14.398 -0.1248 -1.2216 -0.9226
   68TCq2    C8 1041   4.461   2.909  14.609  0.0341  0.2804 -0.0403
   68TCq2    O4 1042   4.523   2.807  14.568  0.2110  0.6015  0.1340
   68TCq2    C9 1043   4.162   3.272  14.497 -0.1480  0.4818  0.5506
   68TCq2    O5 1044   4.188   3.318  14.613 -0.2161 -0.1878 -0.2701
   68TCq2    O6 1045   4.056   3.305  14.431 -0.3169 -0.5636 -0.8163
   68TCq2    H2 1046   4.113   3.139  14.272 -2.1106  0.3255  1.0613
   68TCq2    H3 1047   4.373   3.164  14.612  0.2218  2.8597 -1.6598
   68TCq2    H4 1048   4.382   2.822  14.373  2.4123  0.0714 -1.3668
   69TMC2    C1 1049   1.252   4.030  12.720  0.2602 -0.0191 -0.0730
   69TMC2    C2 1050   1.154   4.122  12.718  0.2466  0.0985  0.4597
   69TMC2    C3 1051   1.151   4.213  12.615  0.8709 -0.4682  0.8090
   69TMC2    C4 1052   1.361   4.032  12.632 -0.6303  0.0820  0.4236
   69TMC2    C5 1053   1.345   4.112  12.523  0.2449  0.1620  0.4034
   69TMC2    C6 1054   1.231   4.189  12.507  0.2401  0.1603  0.2820
   69TMC2     C 1055   1.253   3.920  12.824  0.4547 -0.1150 -0.2708
   69TMC2     O 1056   1.147   3.886  12.877 -0.9122 -0.3434 -0.1511
   69TMC2     H 1057   1.078   4.111  12.795  1.5514 -1.6075  1.5004
   69TMC2    H1 1058   1.427   3.947  12.639 -1.3699 -0.6348 -1.3150
   69TMC2    H2 1059   1.220   4.243  12.414  2.3768  1.1673  0.6057
   69TMC2    C7 1060   1.423   4.078  12.410 -0.0491  0.2260  0.5552
   69TMC2    C8 1061   1.022   4.262  12.572  0.2510  0.1091  0.1017
   69TMC2    O1 1062   1.536   4.046  12.441  0.2258  0.4926  0.0578
   69TMC2    O2 1063   0.981   4.248  12.459  0.2823 -0.3956 -0.2471
   69TMC2    O5 1064   0.951   4.285  12.683 -0.1201  0.6286  0.5642
   69TMC2    H5 1065   1.007   4.297  12.762 -1.1086  2.6271  0.9497
   70MPD2     C 1066   1.544   3.726  12.929  0.1529  0.1098 -0.7083
   70MPD2    C1 1067   1.411   3.764  12.927  0.2000 -0.0667  0.0974
   70MPD2    C2 1068   1.321   3.677  12.989 -0.5567 -0.0930 -0.6569
   70MPD2    C3 1069   1.361   3.563  13.053 -0.1870  0.0128  0.4299
   70MPD2    C4 1070   1.497   3.527  13.056  0.4411 -0.5322 -0.4248
   70MPD2    C5 1071   1.585   3.611  12.995  0.0053 -0.2080 -0.2252
   70MPD2     H 1072   1.224   3.716  13.018 -0.6531  2.0778 -3.8082
   70MPD2    H1 1073   1.539   3.445  13.114  0.5032  0.9778  1.6288
   70MPD2    H2 1074   1.622   3.784  12.882  1.7827 -1.6416 -0.1826
   70MPD2    H3 1075   1.691   3.596  13.015  0.5810  1.1943 -2.1490
   70MPD2     N 1076   1.283   3.471  13.124  0.1796  0.1564  0.1856
   70MPD2    H5 1077   1.332   3.395  13.169  0.0537 -0.4430 -0.7040
   70MPD2    N1 1078   1.385   3.885  12.860 -0.5584  1.0569  0.3361
   70MPD2    H7 1079   1.462   3.936  12.819  0.2784  0.5763  1.3008
   71TMC2    C1 1080   3.575   0.017   1.708 -0.0457 -0.0771  0.1248
   71TMC2    C2 1081   3.699   0.072   1.744  0.8644 -0.3798 -0.4503
   71TMC2    C3 1082   3.689   0.200   1.794  0.3132 -0.7587 -0.1655
   71TMC2    C4 1083   3.454   0.079   1.725 -0.3803  0.5767  0.0412
   71TMC2    C5 1084   3.460   0.205   1.782  0.1348  0.0995 -0.8154
   71TMC2    C6 1085   3.575   0.268   1.818 -0.0424 -0.0464  0.0473
   71TMC2     C 1086   3.587   4.610   1.637  0.3489 -0.8851 -0.5668
   71TMC2     O 1087   3.688   4.593   1.576 -0.4713 -0.3283 -0.3254
   71TMC2     H 1088   3.787   0.008   1.732 -0.0232 -1.7738  0.4268
   71TMC2    H1 1089   3.361   0.026   1.710  1.5568 -3.0878  1.0166
   71TMC2    H2 1090   3.574   0.369   1.857  1.0209  0.4838 -1.3178
   71TMC2    C7 1091   3.341   0.290   1.789  0.1760 -0.1331 -0.1039
   71TMC2    C8 1092   3.812   0.261   1.831  0.3652  0.1325 -0.6499
   71TMC2    O1 1093   3.346   0.377   1.879 -0.7032 -0.2183 -0.2901
   71TMC2    O2 1094   3.914   0.216   1.788 -0.1207 -0.4836  0.2667
   71TMC2    O5 1095   3.783   0.267   1.965 -0.1731  0.4800  0.4293
   71TMC2    H5 1096   3.699   0.309   1.994  0.1914  0.0594  2.1270
   72MPD2     C 1097   3.309   4.271   1.391  0.3287 -0.8815 -0.1045
   72MPD2    C1 1098   3.419   4.341   1.349  0.4387  0.6370 -0.1609
   72MPD2    C2 1099   3.473   4.426   1.431 -0.4123 -0.3705  0.4279
   72MPD2    C3 1100   3.419   4.441   1.558 -0.0883 -0.0227 -0.0065
   72MPD2    C4 1101   3.306   4.379   1.597 -0.4820 -0.3014 -0.1174
   72MPD2    C5 1102   3.251   4.290   1.509 -0.5770  1.1813  0.2888
   72MPD2     H 1103   3.551   4.491   1.392 -2.7461  3.2003  1.7089
   72MPD2    H1 1104   3.279   4.376   1.701  1.1115 -1.9959  0.2415
   72MPD2    H2 1105   3.256   4.196   1.333 -1.9994  1.4074 -0.9563
   72MPD2    H3 1106   3.170   4.230   1.549  0.3363 -1.3057 -1.6484
   72MPD2     N 1107   3.466   4.543   1.649  0.3888 -0.1613  0.8460
   72MPD2    H5 1108   3.410   4.569   1.730 -0.4539  1.7168 -0.3272
   72MPD2    N1 1109   3.471   4.330   1.223  0.0628 -0.2044  0.2325
   72MPD2    H7 1110   3.541   4.401   1.205 -0.0244 -1.3767 -4.5952
   73TMC2    C1 1111   3.213   1.287  14.005  0.2827  1.1161  0.3413
   73TMC2    C2 1112   3.174   1.363  14.116 -0.8890 -0.5230 -0.1541
   73TMC2    C3 1113   3.248   1.354  14.232  0.1978 -0.3230 -0.7859
   73TMC2    C4 1114   3.341   1.231  14.016 -0.3387  0.0053 -0.4842
   73TMC2    C5 1115   3.424   1.258  14.122 -0.2470  0.3141  0.1795
   73TMC2    C6 1116   3.382   1.309  14.240  0.2148 -0.2760 -0.2150
   73TMC2     C 1117   3.207   1.355  13.880 -0.5114  0.0476  0.3365
   73TMC2     O 1118   3.314   1.384  13.826 -0.5464  0.1507  0.6760
   73TMC2     H 1119   3.087   1.427  14.112 -0.8441 -0.3724  1.2605
   73TMC2    H1 1120   3.383   1.181  13.929 -2.1345 -2.7996  0.2580
   73TMC2    H2 1121   3.445   1.328  14.327  0.9582 -0.6514 -0.6744
   73TMC2    C7 1122   3.559   1.299  14.074  0.1225 -0.6150 -0.4568
   73TMC2    C8 1123   3.215   1.456  14.334  0.0674  0.3564 -0.3861
   73TMC2    O1 1124   3.656   1.278  14.144 -0.1678  0.1316  0.7721
   73TMC2    O2 1125   3.303   1.520  14.396 -0.0217 -0.1568 -0.2794
   73TMC2    O5 1126   3.079   1.458  14.356 -0.0040  0.1078 -0.6650
   73TMC2    H5 1127   3.036   1.378  14.321 -1.5717 -0.2699  2.1173
   74MPD2     C 1128   2.993   1.592  13.491  0.5895 -0.6557  0.1377
   74MPD2    C1 1129   3.119   1.593  13.540  0.3774  0.3674 -1.0396
   74MPD2    C2 1130   3.142   1.526  13.662 -0.0433  0.5205  0.2906
   74MPD2    C3 1131   3.044   1.460  13.732 -0.4020 -0.1501  0.2057
   74MPD2    C4 1132   2.915   1.479  13.687  0.4577 -0.0296 -0.3056
   74MPD2    C5 1133   2.894   1.546  13.572 -0.0426  0.3099 -0.1681
   74MPD2     H 1134   3.247   1.517  13.687  0.0149 -0.5139 -0.3629
   74MPD2    H1 1135   2.830   1.433  13.736  0.9751 -0.5627  0.0839
   74MPD2    H2 1136   2.955   1.633  13.399 -0.8399 -0.7557  0.6850
   74MPD2    H3 1137   2.794   1.544  13.530  0.9719 -1.5080 -2.4801
   74MPD2     N 1138   3.078   1.379  13.839 -0.2045 -0.3839  0.1026
   74MPD2    H5 1139   3.000   1.329  13.881  0.4778 -1.2401  0.3462
   74MPD2    N1 1140   3.212   1.658  13.459 -0.5486  0.2647  0.6881
   74MPD2    H7 1141   3.196   1.675  13.361 -0.5072  1.2995  0.8658
   75TCq2    C1 1142   3.515   2.922  14.181 -0.0979  0.7043 -0.2885
   75TCq2    O2 1143   3.572   2.980  14.279  0.2096 -0.4429  0.5032
   75TCq2    C2 1144   3.379   2.944  14.178  0.7027  0.1142 -0.2979
   75TCq2    C3 1145   3.318   2.943  14.302  0.5188 -0.1982  0.0881
   75TCq2    C4 1146   3.186   2.953  14.311  0.1882  0.2522  0.1488
   75TCq2    C5 1147   3.114   2.963  14.192  0.1517 -0.1770  0.1460
   75TCq2    C6 1148   3.179   2.959  14.070 -0.5721  0.0600  0.1105
   75TCq2    C7 1149   3.311   2.940  14.052  0.0958  0.3487 -0.1558
   75TCq2    C8 1150   3.098   2.972  13.944 -0.2940 -0.2330 -0.5068
   75TCq2    O4 1151   3.172   2.979  13.845  0.1622  0.3517 -0.1220
   75TCq2    C9 1152   3.122   2.919  14.432 -0.8902 -1.1670  0.3299
   75TCq2    O5 1153   3.189   2.913  14.535  0.0718 -0.0704 -0.0975
   75TCq2    O6 1154   3.000   2.895  14.426 -0.0799  0.0497 -0.0126
   75TCq2    H2 1155   3.373   2.914  14.391 -1.0926 -0.1622  1.1115
   75TCq2    H3 1156   3.008   2.988  14.198  0.4020  0.5482  1.6532
   75TCq2    H4 1157   3.368   2.949  13.960 -1.0464 -1.2943 -1.0095
   76MPD2     C 1158   2.335   3.627  12.378 -0.2397 -0.0775  1.2943
   76MPD2    C1 1159   2.339   3.651  12.245 -0.1059 -0.4973  0.1015
   76MPD2    C2 1160   2.413   3.563  12.166 -0.1805 -0.3212  0.7425
   76MPD2    C3 1161   2.495   3.466  12.222  0.0112 -0.8507  0.0527
   76MPD2    C4 1162   2.501   3.457  12.358 -0.1248 -0.0905  0.0198
   76MPD2    C5 1163   2.414   3.533  12.435  0.2152 -0.5420  0.0716
   76MPD2     H 1164   2.402   3.577  12.059 -1.5765 -1.5823  0.7149
   76MPD2    H1 1165   2.565   3.392  12.416  0.0892 -1.5039 -1.7937
   76MPD2    H2 1166   2.271   3.682  12.445 -2.0313 -0.5006 -0.0678
   76MPD2    H3 1167   2.408   3.524  12.543 -1.7719  0.4437  0.0434
   76MPD2     N 1168   2.580   3.384  12.146  0.1318  0.6376 -0.6049
   76MPD2    H5 1169   2.638   3.315  12.193  0.1444  0.9175 -0.2114
   76MPD2    N1 1170   2.275   3.770  12.198 -0.0895  0.0071 -0.3639
   76MPD2    H7 1171   2.224   3.812  12.275 -0.0478 -0.1906 -0.2291
   77TCq2    C1 1172   2.587   3.392  12.012 -0.0010  0.1323 -0.3671
   77TCq2    O2 1173   2.544   3.479  11.934  0.2999  0.6157 -0.4544
   77TCq2    C2 1174   2.637   3.268  11.955  0.4766  0.1451 -0.1875
   77TCq2    C3 1175   2.600   3.238  11.831 -0.2286  0.3344 -0.1995
   77TCq2    C4 1176   2.628   3.113  11.779  0.0608 -0.3014  0.4600
   77TCq2    C5 1177   2.694   3.016  11.850  0.2654  0.1933  0.0881
   77TCq2    C6 1178   2.730   3.052  11.974  0.0659 -0.2994 -0.1071
   77TCq2    C7 1179   2.699   3.174  12.028  0.6074 -0.2977  0.1654
   77TCq2    C8 1180   2.792   2.945  12.053  0.5024 -0.3382  0.1530
   77TCq2    O4 1181   2.755   2.833  12.027  0.5259 -0.1717 -0.2330
   77TCq2    C9 1182   2.567   3.070  11.654 -0.4321 -0.3516  0.4038
   77TCq2    O5 1183   2.560   2.952  11.618 -0.5070  0.4951 -0.5370
   77TCq2    O6 1184   2.519   3.162  11.581  0.3186 -0.4252  0.2742
   77TCq2    H2 1185   2.539   3.310  11.777 -0.8136 -0.2850 -0.3710
   77TCq2    H3 1186   2.702   2.917  11.808  0.2298  0.1981  0.0699
   77TCq2    H4 1187   2.728   3.187  12.132 -0.5095  0.9627  0.3195
   78MPD1     C 1188   2.820   0.040   1.792  0.2825  0.2708 -0.0525
   78MPD1    C1 1189   2.909   4.661   1.745 -0.0800  0.0975  0.8835
   78MPD1    C2 1190   3.022   4.634   1.819  0.0529  0.6073  0.2396
   78MPD1    C3 1191   3.054   4.716   1.920  0.1561  0.2845 -0.7188
   78MPD1    C4 1192   2.975   0.096   1.961 -0.1113 -0.8107  0.4483
   78MPD1    C5 1193   2.852   0.118   1.906 -0.4826 -0.2667  0.5004
   78MPD1     H 1194   3.095   4.558   1.792 -2.0349 -1.0546 -0.6916
   78MPD1    H1 1195   2.998   0.157   2.047 -0.8759 -0.2992  0.2926
   78MPD1    H2 1196   2.731   0.062   1.733  0.3184  2.6308  0.7876
   78MPD1    H3 1197   2.797   0.203   1.946  0.0606 -0.5796  1.8778
   78MPD1     N 1198   3.177   4.701   1.993  0.0610  0.3167 -0.6585
   78MPD1    H5 1199   3.176   0.034   2.079  3.3292  1.0460 -1.0554
   78MPD1    N1 1200   2.865   4.566   1.643 -0.2012 -0.2717 -0.2376
   78MPD1    H6 1201   2.940   4.531   1.583  0.1754 -1.3171  0.8314
   78MPD1    H7 1202   2.799   4.612   1.581  0.6546  2.0415  0.5563
   79TCq2    C1 1203   3.284   4.615   1.965  0.0333  0.2141 -0.4785
   79TCq2    O2 1204   3.304   4.537   1.870 -0.4406 -0.1748  0.8071
   79TCq2    C2 1205   3.408   4.633   2.040 -0.6386  0.0555 -0.0319
   79TCq2    C3 1206   3.421   0.020   2.124  0.6533  0.2335  0.3000
   79TCq2    C4 1207   3.539   0.064   2.177  0.4889 -0.1081 -0.1521
   79TCq2    C5 1208   3.658   4.715   2.138  0.8122  0.4205 -0.3043
   79TCq2    C6 1209   3.641   4.619   2.032 -0.2668 -1.0009 -0.2878
   79TCq2    C7 1210   3.520   4.569   1.993  0.5246  0.8167 -0.3870
   79TCq2    C8 1211   3.756   4.538   2.005 -0.1051 -0.0443  0.0771
   79TCq2    O4 1212   3.732   4.425   1.966 -0.0448 -0.4085  0.0860
   79TCq2    C9 1213   3.537   0.176   2.272  0.6842 -0.2839 -0.0347
   79TCq2    O5 1214   3.648   0.194   2.335 -0.2060 -0.4530 -0.2496
   79TCq2    O6 1215   3.430   0.249   2.278 -0.0995  0.1013  0.8725
   79TCq2    H2 1216   3.332   0.059   2.172  1.3582  0.1187  1.7095
   79TCq2    H3 1217   3.753   0.022   2.182  2.3682 -2.6154 -1.7560
   79TCq2    H4 1218   3.506   4.482   1.929 -0.8263 -0.4863  1.6596
   80MPD2     C 1219   1.180   3.283  12.319 -0.4030 -0.0126 -0.7030
   80MPD2    C1 1220   1.174   3.286  12.183 -0.5417 -0.2511  0.3062
   80MPD2    C2 1221   1.050   3.279  12.125 -0.2369  0.5198  0.4070
   80MPD2    C3 1222   0.938   3.259  12.201 -0.6725 -0.4744 -0.1402
   80MPD2    C4 1223   0.948   3.250  12.337  0.1236 -0.4486  0.2861
   80MPD2    C5 1224   1.071   3.266  12.396 -0.2635 -0.0279  0.3518
   80MPD2     H 1225   1.052   3.297  12.018  0.0496 -1.6793  0.0507
   80MPD2    H1 1226   0.860   3.220  12.393  0.1028 -1.5103 -0.3085
   80MPD2    H2 1227   1.272   3.295  12.375 -1.0638  0.6830  0.2361
   80MPD2    H3 1228   1.085   3.266  12.503 -0.5620 -0.3281  0.3884
   80MPD2     N 1229   0.806   3.234  12.148  1.1942 -0.2896 -0.4565
   80MPD2    H5 1230   0.733   3.204  12.211  1.5809  0.2025  0.2301
   80MPD2    N1 1231   1.280   3.301  12.096  0.0625  0.0595 -0.5523
   80MPD2    H7 1232   1.262   3.299  11.997 -1.5524 -0.1631 -0.2492
   81TCq2    C1 1233   1.402   3.343  12.136  0.3258  0.9314  0.5830
   81TCq2    O2 1234   1.444   3.367  12.250 -0.1056  0.3343  0.5723
   81TCq2    C2 1235   1.488   3.342  12.015  0.3525 -1.1494 -0.0130
   81TCq2    C3 1236   1.610   3.400  12.029 -0.4227 -0.2433  0.2456
   81TCq2    C4 1237   1.715   3.347  11.953 -0.1923 -0.6219 -0.5318
   81TCq2    C5 1238   1.690   3.269  11.851  0.2022 -0.1638  0.5713
   81TCq2    C6 1239   1.561   3.224  11.822  0.2345 -0.4187 -0.0157
   81TCq2    C7 1240   1.460   3.257  11.908  0.4196  0.0712  0.0730
   81TCq2    C8 1241   1.560   3.113  11.738  0.1483  0.4435 -0.0292
   81TCq2    O4 1242   1.613   3.119  11.629  0.2012  0.3893 -0.1007
   81TCq2    C9 1243   1.848   3.372  11.998  0.0347 -0.3114 -0.4833
   81TCq2    O5 1244   1.946   3.325  11.936  0.4754 -0.1339  0.5403
   81TCq2    O6 1245   1.863   3.450  12.094 -0.7995 -0.4591  0.0696
   81TCq2    H2 1246   1.638   3.462  12.113 -3.3696  1.1797  0.1495
   81TCq2    H3 1247   1.761   3.227  11.782 -1.4013 -0.8737 -0.6488
   81TCq2    H4 1248   1.363   3.214  11.887  1.9207 -2.8564 -0.8364
   82MPD2     C 1249   3.386   2.686  10.498 -0.3105  0.6108 -0.9475
   82MPD2    C1 1250   3.487   2.624  10.422  0.3431 -0.0571 -0.9660
   82MPD2    C2 1251   3.563   2.531  10.484  0.0554  0.8911 -0.1046
   82MPD2    C3 1252   3.538   2.487  10.614 -0.5040  0.0250 -0.7639
   82MPD2    C4 1253   3.443   2.565  10.688  1.3913 -0.2724 -0.3610
   82MPD2    C5 1254   3.357   2.652  10.628  0.0659  0.3922  0.3505
   82MPD2     H 1255   3.648   2.490  10.430  1.6022 -0.1928  3.1865
   82MPD2    H1 1256   3.454   2.557  10.796 -0.5965  0.5762 -0.0926
   82MPD2    H2 1257   3.319   2.757  10.451 -2.0535  0.9942  2.1434
   82MPD2    H3 1258   3.294   2.717  10.688 -1.4592 -2.5511  1.9318
   82MPD2     N 1259   3.623   2.405  10.694 -0.5548 -0.3640  0.5145
   82MPD2    H5 1260   3.628   2.418  10.795 -0.6507 -0.8873  0.5841
   82MPD2    N1 1261   3.505   2.679  10.290  0.0274 -0.6173  0.4629
   82MPD2    H7 1262   3.459   2.766  10.268 -0.4236 -1.3099 -1.3100
   83TCq2    C1 1263   3.720   2.324  10.643 -0.2535  0.2353 -0.1786
   83TCq2    O2 1264   3.732   2.286  10.528 -0.0612  0.0312  0.4337
   83TCq2    C2 1265   3.844   2.331  10.726 -0.4740  0.6498 -0.3529
   83TCq2    C3 1266   3.860   2.456  10.778 -0.0909  0.2499  0.2398
   83TCq2    C4 1267   3.952   2.465  10.879  0.9561 -0.2938  0.1953
   83TCq2    C5 1268   4.030   2.356  10.914  0.2862 -0.5404  0.0499
   83TCq2    C6 1269   4.017   2.237  10.847  0.4780 -0.8550  0.0424
   83TCq2    C7 1270   3.918   2.220  10.749 -0.2313  0.2173 -0.2338
   83TCq2    C8 1271   4.036   2.120  10.931  1.8048  0.2169  0.7384
   83TCq2    O4 1272   4.065   2.141  11.046 -0.4109 -0.1966 -0.4354
   83TCq2    C9 1273   3.985   2.590  10.936 -0.1814 -0.3807 -0.4584
   83TCq2    O5 1274   3.908   2.685  10.900  0.2079 -0.5276  0.1752
   83TCq2    O6 1275   4.083   2.613  11.013  0.4227  1.4334  0.3762
   83TCq2    H2 1276   3.806   2.543  10.743 -0.1222 -0.3537 -1.2293
   83TCq2    H3 1277   4.113   2.363  10.983  1.0821  0.1085 -0.9760
   83TCq2    H4 1278   3.904   2.133  10.685 -0.9774  0.8383 -0.9134
   84TCq2    C1 1279   1.111   1.160  10.384  0.3446 -0.4962  0.0665
   84TCq2    O2 1280   1.032   1.097  10.319 -0.1947  0.0060  1.0461
   84TCq2    C2 1281   1.081   1.275  10.466  0.5878  0.5427  0.3665
   84TCq2    C3 1282   1.188   1.340  10.526 -0.1341  0.2090 -0.1529
   84TCq2    C4 1283   1.173   1.406  10.643 -0.3596  0.0404  0.0302
   84TCq2    C5 1284   1.055   1.398  10.714  0.6050  0.3979 -0.3860
   84TCq2    C6 1285   0.946   1.333  10.648 -0.3211  0.5494 -0.1103
   84TCq2    C7 1286   0.958   1.275  10.523  0.3786 -0.3671 -0.1288
   84TCq2    C8 1287   0.822   1.316  10.717  0.6295 -0.4867 -0.3886
   84TCq2    O4 1288   0.766   1.205  10.698 -0.4657 -0.2368 -0.0843
   84TCq2    C9 1289   1.285   1.485  10.701  0.8176 -0.2757 -0.0951
   84TCq2    O5 1290   1.262   1.530  10.818 -0.1528 -0.1431 -0.6571
   84TCq2    O6 1291   1.372   1.530  10.618  0.1498 -0.0114 -0.6903
   84TCq2    H2 1292   1.286   1.343  10.479 -0.7418  2.9272 -1.2649
   84TCq2    H3 1293   1.061   1.453  10.807  3.7440 -1.7185  0.6663
   84TCq2    H4 1294   0.876   1.221  10.476  0.0626 -0.6254  0.7078
   85MPD2     C 1295   1.329   4.228  16.440 -0.3783 -0.0527 -0.4733
   85MPD2    C1 1296   1.323   4.221  16.298 -0.5059 -0.3161 -0.1051
   85MPD2    C2 1297   1.379   4.327  16.222  1.0960 -0.1013 -0.5660
   85MPD2    C3 1298   1.422   4.440  16.286  0.2367 -0.2700  0.3308
   85MPD2    C4 1299   1.421   4.445  16.424 -0.6863 -0.3922  0.5051
   85MPD2    C5 1300   1.382   4.339  16.495 -0.4537 -0.3336 -0.0151
   85MPD2     H 1301   1.376   4.315  16.115 -0.3638  1.9020 -0.7509
   85MPD2    H1 1302   1.463   4.529  16.479 -1.1352  0.8090 -0.9994
   85MPD2    H2 1303   1.297   4.155  16.512  1.0864 -0.3210 -0.1001
   85MPD2    H3 1304   1.385   4.348  16.603  1.0069  0.1450 -0.1011
   85MPD2     N 1305   1.462   4.548  16.199  0.3186  0.1286 -0.6979
   85MPD2    H5 1306   1.451   4.536  16.099 -0.5814  2.4581 -0.8682
   85MPD2    N1 1307   1.257   4.111  16.239 -0.4861 -0.4289  0.7344
   85MPD2    H7 1308   1.248   4.113  16.138  1.7503  0.1003  0.5563
   86TCq2    C1 1309   1.466   4.679  16.235 -0.1669  0.3398 -0.1500
   86TCq2    O2 1310   1.430   0.004  16.338 -0.2885  0.3447  0.0918
   86TCq2    C2 1311   1.478   0.043  16.115  0.2069  0.0173  0.0177
   86TCq2    C3 1312   1.399   0.152  16.096  0.1898  0.6989 -0.1482
   86TCq2    C4 1313   1.412   0.221  15.980 -0.6144  0.7159 -0.4405
   86TCq2    C5 1314   1.512   0.189  15.890  0.0954  0.0567  0.3161
   86TCq2    C6 1315   1.598   0.088  15.914 -0.0550 -0.3495 -0.2113
   86TCq2    C7 1316   1.577   0.010  16.026 -0.1318 -0.4196 -0.2462
   86TCq2    C8 1317   1.671   0.042  15.803 -0.2081 -0.9235  0.3414
   86TCq2    O4 1318   1.634   0.078  15.691 -0.1627 -0.4187 -0.2185
   86TCq2    C9 1319   1.330   0.341  15.959  0.0584  0.1356 -0.0464
   86TCq2    O5 1320   1.263   0.385  16.057  0.2551 -0.4475 -0.3886
   86TCq2    O6 1321   1.356   0.404  15.857 -0.4568 -0.3022 -0.1429
   86TCq2    H2 1322   1.321   0.176  16.167 -0.1625 -0.0971 -0.2645
   86TCq2    H3 1323   1.525   0.243  15.797  0.0578 -2.9426 -1.4395
   86TCq2    H4 1324   1.628   4.637  16.047  1.2267  0.6378  1.1255
   87MPD2     C 1325   2.387   2.769   1.568  0.3032 -0.9075 -0.2253
   87MPD2    C1 1326   2.496   2.817   1.502  0.2078  0.1312  0.6754
   87MPD2    C2 1327   2.484   2.937   1.437  0.5964  0.1366 -0.4132
   87MPD2    C3 1328   2.361   3.011   1.434 -0.4714 -0.3482  0.3417
   87MPD2    C4 1329   2.258   2.961   1.505 -0.3318  0.2492 -0.0896
   87MPD2    C5 1330   2.269   2.840   1.574 -0.2143 -0.0470  0.2549
   87MPD2     H 1331   2.573   2.974   1.388  0.4357 -0.5613 -1.2367
   87MPD2    H1 1332   2.160   3.008   1.505 -0.7216 -0.5230  2.0932
   87MPD2    H2 1333   2.409   2.687   1.636  1.3536 -1.0609 -0.7391
   87MPD2    H3 1334   2.181   2.806   1.627  0.2948 -1.3832  0.2442
   87MPD2     N 1335   2.342   3.124   1.356  0.0147 -0.0874 -0.6582
   87MPD2    H5 1336   2.249   3.164   1.347  0.7523  1.5691 -0.9801
   87MPD2    N1 1337   2.616   2.749   1.512 -0.7748 -0.1300  0.3244
   87MPD2    H7 1338   2.604   2.672   1.576  2.3269  0.0307  1.0997
   88TCq2    C1 1339   2.725   2.766   1.426 -0.4915  0.3096 -0.3346
   88TCq2    O2 1340   2.736   2.827   1.321 -0.0951 -0.0804  0.6972
   88TCq2    C2 1341   2.823   2.669   1.455  0.1053  0.1891 -1.0924
   88TCq2    C3 1342   2.852   2.649   1.590  0.0382 -0.5693 -0.3466
   88TCq2    C4 1343   2.948   2.568   1.629  0.5450  0.7558 -0.5666
   88TCq2    C5 1344   3.033   2.523   1.541  0.5846  1.2760  0.4199
   88TCq2    C6 1345   3.027   2.572   1.410 -0.1034  0.2112 -0.0823
   88TCq2    C7 1346   2.921   2.644   1.364 -0.2724  0.4290  0.3887
   88TCq2    C8 1347   3.143   2.564   1.318 -0.7685  0.1320 -0.0913
   88TCq2    O4 1348   3.128   2.592   1.198 -0.0771  0.3451 -0.0812
   88TCq2    C9 1349   2.951   2.530   1.766  0.6305 -0.2395  0.4164
   88TCq2    O5 1350   3.065   2.493   1.811  0.1285 -0.3037 -0.1811
   88TCq2    O6 1351   2.850   2.544   1.842  0.0034  0.5474  0.4364
   88TCq2    H2 1352   2.793   2.691   1.670  0.6635 -0.5707  0.1163
   88TCq2    H3 1353   3.110   2.455   1.577  0.2726  0.6117 -0.1513
   88TCq2    H4 1354   2.899   2.675   1.262  1.6833 -1.2873 -0.5676
   89MPD2     C 1355   4.666   0.665   1.744 -0.8794 -0.2177 -0.0691
   89MPD2    C1 1356   4.596   0.785   1.740  0.4073  0.0021 -0.5071
   89MPD2    C2 1357   4.659   0.899   1.703 -0.0836 -0.0038 -0.0095
   89MPD2    C3 1358   0.078   0.899   1.686  0.1670  0.1358  0.9396
   89MPD2    C4 1359   0.149   0.787   1.703 -0.1739  0.4135 -0.2757
   89MPD2    C5 1360   0.079   0.672   1.727 -0.4087  0.4886 -0.0196
   89MPD2     H 1361   4.616   0.993   1.674  1.1149  0.9317  1.2444
   89MPD2    H1 1362   0.257   0.785   1.696 -0.2608  0.8036 -1.6672
   89MPD2    H2 1363   4.614   0.574   1.769  0.6176 -0.9568  0.3410
   89MPD2    H3 1364   0.136   0.582   1.747 -0.4934  0.7651  1.4678
   89MPD2     N 1365   0.134   1.027   1.635  0.0115 -0.3152 -0.3496
   89MPD2    H5 1366   0.071   1.102   1.610 -1.1626 -0.4270  2.3192
   89MPD2    N1 1367   4.458   0.786   1.754  0.2346  0.4443  0.6950
   89MPD2    H7 1368   4.411   0.876   1.761 -1.1438  0.0219 -3.2001
   90TCq2    C1 1369   0.268   1.045   1.618  0.0687 -0.2056  0.2229
   90TCq2    O2 1370   0.359   0.990   1.675  0.4289  0.3346 -0.3414
   90TCq2    C2 1371   0.302   1.169   1.547 -0.7787  0.7559 -0.0354
   90TCq2    C3 1372   0.432   1.215   1.559 -0.2085 -0.8727 -0.2060
   90TCq2    C4 1373   0.467   1.331   1.489 -0.2233 -0.3224  0.2194
   90TCq2    C5 1374   0.376   1.389   1.398 -0.7924  0.0535  0.2361
   90TCq2    C6 1375   0.248   1.338   1.385  0.0427  0.3273  0.8941
   90TCq2    C7 1376   0.209   1.231   1.466 -0.2187  0.3215 -0.1424
   90TCq2    C8 1377   0.152   1.415   1.308 -0.4171  0.5767  0.0272
   90TCq2    O4 1378   0.034   1.401   1.343  0.6975  0.4698  0.2230
   90TCq2    C9 1379   0.598   1.381   1.519 -0.3524  0.5709  0.0122
   90TCq2    O5 1380   0.630   1.481   1.456  0.1893 -0.3337 -0.0524
   90TCq2    O6 1381   0.685   1.295   1.557 -0.2601  0.7738 -0.6605
   90TCq2    H2 1382   0.507   1.171   1.624 -0.4017 -0.7100  0.1260
   90TCq2    H3 1383   0.413   1.479   1.350 -0.0528  0.1863  1.0548
   90TCq2    H4 1384   0.126   1.174   1.426  0.9718 -0.6818 -1.1835
   91TMC2    C1 1385   1.257   0.826  16.487  0.1302 -0.1689  0.0872
   91TMC2    C2 1386   1.326   0.926  16.549 -0.6457 -0.7587 -0.0385
   91TMC2    C3 1387   1.265   1.030  16.607  0.3005 -0.2367  0.0165
   91TMC2    C4 1388   1.120   0.819  16.494  0.1441 -0.2504  0.6286
   91TMC2    C5 1389   1.059   0.924  16.563 -0.1657  0.5453  0.0565
   91TMC2    C6 1390   1.132   1.033  16.600  0.5910  0.4814 -0.5278
   91TMC2     C 1391   1.325   0.736  16.393  0.1965  0.0863  0.4204
   91TMC2     O 1392   1.264   0.642  16.344  0.3255 -0.4415  0.5470
   91TMC2     H 1393   1.435   0.927  16.550 -0.6406 -1.6023  0.2824
   91TMC2    H1 1394   1.064   0.731  16.466 -1.6499  0.9940  0.3302
   91TMC2    H2 1395   1.086   1.118  16.650  0.6146 -0.6293  1.3630
   91TMC2    C7 1396   0.917   0.922  16.587  0.6549  0.1991  0.4080
   91TMC2    C8 1397   1.344   1.147  16.631  0.3956 -0.0862 -0.6161
   91TMC2    O1 1398   0.871   1.023  16.646  0.0903  0.3471 -0.1341
   91TMC2    O2 1399   1.445   1.131  16.697  0.3961  1.0397 -0.2391
   91TMC2    O5 1400   1.351   1.199  16.506 -0.2672 -0.0493  0.0865
   91TMC2    H5 1401   1.276   1.161  16.456  0.7886  0.8277 -2.1798
   92MPD2     C 1402   1.539   0.569  16.282  0.1965  0.3661 -0.1591
   92MPD2    C1 1403   1.561   0.699  16.321 -0.4631 -0.6180  0.5215
   92MPD2    C2 1404   1.685   0.763  16.319 -0.6360 -0.2483 -0.3686
   92MPD2    C3 1405   1.797   0.688  16.270  0.2172  0.0164 -0.1534
   92MPD2    C4 1406   1.776   0.560  16.223 -0.3287 -0.4054 -0.3393
   92MPD2    C5 1407   1.651   0.500  16.234  0.5522 -0.4547  0.2408
   92MPD2     H 1408   1.697   0.857  16.371 -0.6895  1.7988 -4.1039
   92MPD2    H1 1409   1.852   0.492  16.185  0.6039  1.4335 -1.7356
   92MPD2    H2 1410   1.443   0.520  16.276 -0.5903  1.9669 -0.5349
   92MPD2    H3 1411   1.633   0.401  16.195 -0.3284 -0.5441  0.8854
   92MPD2     N 1412   1.920   0.752  16.276 -0.3215  0.1432  0.0459
   92MPD2    H5 1413   1.914   0.853  16.280 -2.1847 -0.0561  2.2218
   92MPD2    N1 1414   1.458   0.776  16.376  0.0690  0.7867  0.0124
   92MPD2    H7 1415   1.473   0.875  16.391  0.2009  0.9130 -0.9302
   93MPD2     C 1416   2.908   0.885  13.284  0.3663 -0.7943 -0.3517
   93MPD2    C1 1417   2.899   0.838  13.410  0.9559  0.0450 -0.6522
   93MPD2    C2 1418   2.774   0.834  13.461  0.4654  1.5362  0.9034
   93MPD2    C3 1419   2.657   0.876  13.396  0.0034  0.6150 -0.8490
   93MPD2    C4 1420   2.671   0.930  13.274 -0.3188  0.3231 -0.7422
   93MPD2    C5 1421   2.794   0.930  13.224  0.3553  0.1303 -0.2568
   93MPD2     H 1422   2.768   0.798  13.563  2.8627 -2.2229 -0.2417
   93MPD2    H1 1423   2.595   0.974  13.211  0.2938  0.4366 -1.4012
   93MPD2    H2 1424   3.003   0.890  13.232 -0.6450 -1.7698 -2.2823
   93MPD2    H3 1425   2.801   0.961  13.120 -1.3015 -1.1206 -0.7588
   93MPD2     N 1426   2.524   0.877  13.447 -0.3146 -0.2063 -0.2415
   93MPD2    H5 1427   2.454   0.925  13.392  1.3126  1.5990 -0.7496
   93MPD2    N1 1428   3.011   0.784  13.481  0.2288  0.4173  0.0878
   93MPD2    H7 1429   2.983   0.731  13.563 -0.6685 -0.5642 -0.8634
   94TCq2    C1 1430   3.138   0.756  13.430 -0.1419 -0.3369  0.4487
   94TCq2    O2 1431   3.185   0.785  13.322 -0.4203 -0.4872  0.2053
   94TCq2    C2 1432   3.230   0.717  13.537 -0.1263 -0.2794  0.8561
   94TCq2    C3 1433   3.217   0.784  13.656  0.0036 -0.2144 -0.0919
   94TCq2    C4 1434   3.325   0.808  13.734 -0.9888  0.4578 -0.3838
   94TCq2    C5 1435   3.450   0.762  13.691  0.0929 -0.2181  0.1422
   94TCq2    C6 1436   3.461   0.696  13.571  0.2378  0.7087  0.1110
   94TCq2    C7 1437   3.350   0.665  13.498 -0.4790 -0.9240 -0.7222
   94TCq2    C8 1438   3.592   0.627  13.542 -0.0445 -0.0076  0.4298
   94TCq2    O4 1439   3.684   0.641  13.625  0.2915  0.1650  0.3614
   94TCq2    C9 1440   3.314   0.878  13.860  0.3549  0.2105 -0.4432
   94TCq2    O5 1441   3.417   0.904  13.927  0.6768 -0.0086 -0.4493
   94TCq2    O6 1442   3.199   0.916  13.897  0.4205 -0.0037  0.0186
   94TCq2    H2 1443   3.123   0.824  13.693  1.0201  0.3800  1.8340
   94TCq2    H3 1444   3.540   0.780  13.749  0.6555 -0.3117 -0.7007
   94TCq2    H4 1445   3.348   0.637  13.394 -1.0404  0.8362 -1.1820
   95TMC2    C1 1446   3.331   1.870  15.791  0.4949 -0.1380  0.0872
   95TMC2    C2 1447   3.308   1.860  15.926  0.0447  0.2759  0.0171
   95TMC2    C3 1448   3.186   1.815  15.965 -0.6238  0.1313  0.8879
   95TMC2    C4 1449   3.227   1.856  15.706 -0.8016  0.1148  0.0926
   95TMC2    C5 1450   3.101   1.816  15.746  0.0610  0.1116 -0.0883
   95TMC2    C6 1451   3.080   1.790  15.879  0.2100 -0.6813  0.4141
   95TMC2     C 1452   3.433   1.953  15.747  0.1790  0.8443 -0.2060
   95TMC2     O 1453   3.460   2.046  15.819 -0.2244 -0.3202  0.0179
   95TMC2     H 1454   3.376   1.903  15.999  0.1402  1.5716 -0.8278
   95TMC2    H1 1455   3.231   1.895  15.604  0.1379  0.0480  0.1067
   95TMC2    H2 1456   2.988   1.751  15.920  1.7465 -0.8980  3.6527
   95TMC2    C7 1457   2.978   1.827  15.672  0.0519  0.1490 -0.0402
   95TMC2    C8 1458   3.166   1.797  16.104 -0.5618  0.1657  0.2029
   95TMC2    O1 1459   2.890   1.748  15.708 -0.5911  0.1421  0.3278
   95TMC2    O2 1460   3.052   1.789  16.147 -0.1643 -0.1163  0.0974
   95TMC2    O5 1461   3.275   1.720  16.147  0.0417 -0.2977  0.4825
   95TMC2    H5 1462   3.360   1.720  16.100  0.7393  2.2321  1.7412
   96MPD2     C 1463   3.762   2.133  15.401 -0.2779  0.1336  0.2600
   96MPD2    C1 1464   3.697   2.206  15.495  0.4818 -0.4701 -0.0838
   96MPD2    C2 1465   3.601   2.146  15.577 -0.2111 -0.0591  0.1240
   96MPD2    C3 1466   3.576   2.010  15.552  0.1328 -0.3996 -0.0498
   96MPD2    C4 1467   3.645   1.940  15.452 -0.7436 -0.3092  0.3189
   96MPD2    C5 1468   3.739   2.004  15.380 -0.5456  0.2637 -0.9983
   96MPD2     H 1469   3.554   2.190  15.665 -1.3461  0.4570 -0.7387
   96MPD2    H1 1470   3.624   1.835  15.433  1.2151 -0.5100 -0.7074
   96MPD2    H2 1471   3.844   2.175  15.344 -0.8047 -0.6648 -1.0939
   96MPD2    H3 1472   3.794   1.938  15.314  1.7835  0.9541  0.2455
   96MPD2     N 1473   3.486   1.929  15.622 -0.3868  0.3096 -0.8244
   96MPD2    H5 1474   3.462   1.841  15.578  3.8478 -1.6625  0.8199
   96MPD2    N1 1475   3.736   2.344  15.512  0.0079 -0.8253 -0.2566
   96MPD2    H7 1476   3.817   2.372  15.457  1.4570 -2.2567  1.1522
   97MPD2     C 1477   0.374   4.057   0.864 -0.1457  0.0989 -0.4038
   97MPD2    C1 1478   0.329   4.182   0.828 -0.1162 -0.2627  0.2301
   97MPD2    C2 1479   0.321   4.214   0.696 -0.2451  0.0447 -0.6676
   97MPD2    C3 1480   0.372   4.123   0.601 -0.5986  0.0536  0.1043
   97MPD2    C4 1481   0.399   3.995   0.637 -1.0272  0.8694  0.2418
   97MPD2    C5 1482   0.415   3.965   0.768 -0.1780 -0.5499 -0.0029
   97MPD2     H 1483   0.283   4.313   0.674  1.1300  1.0507  1.5539
   97MPD2    H1 1484   0.421   3.917   0.565  0.2720  1.2262  0.2410
   97MPD2    H2 1485   0.372   4.025   0.967  0.7053  1.2993 -0.0190
   97MPD2    H3 1486   0.441   3.861   0.787 -0.0002 -0.2491  1.4137
   97MPD2     N 1487   0.397   4.156   0.464 -0.0157  0.4988 -0.5056
   97MPD2    H5 1488   0.439   4.089   0.400 -0.0686 -1.4563  1.5474
   97MPD2    N1 1489   0.297   4.264   0.939 -0.0979  0.2777  0.5595
   97MPD2    H7 1490   0.320   4.224   1.030 -1.9992 -0.7015  0.6132
   98TCq2    C1 1491   0.350   4.275   0.408  0.0879  0.2086 -0.0467
   98TCq2    O2 1492   0.297   4.375   0.458  0.3118  0.1406  0.3803
   98TCq2    C2 1493   0.374   4.279   0.270 -0.7041 -0.3663  0.3795
   98TCq2    C3 1494   0.376   4.162   0.202  0.1802 -0.0313 -0.2930
   98TCq2    C4 1495   0.405   4.162   0.066 -0.6202  0.2377 -0.0500
   98TCq2    C5 1496   0.433   4.284   0.007 -0.2154  0.4662 -0.0440
   98TCq2    C6 1497   0.431   4.401   0.083 -0.2564  0.0593 -0.3050
   98TCq2    C7 1498   0.408   4.397   0.216  0.0236 -0.5237 -0.2374
   98TCq2    C8 1499   0.487   4.525   0.033 -0.5856 -0.1119 -0.2631
   98TCq2    O4 1500   0.562   4.595   0.104  0.1732  0.0328 -0.3298
   98TCq2    C9 1501   0.415   4.036  17.680  0.9325  0.7370 -0.0748
   98TCq2    O5 1502   0.411   3.931   0.063 -0.1214  0.0595  0.0957
   98TCq2    O6 1503   0.399   4.047  17.554  0.7327  0.4776  0.3593
   98TCq2    H2 1504   0.333   4.070   0.239  0.3615  0.0758  0.1849
   98TCq2    H3 1505   0.479   4.284  17.595  1.0673 -2.3864  0.5524
   98TCq2    H4 1506   0.411   4.486   0.278  2.3189 -0.0015 -1.0954
   99MPD2     C 1507   4.161   2.342   1.872 -0.5968  0.0536  0.6680
   99MPD2    C1 1508   4.097   2.216   1.877 -0.4672 -1.0816  0.5217
   99MPD2    C2 1509   4.083   2.153   1.759 -0.8262  0.2418 -0.3901
   99MPD2    C3 1510   4.144   2.197   1.639 -0.5241 -0.0262 -0.2541
   99MPD2    C4 1511   4.209   2.313   1.641 -1.0103 -0.9710 -0.3067
   99MPD2    C5 1512   4.215   2.384   1.757 -0.5409 -0.2357  0.4919
   99MPD2     H 1513   4.037   2.055   1.765  1.2877 -0.5701  2.4051
   99MPD2    H1 1514   4.254   2.361   1.555  0.6301 -2.5959 -0.3408
   99MPD2    H2 1515   4.164   2.407   1.958 -0.5186  1.7056 -0.5859
   99MPD2    H3 1516   4.275   2.474   1.761 -0.8170  0.1238 -3.1777
   99MPD2     N 1517   4.124   2.119   1.520  0.2483  0.1857  0.2063
   99MPD2    H5 1518   4.064   2.038   1.521  0.2312  0.2040  0.9433
   99MPD2    N1 1519   4.044   2.165   2.000  0.1293  0.2693 -0.3355
   99MPD2    H7 1520   3.987   2.082   1.988 -0.9394  0.7684  1.3033
  100TCq2    C1 1521   4.059   2.212   2.126 -0.2947  0.1658  0.4149
  100TCq2    O2 1522   4.135   2.301   2.161 -0.3594 -0.6366 -0.6692
  100TCq2    C2 1523   3.995   2.131   2.223  1.2529  0.1692 -0.2200
  100TCq2    C3 1524   4.055   2.117   2.344  0.8766 -0.4731  0.4896
  100TCq2    C4 1525   3.985   2.054   2.442 -0.1326  0.4646 -0.5922
  100TCq2    C5 1526   3.857   2.006   2.423  0.2734  0.1913  0.2038
  100TCq2    C6 1527   3.804   2.030   2.295  0.4678  0.0126  0.5094
  100TCq2    C7 1528   3.867   2.100   2.198  0.4238  0.2748  0.2888
  100TCq2    C8 1529   3.660   2.029   2.294  0.0792  0.2928 -0.0427
  100TCq2    O4 1530   3.609   2.008   2.404  0.5112 -0.2730  0.0444
  100TCq2    C9 1531   4.047   2.048   2.576  1.1435 -0.5036  0.0582
  100TCq2    O5 1532   4.144   2.119   2.599 -0.3429 -0.9769  0.3140
  100TCq2    O6 1533   3.988   1.981   2.663  0.0413 -0.6858 -0.5052
  100TCq2    H2 1534   4.158   2.146   2.365  0.9892  0.1233 -0.8645
  100TCq2    H3 1535   3.807   1.949   2.501 -1.2962 -0.0620 -0.9839
  100TCq2    H4 1536   3.819   2.127   2.105 -1.4113  0.7709  1.3734
  101MPD2     C 1537   4.438   3.070  12.647 -0.2866  0.9593  0.0232
  101MPD2    C1 1538   4.477   3.102  12.775  0.0571 -0.2984 -1.0792
  101MPD2    C2 1539   4.471   3.000  12.867 -0.6926 -0.2301  0.2447
  101MPD2    C3 1540   4.429   2.874  12.836 -0.2442  0.6066  0.2986
  101MPD2    C4 1541   4.395   2.838  12.703 -0.2416  0.2246 -0.4645
  101MPD2    C5 1542   4.404   2.940  12.614 -0.7174  0.4856  0.3957
  101MPD2     H 1543   4.515   3.014  12.965 -0.7776  1.7272 -0.0115
  101MPD2    H1 1544   4.384   2.733  12.676 -0.1211  0.5588 -1.8400
  101MPD2    H2 1545   4.435   3.148  12.572 -0.6705 -1.2552 -2.2876
  101MPD2    H3 1546   4.376   2.918  12.511 -1.5139  0.6865  0.5672
  101MPD2     N 1547   4.412   2.791  12.950  0.1264  0.5055  0.6586
  101MPD2    H5 1548   4.431   2.841  13.037  1.3570  1.2769 -0.0585
  101MPD2    N1 1549   4.519   3.236  12.806 -0.1382  0.7956 -0.2420
  101MPD2    H7 1550   4.533   3.302  12.729 -0.9259 -0.7209 -1.6858
  102TCq2    C1 1551   0.115   3.650  13.012  0.0973 -0.0415  0.1694
  102TCq2    O2 1552   0.149   3.735  12.927 -0.4211  0.3596 -0.1443
  102TCq2    C2 1553   4.693   3.607  13.018  0.3935 -0.4295  0.9498
  102TCq2    C3 1554   4.620   3.691  12.940 -0.4104  0.4214  0.4392
  102TCq2    C4 1555   4.502   3.635  12.891  0.2270 -0.3098  0.5861
  102TCq2    C5 1556   4.480   3.503  12.890  0.7664  0.1631  0.1161
  102TCq2    C6 1557   4.573   3.425  12.947 -0.6592 -0.5175 -0.1118
  102TCq2    C7 1558   4.668   3.473  13.027  0.5073  0.2256 -0.3121
  102TCq2    C8 1559   4.563   3.281  12.932  0.3351  0.1698  0.4622
  102TCq2    O4 1560   4.568   3.219  13.038  0.4261 -0.2821  0.1854
  102TCq2    C9 1561   4.414   3.723  12.817 -0.5753  0.9475  0.0648
  102TCq2    O5 1562   4.317   3.678  12.760  0.1314 -0.7263  0.3911
  102TCq2    O6 1563   4.445   3.843  12.821  0.3271 -0.6616 -0.3477
  102TCq2    H2 1564   4.636   3.797  12.925 -1.9637  0.6158  0.0810
  102TCq2    H3 1565   4.395   3.453  12.845  0.6502 -2.1021  2.8543
  102TCq2    H4 1566   0.012   3.401  13.076 -1.7092 -0.0799  2.1833
  103TMC2    C1 1567   3.231   3.037  12.763 -0.3440 -0.5094  0.5524
  103TMC2    C2 1568   3.309   3.143  12.718  0.3075 -0.0221 -0.4082
  103TMC2    C3 1569   3.323   3.254  12.792 -0.4803 -0.0999 -0.4803
  103TMC2    C4 1570   3.181   3.037  12.888  0.4825 -0.7827 -0.2551
  103TMC2    C5 1571   3.193   3.156  12.960  0.2435  0.4987  0.1537
  103TMC2    C6 1572   3.258   3.266  12.911 -0.1643  0.1860 -0.4321
  103TMC2     C 1573   3.170   2.943  12.673 -0.1007 -0.2379  0.1063
  103TMC2     O 1574   3.134   2.834  12.719  0.0558  0.5449 -0.7001
  103TMC2     H 1575   3.341   3.139  12.615  0.3828  0.5913 -0.4063
  103TMC2    H1 1576   3.118   2.959  12.928 -0.8216 -0.0261 -0.8288
  103TMC2    H2 1577   3.246   3.364  12.955  2.9819 -0.1051  1.1190
  103TMC2    C7 1578   3.089   3.179  13.059  0.0392  0.2056  0.9234
  103TMC2    C8 1579   3.354   3.385  12.732  0.3007 -0.3296  0.3446
  103TMC2    O1 1580   3.115   3.246  13.157 -0.5401 -0.4332  0.5085
  103TMC2    O2 1581   3.332   3.492  12.793 -0.7936 -0.4398  0.0982
  103TMC2    O5 1582   3.454   3.370  12.649  0.0451  0.2538  0.2165
  103TMC2    H5 1583   3.488   3.279  12.635 -2.0192 -0.0281 -2.8808
  104MPD2     C 1584   3.032   2.786  12.463 -0.4805 -0.0961  0.5377
  104MPD2    C1 1585   3.056   2.923  12.455  0.0852  0.3607  0.2973
  104MPD2    C2 1586   3.015   2.991  12.345  0.8143 -0.0362 -0.5903
  104MPD2    C3 1587   2.946   2.926  12.245  0.3839  0.2300  0.1762
  104MPD2    C4 1588   2.923   2.791  12.258 -0.3316 -0.0713 -0.0850
  104MPD2    C5 1589   2.973   2.721  12.360  0.2841  0.8324 -0.3780
  104MPD2     H 1590   3.040   3.097  12.341  0.7068  0.1068  3.3210
  104MPD2    H1 1591   2.866   2.734  12.184 -2.0401  0.2244  0.9949
  104MPD2    H2 1592   3.059   2.724  12.547 -0.6908  0.9167  1.3470
  104MPD2    H3 1593   2.961   2.615  12.379  0.6783  0.4665 -2.1398
  104MPD2     N 1594   2.889   2.995  12.135  0.0257  1.2361 -0.6990
  104MPD2    H5 1595   2.907   3.095  12.132  0.1828  1.2499  0.7741
  104MPD2    N1 1596   3.128   2.996  12.551 -0.7939  0.4327  0.6678
  104MPD2    H7 1597   3.139   3.095  12.536 -1.8913  0.5722  0.7704
  105MPD2     C 1598   4.266   2.154   0.222 -0.9072 -0.2099  0.0283
  105MPD2    C1 1599   4.196   2.265   0.170 -0.5433 -0.0461 -0.4030
  105MPD2    C2 1600   4.093   2.319   0.248  0.3329  0.1571 -0.4250
  105MPD2    C3 1601   4.063   2.275   0.376 -0.3743  0.2984 -0.4767
  105MPD2    C4 1602   4.140   2.170   0.423  0.3695 -0.8328 -0.1731
  105MPD2    C5 1603   4.231   2.107   0.343 -0.5977 -0.0530  0.0160
  105MPD2     H 1604   4.030   2.400   0.212  0.3813  0.4153  0.0736
  105MPD2    H1 1605   4.129   2.128   0.522  0.1147  0.9627  0.5565
  105MPD2    H2 1606   4.341   2.100   0.167 -2.0227 -1.0117 -0.6995
  105MPD2    H3 1607   4.287   2.030   0.395  3.0481  1.4309 -1.7582
  105MPD2     N 1608   3.958   2.333   0.441 -0.2291 -0.5316 -0.5853
  105MPD2    H5 1609   3.891   2.393   0.393 -1.4569 -1.1956  0.3142
  105MPD2    N1 1610   4.224   2.327   0.049  0.6099  0.5822 -0.8585
  105MPD2    H7 1611   4.166   2.407   0.025 -1.5460 -0.3799  1.0370
  106TCq2    C1 1612   3.940   2.325   0.572  0.6441  0.4628 -0.0800
  106TCq2    O2 1613   4.005   2.262   0.654  0.2318  0.0855 -0.0525
  106TCq2    C2 1614   3.833   2.420   0.624 -0.2702  0.1053  0.3295
  106TCq2    C3 1615   3.745   2.485   0.545 -0.2274 -0.5995  0.2293
  106TCq2    C4 1616   3.636   2.549   0.612  0.0561 -0.0448 -0.3234
  106TCq2    C5 1617   3.616   2.549   0.747  0.1876 -0.2438  0.5019
  106TCq2    C6 1618   3.701   2.475   0.818 -0.1254 -0.3357  0.2160
  106TCq2    C7 1619   3.822   2.428   0.763 -0.0941 -0.4817  0.2857
  106TCq2    C8 1620   3.687   2.469   0.962 -0.9614  0.0637  0.0352
  106TCq2    O4 1621   3.766   2.395   1.020 -0.4745 -0.2448 -0.1057
  106TCq2    C9 1622   3.547   2.631   0.534  0.1283  0.1129  0.2656
  106TCq2    O5 1623   3.480   2.727   0.595 -0.0059  0.4308 -0.6718
  106TCq2    O6 1624   3.570   2.627   0.409  0.0060  0.1578 -0.3194
  106TCq2    H2 1625   3.746   2.483   0.436  0.1334  1.5513  0.2088
  106TCq2    H3 1626   3.517   2.574   0.783  0.8013  0.5758  1.6365
  106TCq2    H4 1627   3.895   2.371   0.820  1.1376  0.3279 -0.4690
  107TMC2    C1 1628   0.374   1.911  11.474 -0.4237  0.0199  0.0928
  107TMC2    C2 1629   0.420   2.029  11.423  0.3290  0.2661  0.6177
  107TMC2    C3 1630   0.477   2.029  11.301  0.4747 -0.3811 -0.8748
  107TMC2    C4 1631   0.371   1.796  11.409 -0.0600 -0.1091  0.1914
  107TMC2    C5 1632   0.438   1.796  11.293  0.9607 -0.1091 -0.4520
  107TMC2    C6 1633   0.497   1.908  11.235  0.4577 -0.6524 -0.1382
  107TMC2     C 1634   0.296   1.918  11.594  0.1052 -0.7016 -0.9485
  107TMC2     O 1635   0.294   1.819  11.665  0.1221 -0.0525  0.0381
  107TMC2     H 1636   0.438   2.112  11.490  0.5626  2.0762 -1.6753
  107TMC2    H1 1637   0.327   1.707  11.452  0.3020 -1.0990 -1.5123
  107TMC2    H2 1638   0.547   1.906  11.139 -1.3589 -1.1448 -1.0700
  107TMC2    C7 1639   0.434   1.662  11.227 -0.0718  0.2955 -0.2256
  107TMC2    C8 1640   0.514   2.158  11.251 -0.6924 -0.1196  0.8104
  107TMC2    O1 1641   0.369   1.578  11.285  0.5009  0.2116  0.2665
  107TMC2    O2 1642   0.515   2.264  11.316  0.4006 -0.0194  0.4237
  107TMC2    O5 1643   0.547   2.140  11.123 -0.3586 -0.2222  0.2114
  107TMC2    H5 1644   0.556   2.231  11.088 -0.3236 -0.4632 -0.4050
  108MPD2     C 1645   0.128   2.226  11.714 -0.3009 -0.0953 -0.3732
  108MPD2    C1 1646   0.168   2.094  11.719 -0.2272 -0.0341 -0.0028
  108MPD2    C2 1647   0.149   2.027  11.835 -0.0796  0.1157 -0.6570
  108MPD2    C3 1648   0.089   2.082  11.944  0.6880  0.1649 -0.1558
  108MPD2    C4 1649   0.037   2.207  11.936 -0.1881  0.1178 -0.0895
  108MPD2    C5 1650   0.054   2.273  11.823  0.1640 -0.3191  0.0575
  108MPD2     H 1651   0.175   1.921  11.836  0.4207  0.2562  0.5600
  108MPD2    H1 1652   4.694   2.247  12.014 -0.8624 -0.8692 -0.1354
  108MPD2    H2 1653   0.145   2.290  11.628 -2.2168 -0.0977 -0.7524
  108MPD2    H3 1654   0.007   2.371  11.819  1.6145  0.3698 -0.1395
  108MPD2     N 1655   0.064   2.013  12.068  0.7273  0.3075 -0.2626
  108MPD2    H5 1656   0.029   2.071  12.143 -2.3677  0.7563 -2.0559
  108MPD2    N1 1657   0.230   2.041  11.602 -0.2011 -0.0234  0.3138
  108MPD2    H7 1658   0.238   2.100  11.519  0.0935 -1.3459 -0.5901
  109MPD2     C 1659   4.535   3.639   2.173  0.2954 -0.6804 -0.0861
  109MPD2    C1 1660   4.554   3.721   2.065 -0.1042  0.5634 -0.3980
  109MPD2    C2 1661   4.687   3.754   2.043  0.3799 -0.1202  0.1645
  109MPD2    C3 1662   0.067   3.716   2.131 -0.3609  0.3336 -0.0664
  109MPD2    C4 1663   0.044   3.628   2.238  0.7180 -0.7045 -0.3347
  109MPD2    C5 1664   4.636   3.592   2.259 -1.2520  0.7388  0.2640
  109MPD2     H 1665   4.698   3.824   1.962 -1.2034  2.4196  2.1440
  109MPD2    H1 1666   0.125   3.595   2.303  0.4357  0.1656  0.4629
  109MPD2    H2 1667   4.432   3.614   2.197 -0.0857 -0.0561 -1.0511
  109MPD2    H3 1668   4.623   3.519   2.338  0.5741  0.6890  0.5129
  109MPD2     N 1669   0.204   3.754   2.104  0.9519 -0.1142 -0.0396
  109MPD2    H5 1670   0.217   3.797   2.013 -0.7971 -0.8352 -0.6405
  109MPD2    N1 1671   4.448   3.769   1.993  0.1603 -0.1844  0.4976
  109MPD2    H7 1672   4.356   3.759   2.034  0.0492  2.6606  0.9718
  110TCq2    C1 1673   0.318   3.745   2.181  0.5219  0.1573 -0.5850
  110TCq2    O2 1674   0.336   3.696   2.294 -0.0851 -0.0273  0.0662
  110TCq2    C2 1675   0.432   3.813   2.114 -0.3735 -0.5318  0.2750
  110TCq2    C3 1676   0.544   3.805   2.177  0.1215 -0.5684  0.2519
  110TCq2    C4 1677   0.656   3.860   2.113 -0.1301  0.1361  1.1257
  110TCq2    C5 1678   0.654   3.928   1.997 -0.4673  0.2371  0.3272
  110TCq2    C6 1679   0.526   3.931   1.939 -0.3958 -0.4950 -0.6836
  110TCq2    C7 1680   0.413   3.882   1.997 -0.0135  0.3756  0.0624
  110TCq2    C8 1681   0.515   4.021   1.825  0.2700 -0.3956 -0.8037
  110TCq2    O4 1682   0.403   4.039   1.777  0.9402  0.3004 -0.0759
  110TCq2    C9 1683   0.780   3.844   2.183  1.3559 -0.4986  0.5847
  110TCq2    O5 1684   0.776   3.803   2.301 -0.2825  0.5335  0.1852
  110TCq2    O6 1685   0.887   3.865   2.119 -0.1808  0.5387 -0.3893
  110TCq2    H2 1686   0.557   3.748   2.269 -1.0232 -0.8359  0.2440
  110TCq2    H3 1687   0.748   3.945   1.945  0.0211 -0.0265  1.1116
  110TCq2    H4 1688   0.317   3.899   1.949 -1.8246 -0.8230  3.2599
  111TMC2    C1 1689   0.023   3.529  11.605 -0.7012  0.0469  0.0114
  111TMC2    C2 1690   4.698   3.398  11.590  0.5889  0.4592 -0.3238
  111TMC2    C3 1691   0.011   3.303  11.684  0.0817 -0.0361  0.1516
  111TMC2    C4 1692   0.122   3.556  11.697 -0.2141 -0.4980  0.2379
  111TMC2    C5 1693   0.160   3.456  11.778  0.4140 -0.3195  1.0483
  111TMC2    C6 1694   0.105   3.330  11.778 -0.1668 -0.2124  0.4741
  111TMC2     C 1695   0.010   3.615  11.490  0.5575  0.3228  0.6297
  111TMC2     O 1696   0.101   3.692  11.455 -0.1626 -0.1298 -0.0816
  111TMC2     H 1697   4.634   3.359  11.511  1.1445  2.1309 -1.6034
  111TMC2    H1 1698   0.175   3.650  11.692 -1.1676  0.1228  1.9828
  111TMC2    H2 1699   0.149   3.250  11.836  0.2083  0.4138  1.0548
  111TMC2    C7 1700   0.271   3.464  11.866 -0.2625 -0.4174 -0.0792
  111TMC2    C8 1701   4.710   3.156  11.655  0.0747 -0.4995 -0.7120
  111TMC2    O1 1702   0.274   3.389  11.966 -0.9613  0.3909 -0.3983
  111TMC2    O2 1703   4.694   3.113  11.543  0.2487 -0.0978  0.3428
  111TMC2    O5 1704   4.715   3.082  11.768  0.2749  0.0153 -0.4551
  111TMC2    H5 1705   4.706   3.129  11.854 -0.1276 -2.8987  1.0666
  112MPD2     C 1706   4.520   3.652  11.020  0.4062  0.3794  0.0923
  112MPD2    C1 1707   4.639   3.707  11.061 -0.2150  0.0923  0.1864
  112MPD2    C2 1708   4.675   3.685  11.195  0.0831  0.2877 -0.0587
  112MPD2    C3 1709   4.598   3.605  11.281  0.1006  0.3274 -0.3537
  112MPD2    C4 1710   4.480   3.545  11.237  0.4317  0.5707 -0.5031
  112MPD2    C5 1711   4.441   3.579  11.109 -0.1301  0.7097  0.2489
  112MPD2     H 1712   0.050   3.721  11.229 -0.1387  2.0172 -1.2973
  112MPD2    H1 1713   4.411   3.485  11.295  0.0537  0.4969 -1.0202
  112MPD2    H2 1714   4.485   3.663  10.918 -0.9434 -1.1429  0.3916
  112MPD2    H3 1715   4.345   3.542  11.072 -0.0545  0.4711  0.2896
  112MPD2     N 1716   4.621   3.577  11.415  0.2490  0.0082  0.4597
  112MPD2    H5 1717   4.546   3.528  11.462 -0.9600  0.4556 -0.9997
  112MPD2    N1 1718   0.001   3.784  10.973  0.1455 -0.4974 -0.2256
  112MPD2    H7 1719   0.075   3.835  11.020  0.4051 -0.1143 -1.0445
  113MPD2     C 1720   3.103   1.764   1.026  0.1474 -0.3027  0.4291
  113MPD2    C1 1721   3.001   1.797   1.107 -0.0292  0.0730  0.3718
  113MPD2    C2 1722   2.879   1.760   1.075 -0.2310 -0.4323 -0.1144
  113MPD2    C3 1723   2.852   1.693   0.958  0.1829  0.3694 -0.0610
  113MPD2    C4 1724   2.954   1.643   0.884 -0.6757  0.3053 -0.3116
  113MPD2    C5 1725   3.081   1.692   0.907 -0.5306  0.2289  0.4696
  113MPD2     H 1726   2.801   1.791   1.144  0.6041  1.1503  0.1384
  113MPD2    H1 1727   2.931   1.586   0.795 -0.9221  0.1730 -0.1623
  113MPD2    H2 1728   3.204   1.798   1.046 -0.2086  0.2690  1.2148
  113MPD2    H3 1729   3.161   1.669   0.838 -1.2689  0.3173 -0.4207
  113MPD2     N 1730   2.720   1.678   0.906 -0.7049  0.0840 -0.2497
  113MPD2    H5 1731   2.703   1.656   0.808  0.7973 -1.3094 -0.1963
  113MPD2    N1 1732   3.016   1.876   1.215  0.0787  0.1015  0.2102
  113MPD2    H7 1733   2.929   1.909   1.256  0.3604 -0.3648  1.1680
  114TCq2    C1 1734   2.607   1.725   0.969  0.4558 -0.2030 -0.4407
  114TCq2    O2 1735   2.585   1.732   1.093 -0.0383  0.7219 -0.4016
  114TCq2    C2 1736   2.492   1.737   0.885  0.0421  1.0208  0.2430
  114TCq2    C3 1737   2.505   1.761   0.750 -0.0962  0.4016  0.6471
  114TCq2    C4 1738   2.395   1.770   0.667  0.0257  0.2661  0.5032
  114TCq2    C5 1739   2.271   1.745   0.714 -0.0564  0.3222  0.6556
  114TCq2    C6 1740   2.260   1.722   0.851 -0.5723 -0.5622 -0.5547
  114TCq2    C7 1741   2.370   1.719   0.933  0.0724  0.0432 -0.7540
  114TCq2    C8 1742   2.142   1.667   0.899 -0.6222  0.2948  0.0427
  114TCq2    O4 1743   2.039   1.687   0.836 -0.2655 -0.8530 -0.1633
  114TCq2    C9 1744   2.410   1.819   0.531  0.5670  0.7516 -0.0651
  114TCq2    O5 1745   2.310   1.866   0.470  0.3669  0.1450 -0.1802
  114TCq2    O6 1746   2.522   1.794   0.478 -1.0233 -0.1889 -0.0245
  114TCq2    H2 1747   2.601   1.774   0.701 -0.9523  3.3584 -0.2069
  114TCq2    H3 1748   2.188   1.750   0.645 -0.9433 -1.3708  1.6267
  114TCq2    H4 1749   2.360   1.680   1.033  2.6912  0.2136 -0.4146
  115TMC2    C1 1750   3.897   4.467   0.107 -0.2105 -0.2728  0.9320
  115TMC2    C2 1751   4.028   4.431   0.124 -0.0887  0.3059 -0.5413
  115TMC2    C3 1752   4.126   4.497   0.047  0.0374  0.1658 -0.1949
  115TMC2    C4 1753   3.866   4.574   0.019  0.2107  0.5055 -0.1209
  115TMC2    C5 1754   3.964   4.637  17.635 -0.2108  0.7608 -0.3717
  115TMC2    C6 1755   4.100   4.610  17.651 -0.1722 -0.1646 -0.1741
  115TMC2     C 1756   3.803   4.353   0.092 -0.2802  0.4779  0.4118
  115TMC2     O 1757   3.715   4.362   0.014  0.2904  0.0936  0.1705
  115TMC2     H 1758   4.063   4.337   0.165  1.8830  1.4633  0.3934
  115TMC2    H1 1759   3.762   4.597   0.002  0.0791 -0.2454 -0.3240
  115TMC2    H2 1760   4.175   4.654  17.587 -0.1093 -0.4169 -0.2703
  115TMC2    C7 1761   3.913   0.031  17.551  0.1481 -0.1401  0.4055
  115TMC2    C8 1762   4.251   4.424   0.025  0.8516  0.9446  0.8020
  115TMC2    O1 1763   3.794   0.027  17.522  0.0796  0.1609  1.0634
  115TMC2    O2 1764   4.274   4.313   0.077  0.1063 -0.2812 -0.1281
  115TMC2    O5 1765   4.340   4.492  17.636  0.4143  0.1211  0.0386
  115TMC2    H5 1766   4.339   4.590  17.627 -0.7930  0.0137 -0.9965
  116MPD2     C 1767   3.646   3.873   0.166  0.5787  0.3643  0.5247
  116MPD2    C1 1768   3.622   3.959   0.065 -0.1227  0.5081 -0.6470
  116MPD2    C2 1769   3.687   4.077   0.050 -0.3071  0.4243 -0.1660
  116MPD2    C3 1770   3.775   4.115   0.150  0.7500 -0.7581  0.8702
  116MPD2    C4 1771   3.792   4.027   0.254  0.0193  0.5765 -0.6985
  116MPD2    C5 1772   3.726   3.910   0.268 -0.2181  0.2220 -0.6811
  116MPD2     H 1773   3.669   4.143  17.652 -0.3973  1.8832  0.9999
  116MPD2    H1 1774   3.857   4.059   0.334  0.1742 -2.0028  0.2157
  116MPD2    H2 1775   3.590   3.782   0.149  1.4790 -0.3130  1.2366
  116MPD2    H3 1776   3.735   3.843   0.354  0.5293  0.1430 -0.8253
  116MPD2     N 1777   3.824   4.246   0.172  0.3460  1.1428 -0.1164
  116MPD2    H5 1778   3.893   4.265   0.244  1.1762  1.0387 -0.8748
  116MPD2    N1 1779   3.530   3.907  17.654 -0.3823 -0.1249 -0.7825
  116MPD2    H7 1780   3.509   3.808  17.648 -0.1576 -0.2329  0.2678
  117TMC2    C1 1781   2.462   1.546  14.537 -0.3200 -0.2306  0.1724
  117TMC2    C2 1782   2.482   1.513  14.669 -0.1296 -0.0243  0.0038
  117TMC2    C3 1783   2.557   1.604  14.745  0.4025  0.4324  0.4579
  117TMC2    C4 1784   2.513   1.656  14.473  0.2344 -0.0862  0.9035
  117TMC2    C5 1785   2.586   1.740  14.551 -0.5569 -0.2564  0.2392
  117TMC2    C6 1786   2.611   1.717  14.684  0.1786  0.0388 -0.0223
  117TMC2     C 1787   2.361   1.474  14.462  0.4215 -0.0582 -0.4980
  117TMC2     O 1788   2.332   1.363  14.500  0.2667 -0.1910 -0.1915
  117TMC2     H 1789   2.429   1.434  14.720  1.1458 -1.3292 -0.7122
  117TMC2    H1 1790   2.515   1.666  14.366  0.2249 -0.9855  0.8247
  117TMC2    H2 1791   2.671   1.790  14.737 -1.7701  1.2096  0.5709
  117TMC2    C7 1792   2.667   1.830  14.478 -0.5720 -0.2451 -0.2210
  117TMC2    C8 1793   2.574   1.582  14.881  0.2320  0.2062  0.4504
  117TMC2    O1 1794   2.622   1.870  14.369  0.2739  0.0075  0.4306
  117TMC2    O2 1795   2.555   1.468  14.912  0.7523 -0.2226 -0.7634
  117TMC2    O5 1796   2.532   1.687  14.944 -0.3874  0.0353 -0.2598
  117TMC2    H5 1797   2.550   1.769  14.894  2.3085  0.1147  0.8157
  118MPD2     C 1798   3.041   1.842  14.530 -0.2120 -0.0102 -0.7775
  118MPD2    C1 1799   2.924   1.866  14.459  0.8131  0.6073  0.7709
  118MPD2    C2 1800   2.924   1.903  14.329 -0.3926 -0.9349  0.0685
  118MPD2    C3 1801   3.043   1.951  14.265  0.2655 -0.2815  0.1459
  118MPD2    C4 1802   3.159   1.943  14.341  0.3936 -0.6846  0.2178
  118MPD2    C5 1803   3.156   1.886  14.465  0.7145 -0.0796 -0.3083
  118MPD2     H 1804   2.827   1.904  14.280 -0.0427 -0.2096 -0.6171
  118MPD2    H1 1805   3.259   1.973  14.311  0.0797 -0.7062 -0.8608
  118MPD2    H2 1806   3.043   1.806  14.633 -1.5190  1.0309 -0.3907
  118MPD2    H3 1807   3.249   1.878  14.520  0.0161  0.1136  0.8923
  118MPD2     N 1808   3.060   1.984  14.132 -0.8341  0.2809  0.5266
  118MPD2    H5 1809   3.155   2.007  14.102 -0.4824  1.0131  2.2119
  118MPD2    N1 1810   2.799   1.829  14.522 -0.4901  0.1923 -0.6266
  118MPD2    H7 1811   2.812   1.779  14.609 -0.1855  0.5686 -0.4605
  119MPD2     C 1812   0.462   2.768  13.108  0.3331 -0.1052  0.1382
  119MPD2    C1 1813   0.340   2.716  13.138  0.5630 -0.1611  0.1140
  119MPD2    C2 1814   0.306   2.590  13.096 -0.2147 -0.2113  0.2327
  119MPD2    C3 1815   0.390   2.522  13.015  0.1792 -0.4025  0.0927
  119MPD2    C4 1816   0.511   2.575  12.976  0.5726  0.4685  0.0782
  119MPD2    C5 1817   0.543   2.701  13.012 -0.4216  0.4604  0.6333
  119MPD2     H 1818   0.208   2.547  13.114 -0.2243 -0.1483  0.3339
  119MPD2    H1 1819   0.587   2.519  12.923 -1.3014 -1.1576 -0.8989
  119MPD2    H2 1820   0.496   2.866  13.137  0.5462 -0.3176  0.6016
  119MPD2    H3 1821   0.639   2.746  12.990  0.1515 -0.5318  1.1103
  119MPD2     N 1822   0.373   2.389  12.980 -0.5669  0.5096  1.0803
  119MPD2    H5 1823   0.450   2.344  12.932 -0.9403  0.5450  0.4586
  119MPD2    N1 1824   0.258   2.778  13.228  0.2525  0.0789  0.4044
  119MPD2    H7 1825   0.167   2.733  13.232 -0.1237  0.8872  0.9094
  120TCq2    C1 1826   0.267   2.305  13.011  0.4090 -0.1331 -0.1888
  120TCq2    O2 1827   0.177   2.332  13.089 -0.8200 -0.2277  0.3658
  120TCq2    C2 1828   0.292   2.165  12.977 -0.1052  0.6669  0.3104
  120TCq2    C3 1829   0.391   2.133  12.895 -0.8366  0.3777  0.2814
  120TCq2    C4 1830   0.420   1.998  12.873 -0.9964 -0.0875  0.0867
  120TCq2    C5 1831   0.352   1.900  12.943 -0.6536  0.6759  0.0024
  120TCq2    C6 1832   0.250   1.935  13.026  0.6070 -0.2777 -0.3045
  120TCq2    C7 1833   0.222   2.065  13.045  0.0648  0.6312  0.5017
  120TCq2    C8 1834   0.170   1.832  13.082  0.2663 -0.5619  0.2242
  120TCq2    O4 1835   0.173   1.722  13.031 -0.4783 -0.5568  0.5377
  120TCq2    C9 1836   0.521   1.949  12.783  0.6965  0.4508 -0.6688
  120TCq2    O5 1837   0.573   2.039  12.706 -0.5863  0.1648  0.9676
  120TCq2    O6 1838   0.551   1.828  12.779  0.9612  0.1766  0.3229
  120TCq2    H2 1839   0.444   2.208  12.838 -1.1055 -0.7559 -1.4542
  120TCq2    H3 1840   0.377   1.796  12.926  0.9648  1.1418 -0.4082
  120TCq2    H4 1841   0.131   2.105  13.088  1.0568  4.2664 -0.7728
  121TMC2    C1 1842   2.318   4.563  14.324 -0.0478  0.0796 -0.3448
  121TMC2    C2 1843   2.307   4.463  14.416 -0.0090 -0.3522  0.5548
  121TMC2    C3 1844   2.192   4.387  14.418  0.8604 -0.5079  0.1910
  121TMC2    C4 1845   2.217   4.586  14.238 -0.1223 -0.1576  0.2196
  121TMC2    C5 1846   2.104   4.511  14.243  0.0105  0.6352  0.3195
  121TMC2    C6 1847   2.089   4.399  14.328 -0.0825  0.1020  0.6510
  121TMC2     C 1848   2.455   4.601  14.293 -0.1967 -0.4269 -0.7626
  121TMC2     O 1849   2.540   4.590  14.377  0.1139  0.3844 -0.7346
  121TMC2     H 1850   2.382   4.435  14.489  1.7462 -0.6127 -1.3628
  121TMC2    H1 1851   2.225   4.672  14.172  3.3070 -0.1659  0.6003
  121TMC2    H2 1852   1.991   4.371  14.362  0.3561 -1.2846  0.7668
  121TMC2    C7 1853   2.015   4.518  14.127 -0.6208 -0.2127 -0.4172
  121TMC2    C8 1854   2.201   4.278  14.513  0.2230 -0.5028  0.2773
  121TMC2    O1 1855   2.055   4.563  14.023 -0.4078  0.4900 -0.5624
  121TMC2    O2 1856   2.254   4.279  14.625  0.7426 -0.1433 -0.3580
  121TMC2    O5 1857   2.114   4.183  14.465  0.4871  0.3289  0.1603
  121TMC2    H5 1858   2.085   4.207  14.374  2.2261 -0.2634 -0.5601
  122MPD2     C 1859   2.715   4.691  14.183  0.7091  0.4792  0.6731
  122MPD2    C1 1860   2.593   4.685  14.117  0.1534 -0.2674  0.8268
  122MPD2    C2 1861   2.594   4.719  13.978  0.0236  0.7122 -0.3842
  122MPD2    C3 1862   2.711   0.022  13.910 -1.0805  0.2235  0.5491
  122MPD2    C4 1863   2.834   4.711  13.971  0.9276 -0.0875  0.2502
  122MPD2    C5 1864   2.831   4.705  14.107  0.2138 -0.2147  0.0208
  122MPD2     H 1865   2.500   4.720  13.924 -0.5409  0.2338  0.5865
  122MPD2    H1 1866   2.927   0.024  13.927  0.2153  0.4014 -0.8823
  122MPD2    H2 1867   2.735   4.660  14.285 -1.0804 -0.6538  0.6705
  122MPD2    H3 1868   2.929   4.702  14.153  1.3653  2.0474 -2.3481
  122MPD2     N 1869   2.717   0.049  13.768 -0.7366 -0.3624 -0.2248
  122MPD2    H5 1870   2.810   0.044  13.727  0.0098  0.3878  1.3716
  122MPD2    N1 1871   2.467   4.646  14.168 -0.1881  0.4225  0.1273
  122MPD2    H7 1872   2.396   4.628  14.097 -0.3001 -0.2249  0.3999
  123MPD2     C 1873   4.669   2.347   9.509  0.0526 -0.2248  0.1687
  123MPD2    C1 1874   0.062   2.408   9.568 -0.0333  0.6921  0.4025
  123MPD2    C2 1875   0.115   2.512   9.497 -0.3398  0.0397 -0.1969
  123MPD2    C3 1876   0.052   2.557   9.379 -0.6421 -0.2411 -0.5016
  123MPD2    C4 1877   4.657   2.497   9.329 -0.3423  0.2981 -0.0405
  123MPD2    C5 1878   4.602   2.390   9.398 -0.3530 -0.2090  0.1523
  123MPD2     H 1879   0.192   2.575   9.539 -1.4039  2.1279 -1.3760
  123MPD2    H1 1880   4.597   2.540   9.249  1.3932  2.7850 -0.0166
  123MPD2    H2 1881   4.626   2.260   9.556 -1.8402  0.1964 -0.7905
  123MPD2    H3 1882   4.515   2.338   9.358 -1.0736  2.0803 -1.2616
  123MPD2     N 1883   0.109   2.674   9.316  0.6690  0.3894  0.5072
  123MPD2    H5 1884   0.195   2.717   9.349  0.0700  0.6575  1.7192
  123MPD2    N1 1885   0.110   2.352   9.689 -0.4620  0.1281 -0.0940
  123MPD2    H7 1886   0.074   2.261   9.716 -0.4360 -0.0303 -0.5859
  124TCq2    C1 1887   0.059   2.750   9.210 -0.2665 -0.6578  0.0088
  124TCq2    O2 1888   4.685   2.730   9.128  0.3776  0.4231 -0.1068
  124TCq2    C2 1889   0.135   2.870   9.191  0.0856 -0.1928  0.6217
  124TCq2    C3 1890   0.068   2.981   9.141  0.1252  0.2901 -0.5171
  124TCq2    C4 1891   0.133   3.102   9.138  0.1001 -0.4628 -0.2082
  124TCq2    C5 1892   0.261   3.115   9.190  1.0593 -0.5449  0.4267
  124TCq2    C6 1893   0.324   3.005   9.244  0.1434 -0.3034 -0.1708
  124TCq2    C7 1894   0.260   2.881   9.251 -0.2321  0.1183 -0.4451
  124TCq2    C8 1895   0.423   3.017   9.348 -0.0636 -0.1390  0.0593
  124TCq2    O4 1896   0.412   2.926   9.431 -0.1455  0.0800  0.1159
  124TCq2    C9 1897   0.069   3.215   9.077 -0.3711  0.3975 -0.1262
  124TCq2    O5 1898   4.682   3.202   9.002 -0.6318  0.3691  0.4597
  124TCq2    O6 1899   0.138   3.320   9.069  0.3014 -0.0339 -0.7873
  124TCq2    H2 1900   4.682   2.973   9.120 -0.3122  1.9416  1.0664
  124TCq2    H3 1901   0.313   3.207   9.168 -0.6705  0.4468  0.4704
  124TCq2    H4 1902   0.313   2.789   9.272 -0.0172  0.0650 -1.2333
  125TMC2    C1 1903   4.409   4.530   8.854 -0.5429 -0.2168  0.7300
  125TMC2    C2 1904   4.341   4.621   8.774 -0.2457  0.5509 -0.2161
  125TMC2    C3 1905   4.405   0.015   8.746  0.8712 -0.4923  0.2484
  125TMC2    C4 1906   4.535   4.543   8.899 -0.3670  0.2217  0.2396
  125TMC2    C5 1907   4.604   4.650   8.845  0.0096  0.1046 -0.3686
  125TMC2    C6 1908   4.537   0.019   8.773 -0.3264 -0.6166  0.1579
  125TMC2     C 1909   4.346   4.405   8.883  0.1407  0.0382 -0.7574
  125TMC2     O 1910   4.227   4.394   8.870 -0.0323 -0.0221 -0.6084
  125TMC2     H 1911   4.245   4.598   8.730  0.0554 -0.1594 -0.5013
  125TMC2    H1 1912   4.584   4.485   8.977 -0.9026 -0.2465  0.2294
  125TMC2    H2 1913   4.598   0.104   8.745 -0.0200 -0.6124  0.8426
  125TMC2    C7 1914   0.016   4.681   8.905  0.1789  0.0677 -0.5178
  125TMC2    C8 1915   4.364   0.069   8.625 -0.3897 -0.8140 -0.3563
  125TMC2    O1 1916   0.060   0.077   8.902  0.3560  0.3064 -0.0308
  125TMC2    O2 1917   4.404   0.033   8.516 -0.2538  0.1774 -0.8696
  125TMC2    O5 1918   4.240   0.114   8.653  0.0183  0.1376  0.4407
  125TMC2    H5 1919   4.237   0.138   8.748 -0.1990 -0.9873  0.7110
  126MPD1     C 1920   4.389   3.914   9.019 -0.0521  1.1705  0.7781
  126MPD1    C1 1921   4.512   3.969   9.020 -0.1585  0.1801 -0.5157
  126MPD1    C2 1922   4.528   4.096   8.970 -0.1410  0.1945  0.3407
  126MPD1    C3 1923   4.419   4.178   8.950  0.4192 -0.8827 -0.3002
  126MPD1    C4 1924   4.295   4.127   8.968 -0.5081 -0.5725  0.0096
  126MPD1    C5 1925   4.278   3.995   9.001 -0.3693 -0.3680 -0.1773
  126MPD1     H 1926   4.631   4.127   8.958  0.2085 -0.4319  1.6970
  126MPD1    H1 1927   4.211   4.196   8.959  0.7289  0.9659  0.3768
  126MPD1    H2 1928   4.371   3.808   9.032  1.6409  0.9524  1.3392
  126MPD1    H3 1929   4.175   3.960   9.012  0.0813 -2.1174 -1.4602
  126MPD1     N 1930   4.445   4.310   8.907 -0.3150 -0.1997  0.4082
  126MPD1    H5 1931   4.542   4.333   8.889 -0.7354  1.4583  0.2267
  126MPD1    N1 1932   4.627   3.888   9.040  0.2659 -0.0360 -0.5102
  126MPD1    H6 1933   4.625   3.834   9.127  1.8736  0.3057 -0.2503
  126MPD1    H7 1934   4.710   3.947   9.050 -0.9452  1.3159  1.5656
  127MPD2     C 1935   0.824   2.663   9.577  0.0210 -0.2973  0.2785
  127MPD2    C1 1936   0.925   2.651   9.674 -0.6527  0.1947 -0.3073
  127MPD2    C2 1937   1.010   2.765   9.706 -0.5246  0.3919  0.2683
  127MPD2    C3 1938   1.002   2.874   9.627 -0.6584  0.2122 -0.1774
  127MPD2    C4 1939   0.900   2.888   9.537 -0.6482 -0.2112 -0.7316
  127MPD2    C5 1940   0.817   2.787   9.512  0.3972 -0.0771  0.7723
  127MPD2     H 1941   1.092   2.752   9.776 -0.8425 -1.8648  0.2343
  127MPD2    H1 1942   0.887   2.980   9.481  0.4740  0.3688 -0.0269
  127MPD2    H2 1943   0.749   2.588   9.553 -0.0301 -0.6280  1.4656
  127MPD2    H3 1944   0.739   2.799   9.438  1.6353  2.0229 -0.1781
  127MPD2     N 1945   1.091   2.977   9.663 -0.3365 -0.0451  0.2680
  127MPD2    H5 1946   1.154   2.968   9.742 -0.0007  0.4183  0.0543
  127MPD2    N1 1947   0.937   2.522   9.730 -0.5066 -0.3154 -0.3365
  127MPD2    H7 1948   0.869   2.457   9.693  0.6552 -1.0184 -1.2589
  128TCq2    C1 1949   1.026   2.480   9.825  0.2102  0.5569  0.4596
  128TCq2    O2 1950   1.087   2.545   9.910 -0.2239 -0.2988  0.2225
  128TCq2    C2 1951   1.038   2.339   9.833 -0.7289 -0.1353  0.5303
  128TCq2    C3 1952   1.016   2.271   9.713 -0.4649  0.0213  0.0564
  128TCq2    C4 1953   1.034   2.139   9.704 -0.4903  0.5284  0.4304
  128TCq2    C5 1954   1.057   2.073   9.823 -0.2827 -0.4784  0.3534
  128TCq2    C6 1955   1.076   2.142   9.940  0.7958  0.7805 -0.0689
  128TCq2    C7 1956   1.074   2.282   9.952 -0.3514 -0.1626 -0.6424
  128TCq2    C8 1957   1.119   2.067  10.056 -0.1436 -0.5254 -0.1113
  128TCq2    O4 1958   1.105   2.117  10.167  0.2853  0.0561 -0.2161
  128TCq2    C9 1959   0.996   2.069   9.583 -0.2660 -0.4434  0.0117
  128TCq2    O5 1960   1.035   1.948   9.574 -0.2108  0.0195  0.2330
  128TCq2    O6 1961   0.947   2.139   9.490 -0.3555 -0.0444 -0.6065
  128TCq2    H2 1962   1.002   2.325   9.619 -0.3516  1.6004  0.9534
  128TCq2    H3 1963   1.051   1.965   9.825 -2.6678 -0.3484 -0.0154
  128TCq2    H4 1964   1.067   2.332  10.047  1.0442  1.6471 -1.5059
  129MPD2     C 1965   0.793   3.782   0.769 -0.7674 -0.3959  0.3127
  129MPD2    C1 1966   0.765   3.879   0.864 -0.2337  0.4382  0.4085
  129MPD2    C2 1967   0.731   4.010   0.816 -0.1555  1.2173  0.1548
  129MPD2    C3 1968   0.743   4.042   0.680 -0.1512  0.2476  0.2481
  129MPD2    C4 1969   0.777   3.941   0.592 -0.2433 -0.4409  0.5692
  129MPD2    C5 1970   0.797   3.811   0.635  0.0308 -0.1978  0.7296
  129MPD2     H 1971   0.705   4.094   0.880  0.8306  0.6716  1.2833
  129MPD2    H1 1972   0.781   3.951   0.484  0.1502  0.2941  0.6494
  129MPD2    H2 1973   0.807   3.679   0.799 -1.2230 -0.0009  1.9164
  129MPD2    H3 1974   0.814   3.732   0.563  1.1333  0.0932  0.6807
  129MPD2     N 1975   0.717   4.178   0.639 -0.6070  1.3023 -0.8330
  129MPD2    H5 1976   0.678   4.244   0.706  0.6242  0.4496  0.7179
  129MPD2    N1 1977   0.774   3.844   0.997 -0.1190  0.0045  0.2081
  129MPD2    H7 1978   0.801   3.747   1.011  1.3973  0.3343 -0.3601
  130TCq2    C1 1979   0.747   3.922   1.106 -0.1001 -0.1917 -0.6175
  130TCq2    O2 1980   0.671   4.016   1.106 -0.6978 -0.5171 -0.1455
  130TCq2    C2 1981   0.767   3.843   1.227 -0.2151 -1.0175 -0.3127
  130TCq2    C3 1982   0.859   3.739   1.229  0.1205 -0.4222 -0.3608
  130TCq2    C4 1983   0.857   3.661   1.338 -0.5798 -0.2030  0.2092
  130TCq2    C5 1984   0.764   3.675   1.437  0.8550  0.4232  0.2613
  130TCq2    C6 1985   0.672   3.772   1.432 -0.0361 -0.2892  0.2687
  130TCq2    C7 1986   0.675   3.871   1.331 -0.0061 -0.4289 -0.0843
  130TCq2    C8 1987   0.554   3.766   1.515  0.0415 -0.3164  0.4224
  130TCq2    O4 1988   0.443   3.783   1.467  0.0576  0.1687  0.0827
  130TCq2    C9 1989   0.953   3.555   1.347  0.0601 -0.0027 -0.1021
  130TCq2    O5 1990   1.011   3.517   1.242  0.6474 -0.2916 -0.3208
  130TCq2    O6 1991   0.965   3.502   1.461  0.4669 -0.1321 -0.2883
  130TCq2    H2 1992   0.937   3.724   1.156 -0.8371 -1.4495 -1.1690
  130TCq2    H3 1993   0.773   3.593   1.507 -1.2992 -2.1808 -2.5140
  130TCq2    H4 1994   0.597   3.946   1.327 -0.2088 -0.6993 -1.1064
  131MPD2     C 1995   0.533   2.688  10.565  0.4605  0.0967  0.3991
  131MPD2    C1 1996   0.529   2.751  10.440 -0.4168  0.3337  0.7105
  131MPD2    C2 1997   0.487   2.679  10.324 -0.8452 -0.5546  0.0862
  131MPD2    C3 1998   0.448   2.549  10.339 -0.2502  0.5268  0.0297
  131MPD2    C4 1999   0.458   2.487  10.463  0.1315 -0.3914 -0.1503
  131MPD2    C5 2000   0.482   2.564  10.572  0.8532 -0.6379 -0.8318
  131MPD2     H 2001   0.486   2.725  10.226 -0.3049 -1.5244 -0.3765
  131MPD2    H1 2002   0.422   2.385  10.474  0.9209 -0.5650  0.8189
  131MPD2    H2 2003   0.551   2.742  10.657  0.5995  2.2362 -0.8894
  131MPD2    H3 2004   0.475   2.515  10.668 -0.3108 -1.4499 -1.3205
  131MPD2     N 2005   0.404   2.476  10.223 -0.0750  0.4052  0.5988
  131MPD2    H5 2006   0.411   2.520  10.132  4.7112 -0.1107  0.7164
  131MPD2    N1 2007   0.580   2.880  10.432 -0.2807  1.1311  0.5747
  131MPD2    H7 2008   0.633   2.915  10.511  1.4255 -3.0832  1.2747
  132TCq2    C1 2009   0.687   3.359  10.579 -0.5249 -1.0281  0.0547
  132TCq2    O2 2010   0.681   3.292  10.681  1.2062 -0.3802  0.2847
  132TCq2    C2 2011   0.686   3.284  10.455 -0.7008 -0.0086 -0.2887
  132TCq2    C3 2012   0.742   3.337  10.345  0.0484  0.3294 -0.4066
  132TCq2    C4 2013   0.746   3.269  10.224 -0.3592 -0.1997 -0.8582
  132TCq2    C5 2014   0.676   3.152  10.226  0.7584  0.4556  0.4373
  132TCq2    C6 2015   0.637   3.088  10.339 -0.3702  0.1052  0.1759
  132TCq2    C7 2016   0.645   3.151  10.462 -0.0240  0.8515  0.1528
  132TCq2    C8 2017   0.569   2.963  10.326 -0.1560 -0.3381 -0.1017
  132TCq2    O4 2018   0.503   2.959  10.225 -0.6611  0.6963 -0.1334
  132TCq2    C9 2019   0.788   3.341  10.101  0.3672 -0.0961 -1.0349
  132TCq2    O5 2020   0.846   3.278  10.010  0.3164 -0.3267  0.1625
  132TCq2    O6 2021   0.795   3.465  10.120  0.3472  0.0932  0.6908
  132TCq2    H2 2022   0.797   3.431  10.348  3.1553 -1.4689 -1.1397
  132TCq2    H3 2023   0.652   3.108  10.130  0.6162  0.2269  0.5773
  132TCq2    H4 2024   0.609   3.097  10.549 -0.7643 -0.9662 -1.2740
  133MPD2     C 2025   3.538   4.566   9.098 -0.3118  0.0352  0.0035
  133MPD2    C1 2026   3.640   4.654   9.105 -0.2640 -0.1265  0.1960
  133MPD2    C2 2027   3.767   4.606   9.132 -0.8441  0.4743  0.5892
  133MPD2    C3 2028   3.784   4.475   9.166 -0.0124  0.0542  0.7665
  133MPD2    C4 2029   3.678   4.393   9.187 -0.6630  0.2135  0.5359
  133MPD2    C5 2030   3.551   4.440   9.158 -0.3844  0.0182 -0.5181
  133MPD2     H 2031   3.851   4.674   9.137  1.2633 -2.0325 -0.9915
  133MPD2    H1 2032   3.694   4.289   9.213  2.3348  0.6504  0.3780
  133MPD2    H2 2033   3.436   4.597   9.080  0.2514  0.5856 -2.2609
  133MPD2    H3 2034   3.468   4.370   9.155  0.8825 -1.3121 -3.7637
  133MPD2     N 2035   3.905   4.419   9.195  0.0814 -0.8575  0.5387
  133MPD2    H5 2036   3.899   4.323   9.227  1.7148 -1.5674 -1.2970
  133MPD2    N1 2037   3.612   0.063   9.049  0.5713  0.2404 -0.0740
  133MPD2    H7 2038   3.516   0.090   9.028  0.4817  0.3829  0.5111
  134TCq2    C1 2039   3.703   0.157   9.015 -0.2715 -0.1056 -1.2241
  134TCq2    O2 2040   3.822   0.169   9.042  0.3747  0.0077 -0.1434
  134TCq2    C2 2041   3.647   0.283   8.970  0.8342  0.6783  0.5354
  134TCq2    C3 2042   3.550   0.277   8.871  0.5830 -0.0230  0.4716
  134TCq2    C4 2043   3.515   0.389   8.804  0.2178 -0.1718 -0.6664
  134TCq2    C5 2044   3.586   0.508   8.826  0.6101  0.0808 -0.1051
  134TCq2    C6 2045   3.680   0.514   8.922  0.6024  0.6078  0.8495
  134TCq2    C7 2046   3.715   0.400   8.994  1.0701  0.2109  0.7137
  134TCq2    C8 2047   3.730   0.648   8.956 -0.2932  0.2069 -0.4929
  134TCq2    O4 2048   3.754   0.651   9.075 -0.1318  0.2323 -0.7089
  134TCq2    C9 2049   3.400   0.380   8.717  0.1679  0.3192 -0.1980
  134TCq2    O5 2050   3.313   0.294   8.755  0.5771 -0.0396  0.5259
  134TCq2    O6 2051   3.373   0.483   8.644  0.1663  0.3892  0.2887
  134TCq2    H2 2052   3.504   0.182   8.846 -0.0791  0.5037 -0.3252
  134TCq2    H3 2053   3.551   0.586   8.759  0.0049  1.2200  1.5492
  134TCq2    H4 2054   3.800   0.409   9.060  2.2946  0.5194 -0.9108
  135MPD2     C 2055   2.841   0.200   9.825  0.5971  0.0521 -0.3198
  135MPD2    C1 2056   2.778   0.080   9.861 -0.6842  0.5748  0.1564
  135MPD2    C2 2057   2.845   4.679   9.828  0.6417 -0.9952 -0.2904
  135MPD2    C3 2058   2.970   4.681   9.765  0.2599  0.3898  0.2738
  135MPD2    C4 2059   3.028   0.077   9.726  0.2170  0.4193  0.1104
  135MPD2    C5 2060   2.960   0.192   9.763 -0.2182  0.6732  0.4121
  135MPD2     H 2061   2.799   4.589   9.865 -0.8618  0.7583  2.1050
  135MPD2    H1 2062   3.117   0.085   9.665 -1.1842 -0.3014 -2.0404
  135MPD2    H2 2063   2.797   0.293   9.857  1.3714 -0.3433  1.8838
  135MPD2    H3 2064   3.013   0.281   9.730  1.0705 -0.1047  0.4143
  135MPD2     N 2065   3.056   4.568   9.761 -0.1397 -0.2840 -0.3366
  135MPD2    H5 2066   3.146   4.586   9.719 -0.0345 -0.2534 -0.0968
  135MPD2    N1 2067   2.659   0.077   9.933 -0.5511 -0.3491  0.2847
  135MPD2    H7 2068   2.638   4.706   9.970  1.8880 -0.9562  0.1780
  136TCq2    C1 2069   2.565   0.179   9.928  0.4678  0.0769 -0.4371
  136TCq2    O2 2070   2.575   0.301   9.914 -0.9639  0.6387 -0.3651
  136TCq2    C2 2071   2.436   0.135   9.966 -0.4771 -0.4390 -0.0358
  136TCq2    C3 2072   2.407   0.006   9.950 -0.5546  0.5399 -0.4106
  136TCq2    C4 2073   2.300   4.668  10.012 -0.3973  0.4101 -0.4839
  136TCq2    C5 2074   2.232   0.019  10.104  0.1959 -0.7229  1.1138
  136TCq2    C6 2075   2.278   0.146  10.131 -0.7946  0.1604  0.7259
  136TCq2    C7 2076   2.373   0.208  10.058 -0.3012 -0.2456  0.0933
  136TCq2    C8 2077   2.203   0.234  10.210  0.0849  0.7484 -0.1375
  136TCq2    O4 2078   2.207   0.354  10.189 -0.1011  0.6967 -0.2309
  136TCq2    C9 2079   2.260   4.529   9.984  0.4504  0.0007 -0.0492
  136TCq2    O5 2080   2.328   4.454   9.909  0.4119 -0.0691 -0.2858
  136TCq2    O6 2081   2.165   4.485  10.056 -0.2764 -0.6221 -0.3865
  136TCq2    H2 2082   2.469   4.656   9.896 -0.3438 -0.4257  1.1049
  136TCq2    H3 2083   2.150   4.693  10.157  0.3771 -2.6752 -0.3375
  136TCq2    H4 2084   2.406   0.308  10.083 -0.1917 -0.4435  0.7381
  137MPD2     C 2085   1.492   3.496   9.979  0.0193 -0.5559 -0.0893
  137MPD2    C1 2086   1.491   3.634   9.981  0.2643  0.0029 -0.3645
  137MPD2    C2 2087   1.587   3.694  10.050  0.4015 -0.0776  0.3603
  137MPD2    C3 2088   1.692   3.620  10.119 -0.2446  0.4557 -0.0063
  137MPD2    C4 2089   1.700   3.483  10.111 -0.0127  0.4406 -0.0392
  137MPD2    C5 2090   1.595   3.425  10.038  0.1630  0.0208 -0.0743
  137MPD2     H 2091   1.588   3.802  10.059  0.7536 -0.0341 -0.1815
  137MPD2    H1 2092   1.781   3.417  10.142  0.1230 -0.0420 -1.4260
  137MPD2    H2 2093   1.419   3.433   9.929 -1.2030  2.6675 -2.3315
  137MPD2    H3 2094   1.604   3.318  10.020  1.5233  0.2408 -0.7743
  137MPD2     N 2095   1.799   3.704  10.178  0.8825  0.0107 -0.0881
  137MPD2    H5 2096   1.783   3.804  10.184  0.5356  0.0389 -1.3708
  137MPD2    N1 2097   1.379   3.707   9.937  0.2075  0.0794 -0.4466
  137MPD2    H7 2098   1.301   3.651   9.907  0.7902 -0.7998 -0.3065
  138TCq2    C1 2099   1.369   3.845   9.923 -0.0031 -0.6793 -0.6766
  138TCq2    O2 2100   1.442   3.938   9.948  0.2775  0.1457 -0.2902
  138TCq2    C2 2101   1.244   3.894   9.857 -0.2551 -0.7608 -0.2900
  138TCq2    C3 2102   1.130   3.824   9.885 -0.2841  0.1382 -0.8256
  138TCq2    C4 2103   1.016   3.899   9.875  0.3824 -0.6264 -0.3221
  138TCq2    C5 2104   1.014   4.028   9.825 -0.1426 -0.7928 -0.1612
  138TCq2    C6 2105   1.130   4.090   9.793 -0.1578 -0.1979 -0.1812
  138TCq2    C7 2106   1.248   4.018   9.805  0.3145 -0.4986  0.7599
  138TCq2    C8 2107   1.132   4.232   9.805  0.2839  0.5682 -0.5866
  138TCq2    O4 2108   1.225   4.295   9.754  0.2613  0.1649 -0.1656
  138TCq2    C9 2109   0.885   3.833   9.904 -0.1550 -0.5857 -0.0035
  138TCq2    O5 2110   0.890   3.749   9.995 -0.0477  0.1781 -0.0326
  138TCq2    O6 2111   0.784   3.892   9.858  0.0214 -0.2700 -0.0377
  138TCq2    H2 2112   1.132   3.729   9.937 -0.1945  0.0201 -1.0434
  138TCq2    H3 2113   0.921   4.083   9.833 -0.6189 -1.6946  0.5140
  138TCq2    H4 2114   1.342   4.071   9.808  0.8791 -1.5682  2.0436
  139TMC2    C1 2115   1.329   2.489  13.561 -0.6918 -0.1043 -0.2767
  139TMC2    C2 2116   1.283   2.366  13.576 -0.7970 -0.0870 -0.4196
  139TMC2    C3 2117   1.158   2.349  13.632 -0.4935  0.1690  0.1044
  139TMC2    C4 2118   1.261   2.597  13.606 -0.8185 -0.8300  0.2884
  139TMC2    C5 2119   1.131   2.576  13.647  0.2811  0.0607  0.5750
  139TMC2    C6 2120   1.078   2.452  13.664 -0.4520 -0.4043  0.4065
  139TMC2     C 2121   1.466   2.512  13.505  0.4053  0.2869 -0.5538
  139TMC2     O 2122   1.485   2.611  13.434 -0.3065  0.3918  0.5202
  139TMC2     H 2123   1.339   2.278  13.546  0.2207  0.0855  0.9280
  139TMC2    H1 2124   1.303   2.695  13.584 -2.4473 -0.5078 -1.3748
  139TMC2    H2 2125   0.975   2.439  13.696 -1.2957  3.0500 -0.8675
  139TMC2    C7 2126   1.060   2.698  13.685  0.6382 -0.0987  0.1310
  139TMC2    C8 2127   1.105   2.218  13.649  0.6862  0.2441 -0.0252
  139TMC2    O1 2128   1.118   2.810  13.693 -0.3223  0.5990 -0.3158
  139TMC2    O2 2129   0.985   2.201  13.661 -0.3657  0.2771  0.0275
  139TMC2    O5 2130   1.204   2.149  13.697  0.2277  0.0617  0.6798
  139TMC2    H5 2131   1.290   2.195  13.710 -0.0196  0.9640 -0.8443
  140MPD2     C 2132   1.735   2.472  13.384 -0.4866  1.0504 -0.2212
  140MPD2    C1 2133   1.686   2.390  13.481 -0.2389  0.3719 -0.4611
  140MPD2    C2 2134   1.761   2.294  13.540  0.4295  0.4367  0.3656
  140MPD2    C3 2135   1.888   2.262  13.497 -0.5851 -0.4801  0.3823
  140MPD2    C4 2136   1.942   2.336  13.389  0.6336  0.1164 -0.3022
  140MPD2    C5 2137   1.856   2.431  13.338  0.4981 -0.8218 -0.0539
  140MPD2     H 2138   1.702   2.228  13.603  1.6642 -2.3352 -1.4078
  140MPD2    H1 2139   2.042   2.320  13.351  0.7899  1.3793 -0.4167
  140MPD2    H2 2140   1.691   2.558  13.335  0.2244  1.6872  0.2586
  140MPD2    H3 2141   1.899   2.488  13.256  2.6385  0.0281  1.6355
  140MPD2     N 2142   1.963   2.160  13.560  0.7075 -0.5072  0.0419
  140MPD2    H5 2143   1.914   2.110  13.634  0.9104 -2.5252 -1.2136
  140MPD2    N1 2144   1.557   2.412  13.537  0.6041  0.0800 -0.7934
  140MPD2    H7 2145   1.527   2.355  13.615 -0.7360  1.4400 -0.2925
  141TCq2    C1 2146   2.956   3.326  14.476 -0.0901  0.1787  0.7041
  141TCq2    O2 2147   2.863   3.399  14.434  0.3967  0.0266 -0.3899
  141TCq2    C2 2148   2.948   3.299  14.617  0.3193 -0.3421  0.1151
  141TCq2    C3 2149   3.020   3.198  14.675 -0.0253  0.4002  0.2587
  141TCq2    C4 2150   2.997   3.177  14.809  0.1753  0.2691 -0.1380
  141TCq2    C5 2151   2.918   3.261  14.882 -0.3888  0.6708  0.3277
  141TCq2    C6 2152   2.838   3.358  14.818 -0.4419 -0.3825  0.3767
  141TCq2    C7 2153   2.853   3.374  14.684  0.2001 -0.4866 -0.0515
  141TCq2    C8 2154   2.788   3.458  14.909  0.5238 -0.0313  0.2759
  141TCq2    O4 2155   2.818   3.448  15.024  0.3183 -0.2369  0.2439
  141TCq2    C9 2156   3.054   3.062  14.866 -0.3148  0.0269  0.2120
  141TCq2    O5 2157   3.119   2.983  14.793  0.5625 -0.5334  0.1048
  141TCq2    O6 2158   3.020   3.038  14.987 -0.1599 -0.1316 -0.0681
  141TCq2    H2 2159   3.091   3.139  14.617 -1.2614 -0.3109 -0.5387
  141TCq2    H3 2160   2.910   3.238  14.987  2.2217  0.1958  0.4143
  141TCq2    H4 2161   2.815   3.469  14.647  0.7768 -0.9900 -1.9096
  142MPD2     C 2162   0.641   2.210   9.812 -0.1014 -0.7053 -0.0326
  142MPD2    C1 2163   0.659   2.215   9.949  0.0292 -0.0103  0.2239
  142MPD2    C2 2164   0.665   2.336  10.015 -0.1112 -0.8470 -0.5573
  142MPD2    C3 2165   0.642   2.449   9.936  0.2488 -0.1784  0.6854
  142MPD2    C4 2166   0.606   2.449   9.796 -0.3230  0.0520  0.0101
  142MPD2    C5 2167   0.607   2.320   9.743  0.2104  0.1297 -0.5798
  142MPD2     H 2168   0.686   2.357  10.120  0.5625  0.3007 -0.9247
  142MPD2    H1 2169   0.592   2.540   9.739  0.5905 -0.0120 -0.3137
  142MPD2    H2 2170   0.634   2.115   9.759  1.4251 -0.1606 -1.2118
  142MPD2    H3 2171   0.570   2.302   9.643 -0.4854 -0.5025 -0.2087
  142MPD2     N 2172   0.673   2.583   9.981 -0.1369 -0.1431  0.6688
  142MPD2    H5 2173   0.661   2.655   9.910  2.0397 -1.1708 -0.7433
  142MPD2    N1 2174   0.680   2.091  10.014 -0.1897  0.2607 -0.7397
  142MPD2    H7 2175   0.682   2.006   9.958 -2.7190 -1.3688  1.6338
  143TCq2    C1 2176   0.728   2.625  10.102  0.5187  0.3497 -0.2544
  143TCq2    O2 2177   0.757   2.568  10.205 -0.2788 -0.1041 -0.4475
  143TCq2    C2 2178   0.766   2.757  10.082  0.2943  0.1825  0.3401
  143TCq2    C3 2179   0.897   2.791  10.100 -0.2757  0.4942  0.0765
  143TCq2    C4 2180   0.945   2.894  10.029  0.0870  0.6557  0.3345
  143TCq2    C5 2181   0.870   2.974   9.957  0.5133  0.3082 -0.0016
  143TCq2    C6 2182   0.739   2.936   9.941 -0.6870  0.1474 -0.0783
  143TCq2    C7 2183   0.683   2.825   9.999 -0.4426  0.8441  0.0945
  143TCq2    C8 2184   0.649   3.001   9.845 -0.2655 -0.4309  0.0243
  143TCq2    O4 2185   0.541   2.947   9.812  0.2282 -0.3328  0.4250
  143TCq2    C9 2186   1.079   2.916  10.045 -0.7980  0.2401  0.6246
  143TCq2    O5 2187   1.137   3.003   9.974 -0.2168 -0.1179 -0.1682
  143TCq2    O6 2188   1.139   2.848  10.130 -0.3774  0.2644 -0.1120
  143TCq2    H2 2189   0.965   2.729  10.158 -0.5318 -0.4568 -0.6542
  143TCq2    H3 2190   0.909   3.041   9.881  1.9293 -0.4015  0.0910
  143TCq2    H4 2191   0.577   2.805   9.994 -0.1269 -1.2505  1.5703
  144MPD2     C 2192   2.631   1.180   0.758 -0.8277 -0.2392  0.3023
  144MPD2    C1 2193   2.669   1.074   0.676 -0.2777 -0.7024 -0.0824
  144MPD2    C2 2194   2.795   1.023   0.698 -0.1712  0.8822  0.1240
  144MPD2    C3 2195   2.882   1.084   0.787 -1.5622  0.1338 -0.6088
  144MPD2    C4 2196   2.844   1.203   0.846 -0.1996  0.3449 -0.4445
  144MPD2    C5 2197   2.716   1.251   0.830  0.5592 -0.3190 -0.2497
  144MPD2     H 2198   2.819   0.938   0.636  0.9860  0.1083  1.6504
  144MPD2    H1 2199   2.911   1.267   0.902 -0.6328 -2.6136  3.4179
  144MPD2    H2 2200   2.528   1.214   0.765 -0.6682  0.0967  0.9299
  144MPD2    H3 2201   2.683   1.338   0.885  2.5212 -0.5701  1.3508
  144MPD2     N 2202   3.012   1.038   0.805 -0.6841  0.0520  0.1787
  144MPD2    H5 2203   3.073   1.101   0.857 -0.0358  0.1034 -0.6373
  144MPD2    N1 2204   2.580   1.022   0.576 -0.7509  0.4021  0.2826
  144MPD2    H7 2205   2.617   0.951   0.513 -2.1579  1.2580 -1.5084
  145TCq2    C1 2206   3.071   0.918   0.762 -0.4256 -0.1177  0.8714
  145TCq2    O2 2207   3.022   0.832   0.684  0.3618  0.3857 -0.5800
  145TCq2    C2 2208   3.215   0.912   0.789  0.6542  0.3264  0.5434
  145TCq2    C3 2209   3.297   0.852   0.697  0.4941 -1.5179 -0.8388
  145TCq2    C4 2210   3.428   0.865   0.711 -0.1964  0.2765  0.0838
  145TCq2    C5 2211   3.484   0.934   0.817  0.5199 -0.6116  0.1677
  145TCq2    C6 2212   3.399   1.001   0.905 -0.0854 -0.3763 -0.2362
  145TCq2    C7 2213   3.265   0.981   0.897 -0.3232  0.0692  0.0841
  145TCq2    C8 2214   3.457   1.027   1.034  0.5344  0.5746 -0.8239
  145TCq2    O4 2215   3.553   0.955   1.055  0.1065  0.2953 -0.0121
  145TCq2    C9 2216   3.520   0.805   0.614  0.0793  0.1178 -0.2320
  145TCq2    O5 2217   3.475   0.722   0.524  0.6046  0.0873  0.5894
  145TCq2    O6 2218   3.647   0.814   0.634  0.2882 -0.5184 -0.3753
  145TCq2    H2 2219   3.257   0.793   0.615 -1.5067 -2.3009  0.7059
  145TCq2    H3 2220   3.592   0.948   0.816  0.4862 -0.3708 -0.1540
  145TCq2    H4 2221   3.195   1.012   0.974  1.9590  2.6942  1.0668
  146TMC2    C1 2222   0.226   3.995  12.221 -0.5895  0.3812 -0.5174
  146TMC2    C2 2223   0.197   3.943  12.095  0.3010  0.0928 -0.5395
  146TMC2    C3 2224   0.296   3.872  12.031  0.6840  0.2466 -0.6571
  146TMC2    C4 2225   0.346   3.984  12.279 -0.4135  0.2316 -0.8718
  146TMC2    C5 2226   0.445   3.935  12.199  0.4952 -0.0270  0.4322
  146TMC2    C6 2227   0.417   3.884  12.081  0.3010 -0.4435  0.5862
  146TMC2     C 2228   0.124   4.081  12.276  0.6501  0.4003  0.0156
  146TMC2     O 2229   0.028   4.111  12.205 -0.2143 -0.4080  0.7012
  146TMC2     H 2230   0.091   3.947  12.069  0.1007 -0.3421  0.1980
  146TMC2    H1 2231   0.372   4.045  12.365 -1.3912 -1.2739  0.4884
  146TMC2    H2 2232   0.494   3.845  12.016  1.3226  1.5160  0.6191
  146TMC2    C7 2233   0.579   3.940  12.252 -0.2237 -1.1686 -0.1258
  146TMC2    C8 2234   0.283   3.844  11.896 -0.3236 -0.1932  0.3910
  146TMC2    O1 2235   0.672   3.920  12.176  0.1310 -0.1480 -0.3044
  146TMC2    O2 2236   0.360   3.890  11.817 -0.2962  0.0006  0.1198
  146TMC2    O5 2237   0.153   3.819  11.882  0.5040  0.0998  0.3280
  146TMC2    H5 2238   0.131   3.769  11.963 -1.5053  1.9472  0.9306
  147MPD2     C 2239   0.894   3.943  12.666  0.2177 -0.7554 -0.3608
  147MPD2    C1 2240   0.765   3.953  12.705  0.0268  0.0078 -0.5404
  147MPD2    C2 2241   0.666   3.949  12.607 -0.4656 -0.1231 -0.0027
  147MPD2    C3 2242   0.691   3.934  12.474 -0.3411 -0.4267  0.4292
  147MPD2    C4 2243   0.824   3.922  12.432 -0.0630  0.0986 -0.5941
  147MPD2    C5 2244   0.921   3.928  12.532  0.0872 -0.6079  0.0269
  147MPD2     H 2245   0.563   3.963  12.641  0.0227  1.8735  0.6654
  147MPD2    H1 2246   0.865   3.903  12.334 -0.8834 -0.9896 -0.7218
  147MPD2    H2 2247   0.974   3.955  12.738  2.5857  0.3094 -3.1455
  147MPD2    H3 2248   1.024   3.915  12.498  0.6926  0.5003  1.4550
  147MPD2     N 2249   0.581   3.940  12.388 -0.5349  0.1813  0.2592
  147MPD2    H5 2250   0.493   3.935  12.438 -1.2102  0.0375 -0.9327
  147MPD2    N1 2251   0.722   3.984  12.834 -0.2215 -0.7349 -0.5042
  147MPD2    H7 2252   0.794   4.012  12.900  2.6626 -3.1679 -2.6133
  148MPD2     C 2253   4.691   3.536   9.761  0.4260  0.4386  0.4000
  148MPD2    C1 2254   0.015   3.427   9.832  0.1436 -0.0731 -0.3148
  148MPD2    C2 2255   4.684   3.298   9.821 -0.8401  0.3866 -0.0535
  148MPD2    C3 2256   4.567   3.288   9.744  0.2883  0.4664  0.0451
  148MPD2    C4 2257   4.537   3.396   9.662  0.4609  0.2604  0.4229
  148MPD2    C5 2258   4.597   3.519   9.668  0.6194 -0.4721  0.7039
  148MPD2     H 2259   4.699   3.226   9.901 -0.7002 -0.6287 -0.9999
  148MPD2    H1 2260   4.445   3.398   9.605  0.0608  0.3270  1.0714
  148MPD2    H2 2261   0.010   3.636   9.768  1.5624  0.0718 -0.8259
  148MPD2    H3 2262   4.571   3.610   9.615 -0.5721 -2.0659 -1.4336
  148MPD2     N 2263   4.483   3.173   9.741  0.0921  0.2019  0.5221
  148MPD2    H5 2264   4.399   3.184   9.684  0.9130  0.3866 -0.6685
  148MPD2    N1 2265   0.109   3.444   9.936  0.0719 -0.3931  0.1318
  148MPD2    H7 2266   0.153   3.364   9.980 -0.0961 -0.0743  0.8814
  149TCq2    C1 2267   0.153   3.566   9.989  0.4421  0.0868  0.3359
  149TCq2    O2 2268   0.125   3.678   9.950 -0.1548 -0.4813 -0.4607
  149TCq2    C2 2269   0.239   3.546  10.106  0.4371  0.3874 -0.3319
  149TCq2    C3 2270   0.330   3.638  10.140 -0.3601  0.0642  0.7858
  149TCq2    C4 2271   0.405   3.621  10.253 -0.3374 -0.1725  0.5872
  149TCq2    C5 2272   0.394   3.505  10.331 -0.1089 -0.3549  0.4499
  149TCq2    C6 2273   0.290   3.425  10.301 -1.0252 -0.3619 -0.2175
  149TCq2    C7 2274   0.213   3.438  10.187  0.7340 -0.5404 -0.1139
  149TCq2    C8 2275   0.278   3.289  10.366 -0.5200 -0.1356 -0.5689
  149TCq2    O4 2276   0.252   3.191  10.297  0.0806 -0.1281  0.1676
  149TCq2    C9 2277   0.525   3.697  10.254  0.5315  0.5728  0.7030
  149TCq2    O5 2278   0.547   3.773  10.155 -0.2535 -0.2299 -0.4478
  149TCq2    O6 2279   0.620   3.641  10.316  0.5544 -0.1243  0.5707
  149TCq2    H2 2280   0.363   3.715  10.070 -3.7550  0.4154 -0.4369
  149TCq2    H3 2281   0.468   3.495  10.410  1.3864  1.1027 -0.7876
  149TCq2    H4 2282   0.137   3.363  10.166 -1.4393  1.8983 -0.9388
  150MPD2     C 2283   1.955   2.248  12.086  0.3822 -0.1473 -0.2186
  150MPD2    C1 2284   1.922   2.379  12.064  0.5240  0.3809 -0.4585
  150MPD2    C2 2285   1.998   2.476  12.124  0.0174 -0.5293 -0.4921
  150MPD2    C3 2286   2.099   2.443  12.214 -0.4646 -0.0556  0.2580
  150MPD2    C4 2287   2.118   2.314  12.254 -0.0142 -0.5554  0.6163
  150MPD2    C5 2288   2.048   2.217  12.184 -0.4007 -0.1663 -0.4193
  150MPD2     H 2289   1.993   2.582  12.105  1.2955  0.1409  2.8920
  150MPD2    H1 2290   2.187   2.292  12.334 -0.7281 -0.1479  1.3485
  150MPD2    H2 2291   1.901   2.169  12.036  0.0117  0.2020 -0.3742
  150MPD2    H3 2292   2.064   2.111  12.197  0.6001 -0.1563 -1.5591
  150MPD2     N 2293   2.179   2.545  12.266 -0.6581 -0.3920  0.1727
  150MPD2    H5 2294   2.153   2.634  12.223 -1.1853 -0.2411  0.8073
  150MPD2    N1 2295   1.829   2.393  11.963 -0.1531  0.6391  0.0950
  150MPD2    H7 2296   1.772   2.315  11.929 -0.0295 -0.1337  1.6894
  151TCq2    C1 2297   2.286   2.538  12.343  0.7822  0.2472  0.1714
  151TCq2    O2 2298   2.343   2.451  12.401  0.4174 -0.0904  0.0120
  151TCq2    C2 2299   2.352   2.670  12.361 -0.3065 -0.1170 -0.1992
  151TCq2    C3 2300   2.282   2.787  12.378  0.4057 -0.2346 -0.2512
  151TCq2    C4 2301   2.354   2.896  12.422 -0.3015 -0.5894  0.5108
  151TCq2    C5 2302   2.478   2.879  12.462 -0.7558  0.3239  0.5719
  151TCq2    C6 2303   2.542   2.760  12.435 -0.3201 -0.1860  0.8318
  151TCq2    C7 2304   2.483   2.654  12.380 -0.6413 -0.4968  0.4103
  151TCq2    C8 2305   2.638   2.733  12.540 -0.5530 -0.2101 -0.0765
  151TCq2    O4 2306   2.716   2.825  12.567 -0.0756 -0.0251  0.3804
  151TCq2    C9 2307   2.294   3.021  12.444  0.2314  0.0876 -0.0140
  151TCq2    O5 2308   2.362   3.110  12.495  0.0255  0.1976 -0.0119
  151TCq2    O6 2309   2.174   3.040  12.405  0.2566  0.1135 -0.6400
  151TCq2    H2 2310   2.180   2.804  12.346  0.0915 -0.1384  0.8358
  151TCq2    H3 2311   2.528   2.954  12.521  1.2851 -2.6797  2.6694
  151TCq2    H4 2312   2.529   2.565  12.340  2.4191 -0.2299  3.3119
  152MPD2     C 2313   1.570   1.956  12.468  0.6042 -0.7090 -0.3303
  152MPD2    C1 2314   1.602   2.083  12.438 -0.6097  0.1288 -0.0319
  152MPD2    C2 2315   1.525   2.161  12.352  0.0510  0.3151 -0.1047
  152MPD2    C3 2316   1.409   2.108  12.307  0.3089  0.0259  0.3421
  152MPD2    C4 2317   1.377   1.981  12.339 -0.0958 -0.8425 -0.9452
  152MPD2    C5 2318   1.453   1.908  12.420  0.2345  0.4656 -0.0044
  152MPD2     H 2319   1.552   2.264  12.330  0.8951 -0.1811 -1.3607
  152MPD2    H1 2320   1.292   1.929  12.296 -0.6369  0.2163 -1.1582
  152MPD2    H2 2321   1.635   1.898  12.532  0.9575  0.8137  0.6878
  152MPD2    H3 2322   1.436   1.805  12.448 -3.1874  0.9110 -0.4246
  152MPD2     N 2323   1.336   2.191  12.218 -0.3521  0.0696  0.0490
  152MPD2    H5 2324   1.357   2.290  12.213 -0.0597  0.1100  2.2924
  152MPD2    N1 2325   1.723   2.126  12.490  0.1555 -0.3762 -0.3155
  152MPD2    H7 2326   1.787   2.064  12.539  1.4709 -0.2546 -1.8592
  153TCq2    C1 2327   1.771   2.254  12.479  0.3492 -0.0985 -0.3264
  153TCq2    O2 2328   1.725   2.351  12.419 -0.1916 -0.0832  0.3275
  153TCq2    C2 2329   1.896   2.279  12.551  0.5113 -0.3699  0.0847
  153TCq2    C3 2330   1.954   2.178  12.629  0.6341 -0.1273 -0.1051
  153TCq2    C4 2331   2.049   2.221  12.717 -0.3811  0.1948 -0.6668
  153TCq2    C5 2332   2.088   2.348  12.728 -0.7049  0.2564 -1.2746
  153TCq2    C6 2333   2.041   2.445  12.638 -0.0625  0.0433  0.5760
  153TCq2    C7 2334   1.939   2.407  12.555 -0.1107  0.5896 -0.4703
  153TCq2    C8 2335   2.094   2.583  12.640 -0.0135 -0.5998 -0.1681
  153TCq2    O4 2336   2.016   2.670  12.611 -0.1930  0.2426 -0.8063
  153TCq2    C9 2337   2.116   2.123  12.798  0.4488  0.0698  0.0947
  153TCq2    O5 2338   2.216   2.176  12.860  1.4158 -0.3445 -0.3120
  153TCq2    O6 2339   2.087   2.005  12.765  0.1218  0.4501 -0.2951
  153TCq2    H2 2340   1.918   2.076  12.639  1.6604 -0.8285 -3.7283
  153TCq2    H3 2341   2.157   2.374  12.808 -0.7133  1.8571 -1.7809
  153TCq2    H4 2342   1.892   2.472  12.482  0.6844  0.9794 -0.6354
  154MPD2     C 2343   3.182   2.514   0.298  0.0987 -0.3022  0.1788
  154MPD2    C1 2344   3.181   2.446   0.418  0.1360 -0.0220  0.3607
  154MPD2    C2 2345   3.069   2.462   0.499 -0.4615  0.1677  0.6885
  154MPD2    C3 2346   2.966   2.544   0.466  0.5248  0.1577  0.4697
  154MPD2    C4 2347   2.972   2.614   0.346 -0.5725 -1.1125  0.0610
  154MPD2    C5 2348   3.086   2.606   0.279 -0.5360 -0.0146 -0.2295
  154MPD2     H 2349   3.063   2.405   0.591  0.6857  1.0918  1.3362
  154MPD2    H1 2350   2.893   2.680   0.313  0.3209  0.7037  1.5064
  154MPD2    H2 2351   3.266   2.515   0.229  0.5452 -2.0171  0.7001
  154MPD2    H3 2352   3.102   2.660   0.186 -2.2562 -1.0066 -1.1221
  154MPD2     N 2353   2.848   2.535   0.550  0.5532  0.8527  0.1797
  154MPD2    H5 2354   2.855   2.475   0.631  0.0188  0.6199  0.0579
  154MPD2    N1 2355   3.289   2.361   0.446  0.6043 -0.4676  0.5050
  154MPD2    H7 2356   3.358   2.350   0.373 -0.2824  0.3135 -0.4478
  155TCq2    C1 2357   3.312   2.280   0.556  0.2124  0.3144  0.2428
  155TCq2    O2 2358   3.239   2.256   0.653 -0.0251  0.2173  0.4111
  155TCq2    C2 2359   3.451   2.242   0.563 -0.7397 -0.1205  0.1775
  155TCq2    C3 2360   3.495   2.193   0.685  0.0644  0.0572  0.0420
  155TCq2    C4 2361   3.609   2.118   0.694  0.4825 -0.2243  0.1607
  155TCq2    C5 2362   3.678   2.084   0.581  0.6700  0.6170 -0.2693
  155TCq2    C6 2363   3.635   2.130   0.458 -0.3740  0.3132  0.4528
  155TCq2    C7 2364   3.519   2.208   0.449  0.1836 -0.2177  0.3535
  155TCq2    C8 2365   3.722   2.105   0.342 -0.0164  0.7893 -0.2016
  155TCq2    O4 2366   3.765   1.992   0.335 -0.2230 -0.1021 -0.2443
  155TCq2    C9 2367   3.643   2.053   0.823  0.1793  0.1081  1.0261
  155TCq2    O5 2368   3.563   2.074   0.920  0.2317  0.2212  0.0785
  155TCq2    O6 2369   3.753   1.996   0.832  1.1480 -0.3428  0.7328
  155TCq2    H2 2370   3.436   2.211   0.775  1.7807 -0.8216  1.3465
  155TCq2    H3 2371   3.756   2.009   0.596 -0.4419 -0.7096 -1.0925
  155TCq2    H4 2372   3.490   2.239   0.349  0.9286  2.1078  0.8461
  156MPD2     C 2373   1.875   4.406  12.015 -0.1771  0.7900  0.4225
  156MPD2    C1 2374   1.967   4.443  11.912  0.0359  0.4104 -0.0098
  156MPD2    C2 2375   2.098   4.452  11.954 -0.9180  0.1733  0.0124
  156MPD2    C3 2376   2.143   4.455  12.081  0.0877  0.2517 -0.0415
  156MPD2    C4 2377   2.046   4.438  12.179 -0.1734 -0.4126 -0.2357
  156MPD2    C5 2378   1.913   4.415  12.145  1.0019  0.0966  0.1301
  156MPD2     H 2379   2.175   4.478  11.883 -0.7301 -0.8569 -0.1623
  156MPD2    H1 2380   2.070   4.443  12.285 -0.9517  0.3180 -0.0922
  156MPD2    H2 2381   1.768   4.391  11.999  0.2063 -1.2672 -0.2596
  156MPD2    H3 2382   1.853   4.404  12.235  0.8518 -1.7287 -0.1904
  156MPD2     N 2383   2.279   4.498  12.108  0.1277  0.1368 -0.2594
  156MPD2    H5 2384   2.335   4.507  12.024  0.9576  0.1392  0.2974
  156MPD2    N1 2385   1.916   4.454  11.777 -0.4264  0.9005  0.9526
  156MPD2    H7 2386   1.817   4.445  11.758 -0.4620  1.3001  0.9412
  157TCq2    C1 2387   1.987   4.532  11.688  0.7608 -0.3361 -0.3373
  157TCq2    O2 2388   2.089   4.601  11.687 -0.5544 -0.1431  0.2586
  157TCq2    C2 2389   1.920   4.524  11.559  0.3041  0.0292  0.0146
  157TCq2    C3 2390   1.880   4.400  11.522  0.3829  0.8142 -0.7979
  157TCq2    C4 2391   1.838   4.390  11.392  0.4816  0.2961 -0.2117
  157TCq2    C5 2392   1.835   4.499  11.303 -0.0552 -0.0191  0.8569
  157TCq2    C6 2393   1.873   4.617  11.354  0.0034  0.0895 -0.5614
  157TCq2    C7 2394   1.926   4.641  11.481 -0.3350 -0.1409  0.3928
  157TCq2    C8 2395   1.823   0.016  11.298 -0.1694  0.2426  0.3212
  157TCq2    O4 2396   1.908   0.106  11.285  0.0945 -0.3935 -0.1828
  157TCq2    C9 2397   1.785   4.261  11.336 -1.1624 -0.2447 -0.0492
  157TCq2    O5 2398   1.787   4.258  11.209  0.5604  0.1442  0.3593
  157TCq2    O6 2399   1.765   4.170  11.418  0.2623 -0.3861 -0.5863
  157TCq2    H2 2400   1.885   4.309  11.581  0.0364  0.4770 -1.2813
  157TCq2    H3 2401   1.772   4.490  11.216 -0.1692 -0.6950  1.0072
  157TCq2    H4 2402   1.958   0.021  11.509  0.3954  0.3938 -2.3205
  158TMC2    C1 2403   1.794   3.906  13.280  0.0634  0.2892  0.2413
  158TMC2    C2 2404   1.811   3.971  13.164  0.8109 -0.7868  0.7011
  158TMC2    C3 2405   1.703   4.002  13.093  0.4321  0.2759  0.0862
  158TMC2    C4 2406   1.670   3.879  13.338 -0.3401 -0.5384  0.4104
  158TMC2    C5 2407   1.563   3.917  13.265  0.1035 -0.3541  0.2747
  158TMC2    C6 2408   1.578   3.982  13.147  0.9745 -0.1825  0.0612
  158TMC2     C 2409   1.928   3.872  13.344 -0.0196 -0.0946 -0.3582
  158TMC2     O 2410   2.032   3.892  13.282 -0.0354  0.4302  0.4105
  158TMC2     H 2411   1.907   3.976  13.113  0.9792 -0.8816  1.0081
  158TMC2    H1 2412   1.662   3.829  13.434  1.6013 -2.8405 -0.6378
  158TMC2    H2 2413   1.496   4.005  13.080  1.2289  1.4706  0.3204
  158TMC2    C7 2414   1.429   3.935  13.317 -0.0568  0.1471 -0.7234
  158TMC2    C8 2415   1.716   4.067  12.962  0.0052 -0.0296  0.2445
  158TMC2    O1 2416   1.364   4.024  13.261  0.1115  0.3946 -0.1392
  158TMC2    O2 2417   1.635   4.051  12.869 -0.3455  0.4957 -0.5215
  158TMC2    O5 2418   1.793   4.177  12.984  0.2037  0.0552 -0.1366
  158TMC2    H5 2419   1.850   4.170  13.063  1.5767  1.7152 -0.9757
  159MPD2     C 2420   2.237   3.663  13.686 -0.1530 -1.3457 -0.0018
  159MPD2    C1 2421   2.108   3.643  13.732 -0.3971  0.2430 -0.0814
  159MPD2    C2 2422   2.002   3.697  13.664  0.6384  0.3584  0.4449
  159MPD2    C3 2423   2.027   3.758  13.543  0.5048  0.5501 -0.2948
  159MPD2    C4 2424   2.157   3.776  13.500 -0.9958  0.1753  0.1719
  159MPD2    C5 2425   2.264   3.722  13.572  0.3078  0.6404 -0.3950
  159MPD2     H 2426   1.903   3.689  13.706 -0.9674 -0.4005 -3.4978
  159MPD2    H1 2427   2.197   3.810  13.405  0.4896 -1.4404  0.2214
  159MPD2    H2 2428   2.328   3.637  13.740  1.6461  2.4146 -1.1765
  159MPD2    H3 2429   2.355   3.747  13.519  0.1396 -0.6480 -1.3166
  159MPD2     N 2430   1.917   3.806  13.467 -0.1964 -0.0846  0.3212
  159MPD2    H5 2431   1.824   3.786  13.503 -1.9127  1.9586 -2.9563
  159MPD2    N1 2432   2.092   3.559  13.843 -0.2652  0.3336 -0.1701
  159MPD2    H7 2433   2.173   3.503  13.870 -0.8855 -1.2538 -1.5749
  160TMC2    C1 2434   1.415   1.612   0.435 -0.2638  0.5931 -0.8040
  160TMC2    C2 2435   1.527   1.582   0.373 -0.0274  0.0597 -0.0055
  160TMC2    C3 2436   1.643   1.573   0.446  0.1045 -0.2143  0.1376
  160TMC2    C4 2437   1.416   1.646   0.568  0.1310  0.1477 -0.8119
  160TMC2    C5 2438   1.532   1.639   0.634  0.1138 -0.7105 -0.0271
  160TMC2    C6 2439   1.655   1.582   0.579  0.1224 -0.0398  0.7736
  160TMC2     C 2440   1.295   1.635   0.350  0.6277 -0.2650  0.1662
  160TMC2     O 2441   1.269   1.562   0.253 -0.0324  0.0959 -0.1580
  160TMC2     H 2442   1.525   1.562   0.266 -0.3910  0.0457  0.0036
  160TMC2    H1 2443   1.328   1.685   0.618 -0.9853 -4.8453  1.1171
  160TMC2    H2 2444   1.750   1.568   0.629 -0.3707 -1.6242  1.2833
  160TMC2    C7 2445   1.529   1.667   0.773  0.8248 -0.5628  0.2452
  160TMC2    C8 2446   1.753   1.513   0.375  0.1204  0.1174 -0.3956
  160TMC2    O1 2447   1.438   1.623   0.841  0.4209  0.0376  0.2694
  160TMC2    O2 2448   1.733   1.440   0.279  0.1699 -0.1825 -0.1830
  160TMC2    O5 2449   1.871   1.543   0.433 -0.0219 -0.4261 -0.0658
  160TMC2    H5 2450   1.872   1.623   0.491  0.8479  0.4693 -1.3190
  161MPD2     C 2451   1.029   1.733   0.247  0.2469 -0.3309  0.0413
  161MPD2    C1 2452   1.101   1.790   0.349 -0.0566 -0.1734  1.0966
  161MPD2    C2 2453   1.053   1.905   0.409 -0.2246 -0.1468  0.4821
  161MPD2    C3 2454   0.938   1.970   0.363  0.1880 -0.1567  0.0831
  161MPD2    C4 2455   0.879   1.914   0.250  0.0866  0.4773 -0.4297
  161MPD2    C5 2456   0.928   1.800   0.189  0.0414 -0.3204 -0.4293
  161MPD2     H 2457   1.107   1.966   0.481 -0.3215 -0.4905  0.8459
  161MPD2    H1 2458   0.784   1.944   0.207  0.8285  1.9953 -1.0091
  161MPD2    H2 2459   1.039   1.629   0.218 -0.9015  0.0470 -1.7256
  161MPD2    H3 2460   0.869   1.749   0.113 -0.6936  0.4458 -0.3686
  161MPD2     N 2461   0.890   2.097   0.410  0.4567 -0.1439 -0.1498
  161MPD2    H5 2462   0.823   2.155   0.361  1.2662 -0.8570 -2.0802
  161MPD2    N1 2463   1.220   1.740   0.401  0.2074  0.6002  0.2445
  161MPD2    H7 2464   1.259   1.796   0.477  2.7315  0.0425 -0.6178
  162TMC2    C1 2465   4.021   3.653   0.717 -0.4086 -0.3366  0.5311
  162TMC2    C2 2466   3.915   3.609   0.785 -1.1785 -0.1338  0.4000
  162TMC2    C3 2467   3.933   3.531   0.893 -0.1000 -0.1856 -0.4998
  162TMC2    C4 2468   4.142   3.614   0.750  0.0582  0.0338 -0.6562
  162TMC2    C5 2469   4.165   3.534   0.851 -0.0648 -0.8883  0.0460
  162TMC2    C6 2470   4.060   3.494   0.933 -0.2367 -0.1535  0.4791
  162TMC2     C 2471   3.990   3.723   0.600 -0.1438  0.0544 -0.5236
  162TMC2     O 2472   3.890   3.694   0.544  0.5542 -0.3138  0.6831
  162TMC2     H 2473   3.816   3.648   0.762 -2.1324 -2.7850  0.0338
  162TMC2    H1 2474   4.232   3.636   0.694  0.1805  1.1046 -0.0194
  162TMC2    H2 2475   4.067   3.419   1.011  2.2539 -1.1627 -0.6990
  162TMC2    C7 2476   4.302   3.512   0.894  1.0230 -0.3423  0.1589
  162TMC2    C8 2477   3.827   3.519   0.995  0.0611  0.1901  0.3176
  162TMC2    O1 2478   4.382   3.508   0.802 -0.0997 -0.6519  0.0755
  162TMC2    O2 2479   3.858   3.536   1.108 -0.7639  0.3865 -0.0981
  162TMC2    O5 2480   3.703   3.531   0.944 -0.0563  0.2750  0.4137
  162TMC2    H5 2481   3.694   3.511   0.849 -0.7538  1.4914  0.2167
  163MPD2     C 2482   4.134   3.996   0.192 -0.2348 -0.1031  0.0140
  163MPD2    C1 2483   4.063   3.875   0.201 -0.0332  0.1862  0.1904
  163MPD2    C2 2484   4.041   3.816   0.322  0.1904  0.4317 -0.6709
  163MPD2    C3 2485   4.109   3.869   0.434 -0.1430 -0.5382 -0.2260
  163MPD2    C4 2486   4.180   3.982   0.426  0.1773  0.6585  0.0093
  163MPD2    C5 2487   4.184   4.045   0.308 -0.7636  0.3460  0.3949
  163MPD2     H 2488   3.994   3.718   0.333 -1.3227  1.4999  2.3252
  163MPD2    H1 2489   4.236   4.019   0.510  0.2279  1.4408 -0.3730
  163MPD2    H2 2490   4.138   4.049   0.098 -0.8651  0.4641  0.3085
  163MPD2    H3 2491   4.232   4.142   0.296  0.6553 -0.5256 -1.0153
  163MPD2     N 2492   4.087   3.814   0.564 -0.1210  0.0277 -0.0841
  163MPD2    H5 2493   4.153   3.854   0.631  0.3432 -2.0867  0.7184
  163MPD2    N1 2494   4.031   3.817   0.080  0.0314  0.1265 -0.4349
  163MPD2    H7 2495   4.064   3.868  17.685 -2.2545  2.2054 -0.0535
  164TCq2    C1 2496   0.826   2.782  10.685  0.3554  0.8036  0.8618
  164TCq2    O2 2497   0.830   2.706  10.587 -0.1305 -0.2757 -0.2951
  164TCq2    C2 2498   0.765   2.728  10.803  0.3407 -0.3888 -0.1088
  164TCq2    C3 2499   0.746   2.593  10.812 -0.6829 -0.2045  0.4229
  164TCq2    C4 2500   0.680   2.548  10.925 -0.0211 -0.0478 -0.4228
  164TCq2    C5 2501   0.624   2.634  11.014  0.0634  0.3756 -0.1883
  164TCq2    C6 2502   0.639   2.772  10.999  0.0774 -0.2967 -0.1904
  164TCq2    C7 2503   0.701   2.819  10.887  0.7106  0.1995  0.2506
  164TCq2    C8 2504   0.554   2.858  11.081 -0.1207 -0.0392  0.5482
  164TCq2    O4 2505   0.547   2.975  11.054 -0.0689  0.0759  0.3214
  164TCq2    C9 2506   0.649   2.405  10.937  0.5537 -0.1558 -0.3015
  164TCq2    O5 2507   0.567   2.370  11.028 -0.2143  0.0779  0.3152
  164TCq2    O6 2508   0.686   2.327  10.845 -0.3231  0.3436 -0.3507
  164TCq2    H2 2509   0.784   2.521  10.740  2.4967 -0.6315  2.4972
  164TCq2    H3 2510   0.568   2.593  11.097  0.2050 -2.3676 -1.4705
  164TCq2    H4 2511   0.722   2.926  10.887  1.6446  0.0265 -1.7700
  165MPD2     C 2512   1.160   4.488   1.888 -0.5095  0.3167 -0.0020
  165MPD2    C1 2513   1.147   4.513   1.755 -0.3956  0.5525  0.5130
  165MPD2    C2 2514   1.263   4.540   1.690 -0.0493  0.0286 -0.2480
  165MPD2    C3 2515   1.384   4.543   1.746 -0.0291 -0.2708 -0.0064
  165MPD2    C4 2516   1.395   4.512   1.878 -0.4217  0.5046 -0.5894
  165MPD2    C5 2517   1.280   4.498   1.954  0.0295  0.2401 -0.1704
  165MPD2     H 2518   1.257   4.568   1.585 -1.3667 -2.3041 -0.8027
  165MPD2    H1 2519   1.489   4.517   1.933 -0.3314  1.2499 -0.8014
  165MPD2    H2 2520   1.066   4.465   1.939 -0.6659 -2.6095 -1.6387
  165MPD2    H3 2521   1.285   4.480   2.061 -0.4079  0.0206 -0.1872
  165MPD2     N 2522   1.507   4.577   1.681 -0.1603 -0.0652 -0.4613
  165MPD2    H5 2523   1.585   4.580   1.746  0.1978  0.0702 -0.8941
  165MPD2    N1 2524   1.019   4.505   1.695 -0.1785 -0.7182 -0.3370
  165MPD2    H7 2525   0.953   4.470   1.764  1.5607 -0.7286  1.3258
  166TCq2    C1 2526   1.526   4.620   1.555  0.0568  0.1866  0.5201
  166TCq2    O2 2527   1.439   4.643   1.470  0.6127 -0.3364 -0.0119
  166TCq2    C2 2528   1.663   4.637   1.511  0.2649  0.2802  0.1349
  166TCq2    C3 2529   1.762   4.556   1.548  0.1162  0.7195 -0.2739
  166TCq2    C4 2530   1.886   4.590   1.501  0.0564 -0.3583 -0.3194
  166TCq2    C5 2531   1.903   4.695   1.414  0.0290  0.9435  0.0907
  166TCq2    C6 2532   1.793   0.049   1.374 -1.0360 -0.1583 -0.4192
  166TCq2    C7 2533   1.676   0.028   1.428 -0.0825  0.2143 -1.0914
  166TCq2    C8 2534   1.820   0.179   1.312 -0.5886 -0.2705  0.0541
  166TCq2    O4 2535   1.938   0.215   1.308  0.1220  0.9224  0.4682
  166TCq2    C9 2536   1.999   4.504   1.541  0.3689 -0.0208  0.4469
  166TCq2    O5 2537   1.997   4.443   1.650 -0.1545  0.3631  0.1408
  166TCq2    O6 2538   2.104   4.517   1.470  0.9232 -0.1146  0.2484
  166TCq2    H2 2539   1.755   4.482   1.628  0.7965 -1.4460 -2.2330
  166TCq2    H3 2540   1.997   4.704   1.362  0.2136 -1.3239  0.0335
  166TCq2    H4 2541   1.586   0.077   1.392 -1.4452 -1.3443  0.1864
  167TMC2    C1 2542   4.244   2.122  12.724 -0.4667 -0.3200 -0.6600
  167TMC2    C2 2543   4.154   2.091  12.822 -0.2726 -0.4781 -0.4545
  167TMC2    C3 2544   4.186   1.985  12.906  0.0655  0.2041  1.0245
  167TMC2    C4 2545   4.366   2.070  12.721  0.1875 -0.2766 -0.2692
  167TMC2    C5 2546   4.402   1.982  12.821 -0.6484 -0.1520 -0.0503
  167TMC2    C6 2547   4.315   1.943  12.917 -0.1054 -0.1914 -0.1533
  167TMC2     C 2548   4.213   2.245  12.649  0.5889  0.6297  0.3283
  167TMC2     O 2549   4.132   2.317  12.702  0.4605 -0.1243  0.2839
  167TMC2     H 2550   4.061   2.145  12.840  0.6737  0.7108  0.8535
  167TMC2    H1 2551   4.441   2.104  12.651  0.6475  1.9337  1.2852
  167TMC2    H2 2552   4.348   1.881  13.000 -1.2187  2.7785  2.5335
  167TMC2    C7 2553   4.519   1.896  12.800  0.1600 -1.2649  0.2466
  167TMC2    C8 2554   4.112   1.977  13.033 -0.3546  0.2018 -0.2596
  167TMC2    O1 2555   4.530   1.794  12.867 -0.0274  0.1524  0.9500
  167TMC2    O2 2556   4.168   1.984  13.143 -0.1092 -0.6517  0.1149
  167TMC2    O5 2557   3.996   1.911  13.019 -0.3146 -0.6827  0.7370
  167TMC2    H5 2558   3.963   1.904  12.926 -1.6445 -2.4624  1.3420
  168MPD2     C 2559   4.235   2.496  12.501 -0.0050  0.9529 -0.3485
  168MPD2    C1 2560   4.272   2.372  12.446  0.1178 -0.7614 -0.4136
  168MPD2    C2 2561   4.312   2.357  12.314 -0.2267 -0.3704 -0.8821
  168MPD2    C3 2562   4.306   2.476  12.240  0.1245  1.1506 -0.5449
  168MPD2    C4 2563   4.258   2.595  12.284  0.2655  0.2839 -0.4114
  168MPD2    C5 2564   4.237   2.604  12.421  0.6738  0.0961  0.2905
  168MPD2     H 2565   4.350   2.263  12.277  2.5911  0.9084 -1.2839
  168MPD2    H1 2566   4.253   2.678  12.215 -0.2253 -0.7134 -1.5644
  168MPD2    H2 2567   4.207   2.516  12.604 -4.0357 -1.6102 -0.9396
  168MPD2    H3 2568   4.206   2.701  12.459  0.4780  0.3174 -0.4380
  168MPD2     N 2569   4.347   2.470  12.108  0.1144  0.2420 -0.3062
  168MPD2    H5 2570   4.338   2.552  12.049  1.0921 -2.0972 -3.6909
  168MPD2    N1 2571   4.277   2.254  12.529 -0.5308  0.1653 -0.3176
  168MPD2    H7 2572   4.323   2.173  12.489  0.1719  0.4783 -0.1270
  169MPD1     C 2573   1.668   1.962   8.338  0.2095  0.0788  0.0550
  169MPD1    C1 2574   1.707   1.837   8.392 -0.0633 -0.0887 -0.2947
  169MPD1    C2 2575   1.807   1.828   8.486  0.2836 -0.5348  0.4619
  169MPD1    C3 2576   1.859   1.944   8.548 -0.1295 -0.2819 -0.3238
  169MPD1    C4 2577   1.807   2.069   8.509 -0.5244 -0.7646 -0.7770
  169MPD1    C5 2578   1.727   2.073   8.395  0.0028 -0.8582  0.5583
  169MPD1     H 2579   1.836   1.733   8.529 -0.2255 -0.2235  1.4870
  169MPD1    H1 2580   1.835   2.161   8.559 -0.7851  0.1278 -2.2850
  169MPD1    H2 2581   1.592   1.968   8.261  0.3864 -3.5532 -0.3992
  169MPD1    H3 2582   1.708   2.165   8.341  1.1680  0.3445  2.1803
  169MPD1     N 2583   1.941   1.937   8.665 -0.0717 -0.1966  0.1067
  169MPD1    H5 2584   1.946   1.841   8.697 -1.6424  0.4522  2.2599
  169MPD1    N1 2585   1.646   1.717   8.346  0.0175 -0.9279 -0.5084
  169MPD1    H6 2586   1.545   1.730   8.336  0.0874  1.3714  1.8749
  169MPD1    H7 2587   1.671   1.627   8.386 -1.4181 -0.9056  0.4332
  170MPD1     C 2588   0.402   0.418  12.841  0.6738 -0.2303 -0.4818
  170MPD1    C1 2589   0.432   0.548  12.829 -0.7645  0.8032  0.4773
  170MPD1    C2 2590   0.513   0.602  12.920  0.1127 -1.5809 -0.3074
  170MPD1    C3 2591   0.567   0.535  13.028 -0.6175  0.3084 -0.6415
  170MPD1    C4 2592   0.546   0.399  13.039  0.3894  0.0017  0.6338
  170MPD1    C5 2593   0.467   0.343  12.942  0.0159  0.6813 -0.1027
  170MPD1     H 2594   0.523   0.709  12.910 -0.6601 -1.4128  0.7909
  170MPD1    H1 2595   0.599   0.339  13.112  1.7678  1.5574  0.9264
  170MPD1    H2 2596   0.342   0.376  12.762  1.0458 -2.0437  0.2103
  170MPD1    H3 2597   0.482   0.236  12.935 -0.1259  0.5289  1.9734
  170MPD1     N 2598   0.653   0.612  13.107  0.6042  0.0617  0.2876
  170MPD1    H5 2599   0.674   0.708  13.083  0.4137 -0.2980 -1.3031
  170MPD1    N1 2600   0.366   0.625  12.735 -0.2609  0.0565  0.0697
  170MPD1    H6 2601   0.316   0.573  12.663  0.3367 -0.6271  0.1452
  170MPD1    H7 2602   0.423   0.703  12.705  0.3178 -0.7537 -0.9277
  171MPD1     C 2603   3.999   2.014  15.008  0.2660 -0.3338 -0.3359
  171MPD1    C1 2604   3.933   1.892  14.998  0.9141  0.8295 -0.4563
  171MPD1    C2 2605   3.957   1.798  15.094 -0.2733  0.3945 -0.0054
  171MPD1    C3 2606   4.018   1.831  15.215  0.5793  0.2170 -0.0096
  171MPD1    C4 2607   4.071   1.956  15.231  0.5019  0.3073  0.2937
  171MPD1    C5 2608   4.059   2.048  15.127  0.8306 -0.2578 -0.1073
  171MPD1     H 2609   3.935   1.693  15.084 -1.4341  0.7267 -0.8605
  171MPD1    H1 2610   4.123   1.982  15.322  0.3260 -1.2136  0.8311
  171MPD1    H2 2611   4.006   2.082  14.925  1.7136  0.0390  0.0966
  171MPD1    H3 2612   4.107   2.144  15.144 -0.1124  0.0845  0.6072
  171MPD1     N 2613   4.032   1.743  15.326 -0.1409 -0.3773 -0.5876
  171MPD1    H5 2614   4.102   1.762  15.398 -1.2753 -1.3623  0.7639
  171MPD1    N1 2615   3.877   1.855  14.870 -0.9809  0.0515  0.3313
  171MPD1    H6 2616   3.855   1.932  14.806 -2.2855 -1.2475 -0.7873
  171MPD1    H7 2617   3.809   1.780  14.877 -1.5168  0.5364  0.3799
  172MPD1     C 2618   2.579   0.311   0.382  0.0569  0.1035 -0.6133
  172MPD1    C1 2619   2.551   0.433   0.445  0.3610  0.0208 -0.3162
  172MPD1    C2 2620   2.646   0.534   0.442  0.2809 -0.3635 -0.2941
  172MPD1    C3 2621   2.765   0.528   0.377  0.1107  0.5851 -0.8512
  172MPD1    C4 2622   2.794   0.396   0.326 -0.2171  0.2818 -0.0264
  172MPD1    C5 2623   2.708   0.292   0.347 -0.9320  0.4184  0.3485
  172MPD1     H 2624   2.617   0.620   0.501  1.6104  0.3523 -0.6846
  172MPD1    H1 2625   2.884   0.372   0.270 -0.1602 -1.5991  0.8661
  172MPD1    H2 2626   2.510   0.227   0.383  1.0103 -0.6618  0.3687
  172MPD1    H3 2627   2.731   0.194   0.308 -0.2292  1.4302 -1.7603
  172MPD1     N 2628   2.859   0.633   0.363  0.0163  0.2031  0.4181
  172MPD1    H5 2629   2.945   0.623   0.310 -1.4854 -1.4447 -1.7157
  172MPD1    N1 2630   2.424   0.458   0.488  0.0236 -0.3545 -0.2778
  172MPD1    H6 2631   2.372   0.390   0.543 -2.0179  1.1015 -0.3565
  172MPD1    H7 2632   2.426   0.545   0.541  1.0279 -0.7658  0.3532
  173MPD1     C 2633   4.192   0.330  13.904 -1.1262 -0.2121  0.6679
  173MPD1    C1 2634   4.234   0.459  13.942 -0.5244 -0.3612  0.2947
  173MPD1    C2 2635   4.238   0.492  14.073 -1.1129  0.5867 -0.1906
  173MPD1    C3 2636   4.200   0.403  14.171 -0.2396 -0.0087 -0.3061
  173MPD1    C4 2637   4.163   0.270  14.137  0.5699  0.0521  0.5430
  173MPD1    C5 2638   4.156   0.238  14.000 -0.2574  0.4840 -0.4475
  173MPD1     H 2639   4.265   0.592  14.106 -0.3784 -0.3250  1.9658
  173MPD1    H1 2640   4.123   0.196  14.206  0.2961  1.6548  2.0975
  173MPD1    H2 2641   4.184   0.294  13.801 -1.3065  2.9961 -0.4353
  173MPD1    H3 2642   4.143   0.134  13.973 -0.5579  0.5422 -0.5250
  173MPD1     N 2643   4.199   0.457  14.299  0.0169 -0.9677  0.1512
  173MPD1    H5 2644   4.203   0.558  14.297 -1.8828 -0.9377 -2.0731
  173MPD1    N1 2645   4.278   0.543  13.840  0.2711 -0.1157  0.1165
  173MPD1    H6 2646   4.239   0.636  13.857 -1.5930 -0.9527  0.3721
  173MPD1    H7 2647   4.231   0.525  13.751  0.6821  1.7401 -0.4810
  174MPD1     C 2648   4.484   1.219  14.427 -0.1373  0.2437 -1.2826
  174MPD1    C1 2649   4.387   1.214  14.520 -0.2405  0.2861 -0.3628
  174MPD1    C2 2650   4.324   1.101  14.554  0.3625 -0.6054 -0.0107
  174MPD1    C3 2651   4.357   0.985  14.483  0.1976 -0.3658 -0.0809
  174MPD1    C4 2652   4.447   0.995  14.379 -0.0299 -0.1511  0.3936
  174MPD1    C5 2653   4.517   1.113  14.349  0.4568 -0.0137  0.1122
  174MPD1     H 2654   4.258   1.097  14.640  2.2097 -0.8589  1.4017
  174MPD1    H1 2655   4.482   0.901  14.339 -1.3936 -0.6244  0.3361
  174MPD1    H2 2656   4.527   1.315  14.403 -1.3232  0.4089 -2.7344
  174MPD1    H3 2657   4.586   1.119  14.266  0.3842  0.9029  0.1174
  174MPD1     N 2658   4.298   0.862  14.517  0.4298  0.1807  0.0698
  174MPD1    H5 2659   4.308   0.782  14.455 -0.9955  0.5618 -0.6545
  174MPD1    N1 2660   4.357   1.338  14.584  0.0797 -0.1767 -0.7788
  174MPD1    H6 2661   4.285   1.331  14.655  0.4053  1.6349 -0.2866
  174MPD1    H7 2662   4.439   1.377  14.629 -1.3265  0.3160  1.3231
  175MPD1     C 2663   3.220   1.567  15.504  0.9367 -0.0163  0.5652
  175MPD1    C1 2664   3.318   1.557  15.604 -0.2456  0.2597  0.0466
  175MPD1    C2 2665   3.290   1.515  15.733 -0.2520  0.5788 -0.1397
  175MPD1    C3 2666   3.161   1.492  15.769 -0.1480 -0.2510 -0.2396
  175MPD1    C4 2667   3.065   1.497  15.671 -0.1794  0.2546  0.0027
  175MPD1    C5 2668   3.099   1.523  15.541 -0.0432 -0.4111  0.5066
  175MPD1     H 2669   3.367   1.514  15.810 -1.6642 -2.6727  1.2257
  175MPD1    H1 2670   2.962   1.468  15.688  0.8277 -1.8596  2.5385
  175MPD1    H2 2671   3.248   1.603  15.406  1.9013  1.1644  1.2614
  175MPD1    H3 2672   3.025   1.517  15.463  1.4903 -1.5899 -0.8575
  175MPD1     N 2673   3.111   1.452  15.895 -0.1086 -0.6175 -0.0800
  175MPD1    H5 2674   3.011   1.451  15.911  0.3458  0.6495  2.8585
  175MPD1    N1 2675   3.445   1.608  15.578  0.2333 -0.8131 -0.5313
  175MPD1    H6 2676   3.513   1.567  15.641  0.3786  1.2572  0.6463
  175MPD1    H7 2677   3.484   1.582  15.487 -0.4108  1.2700 -1.3915
  176MPD1     C 2678   3.789   3.851  17.218  0.2483  0.5570  0.1255
  176MPD1    C1 2679   3.882   3.860  17.118 -0.7713 -0.1982 -0.4077
  176MPD1    C2 2680   4.018   3.867  17.151 -0.2631  0.0310  0.3659
  176MPD1    C3 2681   4.050   3.917  17.282  0.3139  1.2727 -0.5208
  176MPD1    C4 2682   3.945   3.931  17.373  0.0930  0.1932  0.2294
  176MPD1    C5 2683   3.820   3.886  17.342 -0.3651  0.5576 -0.5076
  176MPD1     H 2684   4.095   3.883  17.077 -0.0900 -1.0803  0.3006
  176MPD1    H1 2685   3.953   3.960  17.477  0.7736  2.3837 -0.4257
  176MPD1    H2 2686   3.686   3.820  17.210  0.3813 -0.5106  2.4688
  176MPD1    H3 2687   3.749   3.900  17.423  1.5212 -4.0130  1.9000
  176MPD1     N 2688   4.185   3.952  17.314  0.0061 -0.2468  0.5461
  176MPD1    H5 2689   4.260   3.932  17.249  1.0155 -0.2326  1.7235
  176MPD1    N1 2690   3.855   3.807  16.994 -0.3204  0.7231  0.5009
  176MPD1    H6 2691   3.767   3.848  16.962 -0.1060  1.3580  0.7317
  176MPD1    H7 2692   3.922   3.836  16.924 -1.7732  2.0645 -0.3341
  177MPD1     C 2693   1.865   2.940  10.021  0.4148  0.0061 -0.0816
  177MPD1    C1 2694   1.733   2.926  10.066  1.0484  0.5168  0.2506
  177MPD1    C2 2695   1.630   2.978   9.988 -0.0612 -0.5416  0.1523
  177MPD1    C3 2696   1.660   3.067   9.887  0.5191  0.4693 -0.8931
  177MPD1    C4 2697   1.793   3.089   9.848 -0.6942  0.4441 -0.2992
  177MPD1    C5 2698   1.892   3.025   9.915  0.1774 -0.0228  0.3039
  177MPD1     H 2699   1.530   2.953  10.023 -0.2157 -1.6864 -1.1312
  177MPD1    H1 2700   1.827   3.150   9.765  0.9828  0.5715  0.4849
  177MPD1    H2 2701   1.957   2.903  10.065  1.9499  3.0818 -0.6959
  177MPD1    H3 2702   1.994   3.030   9.877 -0.1633  1.2407 -0.4699
  177MPD1     N 2703   1.554   3.108   9.806 -0.3333  0.7183 -0.3863
  177MPD1    H5 2704   1.463   3.088   9.847  0.6667 -2.6659  0.2126
  177MPD1    N1 2705   1.702   2.833  10.168 -0.1776  0.2677 -0.6990
  177MPD1    H6 2706   1.769   2.826  10.244 -0.1695 -0.1516 -0.7451
  177MPD1    H7 2707   1.611   2.851  10.211  0.6298 -1.2693  1.6455
  178MPD1     C 2708   1.265   4.134   0.195 -0.3458  0.0224  0.5055
  178MPD1    C1 2709   1.130   4.101   0.189  0.1169  0.3154  0.6361
  178MPD1    C2 2710   1.046   4.204   0.149 -0.2834  0.6281 -0.3097
  178MPD1    C3 2711   1.090   4.327   0.115 -0.2508  0.0606  0.5730
  178MPD1    C4 2712   1.225   4.359   0.120  0.2785 -0.1826 -0.2622
  178MPD1    C5 2713   1.300   4.260   0.167 -0.4633 -0.7938 -0.0812
  178MPD1     H 2714   0.941   4.181   0.150 -0.3508  0.8512 -1.8510
  178MPD1    H1 2715   1.277   4.442   0.075  1.0101 -0.6115 -0.2074
  178MPD1    H2 2716   1.343   4.067   0.230 -0.0347  0.4634  0.6617
  178MPD1    H3 2717   1.407   4.276   0.156 -0.7042  0.6212 -0.3219
  178MPD1     N 2718   1.006   4.421   0.058  0.4663 -0.2733 -0.4337
  178MPD1    H5 2719   1.041   4.508   0.019 -0.4562  0.5592  0.5987
  178MPD1    N1 2720   1.091   3.968   0.199 -0.0692  0.5665  0.0117
  178MPD1    H6 2721   0.991   3.949   0.209  0.2861 -0.8333  0.9459
  178MPD1    H7 2722   1.137   3.906   0.266  1.6071  0.3611 -1.3342
  179MPD1     C 2723   0.339   2.608  14.836 -0.0628  0.3831  0.9343
  179MPD1    C1 2724   0.429   2.628  14.936  0.0895 -0.0412 -0.6122
  179MPD1    C2 2725   0.395   2.602  15.070 -1.0193  0.2702 -0.0154
  179MPD1    C3 2726   0.273   2.546  15.099 -0.1783  0.1980 -0.6206
  179MPD1    C4 2727   0.186   2.508  14.999 -0.4085 -0.2010 -0.2290
  179MPD1    C5 2728   0.220   2.541  14.872  0.3729  0.1662  0.2013
  179MPD1     H 2729   0.470   2.622  15.146 -0.4504 -2.1851  0.0625
  179MPD1    H1 2730   0.095   2.458  15.032  0.4184 -0.2331  2.0363
  179MPD1    H2 2731   0.351   2.641  14.734 -1.3618  3.4275  1.7444
  179MPD1    H3 2732   0.151   2.522  14.790 -1.9516 -0.4249  2.2852
  179MPD1     N 2733   0.231   2.533  15.232 -0.2045 -0.4440  0.5089
  179MPD1    H5 2734   0.143   2.482  15.242 -2.7214  3.5573 -1.0043
  179MPD1    N1 2735   0.561   2.647  14.905  0.5533  0.6280 -0.1128
  179MPD1    H6 2736   0.594   2.712  14.975  0.2623 -0.1640  0.7534
  179MPD1    H7 2737   0.588   2.688  14.816 -2.4034  0.6056 -1.0269
  180MPD1     C 2738   0.943   4.045  15.261 -0.5547 -0.2583  0.2500
  180MPD1    C1 2739   1.004   4.090  15.142 -0.0035  0.1666  0.2291
  180MPD1    C2 2740   0.926   4.083  15.030  0.2548  0.2187  0.3322
  180MPD1    C3 2741   0.812   4.015  15.026 -0.1173  0.0068  0.3014
  180MPD1    C4 2742   0.762   3.962  15.141  0.4381  0.2828  0.7003
  180MPD1    C5 2743   0.834   3.968  15.256  0.1884 -0.2384  0.5683
  180MPD1     H 2744   0.949   4.141  14.942 -1.9413  2.5225  1.2712
  180MPD1    H1 2745   0.664   3.918  15.134 -0.1121  1.3086  1.8887
  180MPD1    H2 2746   0.998   4.047  15.355 -0.5773  1.1297  0.2301
  180MPD1    H3 2747   0.798   3.928  15.350  0.6878 -0.1317  0.8006
  180MPD1     N 2748   0.750   4.019  14.902 -0.2433  0.0511 -0.8373
  180MPD1    H5 2749   0.796   4.072  14.829  2.3885 -0.4630  0.4595
  180MPD1    N1 2750   1.118   4.170  15.142 -0.4315 -0.3874  0.2276
  180MPD1    H6 2751   1.168   4.175  15.054 -2.3819 -0.5031 -0.8999
  180MPD1    H7 2752   1.181   4.135  15.214  1.0397 -1.7122 -1.7156
  181MPD1     C 2753   1.702   0.220  10.060  0.5775 -0.7176  0.3696
  181MPD1    C1 2754   1.746   0.183   9.936 -0.0338 -0.9953 -0.4846
  181MPD1    C2 2755   1.859   0.237   9.886  0.3698  0.6927 -0.3234
  181MPD1    C3 2756   1.931   0.340   9.947  0.5921  0.3438 -0.0615
  181MPD1    C4 2757   1.891   0.379  10.071  0.2533  0.0427 -0.1862
  181MPD1    C5 2758   1.788   0.308  10.129 -1.0339 -0.1386 -0.8327
  181MPD1     H 2759   1.907   0.191   9.800  1.0567  0.7101  0.0552
  181MPD1    H1 2760   1.937   0.463  10.122 -1.0868  1.4324 -1.2793
  181MPD1    H2 2761   1.617   0.172  10.107 -0.5150  2.7484  1.9324
  181MPD1    H3 2762   1.768   0.340  10.230  0.8865 -0.8252 -0.2471
  181MPD1     N 2763   2.051   0.398   9.898  0.2635  0.4303 -0.3422
  181MPD1    H5 2764   2.100   0.466   9.954  1.8469 -0.2104 -0.9409
  181MPD1    N1 2765   1.686   0.069   9.872 -0.1080 -0.1037 -0.4345
  181MPD1    H6 2766   1.686   0.084   9.771  1.5655 -0.8954 -0.5526
  181MPD1    H7 2767   1.589   0.055   9.899  0.2851 -2.4036 -0.2238
  182MPD1     C 2768   2.936   0.629   0.864  0.2380 -0.1390  0.5540
  182MPD1    C1 2769   2.979   0.502   0.860  0.2255  0.2311  0.8139
  182MPD1    C2 2770   2.892   0.408   0.812  0.6663  0.3868  0.0347
  182MPD1    C3 2771   2.765   0.436   0.769  0.0232  0.9147  0.2936
  182MPD1    C4 2772   2.720   0.567   0.776  0.4786  0.5225 -0.2806
  182MPD1    C5 2773   2.809   0.660   0.818 -0.1471  0.1801 -0.1757
  182MPD1     H 2774   2.932   0.307   0.803  1.2317  0.5396  0.8919
  182MPD1    H1 2775   2.629   0.607   0.733 -0.2421 -0.4703  0.3176
  182MPD1    H2 2776   3.005   0.706   0.897  1.0345  0.5661 -2.7103
  182MPD1    H3 2777   2.772   0.762   0.823  1.4038  0.7705 -0.7219
  182MPD1     N 2778   2.678   0.335   0.719 -0.4490 -0.9054 -0.2043
  182MPD1    H5 2779   2.595   0.375   0.677  0.6514 -0.1779 -1.6961
  182MPD1    N1 2780   3.117   0.465   0.861  0.9398  0.0905 -0.3114
  182MPD1    H6 2781   3.157   0.520   0.937 -0.4925  2.2618 -1.1186
  182MPD1    H7 2782   3.119   0.366   0.881  4.1062  0.0202 -0.9756
  183MPD1     C 2783   4.671   0.696   9.667 -0.6019 -0.1590 -1.1990
  183MPD1    C1 2784   4.646   0.571   9.717  0.0070 -0.0870  0.6227
  183MPD1    C2 2785   4.519   0.541   9.756 -0.4697 -0.2219  0.4673
  183MPD1    C3 2786   4.427   0.637   9.763 -0.7480 -0.4329  0.8349
  183MPD1    C4 2787   4.459   0.760   9.719 -0.1940 -0.2750  0.2188
  183MPD1    C5 2788   4.581   0.794   9.675  0.6769  0.4096 -0.3418
  183MPD1     H 2789   4.486   0.439   9.771  0.1126 -0.0224  3.1055
  183MPD1    H1 2790   4.391   0.845   9.717  0.5366  0.3324  1.0879
  183MPD1    H2 2791   0.047   0.723   9.626 -0.9714 -1.5213 -2.9948
  183MPD1    H3 2792   4.603   0.896   9.647 -0.0332  1.3860  2.5843
  183MPD1     N 2793   4.302   0.600   9.823  0.2586  0.0072 -0.4801
  183MPD1    H5 2794   4.312   0.512   9.871  0.2971  0.0827 -0.3494
  183MPD1    N1 2795   0.014   0.470   9.693 -0.8106  0.4424  0.3357
  183MPD1    H6 2796   0.111   0.500   9.691 -0.5604 -0.3331  0.6164
  183MPD1    H7 2797   0.002   0.397   9.764 -2.7911  0.0123 -0.4424
  184MPD1     C 2798   2.950   2.214   9.160  1.0878  1.2183  0.4345
  184MPD1    C1 2799   3.071   2.277   9.152  0.0865  0.4566  0.5650
  184MPD1    C2 2800   3.108   2.357   9.261 -0.3706  0.1313 -0.2883
  184MPD1    C3 2801   3.028   2.373   9.372 -0.4228  0.5548  0.4974
  184MPD1    C4 2802   2.919   2.286   9.387  0.1897  0.4888  0.6591
  184MPD1    C5 2803   2.882   2.213   9.276  0.3263 -0.1052 -1.2538
  184MPD1     H 2804   3.202   2.410   9.252 -0.7449  0.8937  0.2671
  184MPD1    H1 2805   2.856   2.282   9.476  2.1250  1.1960  2.0502
  184MPD1    H2 2806   2.901   2.160   9.079  1.5003  1.7911 -0.2061
  184MPD1    H3 2807   2.783   2.169   9.272 -0.6365  2.0097 -0.4068
  184MPD1     N 2808   3.059   2.464   9.475 -0.1195 -0.0082 -0.7740
  184MPD1    H5 2809   3.006   2.457   9.562  2.2205  2.2593  0.8433
  184MPD1    N1 2810   3.146   2.281   9.033 -0.3203  0.7998 -0.0220
  184MPD1    H6 2811   3.241   2.314   9.046  0.3596 -1.4093  0.5502
  184MPD1    H7 2812   3.139   2.194   8.980 -0.0773 -0.1060  1.4249
  185MPD1     C 2813   2.868   2.219  10.242 -0.2816 -0.4715  0.1009
  185MPD1    C1 2814   2.984   2.287  10.271  0.4165  0.1480  0.6332
  185MPD1    C2 2815   3.043   2.360  10.170  0.3474  0.0460 -0.1667
  185MPD1    C3 2816   2.989   2.374  10.045  0.4520 -0.1390  0.1192
  185MPD1    C4 2817   2.879   2.300  10.012 -0.3309 -0.0048 -0.2192
  185MPD1    C5 2818   2.819   2.218  10.112 -0.3368 -0.0011  0.0078
  185MPD1     H 2819   3.133   2.417  10.190  0.1766 -0.1248  1.0885
  185MPD1    H1 2820   2.835   2.296   9.914 -5.2792 -1.0196  2.0789
  185MPD1    H2 2821   2.820   2.167  10.324 -0.6264  0.6636  0.6156
  185MPD1    H3 2822   2.731   2.159  10.088 -1.5266  0.7195  2.5407
  185MPD1     N 2823   3.049   2.457   9.945  0.1074 -0.9121  0.3392
  185MPD1    H5 2824   2.995   2.465   9.860 -1.1031  3.7714  1.5621
  185MPD1    N1 2825   3.026   2.295  10.406 -0.0951 -0.2530 -0.0794
  185MPD1    H6 2826   2.981   2.222  10.461  1.7864 -0.6636  0.9046
  185MPD1    H7 2827   3.122   2.320  10.430 -0.0215 -1.2568  0.6745
  186MPD1     C 2828   0.397   2.741  15.719  0.5387  0.7650 -0.4485
  186MPD1    C1 2829   0.521   2.769  15.676 -0.0869  0.0818  0.7066
  186MPD1    C2 2830   0.606   2.838  15.764 -0.3702  0.2571  0.7172
  186MPD1    C3 2831   0.570   2.874  15.892  0.3176  0.4468  0.3721
  186MPD1    C4 2832   0.433   2.856  15.920 -0.5521  0.4465 -0.0189
  186MPD1    C5 2833   0.350   2.791  15.835 -0.3845  0.0969  0.0936
  186MPD1     H 2834   0.709   2.845  15.731 -0.5326  1.0817  0.3842
  186MPD1    H1 2835   0.392   2.894  16.013 -0.5735 -1.1120  0.6047
  186MPD1    H2 2836   0.331   2.677  15.661 -0.7469 -0.6375  2.5495
  186MPD1    H3 2837   0.248   2.804  15.869 -0.0792 -0.6127  1.2956
  186MPD1     N 2838   0.654   2.933  15.992  0.2970 -0.1145 -0.4834
  186MPD1    H5 2839   0.606   2.963  16.076  0.5608  1.4205 -0.8845
  186MPD1    N1 2840   0.568   2.719  15.555 -0.8436 -0.3676  0.0398
  186MPD1    H6 2841   0.501   2.694  15.483 -0.8399 -0.5980  0.1191
  186MPD1    H7 2842   0.644   2.779  15.522 -1.1686 -0.3831 -0.7168
  187MPD1     C 2843   0.128   4.622   0.265  0.0014 -0.2817  0.0844
  187MPD1    C1 2844   0.054   4.543   0.174  0.0764  0.3705  0.0060
  187MPD1    C2 2845   0.059   4.572   0.039  0.0772 -0.2587 -0.1687
  187MPD1    C3 2846   0.141   4.672  17.675  0.4923  1.0855  0.2731
  187MPD1    C4 2847   0.215   0.030   0.078  0.5532 -0.6981 -0.5428
  187MPD1    C5 2848   0.210   4.720   0.212 -0.2714  0.4313  0.4620
  187MPD1     H 2849   0.001   4.515  17.653 -0.6258 -1.5616  1.4468
  187MPD1    H1 2850   0.280   0.100   0.028  0.6625  0.1809  0.8152
  187MPD1    H2 2851   0.141   4.589   0.368 -2.2406 -0.2963  0.3636
  187MPD1    H3 2852   0.279   0.048   0.279  0.3454  0.7315 -0.3856
  187MPD1     N 2853   0.150   4.701  17.533  0.1320 -0.1153 -0.3604
  187MPD1    H5 2854   0.201   0.066  17.514 -0.6379  0.2431 -0.8048
  187MPD1    N1 2855   4.695   4.446   0.219  0.0441  0.1984 -0.1841
  187MPD1    H6 2856   0.017   4.402   0.301 -2.4089  1.0644  1.5677
  187MPD1    H7 2857   4.670   4.383   0.143 -2.1085 -0.3653  0.9851
  188MPD1     C 2858   0.171   0.112   9.637 -0.4865 -0.3276 -0.3953
  188MPD1    C1 2859   0.270   0.060   9.722 -0.0654 -0.1871  0.1294
  188MPD1    C2 2860   0.277   4.641   9.729 -0.3171 -0.1672 -0.0824
  188MPD1    C3 2861   0.166   4.563   9.686 -0.2198  0.5281  0.9695
  188MPD1    C4 2862   0.052   4.626   9.634  0.9026  0.0633 -0.0557
  188MPD1    C5 2863   0.065   0.032   9.600  0.6457 -0.3048 -0.5713
  188MPD1     H 2864   0.359   4.602   9.789  1.4920  1.2322 -1.6256
  188MPD1    H1 2865   4.684   4.572   9.604 -0.0798  0.6197  1.8089
  188MPD1    H2 2866   0.159   0.219   9.624  0.0382 -0.4887 -2.3063
  188MPD1    H3 2867   4.708   0.087   9.549  1.1376  1.0297  0.0869
  188MPD1     N 2868   0.156   4.423   9.707  0.0839 -0.3309 -0.1002
  188MPD1    H5 2869   0.068   4.381   9.679  1.4423 -1.5998 -2.5120
  188MPD1    N1 2870   0.381   0.126   9.782  0.2642 -0.4665 -0.0445
  188MPD1    H6 2871   0.423   0.072   9.857  0.8126  0.1184  0.0685
  188MPD1    H7 2872   0.360   0.218   9.818 -1.4045 -1.1341  0.6900
  189MPD1     C 2873   0.599   0.858   0.634  0.3512 -0.1350 -0.0646
  189MPD1    C1 2874   0.522   0.755   0.585 -0.4655  0.6334  0.2236
  189MPD1    C2 2875   0.550   0.714   0.454 -0.2454 -0.8039 -0.0180
  189MPD1    C3 2876   0.659   0.749   0.379 -1.2154  0.0984  0.1066
  189MPD1    C4 2877   0.745   0.838   0.438 -0.4203 -0.0846 -0.2355
  189MPD1    C5 2878   0.717   0.884   0.566  0.4089  0.1430  0.3439
  189MPD1     H 2879   0.488   0.636   0.410  0.6349 -1.1588 -0.6257
  189MPD1    H1 2880   0.834   0.865   0.384 -1.3091 -0.5427 -1.9085
  189MPD1    H2 2881   0.588   0.912   0.728  1.1970 -0.7126  0.3769
  189MPD1    H3 2882   0.778   0.963   0.609 -0.0725  0.9573 -0.4551
  189MPD1     N 2883   0.682   0.692   0.250 -0.3708 -0.0610  0.3645
  189MPD1    H5 2884   0.610   0.631   0.212  1.1474 -0.2655 -2.2069
  189MPD1    N1 2885   0.388   0.729   0.639 -0.1670 -0.8565 -0.2115
  189MPD1    H6 2886   0.386   0.728   0.740 -1.4652 -0.1105 -0.2270
  189MPD1    H7 2887   0.354   0.637   0.613  0.3011 -1.0562 -0.1154
  190MPD1     C 2888   0.036   3.376  15.361  0.0274 -0.0317  0.0706
  190MPD1    C1 2889   0.112   3.428  15.265 -0.8182  0.1404  0.8586
  190MPD1    C2 2890   0.216   3.506  15.308  0.0274  0.1325 -0.0364
  190MPD1    C3 2891   0.250   3.516  15.442 -0.2030  1.1193 -0.6284
  190MPD1    C4 2892   0.167   3.461  15.534 -0.1769  0.5849 -0.9769
  190MPD1    C5 2893   0.048   3.398  15.495 -0.1417  0.3328 -0.3890
  190MPD1     H 2894   0.262   3.573  15.237 -1.4997  1.0895 -0.1271
  190MPD1    H1 2895   0.185   3.478  15.640 -1.3829  0.7369 -0.7997
  190MPD1    H2 2896   4.664   3.325  15.337  0.2098 -1.0765  1.6458
  190MPD1    H3 2897   4.704   3.361  15.574  2.2851  0.9844  1.8976
  190MPD1     N 2898   0.363   3.588  15.485  0.0392 -0.0376 -0.0011
  190MPD1    H5 2899   0.371   3.597  15.586  1.8427 -0.5730 -0.0949
  190MPD1    N1 2900   0.066   3.435  15.134  0.3250  0.2053  0.2691
  190MPD1    H6 2901   0.016   3.357  15.094  1.5342 -0.1199 -0.6085
  190MPD1    H7 2902   0.127   3.482  15.068  0.9025  0.2540  0.8322
  191MPD1     C 2903   0.054   0.461  12.608 -0.0246 -0.6957 -0.1232
  191MPD1    C1 2904   0.109   0.543  12.513 -0.3358  0.3066 -0.0409
  191MPD1    C2 2905   0.043   0.654  12.476  0.0596 -1.1872 -0.0122
  191MPD1    C3 2906   4.630   0.682  12.513  0.0707  0.2915 -0.1590
  191MPD1    C4 2907   4.569   0.594  12.601  0.0806 -0.2037 -0.0457
  191MPD1    C5 2908   4.641   0.487  12.643  0.4197  0.0987 -0.5944
  191MPD1     H 2909   0.089   0.713  12.398 -1.0399  0.9840  0.9866
  191MPD1    H1 2910   4.463   0.604  12.622  0.1676  3.0265 -1.2554
  191MPD1    H2 2911   0.087   0.367  12.651 -0.0112  1.4078  4.4656
  191MPD1    H3 2912   4.602   0.416  12.715  0.6773  0.7656  0.2140
  191MPD1     N 2913   4.564   0.795  12.455  0.0484  0.4596  0.3481
  191MPD1    H5 2914   4.619   0.851  12.390  0.1670  0.6347  0.5978
  191MPD1    N1 2915   0.250   0.537  12.489 -0.6326 -0.3159  0.4133
  191MPD1    H6 2916   0.283   0.441  12.496 -1.4737 -0.6587 -0.3900
  191MPD1    H7 2917   0.288   0.574  12.403 -0.7507 -0.4157  0.3179
  192MPD1     C 2918   3.681   1.364  12.195  0.7447  0.2374 -0.0388
  192MPD1    C1 2919   3.687   1.269  12.292 -0.3583 -0.4346 -0.6136
  192MPD1    C2 2920   3.815   1.221  12.327 -0.1966 -0.3562 -0.0369
  192MPD1    C3 2921   3.927   1.256  12.255 -0.6289  1.4696  0.1580
  192MPD1    C4 2922   3.909   1.336  12.149  0.3945  0.1803 -0.4181
  192MPD1    C5 2923   3.787   1.392  12.121 -0.5416 -0.4312 -0.2944
  192MPD1     H 2924   3.821   1.145  12.405  2.1500  1.6322  1.7212
  192MPD1    H1 2925   3.999   1.356  12.093  0.9606 -2.1483 -0.3588
  192MPD1    H2 2926   3.588   1.419  12.184  0.3420 -0.3756  0.3643
  192MPD1    H3 2927   3.771   1.467  12.045  2.7636  0.2555 -0.3145
  192MPD1     N 2928   4.059   1.214  12.292  0.4975  0.4345  0.1325
  192MPD1    H5 2929   4.140   1.242  12.237  1.6808 -0.3079  1.5030
  192MPD1    N1 2930   3.576   1.251  12.370 -0.2400 -0.4599 -0.0742
  192MPD1    H6 2931   3.496   1.266  12.310 -0.1902  0.4881  0.1000
  192MPD1    H7 2932   3.571   1.155  12.406  2.3979 -0.5103  0.2107
  193MPD1     C 2933   3.509   1.201  16.441 -0.2959  0.0380 -0.5092
  193MPD1    C1 2934   3.613   1.224  16.346  0.3190  0.1069  0.0461
  193MPD1    C2 2935   3.745   1.269  16.373  0.7021 -0.1317 -0.1089
  193MPD1    C3 2936   3.772   1.279  16.511 -0.0974  0.0346 -0.1105
  193MPD1    C4 2937   3.673   1.249  16.606  0.0837  0.1885 -0.0238
  193MPD1    C5 2938   3.539   1.217  16.573  0.2763 -0.2610  0.1207
  193MPD1     H 2939   3.812   1.296  16.293  0.0148  1.6759 -0.0525
  193MPD1    H1 2940   3.702   1.255  16.711 -0.3210 -0.2209  0.1110
  193MPD1    H2 2941   3.407   1.183  16.410 -0.4365 -0.6383  0.3270
  193MPD1    H3 2942   3.461   1.206  16.647  2.1359 -0.6800  2.0341
  193MPD1     N 2943   3.900   1.317  16.562 -0.1005 -0.3257 -0.0971
  193MPD1    H5 2944   3.908   1.317  16.663 -1.1657  1.9498 -0.0005
  193MPD1    N1 2945   3.573   1.227  16.212 -0.2357  0.8767 -0.4831
  193MPD1    H6 2946   3.640   1.212  16.136  1.4613  2.6496  0.6443
  193MPD1    H7 2947   3.495   1.163  16.200  0.9302 -0.5499 -0.4111
  194MPD1     C 2948   2.251   3.902  16.706  0.0659 -0.0324 -0.1608
  194MPD1    C1 2949   2.280   3.800  16.617  0.3977  0.5416 -0.0686
  194MPD1    C2 2950   2.310   3.672  16.667  0.6343  0.7158  0.1110
  194MPD1    C3 2951   2.290   3.641  16.800 -0.1842  0.2761  0.0773
  194MPD1    C4 2952   2.254   3.740  16.893  0.5295 -0.2062 -0.1160
  194MPD1    C5 2953   2.241   3.868  16.841  0.8467  0.2343 -0.5220
  194MPD1     H 2954   2.344   3.601  16.593 -0.8599  1.7357 -1.5699
  194MPD1    H1 2955   2.246   3.731  17.001  0.0449 -1.4944 -0.2700
  194MPD1    H2 2956   2.214   3.996  16.666  1.1167  0.4157 -0.0837
  194MPD1    H3 2957   2.200   3.942  16.908  1.4315 -0.9133  1.0869
  194MPD1     N 2958   2.320   3.508  16.854 -0.1531 -0.2355 -0.1106
  194MPD1    H5 2959   2.304   3.484  16.952 -1.1756  1.5832  0.1765
  194MPD1    N1 2960   2.305   3.829  16.480 -0.5327  0.3742  0.0439
  194MPD1    H6 2961   2.305   3.747  16.419 -0.2948 -0.5661  1.3152
  194MPD1    H7 2962   2.239   3.900  16.448 -1.5053 -0.2389  0.6799
  195MPD1     C 2963   4.415   4.223   1.587  0.0682  0.0300  0.2133
  195MPD1    C1 2964   4.284   4.255   1.548 -0.0663 -0.2892 -0.0249
  195MPD1    C2 2965   4.251   4.266   1.414 -0.2252 -0.2394  0.2792
  195MPD1    C3 2966   4.337   4.226   1.317 -0.1631 -0.0970 -0.2496
  195MPD1    C4 2967   4.462   4.186   1.350 -0.1153  0.1583 -0.4658
  195MPD1    C5 2968   4.504   4.194   1.480  0.8542  0.5110  0.1127
  195MPD1     H 2969   4.152   4.301   1.386  1.4941  2.3021 -2.5310
  195MPD1    H1 2970   4.544   4.163   1.283 -0.2945  2.1449 -1.3536
  195MPD1    H2 2971   4.441   4.211   1.692  1.0477  0.0184 -0.0274
  195MPD1    H3 2972   4.604   4.164   1.509  1.4274 -0.2329 -2.6240
  195MPD1     N 2973   4.293   4.235   1.186 -0.9198  0.1924 -0.3924
  195MPD1    H5 2974   4.194   4.256   1.186 -1.0468 -0.4129 -0.5695
  195MPD1    N1 2975   4.194   4.309   1.644  0.1189  0.1501  0.8598
  195MPD1    H6 2976   4.094   4.308   1.625 -0.3021  0.6265  3.0324
  195MPD1    H7 2977   4.211   4.264   1.734 -2.5024 -0.6229  0.9568
  196MPD1     C 2978   3.293   4.144   0.154  0.5969  1.1714  0.1496
  196MPD1    C1 2979   3.225   4.100   0.267 -0.3015  0.4485 -0.7117
  196MPD1    C2 2980   3.283   4.118   0.390 -0.5989 -0.3262  0.0914
  196MPD1    C3 2981   3.403   4.186   0.407 -0.3511  0.2989  0.2912
  196MPD1    C4 2982   3.469   4.230   0.293  0.0178  0.1567  0.8659
  196MPD1    C5 2983   3.408   4.212   0.169  0.1944  0.2465  0.1352
  196MPD1     H 2984   3.236   4.077   0.479  1.7332  0.1328  1.5191
  196MPD1    H1 2985   3.560   4.288   0.291 -0.3242  0.7079  1.3623
  196MPD1    H2 2986   3.244   4.136   0.057 -1.1207 -1.1530  1.2114
  196MPD1    H3 2987   3.466   4.257   0.090 -0.8120  0.1126 -0.6836
  196MPD1     N 2988   3.467   4.205   0.538  0.3685  0.4504 -0.1030
  196MPD1    H5 2989   3.559   4.249   0.542 -0.1972  1.5301  1.2008
  196MPD1    N1 2990   3.107   4.023   0.246 -0.0253 -0.3574  0.1747
  196MPD1    H6 2991   3.071   4.041   0.153 -1.0840  0.0736  0.6776
  196MPD1    H7 2992   3.042   4.029   0.325  1.1258  1.8550  0.9392
  197MPD1     C 2993   2.873   1.444  17.452 -0.3671  0.0045  0.0715
  197MPD1    C1 2994   2.990   1.464  17.529  0.4226 -0.6473 -0.1835
  197MPD1    C2 2995   3.080   1.558  17.484  0.3702 -0.3368 -0.0257
  197MPD1    C3 2996   3.055   1.618  17.359  0.2365 -0.3657  0.1801
  197MPD1    C4 2997   2.955   1.576  17.280 -0.1828 -0.6140  1.0370
  197MPD1    C5 2998   2.862   1.487  17.323  0.6102  0.6714  0.7409
  197MPD1     H 2999   3.171   1.584  17.537  0.2160  1.3188 -0.5597
  197MPD1    H1 3000   2.931   1.615  17.182  2.4871  2.0785  1.4648
  197MPD1    H2 3001   2.799   1.372  17.484 -0.1270 -0.3187 -0.0964
  197MPD1    H3 3002   2.780   1.453  17.260  0.3857 -0.5436  1.6912
  197MPD1     N 3003   3.141   1.715  17.301  0.4266 -0.0815 -0.6228
  197MPD1    H5 3004   3.129   1.723  17.200  1.6511  1.1534 -0.6615
  197MPD1    N1 3005   3.012   1.422  17.664 -0.6897 -0.2997 -0.0653
  197MPD1    H6 3006   2.995   1.325   0.003  3.0125 -1.8132 -3.5164
  197MPD1    H7 3007   3.107   1.426   0.016  0.0905 -0.3494 -2.0408
  198MPD1     C 3008   1.046   4.487  16.203 -0.5066  0.4702 -0.4804
  198MPD1    C1 3009   0.955   4.468  16.104  0.9773  0.8442  0.0132
  198MPD1    C2 3010   0.831   4.533  16.122 -0.6415 -0.4453 -0.2915
  198MPD1    C3 3011   0.797   4.612  16.228 -0.7803  0.1332 -0.5921
  198MPD1    C4 3012   0.902   4.637  16.324  0.1625  0.2204  0.4601
  198MPD1    C5 3013   1.023   4.566  16.313 -0.3182 -0.2892  0.4288
  198MPD1     H 3014   0.758   4.519  16.043 -2.6542  3.7911  0.8359
  198MPD1    H1 3015   0.893   4.708  16.405 -0.8549  0.0058  0.5383
  198MPD1    H2 3016   1.140   4.433  16.199 -1.0906 -0.4657 -1.6688
  198MPD1    H3 3017   1.109   4.574  16.378 -2.0404  0.3252  2.6641
  198MPD1     N 3018   0.675   4.676  16.235 -0.1451  0.1185  0.2908
  198MPD1    H5 3019   0.616   4.650  16.157  0.6225 -3.4552  0.9002
  198MPD1    N1 3020   0.993   4.395  15.991  0.1624 -0.6976 -0.2244
  198MPD1    H6 3021   0.908   4.378  15.937 -0.2235  1.7523 -0.3906
  198MPD1    H7 3022   1.036   4.309  16.024  1.2552 -0.1000 -0.0931
  199MPD1     C 3023   3.283   1.211   9.600 -0.2590 -0.4735 -0.4098
  199MPD1    C1 3024   3.238   1.088   9.644 -0.3209  0.4143 -0.0219
  199MPD1    C2 3025   3.110   1.062   9.611  0.6493 -0.2213 -1.2386
  199MPD1    C3 3026   3.026   1.147   9.535  0.9027 -0.1625  0.5035
  199MPD1    C4 3027   3.075   1.268   9.495 -0.2736 -0.7519 -0.3123
  199MPD1    C5 3028   3.203   1.297   9.529 -0.4476 -0.9236 -0.5062
  199MPD1     H 3029   3.063   0.974   9.653  0.1194  0.2730 -0.8019
  199MPD1    H1 3030   3.014   1.346   9.450  0.0679 -0.4775 -0.2968
  199MPD1    H2 3031   3.382   1.244   9.630 -0.3301  0.3789 -1.1034
  199MPD1    H3 3032   3.235   1.393   9.492 -0.2064 -0.2060  1.5240
  199MPD1     N 3033   2.896   1.120   9.494 -0.0844  0.3747  0.2550
  199MPD1    H5 3034   2.851   1.188   9.434  1.2510 -0.3902 -1.6544
  199MPD1    N1 3035   3.313   1.010   9.735  0.8261 -0.2168  0.2266
  199MPD1    H6 3036   3.414   1.023   9.738  1.0511 -1.4893 -1.5926
  199MPD1    H7 3037   3.288   0.913   9.749 -1.0565  0.0403 -1.1832
  200MPD1     C 3038   1.623   2.054  15.682 -0.0852  0.0596  0.0489
  200MPD1    C1 3039   1.573   1.937  15.633  0.0518  0.0121 -0.6797
  200MPD1    C2 3040   1.581   1.912  15.499  0.4362 -0.2479  0.2193
  200MPD1    C3 3041   1.592   2.018  15.411  0.3879 -0.6500 -0.4942
  200MPD1    C4 3042   1.609   2.140  15.471  0.4752  0.8059 -0.0543
  200MPD1    C5 3043   1.634   2.161  15.601 -0.1697 -0.4558 -0.1111
  200MPD1     H 3044   1.561   1.812  15.463 -1.3022  0.0884  0.2284
  200MPD1    H1 3045   1.617   2.226  15.406 -0.2869  1.0221  0.1470
  200MPD1    H2 3046   1.650   2.059  15.787 -1.0552 -1.2317  0.3537
  200MPD1    H3 3047   1.654   2.259  15.642 -0.5085 -1.6888  2.9650
  200MPD1     N 3048   1.587   1.989  15.276 -0.7482 -0.4845  0.2582
  200MPD1    H5 3049   1.574   1.890  15.259  0.5872 -0.6455  0.1460
  200MPD1    N1 3050   1.567   1.835  15.729  0.6254 -0.1073  0.0515
  200MPD1    H6 3051   1.501   1.760  15.710  1.4095 -0.3492 -1.6645
  200MPD1    H7 3052   1.542   1.863  15.824 -1.3668  1.0760 -0.8090
  201MPD1     C 3053   3.630   0.516  12.511 -1.1088  0.2094  0.6183
  201MPD1    C1 3054   3.594   0.411  12.438  0.3358  0.1318 -0.5905
  201MPD1    C2 3055   3.660   0.292  12.445 -0.7194  0.8068 -0.4930
  201MPD1    C3 3056   3.753   0.262  12.542  0.2495 -0.6902  0.3468
  201MPD1    C4 3057   3.781   0.360  12.623  0.6714  0.7890 -0.6292
  201MPD1    C5 3058   3.726   0.488  12.612 -0.3676 -0.7976  0.4026
  201MPD1     H 3059   3.642   0.210  12.376 -0.6974  0.1381  0.2924
  201MPD1    H1 3060   3.853   0.350  12.703  0.8644  0.9234 -0.7840
  201MPD1    H2 3061   3.586   0.615  12.507  0.5634  0.9341 -0.3327
  201MPD1    H3 3062   3.752   0.563  12.685 -0.0891  0.5156 -1.0515
  201MPD1     N 3063   3.811   0.130  12.545 -0.1758 -0.4177  0.4975
  201MPD1    H5 3064   3.780   0.056  12.483 -0.4710  0.9985 -1.0550
  201MPD1    N1 3065   3.503   0.424  12.336 -0.2151  0.0681 -0.2248
  201MPD1    H6 3066   3.436   0.500  12.345 -0.8298 -0.6332  1.0234
  201MPD1    H7 3067   3.448   0.339  12.327  0.2062 -0.1722 -0.5416
  202MPD1     C 3068   0.230   0.476  11.014 -0.0968  0.7697  0.2953
  202MPD1    C1 3069   0.311   0.369  11.012  0.3856  0.0021  0.3577
  202MPD1    C2 3070   0.275   0.286  10.908 -0.0287 -0.5164  0.6350
  202MPD1    C3 3071   0.203   0.332  10.793 -0.0192 -0.3274  0.4314
  202MPD1    C4 3072   0.151   0.457  10.791  0.5240 -0.6164 -0.4271
  202MPD1    C5 3073   0.156   0.522  10.912  0.1992  0.8986 -0.3585
  202MPD1     H 3074   0.336   0.198  10.891  0.8368  0.3178 -0.5594
  202MPD1    H1 3075   0.093   0.504  10.712 -0.6715 -0.5836  0.4711
  202MPD1    H2 3076   0.223   0.527  11.109 -0.9727  2.1009 -0.4741
  202MPD1    H3 3077   0.104   0.617  10.919  3.8137  2.8774 -0.2342
  202MPD1     N 3078   0.178   0.253  10.682  0.2361 -0.4028 -0.5387
  202MPD1    H5 3079   0.125   0.302  10.610  1.7616 -0.8255 -1.9658
  202MPD1    N1 3080   0.362   0.314  11.131 -0.6725 -0.1946 -0.1967
  202MPD1    H6 3081   0.401   0.378  11.199  0.1159 -1.4647  0.5394
  202MPD1    H7 3082   0.428   0.242  11.103  0.3120  0.5706  0.1835
  203MPD1     C 3083   2.374   1.440  12.555  0.3547  0.1906 -0.7204
  203MPD1    C1 3084   2.487   1.396  12.486 -0.2312 -0.1575  0.0517
  203MPD1    C2 3085   2.521   1.261  12.489  0.3804  0.5868  0.1909
  203MPD1    C3 3086   2.446   1.167  12.556  0.0632  0.0973 -0.3987
  203MPD1    C4 3087   2.329   1.215  12.622 -0.1192 -0.1792  0.2415
  203MPD1    C5 3088   2.292   1.344  12.614  0.4955  0.2836 -0.1029
  203MPD1     H 3089   2.608   1.222  12.437  1.7526  2.3779  1.1479
  203MPD1    H1 3090   2.264   1.143  12.669 -2.2814  2.0385  0.6757
  203MPD1    H2 3091   2.349   1.545  12.563  3.2292  0.9663 -1.8722
  203MPD1    H3 3092   2.197   1.380  12.652 -0.7456 -3.5627  0.3876
  203MPD1     N 3093   2.470   1.024  12.559  0.2344 -0.0869  0.1674
  203MPD1    H5 3094   2.399   0.967  12.603  0.1043  1.2437  1.6801
  203MPD1    N1 3095   2.569   1.498  12.445  0.4518 -0.0747  0.6980
  203MPD1    H6 3096   2.514   1.575  12.407  1.4575 -0.3370 -1.2633
  203MPD1    H7 3097   2.625   1.455  12.372 -2.0573 -0.7575 -0.8137
  204MPD1     C 3098   1.543   2.420  17.453  0.3047  0.6351  0.6136
  204MPD1    C1 3099   1.594   2.302  17.514  0.4845 -0.8111 -0.4401
  204MPD1    C2 3100   1.677   2.224  17.430  0.5214  0.2242 -0.4855
  204MPD1    C3 3101   1.720   2.262  17.306 -0.0320 -0.8097 -0.2305
  204MPD1    C4 3102   1.681   2.384  17.256  0.3233  0.4220  0.3796
  204MPD1    C5 3103   1.593   2.450  17.329 -1.0173 -0.3732 -0.5227
  204MPD1     H 3104   1.708   2.131  17.476  2.7269  1.0356 -0.3423
  204MPD1    H1 3105   1.693   2.418  17.154  1.5053 -2.1668 -0.3634
  204MPD1    H2 3106   1.481   2.489  17.510  0.0955  0.2724  0.8253
  204MPD1    H3 3107   1.539   2.529  17.276  0.4751 -0.0805 -1.6130
  204MPD1     N 3108   1.800   2.172  17.242 -0.0783  0.2440  0.2074
  204MPD1    H5 3109   1.808   2.082  17.288 -0.4457 -0.1704 -0.5428
  204MPD1    N1 3110   1.560   2.260  17.644 -0.0603 -0.2322 -0.4230
  204MPD1    H6 3111   1.643   2.216  17.682 -0.6111 -0.8003  0.1256
  204MPD1    H7 3112   1.547   2.342   0.018  3.0072 -0.6243  0.7954
  205MPD1     C 3113   3.276   0.818  16.922 -0.2787  0.0352 -0.2343
  205MPD1    C1 3114   3.221   0.937  16.885 -0.4877 -0.3523  0.3079
  205MPD1    C2 3115   3.084   0.964  16.904 -0.8736 -0.3140  0.3178
  205MPD1    C3 3116   2.998   0.868  16.953  0.2888 -0.0648  0.6641
  205MPD1    C4 3117   3.054   0.748  16.984 -0.6605  0.5473 -0.0584
  205MPD1    C5 3118   3.186   0.722  16.973 -0.2033  0.2069 -0.1547
  205MPD1     H 3119   3.049   1.062  16.873  1.1150  0.0125 -0.8932
  205MPD1    H1 3120   2.988   0.669  17.016 -0.3969 -0.2782 -1.5092
  205MPD1    H2 3121   3.382   0.797  16.912 -0.2339  0.3713 -0.4890
  205MPD1    H3 3122   3.229   0.628  17.005  0.3371  0.8896  1.1557
  205MPD1     N 3123   2.859   0.883  16.974  0.4629 -0.2242 -0.2898
  205MPD1    H5 3124   2.802   0.800  16.990  2.0723 -1.4658 -0.9845
  205MPD1    N1 3125   3.304   1.024  16.813  0.7624  0.2306 -0.1156
  205MPD1    H6 3126   3.259   1.115  16.807  1.1123  0.3808 -0.4392
  205MPD1    H7 3127   3.398   1.042  16.851  0.6974  2.1333 -0.8591
  206MPD1     C 3128   1.941   3.061  17.031 -0.0593  0.4578 -0.0885
  206MPD1    C1 3129   1.925   2.980  16.924 -0.2854  0.5798  0.4272
  206MPD1    C2 3130   1.922   3.043  16.799  0.8162 -0.0417 -0.0135
  206MPD1    C3 3131   1.969   3.166  16.771  0.0781  0.4802 -0.0273
  206MPD1    C4 3132   2.011   3.238  16.883  0.1160 -0.0055 -0.1657
  206MPD1    C5 3133   1.999   3.184  17.011 -0.3961 -0.0034 -0.2545
  206MPD1     H 3134   1.881   2.987  16.715 -0.3853  1.0510 -0.1605
  206MPD1    H1 3135   2.064   3.333  16.886  2.3908 -1.1327 -4.8036
  206MPD1    H2 3136   1.943   3.025  17.133  0.4955 -1.5812 -0.8154
  206MPD1    H3 3137   2.031   3.245  17.095  0.9340  0.5677 -1.1851
  206MPD1     N 3138   1.976   3.218  16.635 -0.7249 -0.6263 -0.0658
  206MPD1    H5 3139   1.949   3.150  16.564 -2.2399 -2.3912  2.1764
  206MPD1    N1 3140   1.881   2.849  16.941  0.3144  0.4749  0.1423
  206MPD1    H6 3141   1.902   2.797  16.857  2.0768  2.6459 -0.7657
  206MPD1    H7 3142   1.938   2.801  17.011 -0.1505  2.7973  2.1492
  207MPD1     C 3143   1.232   1.276   9.920  0.1009 -0.7975 -0.0369
  207MPD1    C1 3144   1.128   1.332   9.850 -0.4001  0.7659 -0.4507
  207MPD1    C2 3145   1.043   1.420   9.911  0.8625  0.1608 -0.4381
  207MPD1    C3 3146   1.072   1.472  10.037 -0.0864 -0.0878 -0.0658
  207MPD1    C4 3147   1.169   1.417  10.106  0.3566 -0.1495  0.1844
  207MPD1    C5 3148   1.248   1.321  10.044  0.1677  0.1923  0.7619
  207MPD1     H 3149   0.947   1.442   9.866  0.7516  0.8087  0.1089
  207MPD1    H1 3150   1.191   1.455  10.205 -2.8110 -0.2428  0.9370
  207MPD1    H2 3151   1.288   1.189   9.888  1.1819 -0.2407  0.3404
  207MPD1    H3 3152   1.328   1.282  10.105  1.0156  1.3657  0.3957
  207MPD1     N 3153   1.003   1.572  10.111  0.2711 -0.1091 -1.0834
  207MPD1    H5 3154   1.033   1.581  10.207 -1.8415 -1.6178 -0.2784
  207MPD1    N1 3155   1.080   1.275   9.734  0.0547  0.1998 -0.2363
  207MPD1    H6 3156   1.141   1.216   9.677 -1.3954 -1.6139  0.0996
  207MPD1    H7 3157   1.022   1.339   9.680 -0.4508 -1.1557 -1.2924
  208MPD1     C 3158   3.462   0.187  17.542  0.4164 -0.4349 -0.6292
  208MPD1    C1 3159   3.435   0.057  17.564 -0.2239  0.3597 -0.2741
  208MPD1    C2 3160   3.308   0.007  17.534  0.0597  0.0766 -0.3099
  208MPD1    C3 3161   3.221   0.086  17.463  0.7055  0.8028 -0.0320
  208MPD1    C4 3162   3.253   0.222  17.442 -0.1037 -0.6326 -0.0097
  208MPD1    C5 3163   3.369   0.275  17.486  0.1303  0.2336  0.6013
  208MPD1     H 3164   3.274   4.635  17.579  0.8915  0.1942  0.5583
  208MPD1    H1 3165   3.199   0.288  17.375 -1.6753 -1.8572  0.0382
  208MPD1    H2 3166   3.559   0.228  17.568 -0.4388  0.2809  1.4880
  208MPD1    H3 3167   3.389   0.379  17.465 -1.2218  0.2361 -0.6454
  208MPD1     N 3168   3.100   0.031  17.418  0.3130  0.0325  0.3303
  208MPD1    H5 3169   3.085   4.653  17.439  1.4864 -0.3279 -0.5560
  208MPD1    N1 3170   3.525   4.704  17.641  0.4053 -0.1143  0.7770
  208MPD1    H6 3171   3.516   4.607  17.613  1.2939  0.3602 -1.1677
  208MPD1    H7 3172   3.620   0.009  17.612 -0.2633  1.1089 -0.3032
  209MPD1     C 3173   4.612   0.698  10.084 -0.0870  0.4104 -0.3508
  209MPD1    C1 3174   4.700   0.801  10.065 -0.0324  0.0876  0.4484
  209MPD1    C2 3175   0.040   0.859  10.178  0.5846  0.0287 -0.6225
  209MPD1    C3 3176   0.020   0.813  10.311  0.2773 -0.0905 -0.5271
  209MPD1    C4 3177   4.641   0.711  10.327  0.0705  0.1010  0.3214
  209MPD1    C5 3178   4.584   0.657  10.211 -0.2593 -0.0147  0.5271
  209MPD1     H 3179   0.116   0.936  10.166 -0.7220  1.1716 -1.5170
  209MPD1    H1 3180   4.609   0.669  10.422  0.0425 -1.0127 -0.1845
  209MPD1    H2 3181   4.551   0.657  10.005 -0.4389 -3.2802  1.8018
  209MPD1    H3 3182   4.510   0.579  10.225 -0.3512 -0.4720 -2.6167
  209MPD1     N 3183   0.092   0.875  10.421  0.2376  0.6290  0.2509
  209MPD1    H5 3184   0.152   0.950  10.387  0.5645 -0.2599 -1.1031
  209MPD1    N1 3185   0.021   0.828   9.937  0.3856  0.3830 -0.1519
  209MPD1    H6 3186   4.679   0.805   9.861  1.0559 -1.5144 -0.1328
  209MPD1    H7 3187   0.063   0.920   9.921  0.8935  0.1777 -0.0225
  210MPD1     C 3188   0.006   0.657  11.396  0.0968  0.6489 -0.5296
  210MPD1    C1 3189   0.105   0.750  11.406  0.2020  0.6240 -0.5636
  210MPD1    C2 3190   0.145   0.815  11.286  0.2352  0.0638 -0.7713
  210MPD1    C3 3191   0.083   0.791  11.165  0.0373 -0.1254 -0.4829
  210MPD1    C4 3192   4.703   0.701  11.170 -0.5355  0.3259  0.0275
  210MPD1    C5 3193   4.659   0.631  11.283 -1.1341  0.1263  0.3942
  210MPD1     H 3194   0.229   0.884  11.288 -1.2074  1.8372 -1.4554
  210MPD1    H1 3195   4.658   0.671  11.076 -0.6454 -2.2590  0.9253
  210MPD1    H2 3196   4.699   0.600  11.484  2.1780 -0.9114 -0.8896
  210MPD1    H3 3197   4.572   0.567  11.281 -0.2386 -1.1529  1.9244
  210MPD1     N 3198   0.117   0.844  11.036  0.9655  0.2024 -0.8182
  210MPD1    H5 3199   0.055   0.813  10.963 -1.2048  0.6085  0.8407
  210MPD1    N1 3200   0.174   0.771  11.531  0.3470 -0.3417 -0.0165
  210MPD1    H6 3201   0.208   0.867  11.542 -1.6791  0.3202  0.4497
  210MPD1    H7 3202   0.114   0.756  11.612 -0.4197 -2.8810 -1.0576
  211MPD1     C 3203   2.785   0.286  16.060  0.0375  0.4464 -0.0567
  211MPD1    C1 3204   2.659   0.248  16.099 -0.3143  0.0530 -0.8414
  211MPD1    C2 3205   2.579   0.346  16.149  0.2072 -0.1799 -0.0161
  211MPD1    C3 3206   2.616   0.479  16.158  0.0680  0.3819  0.5831
  211MPD1    C4 3207   2.746   0.513  16.130 -0.1778 -0.2871  0.2940
  211MPD1    C5 3208   2.834   0.415  16.090 -0.6352  0.2162 -0.4039
  211MPD1     H 3209   2.480   0.312  16.179 -0.0283  0.6748  0.1659
  211MPD1    H1 3210   2.787   0.612  16.147 -1.1861  0.0732  0.6030
  211MPD1    H2 3211   2.841   0.218  15.998 -2.0947 -1.9673  0.6413
  211MPD1    H3 3212   2.933   0.445  16.058 -0.4344  0.7511  0.7178
  211MPD1     N 3213   2.507   0.566  16.188  0.2679  0.9108  0.2242
  211MPD1    H5 3214   2.417   0.528  16.218  0.8052 -0.7942 -0.3092
  211MPD1    N1 3215   2.619   0.118  16.068  0.2767  0.0128 -0.2252
  211MPD1    H6 3216   2.697   0.052  16.065 -0.5097 -0.9992  1.8919
  211MPD1    H7 3217   2.554   0.091  16.142 -0.4938 -0.6493 -1.1436
  212MPD1     C 3218   1.817   3.940  16.540 -0.0505  0.6342 -0.3497
  212MPD1    C1 3219   1.683   3.978  16.547  0.7074 -0.7072  0.3232
  212MPD1    C2 3220   1.596   3.890  16.604  0.1789 -0.7687 -0.1237
  212MPD1    C3 3221   1.637   3.768  16.660 -0.1376  0.1552  0.0792
  212MPD1    C4 3222   1.772   3.745  16.659  0.2498  0.0249  0.3495
  212MPD1    C5 3223   1.861   3.825  16.598 -0.2474 -0.3577 -0.2410
  212MPD1     H 3224   1.491   3.915  16.600  0.2588 -0.6557 -1.5584
  212MPD1    H1 3225   1.814   3.653  16.696 -0.0316  0.5383  1.9577
  212MPD1    H2 3226   1.882   3.997  16.474  3.2022  0.1073  2.4182
  212MPD1    H3 3227   1.959   3.787  16.575 -0.9865 -1.2557 -1.9040
  212MPD1     N 3228   1.560   3.670  16.732 -0.1451  0.0192 -0.1554
  212MPD1    H5 3229   1.617   3.593  16.766 -0.5427  0.8495  2.3928
  212MPD1    N1 3230   1.644   4.069  16.453  0.5176 -0.4568 -0.0664
  212MPD1    H6 3231   1.700   4.154  16.462  0.1632 -0.4276  1.9324
  212MPD1    H7 3232   1.546   4.091  16.471  1.6208  2.3884  2.3899
  213MPD1     C 3233   0.461   4.563  15.690 -0.3047  0.9759 -0.9294
  213MPD1    C1 3234   0.426   4.442  15.631 -0.0908  0.1455 -1.1588
  213MPD1    C2 3235   0.315   4.446  15.548  0.8474 -0.3629  0.0571
  213MPD1    C3 3236   0.255   4.562  15.500  0.5745  0.4144  0.4440
  213MPD1    C4 3237   0.303   4.683  15.544 -0.7047 -0.4627 -0.2241
  213MPD1    C5 3238   0.389   4.678  15.648 -0.1608  0.4431 -0.4493
  213MPD1     H 3239   0.273   4.358  15.501  0.4788 -1.0464  1.6779
  213MPD1    H1 3240   0.262   0.061  15.524  0.2603 -0.1143 -0.5002
  213MPD1    H2 3241   0.520   4.568  15.781 -1.2882  0.4619 -0.2627
  213MPD1    H3 3242   0.414   0.055  15.687  0.3329  1.5105 -3.4556
  213MPD1     N 3243   0.154   4.556  15.400  0.3744  0.0896  0.4550
  213MPD1    H5 3244   0.125   4.463  15.369  1.1877 -0.3636  1.0738
  213MPD1    N1 3245   0.454   4.331  15.704 -0.4582  0.3214 -0.4298
  213MPD1    H6 3246   0.435   4.244  15.655  0.4220 -1.1891  1.9206
  213MPD1    H7 3247   0.553   4.329  15.724 -0.4676  1.2090 -0.2971
  214MPD1     C 3248   4.111   3.967  15.189 -0.0053  0.8784 -0.7365
  214MPD1    C1 3249   4.226   3.968  15.263  0.0448 -0.2842 -0.0265
  214MPD1    C2 3250   4.295   4.090  15.276  0.4273  0.7014 -0.1944
  214MPD1    C3 3251   4.252   4.202  15.200  0.0210  0.0399 -0.3359
  214MPD1    C4 3252   4.142   4.188  15.123 -0.2279 -0.2661 -0.6686
  214MPD1    C5 3253   4.071   4.069  15.111 -0.6194 -0.2817  0.0660
  214MPD1     H 3254   4.386   4.086  15.334  1.0911  2.5909 -1.1228
  214MPD1    H1 3255   4.102   4.267  15.061  1.0633  0.3748 -0.6837
  214MPD1    H2 3256   4.062   3.870  15.182  1.0983  0.3196 -0.6250
  214MPD1    H3 3257   3.990   4.070  15.039 -0.8822  0.6792  0.3708
  214MPD1     N 3258   4.334   4.315  15.193 -0.1931  0.5455  0.4250
  214MPD1    H5 3259   4.305   4.386  15.127  0.2786 -0.1460 -0.5339
  214MPD1    N1 3260   4.253   3.857  15.350 -0.2303 -0.4428  0.0756
  214MPD1    H6 3261   4.205   3.771  15.325 -3.1774  0.3052  3.2051
  214MPD1    H7 3262   4.353   3.843  15.368 -0.2163  3.3735  3.0379
  215MPD1     C 3263   3.854   0.516  10.897 -0.3332 -0.1052  0.1318
  215MPD1    C1 3264   3.831   0.567  11.022 -0.0177  0.5118  0.3430
  215MPD1    C2 3265   3.939   0.611  11.091  0.4047  0.9235 -0.0715
  215MPD1    C3 3266   4.065   0.600  11.043  0.8011 -0.0484  0.0237
  215MPD1    C4 3267   4.094   0.539  10.920 -0.4633  0.1238  0.7622
  215MPD1    C5 3268   3.980   0.494  10.853  0.4916 -0.1548  0.1137
  215MPD1     H 3269   3.927   0.624  11.198 -2.6230  0.3010 -0.3486
  215MPD1    H1 3270   4.190   0.529  10.870 -1.4987 -1.6632 -0.8990
  215MPD1    H2 3271   3.773   0.482  10.833  0.2778  1.4743 -1.4793
  215MPD1    H3 3272   3.995   0.448  10.756  0.8997 -2.3579  1.2089
  215MPD1     N 3273   4.166   0.664  11.123  0.1581  0.7288 -0.0156
  215MPD1    H5 3274   4.146   0.708  11.212 -0.1106 -0.2776  0.4202
  215MPD1    N1 3275   3.701   0.594  11.066  0.1637 -0.4133 -0.0537
  215MPD1    H6 3276   3.702   0.588  11.168 -1.6941  2.0884  0.1246
  215MPD1    H7 3277   3.647   0.513  11.037 -1.8084  1.5188 -1.7522
  216MPD1     C 3278   1.688   3.581  17.046  0.2771 -0.5613  1.2982
  216MPD1    C1 3279   1.698   3.459  16.987 -0.0266 -0.2872  0.0696
  216MPD1    C2 3280   1.651   3.346  17.045  0.0428  0.3280  0.1428
  216MPD1    C3 3281   1.598   3.337  17.168  0.2235 -0.0689  0.2248
  216MPD1    C4 3282   1.594   3.456  17.240 -0.1705  0.5334  0.2365
  216MPD1    C5 3283   1.634   3.567  17.171  0.7861 -0.5401  0.0706
  216MPD1     H 3284   1.667   3.254  16.990  0.9321  0.3498  0.3655
  216MPD1    H1 3285   1.541   3.458  17.335 -0.7912 -0.4767 -0.0919
  216MPD1    H2 3286   1.719   3.679  17.012  1.3756 -1.0791  0.8128
  216MPD1    H3 3287   1.612   3.658  17.227  0.6958 -0.2662 -0.4132
  216MPD1     N 3288   1.548   3.209  17.220  0.3704  0.1566  0.1624
  216MPD1    H5 3289   1.538   3.127  17.162  2.4583 -0.0470  0.0696
  216MPD1    N1 3290   1.746   3.451  16.854 -0.1092  0.6726  0.5823
  216MPD1    H6 3291   1.786   3.358  16.838 -1.5001  0.5221 -2.0317
  216MPD1    H7 3292   1.826   3.513  16.842  0.8186 -0.4255  1.0370
  217MPD1     C 3293   3.317   3.506   9.864 -0.2724 -0.1812  0.9220
  217MPD1    C1 3294   3.228   3.570   9.944 -0.5027 -0.9667 -0.1951
  217MPD1    C2 3295   3.194   3.703   9.904  0.3155 -0.0728 -0.1128
  217MPD1    C3 3296   3.252   3.765   9.791 -0.3262 -1.1441 -0.1280
  217MPD1    C4 3297   3.334   3.693   9.713 -0.1313 -0.4563 -0.3693
  217MPD1    C5 3298   3.365   3.563   9.751  0.0672  0.2148 -0.6946
  217MPD1     H 3299   3.129   3.767   9.962 -0.8756  1.2088 -2.8766
  217MPD1    H1 3300   3.382   3.737   9.626  2.2418  0.9599  1.6449
  217MPD1    H2 3301   3.369   3.414   9.888 -2.0715 -0.9106  2.0774
  217MPD1    H3 3302   3.434   3.510   9.686 -0.2341  1.9347 -2.4547
  217MPD1     N 3303   3.228   3.896   9.747 -0.2156 -0.0755 -0.0486
  217MPD1    H5 3304   3.278   3.922   9.663 -0.2530 -0.3542 -0.1567
  217MPD1    N1 3305   3.190   3.516  10.067  0.5403  0.2778 -0.2198
  217MPD1    H6 3306   3.202   3.415  10.063  1.8409  0.3446  1.8672
  217MPD1    H7 3307   3.099   3.542  10.106  1.2382 -0.4074  1.8855
  218MPD1     C 3308   3.541   0.989  12.831  0.4517 -0.0827 -0.3236
  218MPD1    C1 3309   3.593   1.049  12.726  0.5830 -0.7909 -0.6703
  218MPD1    C2 3310   3.711   0.994  12.681  0.0348  0.4493 -0.3027
  218MPD1    C3 3311   3.774   0.885  12.733 -0.2708  0.0501  0.4161
  218MPD1    C4 3312   3.706   0.818  12.831 -0.7402 -0.1572  0.0749
  218MPD1    C5 3313   3.589   0.869  12.874 -0.4682  0.2850  0.6065
  218MPD1     H 3314   3.755   1.045  12.595  0.7873 -1.3483 -0.9846
  218MPD1    H1 3315   3.749   0.730  12.876 -0.5421  0.0500  0.2937
  218MPD1    H2 3316   3.446   1.022  12.871 -0.2207 -3.1001  0.5320
  218MPD1    H3 3317   3.522   0.836  12.953  0.3615 -0.5891  0.9555
  218MPD1     N 3318   3.895   0.843  12.678  0.0579 -0.1441  0.9059
  218MPD1    H5 3319   3.941   0.903  12.610 -1.6112 -0.1491 -0.2150
  218MPD1    N1 3320   3.526   1.137  12.643 -0.6115 -0.4548 -0.2386
  218MPD1    H6 3321   3.451   1.189  12.689  0.3376  0.4390  0.3049
  218MPD1    H7 3322   3.587   1.209  12.605  1.1703 -2.2064 -0.6304
  219MPD1     C 3323   4.180   0.606  11.757 -1.2656  0.7093  0.0230
  219MPD1    C1 3324   4.221   0.709  11.837  0.1367  0.0192 -0.2989
  219MPD1    C2 3325   4.203   0.698  11.972  0.2848 -0.3480 -0.0042
  219MPD1    C3 3326   4.145   0.579  12.027 -0.2198  1.1541 -0.2329
  219MPD1    C4 3327   4.130   0.473  11.949 -0.4651  0.0244  0.2047
  219MPD1    C5 3328   4.145   0.487  11.818 -1.2600  0.0929  0.5212
  219MPD1     H 3329   4.239   0.780  12.034  2.0607  0.6327 -2.3458
  219MPD1    H1 3330   4.092   0.381  11.992  1.6005 -1.0275 -0.2340
  219MPD1    H2 3331   4.181   0.613  11.649  0.2969  0.6174  0.0265
  219MPD1    H3 3332   4.121   0.400  11.758  0.4637  1.0412 -1.5168
  219MPD1     N 3333   4.121   0.557  12.164 -0.2569 -0.1119  0.5552
  219MPD1    H5 3334   4.092   0.465  12.196 -3.9604  0.4909 -0.9703
  219MPD1    N1 3335   4.268   0.826  11.771 -0.7244  0.0252 -0.0105
  219MPD1    H6 3336   4.327   0.812  11.689 -1.2899  1.9277 -0.7264
  219MPD1    H7 3337   4.329   0.877  11.835  0.7161 -1.3622 -0.2763
  220MPD1     C 3338   4.546   1.148   9.330 -0.5262 -0.3623 -0.5012
  220MPD1    C1 3339   4.415   1.144   9.372  0.0371  0.2008 -0.0214
  220MPD1    C2 3340   4.395   1.138   9.506 -0.4246  0.0484 -0.3359
  220MPD1    C3 3341   4.494   1.124   9.604  0.4335 -0.0208 -0.9427
  220MPD1    C4 3342   4.619   1.118   9.554 -0.3425 -0.6421  0.3683
  220MPD1    C5 3343   4.647   1.130   9.418 -0.2954  0.3570  0.2553
  220MPD1     H 3344   4.297   1.124   9.552  0.6138 -2.6501  1.0641
  220MPD1    H1 3345   4.698   1.108   9.626  0.9200 -0.0031 -0.9288
  220MPD1    H2 3346   4.568   1.152   9.224 -1.4466  1.9309 -0.5982
  220MPD1    H3 3347   0.032   1.134   9.393 -0.2595  2.1022  0.6788
  220MPD1     N 3348   4.453   1.112   9.738  0.5123 -0.1873 -0.1987
  220MPD1    H5 3349   4.353   1.114   9.755 -0.0133 -0.3536 -3.3188
  220MPD1    N1 3350   4.305   1.123   9.282 -0.3350  0.0294  0.0541
  220MPD1    H6 3351   4.218   1.156   9.322  0.0503  1.6141 -0.4152
  220MPD1    H7 3352   4.330   1.172   9.196 -2.6842 -2.1869 -1.8905
  221MPD1     C 3353   1.598   4.560  16.765 -0.6826 -0.4419 -0.5514
  221MPD1    C1 3354   1.669   4.663  16.813 -0.2430 -0.4129  0.0880
  221MPD1    C2 3355   1.796   4.675  16.767 -0.2374 -0.1415  0.4499
  221MPD1    C3 3356   1.850   4.582  16.676  0.0553 -0.2839 -0.0500
  221MPD1    C4 3357   1.771   4.478  16.633  0.3836  0.0266  0.2116
  221MPD1    C5 3358   1.645   4.465  16.683 -0.0141  0.3125 -0.5129
  221MPD1     H 3359   1.855   0.042  16.791  0.0797 -0.2430  0.0342
  221MPD1    H1 3360   1.805   4.400  16.565  0.8989  1.9549 -1.7136
  221MPD1    H2 3361   1.498   4.539  16.800 -0.5955  1.4215  0.7963
  221MPD1    H3 3362   1.580   4.381  16.661  2.3148 -1.5646 -0.2831
  221MPD1     N 3363   1.983   4.579  16.627  0.1491 -0.1670  0.1048
  221MPD1    H5 3364   2.014   4.507  16.563 -3.1031 -0.8698 -0.7189
  221MPD1    N1 3365   1.612   0.029  16.906 -0.0891  0.1289  0.6864
  221MPD1    H6 3366   1.538   4.713  16.965 -2.2678  3.1228 -0.1956
  221MPD1    H7 3367   1.669   0.106  16.939 -0.6967  0.1203  1.7496
  222MPD1     C 3368   2.496   3.856  17.271 -0.3933 -0.2276 -0.3987
  222MPD1    C1 3369   2.400   3.762  17.250 -0.8551 -0.3256  0.2437
  222MPD1    C2 3370   2.265   3.797  17.250 -0.0678 -0.0100  0.0905
  222MPD1    C3 3371   2.232   3.932  17.270  0.5852 -0.6537 -0.3387
  222MPD1    C4 3372   2.332   4.017  17.295  0.2037 -0.3296 -0.7989
  222MPD1    C5 3373   2.466   3.986  17.314 -0.0622  0.2298  0.5204
  222MPD1     H 3374   2.197   3.719  17.216  1.8556 -1.9862  0.7607
  222MPD1    H1 3375   2.314   4.123  17.306 -0.7153 -0.5215 -0.5173
  222MPD1    H2 3376   2.600   3.830  17.285  0.4899  3.3792 -0.2097
  222MPD1    H3 3377   2.541   4.060  17.341 -1.4491  1.3832  1.1918
  222MPD1     N 3378   2.100   3.984  17.276  0.1423 -0.0755  0.9569
  222MPD1    H5 3379   2.085   4.083  17.295 -1.8005 -0.3099  0.6000
  222MPD1    N1 3380   2.439   3.635  17.210  0.2038  0.3096  0.0283
  222MPD1    H6 3381   2.363   3.570  17.233  0.7315 -1.4118 -3.0569
  222MPD1    H7 3382   2.527   3.601  17.247 -0.3166 -0.5021  0.5099
  223MPD1     C 3383   1.045   4.081  17.047  0.2989  0.3370 -0.5689
  223MPD1    C1 3384   1.079   4.145  17.162 -0.7631 -0.4793  0.4516
  223MPD1    C2 3385   1.201   4.119  17.220  0.0318  0.0932 -0.6546
  223MPD1    C3 3386   1.291   4.035  17.161 -0.1459 -0.1629  0.4970
  223MPD1    C4 3387   1.253   3.962  17.051  0.6248  0.3208 -0.1382
  223MPD1    C5 3388   1.126   3.989  16.993  0.3618 -0.0743  0.1825
  223MPD1     H 3389   1.244   4.187  17.292  0.2289 -1.5556  0.7729
  223MPD1    H1 3390   1.322   3.895  17.003  2.7295  1.4221  1.3374
  223MPD1    H2 3391   0.948   4.103  17.003 -1.1379  1.0040  2.9463
  223MPD1    H3 3392   1.110   3.945  16.895  0.1812  0.2198  0.0799
  223MPD1     N 3393   1.414   4.030  17.224  0.8067  0.2825  0.6899
  223MPD1    H5 3394   1.438   4.068  17.314  1.6710  1.8545 -0.2034
  223MPD1    N1 3395   0.989   4.247  17.218 -0.9713 -0.4991  0.7548
  223MPD1    H6 3396   0.993   4.230  17.318 -2.4603 -0.7917  0.7671
  223MPD1    H7 3397   0.891   4.224  17.201 -0.8917  0.3238 -0.7999
  224MPD1     C 3398   3.260   0.979   8.784 -0.2076  0.3849 -0.2757
  224MPD1    C1 3399   3.154   0.891   8.795  0.2466 -0.6561 -0.0627
  224MPD1    C2 3400   3.163   0.785   8.889 -0.1882  1.2069  0.0327
  224MPD1    C3 3401   3.276   0.765   8.967  0.4025 -0.1074  0.5294
  224MPD1    C4 3402   3.384   0.852   8.950 -0.5791  0.3389  0.0821
  224MPD1    C5 3403   3.371   0.954   8.863 -0.6563  0.4325 -0.3706
  224MPD1     H 3404   3.081   0.715   8.884  1.8716 -1.3680  2.1480
  224MPD1    H1 3405   3.482   0.828   8.988 -0.3824  1.4242  0.2566
  224MPD1    H2 3406   3.266   1.062   8.715  0.0020  0.2339 -0.4386
  224MPD1    H3 3407   3.456   1.022   8.860  0.7729 -1.2420  1.9747
  224MPD1     N 3408   3.292   0.655   9.055  0.1862  0.3795  0.1535
  224MPD1    H5 3409   3.372   0.666   9.117  0.0063  1.3963  0.1967
  224MPD1    N1 3410   3.057   0.882   8.694 -0.5976  0.1947 -0.0111
  224MPD1    H6 3411   3.031   0.972   8.653 -2.6371 -0.3915  0.0290
  224MPD1    H7 3412   2.971   0.841   8.728  0.5990 -2.0652  0.2650
  225MPD1     C 3413   3.924   2.056  12.512  0.0774  0.0981  0.8474
  225MPD1    C1 3414   3.974   1.973  12.414 -0.7043 -0.4513  0.5291
  225MPD1    C2 3415   3.892   1.940  12.307  0.7401 -0.7452  0.2920
  225MPD1    C3 3416   3.771   1.998  12.286  0.0094 -0.0318  0.2539
  225MPD1    C4 3417   3.728   2.088  12.384  0.3380  0.5475  0.4398
  225MPD1    C5 3418   3.802   2.112  12.496  0.4113  0.3883  0.0549
  225MPD1     H 3419   3.929   1.859  12.245  1.0056 -0.7414  0.4440
  225MPD1    H1 3420   3.631   2.136  12.384 -0.3312 -0.7801  0.3438
  225MPD1    H2 3421   3.969   2.089  12.604  1.4773 -0.0920  0.2308
  225MPD1    H3 3422   3.754   2.166  12.577 -0.2095 -0.0638 -0.0099
  225MPD1     N 3423   3.680   1.965  12.181 -0.1225 -0.1314 -0.4574
  225MPD1    H5 3424   3.586   2.003  12.188 -0.0750 -0.2132  0.6442
  225MPD1    N1 3425   4.092   1.894  12.431 -0.0530  0.3854 -0.1491
  225MPD1    H6 3426   4.158   1.928  12.501 -0.3259 -1.7024  1.1100
  225MPD1    H7 3427   4.140   1.888  12.342 -1.5770 -1.4719 -0.8325
  226MPD1     C 3428   2.492   1.034   8.998 -0.1318  0.6333  0.3254
  226MPD1    C1 3429   2.535   0.912   9.047 -0.4107  0.2470 -0.4766
  226MPD1    C2 3430   2.671   0.907   9.078 -0.7085 -0.5389 -0.0600
  226MPD1    C3 3431   2.757   1.011   9.077  0.1107 -0.2009 -0.0090
  226MPD1    C4 3432   2.709   1.129   9.037  0.5108  0.1143 -0.4952
  226MPD1    C5 3433   2.576   1.141   9.004 -0.1596 -0.0998 -0.2112
  226MPD1     H 3434   2.710   0.809   9.103  0.1935  0.7557  3.5994
  226MPD1    H1 3435   2.775   1.214   9.046  0.5268  0.0879 -0.3487
  226MPD1    H2 3436   2.397   1.063   8.956 -2.0575 -0.8103  3.6635
  226MPD1    H3 3437   2.533   1.238   8.981 -0.7862 -0.0593  1.1326
  226MPD1     N 3438   2.891   0.991   9.124 -0.2373  0.2285 -0.3521
  226MPD1    H5 3439   2.931   0.898   9.124 -0.7647  0.0042 -0.2597
  226MPD1    N1 3440   2.460   0.791   9.030 -0.1503 -0.0297 -0.5955
  226MPD1    H6 3441   2.362   0.811   9.048 -0.2277 -1.3815  0.4835
  226MPD1    H7 3442   2.489   0.725   9.103  0.2831  1.2229  0.3722
  227MPD1     C 3443   3.697   1.597   9.129  0.4716 -0.8142  0.0531
  227MPD1    C1 3444   3.564   1.622   9.096 -0.6815 -0.2307  0.2468
  227MPD1    C2 3445   3.481   1.512   9.106 -0.2048  0.4495 -0.4872
  227MPD1    C3 3446   3.518   1.393   9.169  0.2673 -0.1538  0.3085
  227MPD1    C4 3447   3.651   1.371   9.199 -0.4615 -1.1086 -0.8791
  227MPD1    C5 3448   3.739   1.470   9.181 -0.8449 -1.2540  0.4970
  227MPD1     H 3449   3.376   1.520   9.080 -0.2092 -0.0164 -0.6130
  227MPD1    H1 3450   3.691   1.280   9.243  2.6552  1.1531  0.9816
  227MPD1    H2 3451   3.773   1.668   9.096 -0.9708 -0.2359 -2.0635
  227MPD1    H3 3452   3.846   1.461   9.196 -0.6371  1.2596  0.4810
  227MPD1     N 3453   3.414   1.303   9.194 -0.4208 -0.2298 -0.0951
  227MPD1    H5 3454   3.324   1.330   9.155  0.2253  0.1720 -1.3075
  227MPD1    N1 3455   3.526   1.743   9.039  0.0773  0.0186 -0.7841
  227MPD1    H6 3456   3.433   1.770   9.069  1.1310  2.6765  0.1224
  227MPD1    H7 3457   3.590   1.821   9.054 -0.0899  0.3631 -1.8812
  228MPD1     C 3458   0.780   0.148  13.249  0.0906  0.4225  0.4233
  228MPD1    C1 3459   0.652   0.113  13.290  0.2844  0.0515 -0.0285
  228MPD1    C2 3460   0.606   4.701  13.270  0.0309  0.4365 -0.2720
  228MPD1    C3 3461   0.688   4.614  13.210 -0.5803 -0.1360  0.6493
  228MPD1    C4 3462   0.818   4.646  13.155  0.5255  0.1078 -0.1619
  228MPD1    C5 3463   0.858   0.056  13.181 -0.0088  0.6321  0.3316
  228MPD1     H 3464   0.508   4.666  13.300  1.0133 -1.2175  0.9881
  228MPD1    H1 3465   0.883   4.578  13.101  1.6428 -1.4230  3.1188
  228MPD1    H2 3466   0.810   0.250  13.269  2.8412 -0.3626  0.2413
  228MPD1    H3 3467   0.958   0.085  13.152 -0.2164  0.4785 -0.5439
  228MPD1     N 3468   0.631   4.487  13.192  1.0357  0.1208 -0.3961
  228MPD1    H5 3469   0.543   4.477  13.241 -0.2512  0.7017 -2.6084
  228MPD1    N1 3470   0.574   0.202  13.368 -0.3492  0.6209 -0.0517
  228MPD1    H6 3471   0.588   0.301  13.349  0.4676  1.0547  2.7478
  228MPD1    H7 3472   0.477   0.172  13.366 -0.3393  0.5847  0.0269
  229MPD1     C 3473   0.833   2.487  13.998 -0.1380  0.0530  0.0003
  229MPD1    C1 3474   0.809   2.529  14.129 -0.3116 -0.5545 -0.6539
  229MPD1    C2 3475   0.863   2.442  14.222 -0.1709  0.8610 -0.4646
  229MPD1    C3 3476   0.908   2.314  14.195 -0.0514 -0.5768 -0.1783
  229MPD1    C4 3477   0.911   2.272  14.064 -0.5006  0.2619 -0.4399
  229MPD1    C5 3478   0.878   2.364  13.970 -0.0112  0.0184  0.3235
  229MPD1     H 3479   0.858   2.480  14.323  1.7763 -1.9839  0.7050
  229MPD1    H1 3480   0.942   2.171  14.041 -1.5049  0.2291 -1.6247
  229MPD1    H2 3481   0.827   2.554  13.912  2.2862  0.5160  0.2072
  229MPD1    H3 3482   0.889   2.345  13.864 -0.2615 -2.7201  0.7819
  229MPD1     N 3483   0.949   2.217  14.289  0.2779  0.0397 -0.2853
  229MPD1    H5 3484   0.994   2.135  14.251  1.4027  1.9504 -3.0483
  229MPD1    N1 3485   0.777   2.661  14.165  0.1534 -0.1431 -0.3819
  229MPD1    H6 3486   0.751   2.669  14.263  0.5664 -1.6527 -0.1467
  229MPD1    H7 3487   0.713   2.710  14.102  0.0453 -0.1655 -0.2895
  230MPD1     C 3488   0.808   1.903  15.280 -0.5694  0.6571 -0.2400
  230MPD1    C1 3489   0.905   1.811  15.238  0.2469  0.1805  0.7620
  230MPD1    C2 3490   0.953   1.819  15.109 -0.1251 -0.8673 -0.4242
  230MPD1    C3 3491   0.940   1.941  15.037  0.2081 -0.2979  0.0193
  230MPD1    C4 3492   0.853   2.038  15.089 -0.1390  0.3973  0.3653
  230MPD1    C5 3493   0.778   2.012  15.202 -0.0486  0.1380 -0.2399
  230MPD1     H 3494   0.995   1.731  15.062  1.9824 -0.1503  0.1417
  230MPD1    H1 3495   0.831   2.131  15.038 -1.4529 -0.3840 -0.4608
  230MPD1    H2 3496   0.757   1.886  15.375  2.8956 -0.0563  1.4769
  230MPD1    H3 3497   0.721   2.092  15.248 -2.5629 -1.4054 -0.6460
  230MPD1     N 3498   1.013   1.963  14.922 -0.0515  0.2269  0.0586
  230MPD1    H5 3499   1.062   1.878  14.897  0.2428  0.8292 -1.4182
  230MPD1    N1 3500   0.915   1.687  15.302  0.6364  0.2412  0.1072
  230MPD1    H6 3501   1.005   1.641  15.292 -0.7039 -2.0087 -1.6923
  230MPD1    H7 3502   0.899   1.692  15.402 -0.2832  2.2722 -0.1464
  231MPD1     C 3503   3.023   4.216  15.638 -0.5652  0.1750 -0.3661
  231MPD1    C1 3504   3.026   4.196  15.503 -0.2002 -0.1764  0.2327
  231MPD1    C2 3505   3.140   4.227  15.434 -0.6296 -0.1588 -0.2065
  231MPD1    C3 3506   3.243   4.298  15.489 -0.3548 -0.5839 -0.3192
  231MPD1    C4 3507   3.241   4.335  15.624  0.0389  0.0206 -0.5813
  231MPD1    C5 3508   3.128   4.287  15.692 -0.1669 -0.1899  0.1135
  231MPD1     H 3509   3.136   4.193  15.331  0.5418  1.5108 -0.8009
  231MPD1    H1 3510   3.318   4.390  15.675  0.1218 -0.8244  0.2122
  231MPD1    H2 3511   2.940   4.194  15.705 -2.3485  2.0697 -1.9874
  231MPD1    H3 3512   3.128   4.310  15.797 -0.0470  2.1147 -0.3968
  231MPD1     N 3513   3.349   4.330  15.405  0.2674  0.1749  0.2957
  231MPD1    H5 3514   3.345   4.290  15.312 -1.8726 -1.8175  1.2527
  231MPD1    N1 3515   2.943   4.100  15.445  0.2690  0.1373  0.5474
  231MPD1    H6 3516   2.948   4.114  15.345  0.5466  0.4386  0.6045
  231MPD1    H7 3517   2.845   4.101  15.473  0.0785 -0.7527 -0.0849
  232MPD1     C 3518   0.712   3.421  17.672 -0.0962 -0.3927  0.4061
  232MPD1    C1 3519   0.584   3.397   0.031  0.0129  0.6151  0.0915
  232MPD1    C2 3520   0.530   3.271   0.008 -0.7537  0.1552 -0.2323
  232MPD1    C3 3521   0.605   3.169  17.627  0.1218  0.2747  0.7236
  232MPD1    C4 3522   0.729   3.207  17.577  0.3591 -0.2473 -0.3767
  232MPD1    C5 3523   0.781   3.331  17.596 -0.4870 -0.9502 -0.2426
  232MPD1     H 3524   0.430   3.258   0.047 -0.5169 -0.2322  0.2477
  232MPD1    H1 3525   0.785   3.133  17.519 -0.7727  0.0366 -1.8427
  232MPD1    H2 3526   0.753   3.520   0.004  0.4573 -0.3775 -0.9932
  232MPD1    H3 3527   0.876   3.356  17.550  0.3133 -1.4343  1.1409
  232MPD1     N 3528   0.546   3.043  17.614  0.0308 -0.1294 -0.2651
  232MPD1    H5 3529   0.452   3.028  17.651 -0.2778  1.0962 -0.5536
  232MPD1    N1 3530   0.520   3.491   0.112  0.1297 -0.7931  0.2058
  232MPD1    H6 3531   0.418   3.496   0.114  0.0899 -1.1919 -0.6335
  232MPD1    H7 3532   0.540   3.588   0.088  0.2457 -0.3679  2.0635
  233MPD1     C 3533   1.455   1.141   0.405  0.0010 -0.2162 -0.2268
  233MPD1    C1 3534   1.500   1.017   0.370 -0.5608 -0.4665 -0.9937
  233MPD1    C2 3535   1.553   0.938   0.475  0.4504 -0.3334 -0.2215
  233MPD1    C3 3536   1.597   0.996   0.595 -0.1722  0.1345  0.0932
  233MPD1    C4 3537   1.559   1.125   0.619 -0.1408  0.4052 -0.4822
  233MPD1    C5 3538   1.481   1.194   0.527  0.1229 -0.6477 -0.5379
  233MPD1     H 3539   1.563   0.832   0.453 -0.6652 -0.4685 -0.1032
  233MPD1    H1 3540   1.571   1.183   0.710 -1.4303 -0.5836  0.3163
  233MPD1    H2 3541   1.388   1.195   0.339 -1.8672 -0.2610  1.6115
  233MPD1    H3 3542   1.447   1.292   0.558  3.6625  0.0264  1.1971
  233MPD1     N 3543   1.661   0.922   0.692  0.3182 -0.1189 -0.2715
  233MPD1    H5 3544   1.694   0.977   0.770  4.0449 -4.5237  1.2261
  233MPD1    N1 3545   1.441   0.953   0.259  0.5517 -0.0995  0.0388
  233MPD1    H6 3546   1.518   0.895   0.225  0.3641  1.2698 -2.7537
  233MPD1    H7 3547   1.423   1.026   0.190  0.1809 -0.6670 -0.4599
  234MPD1     C 3548   0.086   4.497  10.098 -0.6182  0.3131 -0.9255
  234MPD1    C1 3549   4.705   4.408  10.078  0.1311 -0.1490 -0.4586
  234MPD1    C2 3550   4.589   4.460  10.030  0.8799 -0.6503 -0.3626
  234MPD1    C3 3551   4.576   4.588   9.986  0.4306 -0.1301 -0.7462
  234MPD1    C4 3552   4.684   4.671   9.990 -0.4744 -0.4548  0.1490
  234MPD1    C5 3553   0.076   4.627  10.056  0.3376  0.4128  0.0901
  234MPD1     H 3554   4.503   4.394  10.024  1.8598 -1.8731 -0.9528
  234MPD1    H1 3555   4.674   0.057   9.972 -1.2161 -0.1810  2.1534
  234MPD1    H2 3556   0.180   4.472  10.144 -2.2399 -0.4818  1.9879
  234MPD1    H3 3557   0.160   4.696  10.063  0.3117  0.3275  1.2131
  234MPD1     N 3558   4.449   4.641   9.943  0.2132  0.0730 -0.7885
  234MPD1    H5 3559   4.371   4.577   9.935 -0.5943  0.9804 -0.1646
  234MPD1    N1 3560   4.715   4.280  10.132  0.0957 -0.2241 -0.3483
  234MPD1    H6 3561   4.676   4.207  10.072 -0.1889 -0.9322  0.7145
  234MPD1    H7 3562   0.091   4.254  10.149 -0.3885 -1.3724  0.6429
  235MPD1     C 3563   0.450   1.539  10.147  0.1301  0.6608  0.8665
  235MPD1    C1 3564   0.340   1.583  10.217 -0.3117  0.1784 -0.9364
  235MPD1    C2 3565   0.272   1.695  10.179 -0.8826  0.4383 -0.0957
  235MPD1    C3 3566   0.327   1.777  10.078  0.8259  0.3889 -0.3225
  235MPD1    C4 3567   0.440   1.737  10.011 -0.1948  0.1031 -0.3813
  235MPD1    C5 3568   0.498   1.618  10.046 -0.1926  0.4383 -0.9597
  235MPD1     H 3569   0.173   1.722  10.214 -1.7236 -0.4488 -1.8149
  235MPD1    H1 3570   0.488   1.803   9.939 -0.1388 -0.6318 -1.0292
  235MPD1    H2 3571   0.490   1.440  10.167 -3.9642 -0.8733  1.4433
  235MPD1    H3 3572   0.582   1.585   9.987  0.5839  1.7057 -0.5743
  235MPD1     N 3573   0.275   1.905  10.050  0.0922  0.0660 -0.1383
  235MPD1    H5 3574   0.207   1.931  10.121  0.9794 -0.2978  0.8378
  235MPD1    N1 3575   0.284   1.487  10.303 -0.7368 -0.0854 -0.4826
  235MPD1    H6 3576   0.227   1.523  10.378 -1.2307  1.9195 -1.8153
  235MPD1    H7 3577   0.347   1.420  10.347 -2.0263 -1.0678 -0.1296
  236MPD1     C 3578   3.930   2.485   9.266  0.0776  0.3336 -0.0432
  236MPD1    C1 3579   3.997   2.604   9.245 -0.3023  0.5293  0.1762
  236MPD1    C2 3580   4.048   2.678   9.351 -0.4993  0.1374  0.4100
  236MPD1    C3 3581   4.038   2.639   9.485 -0.3001 -0.2298 -0.7112
  236MPD1    C4 3582   3.972   2.516   9.502  0.1836  0.2540  0.3705
  236MPD1    C5 3583   3.922   2.448   9.398 -0.4563 -0.3570 -0.0199
  236MPD1     H 3584   4.085   2.778   9.328  1.5605 -1.0110 -1.2560
  236MPD1    H1 3585   3.942   2.481   9.600 -1.3070 -1.0441 -0.5507
  236MPD1    H2 3586   3.894   2.425   9.183  0.4738  0.9731 -0.6722
  236MPD1    H3 3587   3.865   2.356   9.411 -0.7106  0.1351  2.4779
  236MPD1     N 3588   4.090   2.706   9.599  0.4371 -0.4328  0.3232
  236MPD1    H5 3589   4.079   2.655   9.686  0.1665 -2.3831 -0.8349
  236MPD1    N1 3590   3.991   2.660   9.110  0.1471  0.0564  0.0681
  236MPD1    H6 3591   3.958   2.601   9.034  3.4140 -1.2351 -0.3388
  236MPD1    H7 3592   4.074   2.711   9.080  1.2095 -1.7471 -0.0484
  237MPD1     C 3593   3.937   0.716  15.477  0.1780  0.4415 -0.4599
  237MPD1    C1 3594   3.836   0.771  15.539 -0.2515 -0.4674 -0.3522
  237MPD1    C2 3595   3.732   0.822  15.465  0.4374 -0.3529  0.3321
  237MPD1    C3 3596   3.724   0.801  15.331 -0.9677 -0.0619  0.3077
  237MPD1    C4 3597   3.838   0.753  15.270  0.0370 -0.3963 -0.6484
  237MPD1    C5 3598   3.932   0.698  15.346  0.2522 -0.1817 -0.4318
  237MPD1     H 3599   3.662   0.887  15.517  2.1825 -0.0689  2.3574
  237MPD1    H1 3600   3.834   0.745  15.162 -2.9854  1.1947 -0.6332
  237MPD1    H2 3601   4.028   0.689  15.528  0.4136  3.2996  0.6435
  237MPD1    H3 3602   4.023   0.651  15.309  0.5814  1.1760 -1.3469
  237MPD1     N 3603   3.617   0.844  15.248 -0.0549 -0.6299 -0.2629
  237MPD1    H5 3604   3.631   0.835  15.148 -0.3126  0.9308 -0.4357
  237MPD1    N1 3605   3.843   0.817  15.671  0.1082  0.3042 -0.3627
  237MPD1    H6 3606   3.753   0.855  15.701 -0.5355  0.6832 -2.7388
  237MPD1    H7 3607   3.881   0.755  15.742 -1.3865 -0.0243  0.1553
  238MPD1     C 3608   1.382   0.298  14.989  0.9467  0.3484  0.4482
  238MPD1    C1 3609   1.318   0.210  15.071 -0.2497 -0.1145  0.0329
  238MPD1    C2 3610   1.196   0.155  15.042  1.2299  0.0970 -0.4941
  238MPD1    C3 3611   1.138   0.182  14.911  0.7613  0.8103  0.0910
  238MPD1    C4 3612   1.196   0.282  14.837 -0.4270  0.0392 -0.0069
  238MPD1    C5 3613   1.324   0.330  14.871  0.4718 -0.4146 -0.3954
  238MPD1     H 3614   1.141   0.083  15.102 -1.0521  0.2011 -2.4719
  238MPD1    H1 3615   1.152   0.316  14.744  0.7175  1.2257 -0.1087
  238MPD1    H2 3616   1.483   0.336  15.005 -0.0270  2.5324  1.4297
  238MPD1    H3 3617   1.378   0.397  14.806 -2.3482  3.1943  0.9947
  238MPD1     N 3618   1.013   0.133  14.872  0.1269 -0.9403  0.2322
  238MPD1    H5 3619   0.964   0.190  14.804  1.4851 -0.8239 -0.6428
  238MPD1    N1 3620   1.390   0.151  15.176 -0.1330 -0.5116  0.3672
  238MPD1    H6 3621   1.337   0.133  15.260  0.1940 -0.0588  0.6732
  238MPD1    H7 3622   1.467   0.214  15.199  0.5067 -1.8332  1.8022
  239MPD1     C 3623   0.620   0.396  14.799  0.3930  0.2666  0.3198
  239MPD1    C1 3624   0.740   0.456  14.825  0.3384  0.2801 -0.0405
  239MPD1    C2 3625   0.778   0.563  14.751 -0.5803  0.5260 -1.0154
  239MPD1    C3 3626   0.702   0.607  14.641  0.6455 -0.0122 -0.4099
  239MPD1    C4 3627   0.581   0.538  14.619 -0.5292 -0.2101  0.0701
  239MPD1    C5 3628   0.539   0.436  14.705  0.0561 -0.3511 -0.4750
  239MPD1     H 3629   0.877   0.602  14.773 -0.1892 -2.0507  1.8190
  239MPD1    H1 3630   0.517   0.566  14.536  0.0505  1.7597  0.2951
  239MPD1    H2 3631   0.583   0.310  14.853 -0.2024 -1.1145 -2.2667
  239MPD1    H3 3632   0.446   0.383  14.691 -0.4090  0.7977 -1.7653
  239MPD1     N 3633   0.728   0.717  14.554 -0.1785  0.3504  0.6122
  239MPD1    H5 3634   0.661   0.745  14.483  0.9633  1.3021 -0.0929
  239MPD1    N1 3635   0.826   0.407  14.924 -0.5964 -0.7585  0.3098
  239MPD1    H6 3636   0.787   0.334  14.982  1.8692 -1.6186  0.8771
  239MPD1    H7 3637   0.875   0.480  14.976  0.3059 -2.1654  1.4210
  240MPD1     C 3638   4.683   0.826  14.043  0.5284  0.5106  0.4100
  240MPD1    C1 3639   0.033   0.868  14.152  0.6174 -0.6338 -0.1658
  240MPD1    C2 3640   0.060   0.775  14.251  0.0386  0.1684 -0.9426
  240MPD1    C3 3641   0.002   0.649  14.241  0.0439  0.1838  0.2861
  240MPD1    C4 3642   4.639   0.616  14.143 -0.6571  0.2552 -1.1590
  240MPD1    C5 3643   4.625   0.701  14.038 -0.1915 -0.6286  1.0662
  240MPD1     H 3644   0.130   0.798  14.330 -1.4271 -1.0500  0.7161
  240MPD1    H1 3645   4.590   0.521  14.131  0.0431 -0.3670  1.0755
  240MPD1    H2 3646   4.657   0.891  13.960  0.4335  1.4601  1.1802
  240MPD1    H3 3647   4.564   0.677  13.952 -0.5804  0.9236  0.9093
  240MPD1     N 3648   0.015   0.547  14.337  0.4988  0.0652  0.7055
  240MPD1    H5 3649   4.671   0.471  14.318 -0.9598  0.9366  2.2007
  240MPD1    N1 3650   0.095   0.997  14.149 -0.6779  0.2548  0.1057
  240MPD1    H6 3651   0.086   1.048  14.237  0.5404  0.2340  0.2536
  240MPD1    H7 3652   0.073   1.054  14.068  0.6050 -0.2487 -0.6059
  241MPD1     C 3653   0.430   4.721  15.193 -0.0714  0.0616 -0.6503
  241MPD1    C1 3654   0.414   0.133  15.170  0.2635 -0.2753 -0.5639
  241MPD1    C2 3655   0.363   0.179  15.049  0.2794  0.9481  0.5185
  241MPD1    C3 3656   0.305   0.085  14.957  0.4368  0.5370 -0.3481
  241MPD1    C4 3657   0.312   4.673  14.989 -0.6289 -1.3390  0.2560
  241MPD1    C5 3658   0.375   4.629  15.104  0.5240 -0.0849  0.2058
  241MPD1     H 3659   0.377   0.284  15.025 -1.1064  1.2676  1.1039
  241MPD1    H1 3660   0.272   4.596  14.923  0.0744 -0.3381 -1.3338
  241MPD1    H2 3661   0.486   4.683  15.278  0.6275  0.2632 -1.0196
  241MPD1    H3 3662   0.396   4.526  15.127  1.0928 -0.5875 -2.5892
  241MPD1     N 3663   0.247   0.119  14.837 -0.2725  0.0460 -0.0004
  241MPD1    H5 3664   0.231   0.037  14.780 -0.7533 -0.9289  1.5208
  241MPD1    N1 3665   0.487   0.226  15.246  0.3149 -0.0757 -0.2217
  241MPD1    H6 3666   0.492   0.199  15.344  0.9751 -0.0229 -0.2437
  241MPD1    H7 3667   0.437   0.315  15.249  1.6019  0.6052  0.9021
  242MPD1     C 3668   0.095   3.131  15.810  0.4654  0.1921  0.5452
  242MPD1    C1 3669   0.021   3.099  15.698 -0.2247 -0.2735 -0.0579
  242MPD1    C2 3670   0.091   3.087  15.584  0.7316  0.0566 -0.3395
  242MPD1    C3 3671   0.225   3.119  15.570  0.0883 -0.2968  0.0929
  242MPD1    C4 3672   0.296   3.166  15.681 -0.0487 -0.4408  0.0711
  242MPD1    C5 3673   0.227   3.167  15.799 -0.7538  0.4141 -0.0670
  242MPD1     H 3674   0.047   3.039  15.497 -1.0222 -0.6952  0.9664
  242MPD1    H1 3675   0.401   3.189  15.681 -0.0565 -0.3997 -0.9471
  242MPD1    H2 3676   0.053   3.136  15.910  1.9685 -2.7900  1.3045
  242MPD1    H3 3677   0.277   3.201  15.888 -0.9848 -2.9448  1.3723
  242MPD1     N 3678   0.307   3.105  15.453 -0.3904  0.4505  0.7556
  242MPD1    H5 3679   0.407   3.122  15.458 -0.5670  1.9107 -0.6579
  242MPD1    N1 3680   4.613   3.053  15.705 -0.3441  0.2285 -0.5063
  242MPD1    H6 3681   4.561   3.054  15.618  0.8917 -0.2960 -1.2500
  242MPD1    H7 3682   4.559   3.098  15.779 -0.0927 -1.4227  0.7002
  243MPD1     C 3683   1.737   1.882   0.321 -0.7506 -0.2828  0.3134
  243MPD1    C1 3684   1.779   1.831   0.202 -0.1701  0.2877 -0.2529
  243MPD1    C2 3685   1.695   1.848   0.092  0.2205  0.8016  0.5745
  243MPD1    C3 3686   1.567   1.898   0.102  0.3108 -0.7402  0.0173
  243MPD1    C4 3687   1.529   1.940   0.228 -0.2357  0.8752 -0.1516
  243MPD1    C5 3688   1.612   1.936   0.331 -0.2765 -0.1293 -0.2190
  243MPD1     H 3689   1.732   1.804   0.000  0.0213 -0.1886  0.9645
  243MPD1    H1 3690   1.430   1.981   0.241 -0.8793  0.4794 -3.6645
  243MPD1    H2 3691   1.798   1.888   0.410  0.3132  0.3590 -0.4626
  243MPD1    H3 3692   1.575   1.981   0.423 -1.4287  1.9958 -1.7501
  243MPD1     N 3693   1.485   1.909  17.674  0.1342 -0.5981 -0.0735
  243MPD1    H5 3694   1.517   1.881  17.582  0.2275 -0.3464 -0.1166
  243MPD1    N1 3695   1.912   1.776   0.204  0.3861 -0.4045 -0.3031
  243MPD1    H6 3696   1.930   1.727   0.292  1.4681 -0.0463 -0.3272
  243MPD1    H7 3697   1.915   1.712   0.124  1.6753  1.0100 -1.3800
  244MPD1     C 3698   0.580   1.536  17.594 -0.6224 -0.4843  0.2629
  244MPD1    C1 3699   0.700   1.484  17.639  0.6572  0.2221  0.6260
  244MPD1    C2 3700   0.818   1.546  17.602 -0.4820 -0.0858 -0.0222
  244MPD1    C3 3701   0.816   1.654  17.514 -0.1316  0.1710  1.0017
  244MPD1    C4 3702   0.697   1.693  17.456 -0.1692 -1.1037  0.4146
  244MPD1    C5 3703   0.582   1.637  17.503 -0.3458  0.5061  0.0519
  244MPD1     H 3704   0.909   1.514  17.650 -0.1108  1.0630  0.0451
  244MPD1    H1 3705   0.689   1.767  17.377  0.5040 -0.1774  1.2094
  244MPD1    H2 3706   0.488   1.495  17.632 -2.4586  2.4942 -0.9617
  244MPD1    H3 3707   0.486   1.674  17.471 -0.5977  0.0755  0.3193
  244MPD1     N 3708   0.946   1.714  17.503 -0.0318 -0.0310 -0.0187
  244MPD1    H5 3709   1.026   1.684  17.557  1.2718  2.5741 -0.4582
  244MPD1    N1 3710   0.693   1.397   0.066 -0.0146  0.3811  0.1868
  244MPD1    H6 3711   0.772   1.334   0.073  0.2793  0.4724 -2.5758
  244MPD1    H7 3712   0.610   1.338   0.069 -0.7547  1.3929 -0.2520
  245MPD1     C 3713   4.009   2.623  12.772  0.1285  0.2920 -0.1617
  245MPD1    C1 3714   3.965   2.560  12.889  0.1857 -0.8952 -0.7377
  245MPD1    C2 3715   3.946   2.640  13.002 -0.5312  0.3537  0.5715
  245MPD1    C3 3716   3.967   2.776  12.997 -0.1543 -0.9276  0.5060
  245MPD1    C4 3717   4.012   2.833  12.882  0.2441  0.4897  0.1098
  245MPD1    C5 3718   4.029   2.761  12.766 -0.5073  0.3643  0.0372
  245MPD1     H 3719   3.909   2.588  13.091  1.4302 -0.8368  0.6989
  245MPD1    H1 3720   4.032   2.939  12.873  0.1256  0.3348 -2.0286
  245MPD1    H2 3721   4.018   2.561  12.683  0.3425  0.6261 -0.3731
  245MPD1    H3 3722   4.071   2.802  12.675  1.9768 -0.3063  0.8919
  245MPD1     N 3723   3.936   2.851  13.111 -0.0678 -0.7577 -0.4038
  245MPD1    H5 3724   3.899   2.799  13.190  0.7424 -2.4235 -1.1325
  245MPD1    N1 3725   3.935   2.424  12.889  0.3088  0.2801  0.1538
  245MPD1    H6 3726   4.002   2.397  12.818  0.8801 -0.0232  0.8060
  245MPD1    H7 3727   3.965   2.392  12.981 -2.1175 -0.4548  0.6900
  246MPD1     C 3728   3.734   1.166   8.888 -0.2172 -0.1046  0.7013
  246MPD1    C1 3729   3.734   1.102   8.767 -0.1235  0.1109 -0.0463
  246MPD1    C2 3730   3.721   0.965   8.764 -0.2162 -0.0949 -0.3244
  246MPD1    C3 3731   3.742   0.884   8.874  0.6642  0.2589 -0.2473
  246MPD1    C4 3732   3.760   0.948   8.996  0.5894 -0.1661 -0.2364
  246MPD1    C5 3733   3.739   1.086   8.998 -0.6209  0.3546  0.3702
  246MPD1     H 3734   3.717   0.915   8.667 -4.2270 -0.4795  0.0377
  246MPD1    H1 3735   3.752   0.889   9.086 -1.7088 -1.9768 -1.6129
  246MPD1    H2 3736   3.739   1.272   8.911  2.1991 -0.0807  0.0139
  246MPD1    H3 3737   3.743   1.137   9.093 -1.0135  0.5222  0.2927
  246MPD1     N 3738   3.722   0.743   8.856 -0.2716 -0.9739 -0.3878
  246MPD1    H5 3739   3.693   0.713   8.764 -0.9654  0.6843 -0.6966
  246MPD1    N1 3740   3.719   1.180   8.649 -0.6377  0.1360  0.3756
  246MPD1    H6 3741   3.795   1.246   8.634 -0.9414  0.4499  0.2087
  246MPD1    H7 3742   3.730   1.125   8.564  2.1937  0.0700  0.7631
  247MPD1     C 3743   2.691   1.986  15.276  0.1435 -0.2064  1.2328
  247MPD1    C1 3744   2.656   1.898  15.374 -0.3629  0.3154  0.8074
  247MPD1    C2 3745   2.750   1.880  15.474  0.3556  1.1378 -0.1167
  247MPD1    C3 3746   2.873   1.938  15.478  0.7530 -0.1669  0.4297
  247MPD1    C4 3747   2.897   2.041  15.391  0.5123 -0.2183  0.0804
  247MPD1    C5 3748   2.812   2.052  15.284  0.1695  0.3752  0.0199
  247MPD1     H 3749   2.740   1.796  15.542  0.7617 -0.9263 -2.6097
  247MPD1    H1 3750   2.987   2.100  15.388  0.3557  0.1266  2.6233
  247MPD1    H2 3751   2.638   2.014  15.186 -0.8619 -2.6270  1.0829
  247MPD1    H3 3752   2.843   2.123  15.207 -3.1296  1.6759 -0.1077
  247MPD1     N 3753   2.980   1.914  15.567  0.2630 -0.1228 -0.1219
  247MPD1    H5 3754   3.066   1.961  15.541 -0.3850 -0.3285 -2.6500
  247MPD1    N1 3755   2.555   1.802  15.351 -0.1670 -0.7617 -0.0350
  247MPD1    H6 3756   2.505   1.775  15.436  0.9657 -0.2896  0.7860
  247MPD1    H7 3757   2.489   1.836  15.282 -0.0119  0.3419  0.3686
  248MPD1     C 3758   3.901   2.222  17.570  0.2856  0.2051  0.3716
  248MPD1    C1 3759   3.816   2.327  17.601  0.8252  0.3880 -0.0359
  248MPD1    C2 3760   3.754   2.313   0.040 -0.3237 -0.4844  0.0664
  248MPD1    C3 3761   3.786   2.210   0.126 -0.3160 -0.1851 -0.5358
  248MPD1    C4 3762   3.880   2.115   0.098 -0.0340  0.2268  0.1724
  248MPD1    C5 3763   3.937   2.118  17.655  0.2459 -0.3631 -0.4374
  248MPD1     H 3764   3.677   2.385   0.064 -1.9747 -2.0984 -0.3870
  248MPD1    H1 3765   3.916   2.041   0.168  0.5371 -0.0243 -0.3755
  248MPD1    H2 3766   3.925   2.225  17.464  0.8710 -1.6807  0.4434
  248MPD1    H3 3767   4.014   2.046  17.630  0.1454 -0.3327 -0.8364
  248MPD1     N 3768   3.716   2.205   0.247  0.0753  0.1293 -0.0215
  248MPD1    H5 3769   3.651   2.280   0.268 -0.8049 -0.6263 -0.0290
  248MPD1    N1 3770   3.770   2.421  17.511 -0.4244  0.4516 -0.0713
  248MPD1    H6 3771   3.843   2.442  17.444 -0.0390 -1.2490 -0.1853
  248MPD1    H7 3772   3.733   2.510  17.545 -0.3479  0.0824  0.9778
  249MPD1     C 3773   0.555   0.523   9.957  0.4426 -0.4646 -1.1116
  249MPD1    C1 3774   0.620   0.605  10.039 -0.8825 -0.0300 -0.7760
  249MPD1    C2 3775   0.735   0.673   9.995  0.1609  0.4844 -0.4788
  249MPD1    C3 3776   0.781   0.643   9.862 -0.3119 -0.3419 -0.0658
  249MPD1    C4 3777   0.709   0.563   9.779 -1.1854 -0.1197  0.2207
  249MPD1    C5 3778   0.601   0.497   9.830  0.1088  0.7476 -0.8966
  249MPD1     H 3779   0.793   0.740  10.058 -2.4312  0.3300  2.0802
  249MPD1    H1 3780   0.742   0.536   9.679  2.1533  0.1182  1.2589
  249MPD1    H2 3781   0.467   0.466   9.985 -0.1150  0.1289 -1.6803
  249MPD1    H3 3782   0.546   0.431   9.764 -0.8424  0.4907  0.1486
  249MPD1     N 3783   0.899   0.698   9.814 -0.3745  0.6573 -0.9847
  249MPD1    H5 3784   0.960   0.743   9.882 -2.5556  2.4488 -0.2240
  249MPD1    N1 3785   0.560   0.630  10.163  0.6230  0.5102  0.4829
  249MPD1    H6 3786   0.622   0.668  10.235  0.1328 -0.9144  1.6674
  249MPD1    H7 3787   0.502   0.555  10.199  0.7560  0.0021 -0.3579
  250MPD2     C 3788   2.009   1.009  13.095 -0.3466 -0.1242 -0.6971
  250MPD2    C1 3789   1.942   1.091  13.008 -0.7336 -0.6422  0.8588
  250MPD2    C2 3790   1.904   1.041  12.890 -0.4050  0.2507  0.8506
  250MPD2    C3 3791   1.935   0.908  12.852 -0.0787  0.1425  0.0071
  250MPD2    C4 3792   1.995   0.822  12.943  0.2545  0.4759 -0.1645
  250MPD2    C5 3793   2.033   0.876  13.065  0.1167 -0.4074 -0.2422
  250MPD2     H 3794   1.870   1.115  12.818 -4.0023 -1.9787  0.2167
  250MPD2    H1 3795   2.013   0.718  12.918 -0.8891 -0.2552  2.0669
  250MPD2    H2 3796   2.033   1.046  13.194  0.3638 -0.4762 -0.7391
  250MPD2    H3 3797   2.085   0.808  13.132  0.2906  0.4625  0.5174
  250MPD2     N 3798   1.913   0.858  12.724 -0.5901 -0.0349  0.0227
  250MPD2    H5 3799   1.910   0.757  12.711 -1.7483  0.2767 -2.1655
  250MPD2    N1 3800   1.930   1.228  13.043  0.5432 -0.1207  0.4276
  250MPD2    H7 3801   1.968   1.245  13.136  0.6130 -2.4294  0.8099
  251TMC3    C1 3802   1.862   1.454  13.059 -0.0201  0.5772  0.1771
  251TMC3    C2 3803   1.746   1.525  13.065  0.1588 -0.1859  0.1286
  251TMC3    C3 3804   1.743   1.637  13.148  0.2695  0.1921  0.5281
  251TMC3    C4 3805   1.975   1.484  13.134  0.3031 -0.0854 -0.3325
  251TMC3    C5 3806   1.965   1.594  13.213  0.8375 -0.8111 -0.0827
  251TMC3    C6 3807   1.853   1.670  13.219 -0.2641 -0.0440 -1.0273
  251TMC3     C 3808   1.858   1.328  12.983  0.3551  0.2551  0.2470
  251TMC3     O 3809   1.793   1.333  12.880 -0.0574 -0.4367  0.0759
  251TMC3     H 3810   1.658   1.498  13.008  2.5477 -1.7098 -2.8387
  251TMC3    H1 3811   2.070   1.432  13.121  0.9079  1.0288 -0.3591
  251TMC3    H2 3812   1.839   1.751  13.289 -0.1313 -0.1119 -0.9225
  251TMC3    C7 3813   2.079   1.626  13.304 -0.0690 -0.0198  0.3074
  251TMC3    C8 3814   1.620   1.704  13.163  0.3910  0.6312  0.6101
  251TMC3    O1 3815   2.082   1.738  13.345  0.0806 -0.1457 -0.2535
  251TMC3    O2 3816   1.522   1.630  13.158 -0.2832  0.5987 -0.4248
  252TMC3    C1 3817   2.091   1.987   8.837  0.2666  0.1705 -0.2205
  252TMC3    C2 3818   2.226   2.003   8.832 -0.7839  0.9265 -0.4679
  252TMC3    C3 3819   2.300   1.932   8.921 -0.1772  0.3043 -0.4651
  252TMC3    C4 3820   2.032   1.895   8.924 -0.1726  0.9984  0.1044
  252TMC3    C5 3821   2.116   1.828   9.010  0.0059  1.0101  0.2965
  252TMC3    C6 3822   2.247   1.844   9.019  0.8669  0.3467  0.1173
  252TMC3     C 3823   2.017   2.035   8.721  0.2376 -0.1899 -0.6244
  252TMC3     O 3824   2.051   2.138   8.669  0.1114 -0.3388 -0.1108
  252TMC3     H 3825   2.270   2.060   8.751 -0.5693 -0.4952 -1.3334
  252TMC3    H1 3826   1.927   1.874   8.937  0.4189 -2.0133 -0.0196
  252TMC3    H2 3827   2.303   1.765   9.068  0.7477  0.4383  0.4012
  252TMC3    C7 3828   2.057   1.708   9.075 -0.1827  0.5634 -0.0901
  252TMC3    C8 3829   2.436   1.923   8.900 -0.2845  0.0896 -0.5822
  252TMC3    O1 3830   1.933   1.697   9.082  0.2573 -0.0031 -0.4078
  252TMC3    O2 3831   2.485   1.945   8.791  0.2246  0.6672  0.4469
  253MPD2     C 3832   3.440   1.300  14.901  0.4704 -0.1244 -0.2128
  253MPD2    C1 3833   3.313   1.296  14.947  0.3471  0.4119  0.0307
  253MPD2    C2 3834   3.289   1.294  15.080 -0.7183 -0.0354 -0.5478
  253MPD2    C3 3835   3.402   1.287  15.170  0.2355  0.4280 -0.5193
  253MPD2    C4 3836   3.524   1.294  15.118 -0.8483 -0.1528 -1.0064
  253MPD2    C5 3837   3.550   1.311  14.986  0.1097  0.1219  0.0462
  253MPD2     H 3838   3.190   1.300  15.123 -0.0498  0.6768  0.8969
  253MPD2    H1 3839   3.607   1.289  15.188 -0.8418  0.6697 -0.9633
  253MPD2    H2 3840   3.458   1.303  14.794  0.8494 -2.2703 -0.2187
  253MPD2    H3 3841   3.651   1.326  14.949 -0.0940 -1.3976 -1.0959
  253MPD2     N 3842   3.405   1.254  15.299  0.4010 -0.6669 -0.2509
  253MPD2    H5 3843   3.493   1.273  15.346  0.9856  1.8119 -2.2772
  253MPD2    N1 3844   3.199   1.271  14.858 -0.1227 -0.0602 -0.3114
  253MPD2    H7 3845   3.110   1.254  14.904  0.2467  0.6946  0.6870
  254TMC3    C1 3846   3.308   1.202  15.505 -0.1998  0.3373 -0.1480
  254TMC3    C2 3847   3.190   1.185  15.580  0.1680 -0.2680  0.5929
  254TMC3    C3 3848   3.196   1.129  15.702  0.2438  0.3787  0.0490
  254TMC3    C4 3849   3.430   1.157  15.556  0.1068  0.4022  0.5077
  254TMC3    C5 3850   3.424   1.103  15.682  0.0630 -0.0247  0.2459
  254TMC3    C6 3851   3.311   1.082  15.755  0.4811 -0.3232 -0.2517
  254TMC3     C 3852   3.290   1.214  15.365 -0.1161 -0.3110  0.2332
  254TMC3     O 3853   3.181   1.178  15.320 -0.2034  0.1816  0.4493
  254TMC3     H 3854   3.102   1.233  15.540  0.2930 -0.6152 -0.0946
  254TMC3    H1 3855   3.520   1.172  15.497 -0.7990 -0.6344 -1.1328
  254TMC3    H2 3856   3.312   1.043  15.857 -0.2292  0.1359 -0.0653
  254TMC3    C7 3857   3.536   1.033  15.734 -0.0592  0.0023 -0.2911
  254TMC3    C8 3858   3.078   1.117  15.777  0.4008  0.4734 -0.2908
  254TMC3    O1 3859   3.507   0.935  15.796 -0.0108 -0.2611 -0.7574
  254TMC3    O2 3860   3.081   1.091  15.897 -0.4023 -0.0478  0.0245
  255MPD2     C 3861   1.931   4.011  11.016 -0.2247 -0.1660 -0.3892
  255MPD2    C1 3862   1.887   4.101  10.921  0.2881  0.4881 -0.2116
  255MPD2    C2 3863   1.892   4.065  10.785  0.1795  0.5552 -0.2078
  255MPD2    C3 3864   1.952   3.942  10.749 -0.1313  0.0025 -0.7288
  255MPD2    C4 3865   2.008   3.864  10.849 -0.3086  0.1160  0.0070
  255MPD2    C5 3866   1.984   3.894  10.979 -0.1200  0.4544  0.0969
  255MPD2     H 3867   1.850   4.131  10.710 -2.8658 -1.0738  0.0518
  255MPD2    H1 3868   2.066   3.775  10.827 -0.4783 -0.5713  2.3221
  255MPD2    H2 3869   1.916   4.047  11.118  0.9823 -2.5866  0.6269
  255MPD2    H3 3870   2.026   3.828  11.053  2.8166 -0.2804 -2.2318
  255MPD2     N 3871   1.976   3.920  10.614 -0.3341 -0.1836  1.1136
  255MPD2    H5 3872   1.931   3.980  10.545 -0.8298 -1.1503  0.5953
  255MPD2    N1 3873   1.826   4.220  10.958  0.2896  0.0574  0.7814
  255MPD2    H7 3874   1.793   4.228  11.053  0.4612 -1.7896  0.9881
  256TMC3    C1 3875   1.761   4.451  10.923  0.1441 -0.0599  0.8215
  256TMC3    C2 3876   1.797   4.558  10.843  0.3428 -0.2610 -0.2712
  256TMC3    C3 3877   1.711   4.665  10.837  0.4592 -0.4182  0.1864
  256TMC3    C4 3878   1.637   4.446  10.984 -0.4079 -0.1964  0.2192
  256TMC3    C5 3879   1.551   4.555  10.965 -0.0304 -0.3191  0.4330
  256TMC3    C6 3880   1.586   4.663  10.888  0.2971  0.6548 -0.3380
  256TMC3     C 3881   1.827   4.332  10.876 -0.3207  0.5553 -0.4906
  256TMC3     O 3882   1.874   4.351  10.763 -0.0123  0.0061  0.0780
  256TMC3     H 3883   1.898   4.564  10.804 -0.3470 -0.5357 -2.0663
  256TMC3    H1 3884   1.601   4.353  11.027 -3.5877  1.0897  0.2948
  256TMC3    H2 3885   1.515   0.024  10.882 -0.9447 -0.5098 -1.6079
  256TMC3    C7 3886   1.415   4.523  10.944  0.1645 -0.2310 -0.2948
  256TMC3    C8 3887   1.747   0.061  10.763  0.2989 -0.3131 -0.6411
  256TMC3    O1 3888   1.341   4.588  10.868  0.1723  0.7028  0.7322
  256TMC3    O2 3889   1.675   0.158  10.778 -0.4282 -0.1120 -0.3305
  257MPD2     C 3890   1.079   1.253  12.780  0.1093 -0.0024  0.3738
  257MPD2    C1 3891   0.992   1.153  12.731 -0.2846 -0.1141 -0.6405
  257MPD2    C2 3892   0.965   1.056  12.831  0.5033 -0.5990  0.0878
  257MPD2    C3 3893   1.018   1.056  12.961 -0.5047  0.5117  0.0870
  257MPD2    C4 3894   1.104   1.160  12.997  0.3495  0.2464  0.1924
  257MPD2    C5 3895   1.131   1.261  12.911 -0.2572 -0.7277  0.0831
  257MPD2     H 3896   0.890   0.982  12.804  0.0673 -0.2844  0.4333
  257MPD2    H1 3897   1.150   1.174  13.094 -0.8555  0.8224  0.6890
  257MPD2    H2 3898   1.110   1.325  12.706  0.9435  0.6239  1.3281
  257MPD2    H3 3899   1.191   1.343  12.951 -1.7795  1.1015 -1.3731
  257MPD2     N 3900   0.981   0.950  13.049  0.0463 -0.2818  0.1653
  257MPD2    H5 3901   0.903   0.898  13.011  1.3426 -2.0172 -0.0968
  257MPD2    N1 3902   0.940   1.166  12.596 -0.0342 -0.3948 -1.0278
  257MPD2    H7 3903   0.976   1.251  12.555 -1.3508  1.6187  1.9517
  258TMC3    C1 3904   0.960   0.834  13.273 -0.3416 -0.5601  0.7547
  258TMC3    C2 3905   0.864   0.753  13.216 -0.3699  0.1150 -0.7554
  258TMC3    C3 3906   0.774   0.684  13.296 -0.1370  0.3650 -0.2979
  258TMC3    C4 3907   0.973   0.839  13.412  0.2420  0.1181 -0.2521
  258TMC3    C5 3908   0.897   0.751  13.488 -0.7346  0.8110 -1.1012
  258TMC3    C6 3909   0.795   0.678  13.433 -0.1412  0.3984  0.6266
  258TMC3     C 3910   1.021   0.935  13.183 -0.3088  0.0948 -0.4453
  258TMC3     O 3911   1.107   1.001  13.241 -0.3954  0.1855  0.3599
  258TMC3     H 3912   0.860   0.731  13.110 -0.5958 -3.4033 -0.0226
  258TMC3    H1 3913   1.045   0.903  13.461 -0.5129  1.3331 -0.7395
  258TMC3    H2 3914   0.726   0.619  13.493 -1.0958 -0.8026 -1.6715
  258TMC3    C7 3915   0.936   0.747  13.631  0.2573  0.1984  0.0201
  258TMC3    C8 3916   0.690   0.581  13.237 -0.5684  0.0894  0.6401
  258TMC3    O1 3917   0.971   0.857  13.682 -0.4429  0.7105  0.1933
  258TMC3    O2 3918   0.661   0.488  13.310  0.3334 -0.2318  0.2066
  259MPD2     C 3919   3.825   2.834   0.932 -0.0964  0.1302  0.4451
  259MPD2    C1 3920   3.923   2.738   0.954  0.6164  0.6868  0.4256
  259MPD2    C2 3921   3.982   2.690   0.844 -1.1218 -0.0556  0.4738
  259MPD2    C3 3922   3.957   2.736   0.713  0.0027 -0.0074 -0.0294
  259MPD2    C4 3923   3.852   2.814   0.691 -0.2371  0.6417  0.1830
  259MPD2    C5 3924   3.783   2.859   0.803  0.1977 -0.3857  0.5659
  259MPD2     H 3925   4.051   2.607   0.850 -1.0452 -0.0774 -0.6500
  259MPD2    H1 3926   3.835   2.869   0.599  0.4241 -2.7733 -1.9882
  259MPD2    H2 3927   3.781   2.885   1.017  0.8435  0.4818  0.7230
  259MPD2    H3 3928   3.700   2.929   0.797 -0.1562 -0.7578  1.1645
  259MPD2     N 3929   4.052   2.690   0.609  0.4879  0.0501 -0.2844
  259MPD2    H5 3930   4.132   2.635   0.640  0.0787 -0.8494 -0.8218
  259MPD2    N1 3931   3.956   2.721   1.087  0.4078 -0.0889 -0.2486
  259MPD2    H7 3932   3.917   2.774   1.164 -1.0828  1.2046 -1.9038
  260TMC3    C1 3933   4.148   2.660   0.389  1.0482 -0.6112 -0.1116
  260TMC3    C2 3934   4.185   2.727   0.276 -0.2827 -0.2305 -0.1534
  260TMC3    C3 3935   4.305   2.703   0.222 -0.1238  0.0288 -0.4896
  260TMC3    C4 3936   4.239   2.576   0.455 -0.0711  1.3505  0.1706
  260TMC3    C5 3937   4.368   2.559   0.403 -0.0302 -0.0412  0.6754
  260TMC3    C6 3938   4.397   2.623   0.280 -0.2547 -0.1685 -0.0537
  260TMC3     C 3939   4.038   2.712   0.477 -0.3955  0.7097  0.6409
  260TMC3     O 3940   3.956   2.778   0.414  0.1537  0.1763 -0.9646
  260TMC3     H 3941   4.111   2.781   0.218  0.1477  0.6117  0.0711
  260TMC3    H1 3942   4.206   2.504   0.529 -1.1525  1.5921 -0.0891
  260TMC3    H2 3943   4.498   2.609   0.241 -0.1757  1.0530 -0.2870
  260TMC3    C7 3944   4.455   2.449   0.441  0.3190 -0.2855  0.8414
  260TMC3    C8 3945   4.352   2.819   0.154 -0.6756 -0.0020  0.3905
  260TMC3    O1 3946   4.557   2.439   0.375  0.0174 -0.4470  0.5051
  260TMC3    O2 3947   4.318   2.925   0.195 -0.1803  0.0206  0.0045
  261MPD2     C 3948   1.529   0.895  11.948 -0.2045  0.1841 -0.3077
  261MPD2    C1 3949   1.648   0.955  11.984  0.1844 -0.0452  0.5146
  261MPD2    C2 3950   1.695   1.063  11.916  0.3676 -0.1772  0.4483
  261MPD2    C3 3951   1.637   1.104  11.796  0.8933 -0.0764  0.6638
  261MPD2    C4 3952   1.527   1.035  11.751  0.6940  0.2087  0.4614
  261MPD2    C5 3953   1.476   0.930  11.822  0.1654 -0.6893 -0.0952
  261MPD2     H 3954   1.788   1.103  11.954  0.8246 -0.6011 -0.2372
  261MPD2    H1 3955   1.475   1.050  11.658  0.5583  0.1763  0.5325
  261MPD2    H2 3956   1.480   0.809  11.992  1.9101 -0.7256  0.3002
  261MPD2    H3 3957   1.389   0.881  11.781  1.2316 -2.9410  0.3052
  261MPD2     N 3958   1.689   1.214  11.724  0.0401 -0.2043  0.1760
  261MPD2    H5 3959   1.759   1.270  11.773  0.5296 -1.3990  0.8440
  261MPD2    N1 3960   1.717   0.923  12.104 -0.4975  0.4867  0.1542
  261MPD2    H7 3961   1.794   0.985  12.126 -0.5750  1.1061 -1.3436
  262TMC3    C1 3962   1.703   1.395  11.575 -0.4617 -0.5446 -0.3753
  262TMC3    C2 3963   1.619   1.501  11.542 -0.0046  0.1102 -0.4035
  262TMC3    C3 3964   1.670   1.613  11.483  0.2832  0.5948  0.1711
  262TMC3    C4 3965   1.834   1.406  11.556  0.5344  1.3719  0.4010
  262TMC3    C5 3966   1.889   1.520  11.507  0.3067 -0.7585  0.2259
  262TMC3    C6 3967   1.810   1.622  11.463  0.7691 -0.5603  0.0137
  262TMC3     C 3968   1.641   1.272  11.610 -0.0280  0.6380  0.4828
  262TMC3     O 3969   1.532   1.250  11.553 -0.1396  0.2456 -0.0082
  262TMC3     H 3970   1.516   1.489  11.573 -0.0362  1.3148 -0.0178
  262TMC3    H1 3971   1.902   1.327  11.584 -1.9267 -0.4864  1.1573
  262TMC3    H2 3972   1.854   1.708  11.413 -0.7202 -0.0912 -0.4778
  262TMC3    C7 3973   2.037   1.521  11.485 -0.0226  0.3771  0.6414
  262TMC3    C8 3974   1.609   1.740  11.528  0.6988  0.3449 -0.0786
  262TMC3    O1 3975   2.089   1.411  11.493 -0.1561  0.0484 -0.2974
  262TMC3    O2 3976   1.679   1.838  11.507  0.4826  0.3789  0.3781
  263MPD2     C 3977   2.276   0.640  11.439 -0.3504 -0.7684 -0.3738
  263MPD2    C1 3978   2.391   0.595  11.371  0.7109 -0.0033  0.4014
  263MPD2    C2 3979   2.411   0.632  11.235 -0.1527 -0.4440 -0.3431
  263MPD2    C3 3980   2.320   0.714  11.171  0.0220 -0.0717  0.3922
  263MPD2    C4 3981   2.219   0.770  11.241  0.1488 -0.4350 -0.0139
  263MPD2    C5 3982   2.196   0.731  11.370  0.1084  0.5495 -0.2251
  263MPD2     H 3983   2.485   0.586  11.171 -0.5122 -2.6056  0.8119
  263MPD2    H1 3984   2.159   0.851  11.200  0.1044 -0.1615  0.5946
  263MPD2    H2 3985   2.265   0.641  11.546 -1.5171 -0.2482 -0.5055
  263MPD2    H3 3986   2.118   0.782  11.425 -0.7008 -1.5338  0.5660
  263MPD2     N 3987   2.336   0.763  11.035  0.3863  0.0316 -0.4816
  263MPD2    H5 3988   2.276   0.839  11.005 -0.5345 -0.2981  0.5259
  263MPD2    N1 3989   2.479   0.516  11.450 -0.8394  0.2264 -0.2114
  263MPD2    H7 3990   2.447   0.488  11.542 -1.9143  2.8614  0.2169
  264TMC3    C1 3991   2.462   0.813  10.839 -0.6101  0.3093  0.1388
  264TMC3    C2 3992   2.410   0.940  10.835 -0.5857 -0.8093  0.0626
  264TMC3    C3 3993   2.441   1.029  10.729  0.4274  0.8355  0.0507
  264TMC3    C4 3994   2.553   0.768  10.748 -0.2144 -0.0332  0.5050
  264TMC3    C5 3995   2.568   0.851  10.638  0.2858  0.6637 -0.5666
  264TMC3    C6 3996   2.512   0.974  10.624  0.1082  1.0356 -0.0572
  264TMC3     C 3997   2.432   0.717  10.946 -0.2640  0.0982  0.3267
  264TMC3     O 3998   2.497   0.615  10.949  0.1645 -0.5948  0.3058
  264TMC3     H 3999   2.340   0.975  10.910  0.5014  0.1717  0.6169
  264TMC3    H1 4000   2.619   0.683  10.754  2.0066  1.4845 -2.3222
  264TMC3    H2 4001   2.540   1.038  10.541  2.0757 -0.9820 -0.9373
  264TMC3    C7 4002   2.700   0.845  10.583  0.2951 -0.0765 -0.4428
  264TMC3    C8 4003   2.504   1.151  10.764 -0.4621 -0.1262 -0.3418
  264TMC3    O1 4004   2.743   0.742  10.539 -0.8963 -0.4785  0.4098
  264TMC3    O2 4005   2.608   1.184  10.704  0.1012  0.4517 -0.2126
  265MPD2     C 4006   4.286   0.984  15.451 -0.5013 -0.2389  0.1820
  265MPD2    C1 4007   4.270   1.087  15.362 -1.0051 -0.1000  0.1768
  265MPD2    C2 4008   4.328   1.069  15.235  0.0088  0.7781  0.6269
  265MPD2    C3 4009   4.411   0.968  15.200  0.1366  0.4239  0.3123
  265MPD2    C4 4010   4.428   0.871  15.290 -0.2133  0.6268  0.1975
  265MPD2    C5 4011   4.367   0.879  15.412 -0.6672  0.1979 -0.5793
  265MPD2     H 4012   4.320   1.145  15.158  1.5971  0.2615 -0.0539
  265MPD2    H1 4013   4.493   0.787  15.268  0.8428  1.1091  1.4913
  265MPD2    H2 4014   4.238   0.974  15.548  0.4826  1.8927  0.8807
  265MPD2    H3 4015   4.380   0.799  15.483  1.4831 -0.1493 -1.3699
  265MPD2     N 4016   4.471   0.950  15.070 -0.5076  0.0228 -0.2834
  265MPD2    H5 4017   4.512   0.858  15.053  0.9378  0.3864  1.2659
  265MPD2    N1 4018   4.196   1.208  15.393 -0.1457 -0.1865  0.8243
  265MPD2    H7 4019   4.199   1.283  15.325  0.6628 -0.8768  0.1038
  266TMC3    C1 4020   4.098   1.372  15.530  0.0533  0.0278  0.5359
  266TMC3    C2 4021   4.083   1.425  15.656  0.3092  0.8625  0.2753
  266TMC3    C3 4022   4.018   1.542  15.666 -0.1217 -0.0527 -0.0555
  266TMC3    C4 4023   4.026   1.422  15.424  0.3108  0.4317 -1.1776
  266TMC3    C5 4024   4.000   1.552  15.438 -0.0393 -0.4274  0.2470
  266TMC3    C6 4025   3.980   1.615  15.557 -0.1017 -0.6378  0.3272
  266TMC3     C 4026   4.158   1.244  15.520 -0.6366 -0.4284  0.0912
  266TMC3     O 4027   4.146   1.171  15.615  0.1825 -0.3428  0.1534
  266TMC3     H 4028   4.113   1.362  15.739 -0.1723  0.7869  0.3941
  266TMC3    H1 4029   4.027   1.365  15.332 -1.7698  0.3855 -1.1792
  266TMC3    H2 4030   3.913   1.696  15.580  0.3961 -0.5579  1.4794
  266TMC3    C7 4031   3.968   1.621  15.328  0.9644  0.2811 -0.4660
  266TMC3    C8 4032   3.956   1.573  15.792 -0.0907 -0.0321  0.5478
  266TMC3    O1 4033   3.880   1.576  15.258 -0.3190 -0.1564  0.3203
  266TMC3    O2 4034   3.847   1.624  15.799  0.2136 -0.5589 -0.6517
  267MPD2     C 4035   1.678   2.478   0.277 -0.0664 -0.1082  0.5437
  267MPD2    C1 4036   1.754   2.535   0.177 -0.2687 -0.4155 -0.4746
  267MPD2    C2 4037   1.685   2.610   0.087  0.0529 -0.6801 -0.4892
  267MPD2    C3 4038   1.548   2.616   0.077 -0.4275  0.0459 -0.8602
  267MPD2    C4 4039   1.476   2.538   0.156  0.1367  0.6468  0.6730
  267MPD2    C5 4040   1.543   2.466   0.250  0.6053 -0.5245  0.3279
  267MPD2     H 4041   1.735   2.672   0.014  1.5311  1.8098  2.6637
  267MPD2    H1 4042   1.368   2.538   0.156  0.1348 -0.2688 -2.1258
  267MPD2    H2 4043   1.726   2.419   0.354  0.5049  0.7340  0.8397
  267MPD2    H3 4044   1.477   2.397   0.302 -0.0319  0.0096  0.2280
  267MPD2     N 4045   1.479   2.698  17.668  0.0965  0.4873 -0.4794
  267MPD2    H5 4046   1.388   2.663  17.640 -0.8770  0.3428  2.7924
  267MPD2    N1 4047   1.892   2.539   0.190 -0.3807 -0.3506  0.3230
  267MPD2    H7 4048   1.940   2.521   0.278 -2.8659  0.1740  1.7958
  268TMC3    C1 4049   2.119   2.580   0.157 -0.6027  0.3011  0.0713
  268TMC3    C2 4050   2.213   2.661   0.106  0.0492  0.2585 -0.2814
  268TMC3    C3 4051   2.342   2.634   0.134 -0.3121  0.5116  0.2869
  268TMC3    C4 4052   2.153   2.466   0.219  0.3930 -0.4166  0.6013
  268TMC3    C5 4053   2.284   2.436   0.239  0.4376 -0.2553  0.4910
  268TMC3    C6 4054   2.381   2.527   0.206  0.0817  0.2785 -0.5144
  268TMC3     C 4055   1.982   2.594   0.101 -0.4906  0.1795 -0.2125
  268TMC3     O 4056   1.969   2.660   0.002 -0.1265  1.1062 -0.2910
  268TMC3     H 4057   2.185   2.762   0.081 -2.0838  0.3009  2.2451
  268TMC3    H1 4058   2.079   2.397   0.257  0.4271 -0.1551  1.1473
  268TMC3    H2 4059   2.487   2.505   0.209  0.1225  0.7192  1.3991
  268TMC3    C7 4060   2.323   2.331   0.327 -0.7854  0.2960 -0.5981
  268TMC3    C8 4061   2.450   2.711   0.083 -0.1249  0.7072 -0.3474
  268TMC3    O1 4062   2.231   2.269   0.375  0.0446  0.2159 -0.2749
  268TMC3    O2 4063   2.556   2.708   0.142 -0.3996 -0.3055  0.1691
  269MPD2     C 4064   2.180   1.268  15.603  0.4071 -0.2976 -1.1902
  269MPD2    C1 4065   2.053   1.315  15.620 -0.5289  0.1523  0.1054
  269MPD2    C2 4066   2.031   1.450  15.601 -0.0398 -0.1605  0.1156
  269MPD2    C3 4067   2.129   1.532  15.553  0.1575  0.0481  0.1998
  269MPD2    C4 4068   2.258   1.484  15.551  0.4197 -0.0907 -0.2337
  269MPD2    C5 4069   2.285   1.354  15.571 -0.4509 -0.0702 -0.5273
  269MPD2     H 4070   1.934   1.498  15.608  0.6661  1.0525  1.4271
  269MPD2    H1 4071   2.340   1.555  15.554  0.7088 -0.4726  1.0158
  269MPD2    H2 4072   2.190   1.161  15.621  2.1732  0.3410  1.5195
  269MPD2    H3 4073   2.387   1.317  15.570 -0.7926 -1.0334 -0.5951
  269MPD2     N 4074   2.096   1.667  15.531  0.2829 -0.3314 -0.3906
  269MPD2    H5 4075   1.999   1.694  15.541  0.6212  0.9540 -0.6587
  269MPD2    N1 4076   1.951   1.224  15.665 -0.0817  0.3272  0.0511
  269MPD2    H7 4077   1.971   1.126  15.678 -1.5781 -0.1941 -1.5880
  270TMC3    C1 4078   1.747   1.134  15.736  0.2467 -0.2604 -0.5779
  270TMC3    C2 4079   1.650   1.094  15.655  0.0450  0.1215  0.7649
  270TMC3    C3 4080   1.638   0.960  15.627  0.7489 -0.5027 -0.0392
  270TMC3    C4 4081   1.807   1.049  15.817 -0.1889 -0.5495 -0.1188
  270TMC3    C5 4082   1.783   0.914  15.809  0.6622  0.2086 -0.0752
  270TMC3    C6 4083   1.705   0.869  15.704 -0.6159 -0.8310  0.0274
  270TMC3     C 4084   1.816   1.251  15.683 -0.0895 -0.0613  0.1388
  270TMC3     O 4085   1.751   1.346  15.643 -0.4052 -0.0516 -0.5026
  270TMC3     H 4086   1.605   1.169  15.590 -0.9114 -1.0995  0.0344
  270TMC3    H1 4087   1.869   1.091  15.895 -0.1094 -0.5187 -0.1979
  270TMC3    H2 4088   1.677   0.764  15.694 -0.8613 -0.8991  1.3667
  270TMC3    C7 4089   1.874   0.823  15.884  1.2327 -0.6266 -0.0483
  270TMC3    C8 4090   1.657   0.948  15.481 -0.5766 -0.1837  0.8302
  270TMC3    O1 4091   1.979   0.864  15.927 -0.2597  0.1395  0.2001
  270TMC3    O2 4092   1.680   1.051  15.422  0.2310 -0.5453  0.0186
  271MPD2     C 4093   1.418   1.425  13.966 -0.3560 -0.2207  0.6959
  271MPD2    C1 4094   1.342   1.360  14.059 -0.0492  0.2754  0.6813
  271MPD2    C2 4095   1.216   1.338  14.012  0.0798 -0.3428 -0.4077
  271MPD2    C3 4096   1.171   1.360  13.884  0.1505  0.5419 -0.2077
  271MPD2    C4 4097   1.254   1.416  13.798 -0.1863  0.4742 -0.2691
  271MPD2    C5 4098   1.382   1.449  13.835  0.2663  0.1847  0.1390
  271MPD2     H 4099   1.151   1.291  14.085  0.5131 -1.2589 -0.6104
  271MPD2    H1 4100   1.225   1.432  13.695  0.4522  1.4746 -0.2967
  271MPD2    H2 4101   1.522   1.438  13.994  0.3682 -1.5560 -1.3623
  271MPD2    H3 4102   1.452   1.509  13.778  1.2102  0.7777  1.9203
  271MPD2     N 4103   1.042   1.330  13.854  0.0556  0.5098  0.4329
  271MPD2    H5 4104   0.974   1.317  13.929 -0.5902 -0.8401 -0.3829
  271MPD2    N1 4105   1.388   1.305  14.184  0.8984  0.6105  0.1818
  271MPD2    H7 4106   1.330   1.236  14.230  0.5350 -0.0201 -1.2026
  272TMC3    C1 4107   1.550   1.236  14.341  0.2416  0.2682  0.6202
  272TMC3    C2 4108   1.678   1.195  14.344  0.1180 -0.0844  0.1414
  272TMC3    C3 4109   1.713   1.095  14.432 -0.0384  0.0478  0.6545
  272TMC3    C4 4110   1.451   1.190  14.421  0.1089  0.7903  0.7666
  272TMC3    C5 4111   1.492   1.096  14.509 -0.1827  0.3654  0.2913
  272TMC3    C6 4112   1.615   1.039  14.509 -0.0048  0.3518 -0.1685
  272TMC3     C 4113   1.516   1.325  14.235 -0.3650  0.9603 -0.1696
  272TMC3     O 4114   1.603   1.404  14.201  0.1835  0.3878 -0.0084
  272TMC3     H 4115   1.762   1.233  14.286 -0.4313  1.8190  0.6060
  272TMC3    H1 4116   1.352   1.235  14.422  0.7478  2.1793  0.8730
  272TMC3    H2 4117   1.616   0.961  14.585 -1.6393 -2.2685 -2.8502
  272TMC3    C7 4118   1.429   1.106  14.640  0.2269 -0.1862 -0.0972
  272TMC3    C8 4119   1.836   1.028  14.410 -0.4769 -0.0395  0.7186
  272TMC3    O1 4120   1.310   1.074  14.645 -0.5320  0.2284  0.3122
  272TMC3    O2 4121   1.896   1.065  14.310  0.0394  0.0081 -0.0875
  273MPD2     C 4122   3.044   3.871  11.815 -0.0228  0.7466  0.3389
  273MPD2    C1 4123   3.162   3.950  11.814 -0.5143 -0.5134 -0.3412
  273MPD2    C2 4124   3.194   4.020  11.696  0.2150  0.3136 -0.4631
  273MPD2    C3 4125   3.114   4.004  11.588 -0.6416  0.0815 -0.6768
  273MPD2    C4 4126   3.012   3.917  11.589  0.2419 -0.3177  0.0708
  273MPD2    C5 4127   2.971   3.857  11.703 -0.1290 -0.0271 -0.5998
  273MPD2     H 4128   3.282   4.081  11.677 -0.2527  2.0183  2.7407
  273MPD2    H1 4129   2.943   3.911  11.506 -0.9840 -2.3626  1.2471
  273MPD2    H2 4130   3.013   3.823  11.907 -2.4830 -1.8100 -1.8273
  273MPD2    H3 4131   2.879   3.800  11.705  0.3568 -0.8689 -2.2624
  273MPD2     N 4132   3.141   4.068  11.463  0.1456  0.6004  0.4238
  273MPD2    H5 4133   3.103   4.021  11.382  0.5848  0.5690  0.2365
  273MPD2    N1 4134   3.235   3.965  11.929  1.1421 -0.5370  0.1134
  273MPD2    H7 4135   3.206   3.918  12.014 -0.5113 -0.7111 -0.5432
  274TMC3    C1 4136   3.196   4.239  11.302  0.0732  0.0997 -0.7617
  274TMC3    C2 4137   3.097   4.198  11.224 -0.0506 -0.1231  0.1925
  274TMC3    C3 4138   3.114   4.226  11.089 -0.6164 -0.1632  0.7693
  274TMC3    C4 4139   3.281   4.338  11.259  0.0009  0.5636  0.0776
  274TMC3    C5 4140   3.280   4.378  11.130  1.3609  0.4960 -0.1483
  274TMC3    C6 4141   3.201   4.315  11.038 -0.0899 -0.1068  0.5374
  274TMC3     C 4142   3.213   4.183  11.440 -0.1544 -0.8869  1.0499
  274TMC3     O 4143   3.296   4.235  11.514  0.3600 -0.1090 -0.3628
  274TMC3     H 4144   3.023   4.125  11.255 -1.4683  0.3468 -2.0644
  274TMC3    H1 4145   3.351   4.383  11.329 -1.1459  1.8151  0.4041
  274TMC3    H2 4146   3.186   4.354  10.938  0.6522 -1.8248 -0.2378
  274TMC3    C7 4147   3.314   4.518  11.114  0.0048 -0.2892 -0.2333
  274TMC3    C8 4148   2.990   4.200  11.013 -0.1956  0.3519  0.0128
  274TMC3    O1 4149   3.392   4.551  11.026  0.1611  0.2004 -0.5471
  274TMC3    O2 4150   2.898   4.148  11.079 -0.3009  0.1071 -0.0567
  275MPD2     C 4151   2.966   2.260  14.333 -0.1327 -0.3864  1.0809
  275MPD2    C1 4152   2.932   2.234  14.461 -0.1200  0.5715 -0.3501
  275MPD2    C2 4153   2.796   2.207  14.487  0.7573  0.6572 -0.5114
  275MPD2    C3 4154   2.702   2.205  14.385  0.4235  0.4867  0.3778
  275MPD2    C4 4155   2.741   2.235  14.260 -0.0386  0.4235  0.4374
  275MPD2    C5 4156   2.872   2.270  14.236 -0.5557  0.0022 -0.3701
  275MPD2     H 4157   2.773   2.192  14.592  0.5197 -0.0941 -0.6710
  275MPD2    H1 4158   2.667   2.236  14.182  2.2484  0.4257 -1.7427
  275MPD2    H2 4159   3.066   2.289  14.304  0.5368 -0.5640  3.1675
  275MPD2    H3 4160   2.907   2.305  14.140  1.0800  0.3214  0.3486
  275MPD2     N 4161   2.566   2.175  14.407  0.1821  0.1915  0.7818
  275MPD2    H5 4162   2.502   2.186  14.329 -1.0645 -1.3969  1.5824
  275MPD2    N1 4163   3.017   2.231  14.570 -0.0641 -0.2283  0.2131
  275MPD2    H7 4164   2.971   2.194  14.653  1.5941  2.2376  2.2236
  276TMC3    C1 4165   3.205   2.264  14.712  0.2949 -1.0380 -0.1868
  276TMC3    C2 4166   3.148   2.168  14.800  0.0296 -0.3169  0.9088
  276TMC3    C3 4167   3.152   2.191  14.932  0.2513 -0.0120 -0.0998
  276TMC3    C4 4168   3.279   2.368  14.755 -0.1631  0.2352 -0.0357
  276TMC3    C5 4169   3.287   2.385  14.890 -0.4685 -1.0726  0.9014
  276TMC3    C6 4170   3.216   2.304  14.978 -0.4376  0.4953 -0.3832
  276TMC3     C 4171   3.146   2.273  14.579  0.8250 -0.5342  0.0986
  276TMC3     O 4172   3.209   2.339  14.497  0.6221 -0.6454 -0.5977
  276TMC3     H 4173   3.091   2.081  14.769 -0.8065  0.2763  0.7559
  276TMC3    H1 4174   3.311   2.449  14.690  0.5898 -0.6642 -0.7715
  276TMC3    H2 4175   3.217   2.326  15.084  0.2315  1.0578 -0.5049
  276TMC3    C7 4176   3.378   2.473  14.952 -0.3048 -0.7320  0.1538
  276TMC3    C8 4177   3.107   2.088  15.030  0.0255  0.4367  0.2294
  276TMC3    O1 4178   3.358   2.492  15.072  0.4106  0.2058  0.6294
  276TMC3    O2 4179   3.155   2.096  15.142  0.1745  0.2537  0.5706
  277MPD2     C 4180   4.617   0.601  12.979  0.4554  0.2339 -0.2699
  277MPD2    C1 4181   4.490   0.638  13.022  0.6854 -0.2551  0.4913
  277MPD2    C2 4182   4.443   0.595  13.144  0.8234 -0.2645 -0.0779
  277MPD2    C3 4183   4.525   0.512  13.224  0.0870 -0.5892 -0.1687
  277MPD2    C4 4184   4.651   0.476  13.177  0.2834 -0.0260  0.5855
  277MPD2    C5 4185   4.696   0.522  13.055  0.0238  0.4753  0.6673
  277MPD2     H 4186   4.353   0.634  13.188 -0.1740 -1.7189 -0.8044
  277MPD2    H1 4187   0.001   0.421  13.238  1.6699 -0.4984 -1.4760
  277MPD2    H2 4188   4.663   0.637  12.888  0.9770 -2.9876 -1.2728
  277MPD2    H3 4189   0.076   0.498  13.023 -0.6009 -0.6043 -0.5033
  277MPD2     N 4190   4.470   0.461  13.341  0.6810  0.1817  0.3538
  277MPD2    H5 4191   4.383   0.496  13.381  0.0550  0.1156 -0.9597
  277MPD2    N1 4192   4.425   0.736  12.941  0.4796  0.5759  0.3925
  277MPD2    H7 4193   4.485   0.774  12.869  2.6275 -0.8606  1.4290
  278TMC3    C1 4194   4.434   0.297  13.501 -0.6234  0.5590  0.1658
  278TMC3    C2 4195   4.461   0.181  13.562  0.6132  0.3383  0.7832
  278TMC3    C3 4196   4.375   0.081  13.596  0.0015 -0.4572  0.0504
  278TMC3    C4 4197   4.299   0.324  13.479  0.0845  0.4849  0.1211
  278TMC3    C5 4198   4.206   0.235  13.525 -0.3072 -0.1142  0.4684
  278TMC3    C6 4199   4.240   0.115  13.576  0.2824  0.0252  0.4575
  278TMC3     C 4200   4.526   0.356  13.405 -0.4502 -0.5573 -0.1886
  278TMC3     O 4201   4.611   0.279  13.376 -0.1624 -0.2199 -0.4531
  278TMC3     H 4202   4.567   0.159  13.572  0.5042 -0.3570  0.4395
  278TMC3    H1 4203   4.263   0.418  13.438 -1.4906  0.6969  1.9746
  278TMC3    H2 4204   4.160   0.044  13.593  1.2916 -1.3414 -0.4855
  278TMC3    C7 4205   4.091   0.227  13.441 -1.3631 -0.1410  0.0865
  278TMC3    C8 4206   4.400   4.677  13.526  0.3970 -0.2312  0.0642
  278TMC3    O1 4207   4.086   0.120  13.382 -0.1081  0.5169  0.3656
  278TMC3    O2 4208   4.508   4.616  13.547  0.9829  0.0234  0.4059
  279MPD2     C 4209   3.302   0.702  17.665  0.5334 -0.0758  0.5541
  279MPD2    C1 4210   3.320   0.813   0.061 -1.1428  0.5026 -0.2548
  279MPD2    C2 4211   3.419   0.902   0.019 -1.1703 -0.5522  0.3658
  279MPD2    C3 4212   3.493   0.884  17.591  0.3129 -0.7101  0.5671
  279MPD2    C4 4213   3.473   0.766  17.522  0.3413  0.7204 -0.4789
  279MPD2    C5 4214   3.383   0.674  17.560  0.6888  0.0558  0.1533
  279MPD2     H 4215   3.434   0.991   0.079  2.8045 -0.1508 -1.2530
  279MPD2    H1 4216   3.528   0.750  17.430 -0.4948 -0.7908 -0.7130
  279MPD2    H2 4217   3.219   0.634  17.683  0.9783 -0.3187  1.6636
  279MPD2    H3 4218   3.363   0.585  17.502 -2.2837  1.3110 -0.7416
  279MPD2     N 4219   3.598   0.968  17.542  0.3162  0.3457  0.6360
  279MPD2    H5 4220   3.648   0.937  17.459 -1.1220  1.4261 -0.6303
  279MPD2    N1 4221   3.250   0.818   0.180  0.6104 -0.5784 -0.3082
  279MPD2    H7 4222   3.192   0.738   0.200 -0.8132  0.2368 -1.1996
  280TMC3    C1 4223   3.158   0.920   0.368 -0.1260  0.2375 -0.8870
  280TMC3    C2 4224   3.062   0.820   0.359 -0.0467 -0.0705 -0.6749
  280TMC3    C3 4225   2.931   0.862   0.353  0.5379  0.2323  0.1049
  280TMC3    C4 4226   3.124   1.055   0.378 -0.6740  0.0097 -1.1787
  280TMC3    C5 4227   2.993   1.081   0.399 -0.3529 -0.5802  0.1939
  280TMC3    C6 4228   2.893   0.992   0.366  0.0751 -0.4826  1.3101
  280TMC3     C 4229   3.268   0.912   0.279  0.2691  0.1153  0.0867
  280TMC3     O 4230   3.359   0.997   0.295  0.0027 -0.7992  0.4474
  280TMC3     H 4231   3.096   0.718   0.370  2.5421  0.8394 -0.0836
  280TMC3    H1 4232   3.200   1.131   0.393  1.4499 -2.3530  0.0920
  280TMC3    H2 4233   2.790   1.026   0.369  1.0932  2.6385  1.5739
  280TMC3    C7 4234   2.952   1.224   0.409  0.1085 -0.5647 -0.5686
  280TMC3    C8 4235   2.831   0.766   0.393 -0.1513 -0.5211  0.2410
  280TMC3    O1 4236   2.844   1.259   0.356 -0.0115  0.4428  0.0337
  280TMC3    O2 4237   2.724   0.803   0.443  0.5558 -0.5675  0.0019
  281TMC3    C1 4238   2.115   2.000  13.594  0.3898 -0.1919 -0.4863
  281TMC3    C2 4239   2.245   1.982  13.643 -0.6720 -0.2964 -0.8815
  281TMC3    C3 4240   2.271   1.870  13.711 -0.2127  0.3576 -0.8414
  281TMC3    C4 4241   2.018   1.908  13.616  0.4592 -0.5401  0.2304
  281TMC3    C5 4242   2.054   1.791  13.680 -0.1843 -0.4027  0.0702
  281TMC3    C6 4243   2.179   1.769  13.731 -0.6614  0.0598 -0.2746
  281TMC3     C 4244   2.086   2.122  13.531 -0.1767 -0.7233 -0.5502
  281TMC3     O 4245   2.175   2.199  13.514 -0.2019  0.2835  0.1282
  281TMC3     H 4246   2.326   2.051  13.626 -0.7023  0.1897  0.9703
  281TMC3    H1 4247   1.918   1.908  13.572  0.2430  1.8944  0.7032
  281TMC3    H2 4248   2.213   1.684  13.789 -2.0090  0.9337  1.7901
  281TMC3    C7 4249   1.950   1.688  13.688  0.1702  0.0067 -0.3573
  281TMC3    C8 4250   2.416   1.844  13.714 -0.1206 -0.6503 -0.4373
  281TMC3    O1 4251   1.837   1.721  13.697  0.0705 -0.3526  0.5119
  281TMC3    O2 4252   2.477   1.927  13.779  0.1479 -0.3101  0.2478
  282MPD2     C 4253   4.566   2.752  15.078 -0.1581 -0.3942  0.4936
  282MPD2    C1 4254   4.460   2.841  15.084  0.4134 -0.1942  0.5211
  282MPD2    C2 4255   4.435   2.903  14.967 -0.4577  0.1826 -0.0999
  282MPD2    C3 4256   4.499   2.883  14.848 -0.7259  0.0536  0.1626
  282MPD2    C4 4257   4.607   2.796  14.851 -0.3225  0.3171 -0.0745
  282MPD2    C5 4258   4.643   2.743  14.966  0.0014  0.7822  0.3820
  282MPD2     H 4259   4.348   2.966  14.953  0.3071  0.9699 -1.3739
  282MPD2    H1 4260   4.671   2.784  14.764 -1.4389 -1.4123 -0.6756
  282MPD2    H2 4261   4.604   2.704  15.167  3.2717  0.5302 -0.4609
  282MPD2    H3 4262   0.021   2.700  14.976 -0.0112  0.9434  1.2819
  282MPD2     N 4263   4.440   2.950  14.739 -0.8519 -0.5719 -0.2950
  282MPD2    H5 4264   4.372   3.022  14.759  1.0502  1.6145 -1.6239
  282MPD2    N1 4265   4.375   2.859  15.200 -0.0131 -0.2147 -0.1081
  282MPD2    H7 4266   4.295   2.921  15.191 -0.5983 -1.0541 -0.7137
  283TMC3    C1 4267   4.291   2.841  15.424  0.2581  0.2284  0.4405
  283TMC3    C2 4268   4.286   2.975  15.448 -0.3160 -0.3370 -0.0932
  283TMC3    C3 4269   4.223   3.020  15.562  0.5766 -0.2079  0.6355
  283TMC3    C4 4270   4.251   2.749  15.516 -0.5503  0.2276 -0.4526
  283TMC3    C5 4271   4.195   2.801  15.631 -0.2879 -0.3203  0.0914
  283TMC3    C6 4272   4.165   2.932  15.651  0.0492 -0.7844  0.0274
  283TMC3     C 4273   4.385   2.796  15.319 -0.4733 -0.9386  0.9083
  283TMC3     O 4274   4.475   2.725  15.351  0.0794  0.2141 -0.6334
  283TMC3     H 4275   4.332   3.044  15.379 -0.5066 -1.4907 -1.3652
  283TMC3    H1 4276   4.249   2.642  15.494  0.2503  0.2210 -0.4973
  283TMC3    H2 4277   4.094   2.964  15.727  0.3736 -0.0858  0.0285
  283TMC3    C7 4278   4.127   2.710  15.721 -0.1624  0.2815 -0.3252
  283TMC3    C8 4279   4.233   3.155  15.615 -0.8277  0.1355  0.3916
  283TMC3    O1 4280   4.043   2.762  15.793  0.0726  0.4653  0.3730
  283TMC3    O2 4281   4.173   3.180  15.718 -0.2099  0.3401 -0.5845
  284MPD2     C 4282   2.639   2.320  11.748 -0.2159 -0.8317  0.7378
  284MPD2    C1 4283   2.750   2.250  11.706 -0.6151 -0.0505 -0.3461
  284MPD2    C2 4284   2.768   2.117  11.746 -0.4721  1.2614 -0.4538
  284MPD2    C3 4285   2.669   2.058  11.822  0.1757  0.3909 -0.7684
  284MPD2    C4 4286   2.558   2.131  11.862  0.6141 -0.7542 -0.6036
  284MPD2    C5 4287   2.543   2.260  11.823 -0.0723  0.1311  0.0017
  284MPD2     H 4288   2.868   2.079  11.731 -1.1242 -0.2166 -1.0117
  284MPD2    H1 4289   2.475   2.095  11.922  0.8453  2.0699  1.3627
  284MPD2    H2 4290   2.617   2.418  11.707 -0.9220 -0.4859  1.9463
  284MPD2    H3 4291   2.449   2.312  11.841  0.9978  2.2055 -0.4116
  284MPD2     N 4292   2.687   1.920  11.849 -0.2028 -0.2511 -0.2518
  284MPD2    H5 4293   2.772   1.885  11.807 -1.3838 -0.1093 -2.7369
  284MPD2    N1 4294   2.854   2.312  11.638 -0.3262 -0.0556  0.5264
  284MPD2    H7 4295   2.932   2.253  11.611 -0.3191  0.4172 -0.4749
  285TMC3    C1 4296   2.947   2.447  11.478 -1.3116  0.0680 -0.1893
  285TMC3    C2 4297   3.020   2.333  11.441 -0.1011 -0.3376  0.0449
  285TMC3    C3 4298   3.149   2.354  11.396 -0.0490 -0.5472 -0.4343
  285TMC3    C4 4299   3.002   2.575  11.469  0.9815 -0.1785  0.5434
  285TMC3    C5 4300   3.133   2.589  11.431  0.8406 -0.7400  0.6053
  285TMC3    C6 4301   3.203   2.480  11.391 -0.2541  0.0617 -0.0197
  285TMC3     C 4302   2.850   2.437  11.578 -0.4656 -0.3720  0.7631
  285TMC3     O 4303   2.773   2.533  11.594  0.5022 -0.5921 -0.0974
  285TMC3     H 4304   2.977   2.235  11.433 -0.6193  0.0061 -1.3695
  285TMC3    H1 4305   2.939   2.657  11.501  1.7185  0.2460  0.8942
  285TMC3    H2 4306   3.300   2.493  11.344 -0.4686  2.1159  0.0872
  285TMC3    C7 4307   3.179   2.720  11.398  0.4139 -0.9933  0.6867
  285TMC3    C8 4308   3.197   2.243  11.314  0.1253 -0.1768  0.1737
  285TMC3    O1 4309   3.299   2.749  11.399  0.1859  0.0866 -0.1245
  285TMC3    O2 4310   3.116   2.176  11.260  0.3938 -0.5765 -0.6879
  286MPD2     C 4311   2.754   0.944   1.589 -0.5287  0.7352  0.4668
  286MPD2    C1 4312   2.698   0.862   1.497 -1.2005  0.4444 -0.1889
  286MPD2    C2 4313   2.780   0.759   1.446  0.6863 -0.1554  0.1117
  286MPD2    C3 4314   2.916   0.748   1.479  0.5928 -0.7846 -0.2532
  286MPD2    C4 4315   2.968   0.842   1.569  0.4333  0.9063  0.5140
  286MPD2    C5 4316   2.890   0.943   1.621 -0.1557 -0.5789 -0.0359
  286MPD2     H 4317   2.738   0.692   1.372  0.2048 -0.7335  0.9088
  286MPD2    H1 4318   3.074   0.850   1.588  0.6622  1.1019 -0.8872
  286MPD2    H2 4319   2.686   1.020   1.625  1.3601  1.9819  1.3961
  286MPD2    H3 4320   2.936   1.011   1.691  0.4283  0.4598 -1.4382
  286MPD2     N 4321   3.009   0.656   1.428 -0.4036  0.1996  0.1939
  286MPD2    H5 4322   3.104   0.688   1.444 -0.7806  0.7606  1.3376
  286MPD2    N1 4323   2.565   0.885   1.449  0.2203  0.0422  0.3853
  286MPD2    H7 4324   2.521   0.974   1.468  0.2815  0.0318  0.5767
  287TMC3    C1 4325   3.107   0.460   1.316  0.7315  0.4586  0.1857
  287TMC3    C2 4326   3.096   0.376   1.214 -0.2173  0.7429 -0.2072
  287TMC3    C3 4327   3.191   0.287   1.183 -0.2281  0.6072  0.2208
  287TMC3    C4 4328   3.207   0.451   1.406 -0.0318 -0.6766 -0.3523
  287TMC3    C5 4329   3.310   0.362   1.371 -0.3205  0.3260 -0.8812
  287TMC3    C6 4330   3.305   0.283   1.259  0.4618  0.0976  1.2624
  287TMC3     C 4331   2.986   0.558   1.337  0.6101 -0.2278 -0.0020
  287TMC3     O 4332   2.883   0.529   1.279  0.0334 -0.4645  0.1749
  287TMC3     H 4333   3.012   0.373   1.145 -0.5668 -1.9725  0.3281
  287TMC3    H1 4334   3.217   0.511   1.495 -0.5271  0.1080 -0.8227
  287TMC3    H2 4335   3.376   0.206   1.233  0.7180  0.3203  1.2980
  287TMC3    C7 4336   3.433   0.373   1.448  0.2961 -0.7282 -0.2743
  287TMC3    C8 4337   3.183   0.211   1.055 -0.8743  0.1341 -0.1087
  287TMC3    O1 4338   3.432   0.471   1.521  0.3655  0.6133 -0.0720
  287TMC3    O2 4339   3.077   0.173   1.019  0.3840 -0.2110 -0.6295
  288TMC3    C1 4340   4.195   0.688  14.631  0.2320 -0.0259  0.1841
  288TMC3    C2 4341   4.205   0.618  14.747  0.6091  0.0963 -0.6050
  288TMC3    C3 4342   4.173   0.488  14.750 -0.7679  1.1757 -0.5538
  288TMC3    C4 4343   4.166   0.619  14.514 -0.2226  0.8271 -0.2314
  288TMC3    C5 4344   4.126   0.485  14.524  0.6755 -0.0884  0.8958
  288TMC3    C6 4345   4.126   0.418  14.647  0.2022 -0.0999 -0.7835
  288TMC3     C 4346   4.237   0.829  14.632  0.2466 -0.4744 -0.0554
  288TMC3     O 4347   4.229   0.890  14.739  0.1675  0.5135  0.1089
  288TMC3     H 4348   4.233   0.677  14.833 -0.0802  0.0666 -0.3631
  288TMC3    H1 4349   4.158   0.670  14.419  2.7864  1.4527 -0.1617
  288TMC3    H2 4350   4.091   0.315  14.651 -1.8772  0.6558  0.6872
  288TMC3    C7 4351   4.149   0.396  14.406  0.4464 -0.5346 -0.3051
  288TMC3    C8 4352   4.190   0.411  14.875 -0.1273  0.5096 -0.1291
  288TMC3    O1 4353   4.123   0.275  14.429 -0.0542  0.5144  0.5114
  288TMC3    O2 4354   4.260   0.466  14.957  0.1885  0.2730  0.2923
  289MPD2     C 4355   4.655   4.432  14.441  0.2974 -0.4807 -0.1838
  289MPD2    C1 4356   4.594   4.552  14.435  0.9536  0.4215 -0.9511
  289MPD2    C2 4357   4.480   4.568  14.364 -0.1641  0.3079  0.3180
  289MPD2    C3 4358   4.413   4.459  14.314 -0.1408  0.9798 -0.0830
  289MPD2    C4 4359   4.465   4.334  14.333 -0.0118 -0.1698 -0.4916
  289MPD2    C5 4360   4.588   4.325  14.390  0.4728 -0.6295  0.3789
  289MPD2     H 4361   4.439   4.668  14.363 -0.4823  0.2079  4.3466
  289MPD2    H1 4362   4.412   4.245  14.302 -2.1591  0.6176  0.9145
  289MPD2    H2 4363   0.032   4.423  14.488  0.8822  0.6289 -1.1754
  289MPD2    H3 4364   4.624   4.225  14.412 -1.3118 -1.2937  0.2460
  289MPD2     N 4365   4.289   4.463  14.238  0.4885  0.1739 -0.1928
  289MPD2    H5 4366   4.255   4.370  14.215 -3.3196  1.5945 -0.3290
  289MPD2    N1 4367   4.671   4.662  14.474  0.0497  0.5735  0.1510
  289MPD2    H7 4368   0.035   4.642  14.527 -0.2627  0.4283  0.5985
  290TMC3    C1 4369   4.078   4.521  14.173  0.1535  0.2983  0.2407
  290TMC3    C2 4370   3.989   4.627  14.177  0.8990  0.2986  0.5337
  290TMC3    C3 4371   3.855   4.600  14.138  0.2730  0.2189  0.3236
  290TMC3    C4 4372   4.041   4.390  14.149  0.2640 -0.2810  0.2883
  290TMC3    C5 4373   3.913   4.373  14.109 -0.0404  0.0081 -0.1231
  290TMC3    C6 4374   3.822   4.475  14.097  0.2376  0.1400  0.0715
  290TMC3     C 4375   4.205   4.564  14.220 -0.2714 -0.0681 -0.5520
  290TMC3     O 4376   4.216   4.678  14.249  0.7069  0.0196 -0.0573
  290TMC3     H 4377   4.021   0.009  14.162  0.1545  0.3040 -1.0118
  290TMC3    H1 4378   4.111   4.311  14.123  0.8882  0.0882  0.8651
  290TMC3    H2 4379   3.720   4.459  14.064  1.4259  0.1529 -3.5243
  290TMC3    C7 4380   3.854   4.258  14.178 -0.1055 -0.0759 -1.0411
  290TMC3    C8 4381   3.805   4.696  14.036 -0.1832  0.0055  0.0536
  290TMC3    O1 4382   3.748   4.280  14.232  0.1285 -0.3540  0.0078
  290TMC3    O2 4383   3.780   4.659  13.925  0.0397  0.1895 -0.1595
  291MPD2     C 4384   3.576   3.874   1.080 -0.6734  0.0720  0.1318
  291MPD2    C1 4385   3.599   3.884   0.942 -0.1443 -0.5833  0.1799
  291MPD2    C2 4386   3.713   3.956   0.904 -0.3274 -0.1101  0.4018
  291MPD2    C3 4387   3.800   4.014   0.997 -0.1836  0.4142 -0.1424
  291MPD2    C4 4388   3.773   3.995   1.127  0.0637 -0.0450 -0.0535
  291MPD2    C5 4389   3.658   3.941   1.168  0.4155  0.5105  0.3002
  291MPD2     H 4390   3.729   3.960   0.797  0.6107 -0.3960  0.5343
  291MPD2    H1 4391   3.838   4.027   1.208  0.5202  1.7180 -1.0975
  291MPD2    H2 4392   3.487   3.831   1.125  0.4504 -1.8265  0.5185
  291MPD2    H3 4393   3.622   3.956   1.269 -0.1298  1.6315 -0.0483
  291MPD2     N 4394   3.920   4.086   0.961  0.2848 -0.4284 -0.0168
  291MPD2    H5 4395   3.961   4.126   1.045  0.9396 -0.5520 -0.2822
  291MPD2    N1 4396   3.508   3.840   0.841  0.6173 -0.4209 -0.3662
  291MPD2    H7 4397   3.541   3.847   0.745  1.4633 -1.4727 -0.1541
  292TMC3    C1 4398   3.299   3.788   0.739 -0.1259 -0.5137  0.6144
  292TMC3    C2 4399   3.160   3.809   0.743  0.4071 -0.3309  0.7094
  292TMC3    C3 4400   3.092   3.812   0.631  0.6079 -0.3243 -0.3744
  292TMC3    C4 4401   3.362   3.774   0.617  0.1289  0.2542  0.0296
  292TMC3    C5 4402   3.288   3.771   0.505  0.4099  0.8094 -0.2523
  292TMC3    C6 4403   3.155   3.795   0.511 -0.5562  0.1860 -0.1299
  292TMC3     C 4404   3.382   3.793   0.866  0.1359  0.2811  0.1579
  292TMC3     O 4405   3.317   3.786   0.972 -0.8107 -0.0733  0.5299
  292TMC3     H 4406   3.110   3.833   0.836  0.6311 -0.1019  0.7721
  292TMC3    H1 4407   3.468   3.750   0.608 -0.5545 -2.5100 -0.5969
  292TMC3    H2 4408   3.090   3.790   0.425 -1.1441 -0.3086  0.3520
  292TMC3    C7 4409   3.363   3.758   0.385 -0.1698  0.6004 -0.1753
  292TMC3    C8 4410   2.959   3.868   0.627  0.3836  0.2670  0.4683
  292TMC3    O1 4411   3.440   3.665   0.395 -0.2479 -0.2289  0.1441
  292TMC3    O2 4412   2.919   3.914   0.518  0.2030  0.4240  0.0789
  293MPD2     C 4413   1.348   0.900  12.671  0.5086  0.8127 -0.1904
  293MPD2    C1 4414   1.273   0.842  12.767  0.0983  0.4015  0.1304
  293MPD2    C2 4415   1.299   0.883  12.895  0.3892  0.1879 -0.7905
  293MPD2    C3 4416   1.398   0.969  12.930  0.2947 -0.5408  0.2859
  293MPD2    C4 4417   1.484   1.024  12.826  0.3155 -0.7647 -0.5906
  293MPD2    C5 4418   1.451   0.992  12.696  0.6835 -0.1515  0.4964
  293MPD2     H 4419   1.252   0.837  12.982  3.5485  0.0607  0.8621
  293MPD2    H1 4420   1.570   1.089  12.840 -1.0225  0.7204  0.7732
  293MPD2    H2 4421   1.335   0.875  12.566 -2.0824  1.8954 -0.1293
  293MPD2    H3 4422   1.511   1.024  12.612  1.5162  2.7042  2.1705
  293MPD2     N 4423   1.423   0.999  13.061 -0.1862  0.0746 -0.0857
  293MPD2    H5 4424   1.372   0.949  13.133 -0.5525  0.1116 -0.3244
  293MPD2    N1 4425   1.156   0.759  12.729  0.2379 -0.0484  0.2931
  293MPD2    H7 4426   1.125   0.757  12.633  0.5860  1.9945  0.1193
  294TMC3    C1 4427   0.974   0.625  12.736  0.0261 -0.2680 -0.2454
  294TMC3    C2 4428   0.917   0.510  12.789 -0.4788 -0.2473  0.4104
  294TMC3    C3 4429   0.799   0.459  12.746  0.0248 -0.5600 -0.1268
  294TMC3    C4 4430   0.910   0.703  12.642 -0.2490 -0.6397 -0.4835
  294TMC3    C5 4431   0.788   0.655  12.609  0.1231  0.3216 -0.3054
  294TMC3    C6 4432   0.731   0.533  12.651 -0.1329  0.4751  0.4814
  294TMC3     C 4433   1.090   0.673  12.812  0.6032 -0.3832 -0.2151
  294TMC3     O 4434   1.124   0.638  12.924 -0.2797  0.3819  0.1166
  294TMC3     H 4435   0.962   0.470  12.879 -0.7737 -0.6947  0.3613
  294TMC3    H1 4436   0.948   0.800  12.609  2.5351 -1.5140  0.2320
  294TMC3    H2 4437   0.628   0.517  12.622  0.4808 -0.6813 -1.0460
  294TMC3    C7 4438   0.724   0.731  12.500  0.1792 -0.2939 -0.1276
  294TMC3    C8 4439   0.793   0.315  12.742 -0.2066  0.7619 -0.0332
  294TMC3    O1 4440   0.602   0.735  12.486  0.2034  0.8100  0.1535
  294TMC3    O2 4441   0.841   0.266  12.844  0.8478  0.1303  0.3645
  295MPD2     C 4442   1.046   0.406   0.235  0.0262 -0.8069 -0.5201
  295MPD2    C1 4443   1.094   0.286   0.186  0.0130  0.3978  0.9830
  295MPD2    C2 4444   1.026   0.160   0.204 -0.8052  0.6919 -0.5400
  295MPD2    C3 4445   0.902   0.170   0.261  0.6449  0.2275 -0.2506
  295MPD2    C4 4446   0.850   0.292   0.297  0.3765  0.1587  0.0688
  295MPD2    C5 4447   0.919   0.409   0.293 -0.0588 -0.0985 -0.2444
  295MPD2     H 4448   1.067   0.065   0.171 -0.7252  0.9868 -1.3017
  295MPD2    H1 4449   0.751   0.296   0.340  0.0642  1.9093 -0.8123
  295MPD2    H2 4450   1.112   0.492   0.237 -0.8373 -0.1653  0.2391
  295MPD2    H3 4451   0.872   0.496   0.338  0.9274 -1.5774  3.6182
  295MPD2     N 4452   0.827   0.055   0.297 -0.1229  0.1928 -0.3267
  295MPD2    H5 4453   0.733   0.079   0.327 -0.2836  0.3274 -0.9435
  295MPD2    N1 4454   1.223   0.280   0.133  0.5451  0.0532 -0.1866
  295MPD2    H7 4455   1.262   0.187   0.120 -0.0374 -0.1558 -0.4560
  296TMC3    C1 4456   0.771   4.569   0.385  0.0015  0.4349 -0.8979
  296TMC3    C2 4457   0.669   4.634   0.452 -0.2150 -0.3942 -0.0505
  296TMC3    C3 4458   0.591   4.554   0.535 -0.2702 -0.2937 -0.6450
  296TMC3    C4 4459   0.809   4.440   0.419  0.4333  0.0189 -0.3020
  296TMC3    C5 4460   0.728   4.367   0.503  0.5489 -0.7368 -0.6589
  296TMC3    C6 4461   0.625   4.424   0.573 -0.7251  0.0638  0.3400
  296TMC3     C 4462   0.875   4.650   0.322  0.3140  0.3474 -0.2893
  296TMC3     O 4463   0.991   4.608   0.311 -0.1088 -0.4105  0.0648
  296TMC3     H 4464   0.634   0.014   0.436 -1.7164 -0.9232 -0.1012
  296TMC3    H1 4465   0.894   4.397   0.367  0.4082 -0.3240 -0.0666
  296TMC3    H2 4466   0.559   4.368   0.640 -0.6648 -1.6423 -1.0237
  296TMC3    C7 4467   0.754   4.223   0.516  0.3578  0.6393  0.1203
  296TMC3    C8 4468   0.496   4.629   0.610  0.1865  1.1123 -0.3864
  296TMC3    O1 4469   0.830   4.172   0.428 -0.1152  0.0095 -0.3522
  296TMC3    O2 4470   0.423   4.708   0.552  0.3964  0.1986  0.2369
  297MPD2     C 4471   3.484   1.546  16.618 -0.1974  0.1744 -0.3316
  297MPD2    C1 4472   3.460   1.585  16.483 -0.2067 -0.0651  0.2069
  297MPD2    C2 4473   3.548   1.679  16.431 -0.1474 -0.0702  0.0517
  297MPD2    C3 4474   3.647   1.743  16.499 -0.0347  0.6601  0.7514
  297MPD2    C4 4475   3.660   1.704  16.632 -0.3594  0.0824  0.4976
  297MPD2    C5 4476   3.583   1.610  16.688  0.2950  0.0999 -0.4006
  297MPD2     H 4477   3.533   1.706  16.328 -1.3487  0.7009  0.4331
  297MPD2    H1 4478   3.738   1.735  16.701  0.5053 -2.7916  0.7969
  297MPD2    H2 4479   3.421   1.480  16.676  2.3223 -0.2367  1.9488
  297MPD2    H3 4480   3.589   1.588  16.794 -0.3216  2.0187  0.0415
  297MPD2     N 4481   3.711   1.852  16.433  0.7215  0.0315 -0.5505
  297MPD2    H5 4482   3.709   1.850  16.332  2.7307  1.8003 -0.6213
  297MPD2    N1 4483   3.353   1.536  16.409 -0.1022 -0.2518  0.5402
  297MPD2    H7 4484   3.351   1.582  16.319  1.1968 -0.3929  0.4444
  298TMC3    C1 4485   3.159   1.427  16.350  0.2276 -0.5896 -0.0871
  298TMC3    C2 4486   3.213   1.413  16.228  0.4639 -0.4317  0.2293
  298TMC3    C3 4487   3.125   1.402  16.120  0.4569 -0.1263  0.3168
  298TMC3    C4 4488   3.023   1.449  16.367 -0.1896 -0.5168  0.2273
  298TMC3    C5 4489   2.944   1.458  16.258  0.1613  0.0743 -0.2238
  298TMC3    C6 4490   2.987   1.417  16.135  0.2071 -0.2013  0.2257
  298TMC3     C 4491   3.247   1.459  16.458  0.3938  0.0072 -0.0680
  298TMC3     O 4492   3.206   1.437  16.570  0.3409  0.0718 -0.5856
  298TMC3     H 4493   3.321   1.408  16.215  0.3389  0.4054 -1.1775
  298TMC3    H1 4494   3.001   1.497  16.461  0.0066 -1.0841  0.5615
  298TMC3    H2 4495   2.910   1.409  16.058 -0.6805  1.4051  0.9554
  298TMC3    C7 4496   2.832   1.553  16.271 -0.2709  0.6102 -0.4007
  298TMC3    C8 4497   3.193   1.421  15.993 -0.6315 -0.3806 -0.9050
  298TMC3    O1 4498   2.795   1.585  16.386  0.6605 -0.1567  0.1859
  298TMC3    O2 4499   3.310   1.389  15.994 -0.0253  0.5258 -0.0177
  299MPD2     C 4500   4.263   1.271  10.999 -0.4277  0.3657  0.3425
  299MPD2    C1 4501   4.301   1.334  10.883  0.0231 -0.6307 -0.4813
  299MPD2    C2 4502   4.269   1.275  10.760 -0.0534 -0.4973 -0.2710
  299MPD2    C3 4503   4.175   1.170  10.762 -1.1909 -0.2780 -0.5446
  299MPD2    C4 4504   4.136   1.116  10.885  0.0489 -0.1177  0.3996
  299MPD2    C5 4505   4.176   1.170  11.006  0.0194  0.2534  0.9905
  299MPD2     H 4506   4.303   1.311  10.663  1.5120 -1.2632 -0.0128
  299MPD2    H1 4507   4.072   1.028  10.884  0.6719 -0.5763  1.1699
  299MPD2    H2 4508   4.305   1.305  11.093  0.4312  2.2612 -0.7404
  299MPD2    H3 4509   4.141   1.134  11.102  0.4308 -1.3223  0.5408
  299MPD2     N 4510   4.117   1.114  10.646  0.0598  0.0743 -0.0225
  299MPD2    H5 4511   4.055   1.035  10.663  0.1599  0.4494  2.0721
  299MPD2    N1 4512   4.357   1.457  10.902 -0.1176  0.1812  0.3449
  299MPD2    H7 4513   4.367   1.500  10.993  4.6633 -0.5151  0.1321
  300TMC3    C1 4514   4.084   1.058  10.419  0.2944 -0.0677  0.0041
  300TMC3    C2 4515   4.062   1.123  10.301  0.4303 -0.6225 -0.2512
  300TMC3    C3 4516   3.937   1.128  10.247  0.4117 -0.5439 -0.3267
  300TMC3    C4 4517   3.984   0.985  10.466  0.0203  1.0546  0.5304
  300TMC3    C5 4518   3.858   0.998  10.423 -0.2668  0.4499  0.3962
  300TMC3    C6 4519   3.831   1.069  10.314 -0.0564  0.8752 -0.5781
  300TMC3     C 4520   4.167   1.126  10.517 -0.2424 -0.4412 -0.3931
  300TMC3     O 4521   4.257   1.199  10.475  0.0283  0.0907  0.6138
  300TMC3     H 4522   4.140   1.190  10.265 -0.6075  1.0709  0.6728
  300TMC3    H1 4523   4.000   0.904  10.537 -1.3323  0.4594  0.1654
  300TMC3    H2 4524   3.731   1.086  10.277  0.2734 -0.8337 -2.2926
  300TMC3    C7 4525   3.757   0.965  10.518  0.0020 -0.4441 -0.5468
  300TMC3    C8 4526   3.908   1.245  10.163 -0.3203  0.3505  0.0801
  300TMC3    O1 4527   3.769   0.861  10.580 -0.0482 -0.0522  0.1093
  300TMC3    O2 4528   3.986   1.337  10.163  0.2800 -0.0904  0.1589
  301MPD2     C 4529   0.922   2.908   1.133  0.9232 -0.5310 -0.0509
  301MPD2    C1 4530   0.798   2.900   1.085 -0.2506  0.3930 -0.3869
  301MPD2    C2 4531   0.761   2.813   0.988 -0.3469  0.1642 -0.0312
  301MPD2    C3 4532   0.863   2.740   0.932  0.1491  0.0876  0.4004
  301MPD2    C4 4533   0.994   2.748   0.980 -0.1144  0.5443  0.4366
  301MPD2    C5 4534   1.023   2.829   1.081 -0.5733  0.2727  0.0917
  301MPD2     H 4535   0.663   2.815   0.943 -0.4213 -2.6238  0.0138
  301MPD2    H1 4536   1.072   2.685   0.939  0.2619 -0.4223  2.6322
  301MPD2    H2 4537   0.963   2.982   1.202  2.3185 -0.0418 -1.4042
  301MPD2    H3 4538   1.123   2.826   1.122 -0.9517 -0.7011  0.9315
  301MPD2     N 4539   0.830   2.657   0.824  1.1391 -0.4531  0.4198
  301MPD2    H5 4540   0.731   2.651   0.803  1.2696  3.0717 -1.1699
  301MPD2    N1 4541   0.695   2.989   1.134  0.0444  0.3255  0.7022
  301MPD2    H7 4542   0.600   2.967   1.108 -1.0609  2.9036  2.5681
  302TMC3    C1 4543   0.847   2.479   0.679 -0.8600 -0.5833  0.7182
  302TMC3    C2 4544   0.894   2.358   0.668  0.0539 -0.2625  0.4169
  302TMC3    C3 4545   0.838   2.272   0.573 -0.0292  0.2161  0.1561
  302TMC3    C4 4546   0.748   2.529   0.601  0.4242 -0.6795 -0.1192
  302TMC3    C5 4547   0.700   2.446   0.500 -0.4513  0.5560 -0.1264
  302TMC3    C6 4548   0.748   2.321   0.479 -0.6404  0.0082  0.0249
  302TMC3     C 4549   0.911   2.564   0.773  0.1801  0.6451 -0.6646
  302TMC3     O 4550   1.024   2.517   0.796  0.3874 -1.1122 -0.2504
  302TMC3     H 4551   0.967   2.318   0.738  0.2488 -1.1641 -0.2926
  302TMC3    H1 4552   0.712   2.631   0.605 -3.5050 -2.1561  2.2251
  302TMC3    H2 4553   0.709   2.250   0.407  1.4663  0.0433 -1.1432
  302TMC3    C7 4554   0.610   2.503   0.404  0.0656  0.4519 -0.3337
  302TMC3    C8 4555   0.911   2.147   0.539  0.0161 -0.6168 -0.1478
  302TMC3    O1 4556   0.620   2.453   0.289 -0.3751  0.0243 -1.0514
  302TMC3    O2 4557   0.990   2.097   0.619  0.8703  1.1237  0.4169
  303MPD2     C 4558   1.890   0.857  10.348  0.0711  0.2262 -0.9398
  303MPD2    C1 4559   1.798   0.756  10.351 -0.3928  0.0094 -0.3271
  303MPD2    C2 4560   1.755   0.699  10.226  0.4979 -0.3692  0.2316
  303MPD2    C3 4561   1.808   0.742  10.102  1.0199  0.0332  0.4010
  303MPD2    C4 4562   1.903   0.846  10.109 -0.2170  0.2537 -0.3989
  303MPD2    C5 4563   1.941   0.903  10.228 -0.0649 -0.3344 -0.5393
  303MPD2     H 4564   1.665   0.639  10.225 -0.7444  1.4772 -0.3408
  303MPD2    H1 4565   1.952   0.884  10.021  1.3441 -0.5988  0.1001
  303MPD2    H2 4566   1.925   0.913  10.434 -0.1013  1.4674 -1.6708
  303MPD2    H3 4567   2.012   0.985  10.223  0.0844 -0.4257  0.0611
  303MPD2     N 4568   1.770   0.693   9.973 -0.0700 -0.0160 -0.3612
  303MPD2    H5 4569   1.829   0.716   9.894  1.3089  0.8925  0.9402
  303MPD2    N1 4570   1.754   0.732  10.483  0.4259 -0.8500  0.1958
  303MPD2    H7 4571   1.797   0.785  10.558 -0.8986 -1.6659  1.5214
  304TMC3    C1 4572   1.641   0.598  10.653 -0.0843  0.1775 -0.7314
  304TMC3    C2 4573   1.596   0.712  10.718  0.0358  0.0022  0.5902
  304TMC3    C3 4574   1.518   0.700  10.831  0.3410  0.2415 -0.3332
  304TMC3    C4 4575   1.594   0.474  10.681  0.8559  0.0645 -0.1330
  304TMC3    C5 4576   1.505   0.465  10.789 -0.1740  0.2689  0.6264
  304TMC3    C6 4577   1.473   0.573  10.869  0.4497 -0.1185  0.7385
  304TMC3     C 4578   1.676   0.620  10.513 -0.5126  1.2127 -0.0351
  304TMC3     O 4579   1.616   0.544  10.436 -0.5549  0.0405  0.3032
  304TMC3     H 4580   1.614   0.812  10.681  0.0494 -0.4274 -0.5722
  304TMC3    H1 4581   1.619   0.390  10.617  0.6864 -0.9666  1.1485
  304TMC3    H2 4582   1.404   0.553  10.949  0.6002 -1.9799  0.4041
  304TMC3    C7 4583   1.393   0.385  10.763  0.2514  0.6881  0.6942
  304TMC3    C8 4584   1.415   0.796  10.818 -0.5317  0.0719  0.1471
  304TMC3    O1 4585   1.283   0.431  10.789 -0.1687  0.3691 -0.0570
  304TMC3    O2 4586   1.444   0.915  10.804  0.6193  0.1004  0.6819
  305MPD2     C 4587   4.675   3.013  13.697 -0.5656  0.2624  0.6329
  305MPD2    C1 4588   4.633   2.888  13.733  0.0285  0.2829 -0.0862
  305MPD2    C2 4589   4.547   2.822  13.648 -0.0201 -0.7646 -0.0531
  305MPD2    C3 4590   4.516   2.880  13.527 -0.4230 -0.5097 -0.2531
  305MPD2    C4 4591   4.564   3.003  13.488 -0.2204 -0.1415 -0.5472
  305MPD2    C5 4592   4.644   3.070  13.577  0.5573 -0.0437 -0.6307
  305MPD2     H 4593   4.531   2.717  13.667  0.4988 -1.0697 -1.3093
  305MPD2    H1 4594   4.537   3.059  13.400  1.2041  2.1734  0.4788
  305MPD2    H2 4595   0.027   3.068  13.756 -0.4535  0.1231  0.6249
  305MPD2    H3 4596   4.673   3.171  13.552 -1.1624  0.6155  0.0193
  305MPD2     N 4597   4.440   2.812  13.426  0.1632  0.3520 -0.0182
  305MPD2    H5 4598   4.413   2.867  13.345 -0.2517  0.5107  0.2288
  305MPD2    N1 4599   4.669   2.840  13.862 -0.5541  0.3635  0.5428
  305MPD2    H7 4600   0.014   2.898  13.913  0.8035 -1.4722  0.9012
  306TMC3    C1 4601   4.649   2.732  14.068  0.7044 -0.0645  0.2914
  306TMC3    C2 4602   4.645   2.614  14.137 -1.1681 -0.0587 -0.3855
  306TMC3    C3 4603   4.644   2.626  14.270  0.2539 -1.1010  0.2184
  306TMC3    C4 4604   4.658   2.853  14.126 -0.2549  0.2437 -0.0754
  306TMC3    C5 4605   4.680   2.859  14.260 -0.2422  0.5773 -0.9128
  306TMC3    C6 4606   4.685   2.740  14.337  1.1241 -0.1269 -0.1343
  306TMC3     C 4607   4.641   2.723  13.921  0.1728  0.0860 -0.4494
  306TMC3     O 4608   4.569   2.632  13.886  0.5933 -0.1665  0.2175
  306TMC3     H 4609   4.619   2.525  14.082  0.7035 -0.6368 -0.3466
  306TMC3    H1 4610   4.667   2.947  14.072 -0.0416  1.1372  1.5246
  306TMC3    H2 4611   4.715   2.733  14.441 -0.2267 -2.4031  0.1024
  306TMC3    C7 4612   4.667   2.984  14.335 -0.0456 -0.0214  0.1729
  306TMC3    C8 4613   4.642   2.504  14.352 -0.6460  0.4539 -0.2066
  306TMC3    O1 4614   4.617   3.080  14.278 -0.1570 -1.0087  0.2142
  306TMC3    O2 4615   4.673   2.401  14.289  0.0374 -0.6598  0.1249
  307MPD2     C 4616   2.501   0.179   0.041 -0.2670  0.0469  0.9553
  307MPD2    C1 4617   2.434   0.299   0.025 -0.1032 -0.2937  0.2127
  307MPD2    C2 4618   2.324   0.328   0.096  0.4757 -0.7201 -0.0196
  307MPD2    C3 4619   2.260   0.231   0.178 -0.4992 -0.3066 -0.8518
  307MPD2    C4 4620   2.317   0.109   0.189 -0.1438 -0.3854 -0.5622
  307MPD2    C5 4621   2.434   0.082   0.117 -0.2195  0.7390 -0.2256
  307MPD2     H 4622   2.283   0.428   0.082  1.0455 -0.3094  1.2775
  307MPD2    H1 4623   2.276   0.031   0.251 -0.0330 -0.2111 -0.2675
  307MPD2    H2 4624   2.598   0.157  17.683 -1.0296 -1.5846  0.1077
  307MPD2    H3 4625   2.481   4.706   0.131 -0.0304  0.7581 -0.7139
  307MPD2     N 4626   2.138   0.265   0.245 -0.0813  0.0860  0.0377
  307MPD2    H5 4627   2.106   0.361   0.240 -1.7222 -0.3556  2.1055
  307MPD2    N1 4628   2.488   0.403  17.635 -0.5279  0.6119 -0.0633
  307MPD2    H7 4629   2.452   0.497  17.648 -1.0650  0.5710 -1.3135
  308TMC3    C1 4630   1.750   0.339   0.452 -0.2668 -0.4280 -0.2716
  308TMC3    C2 4631   1.803   0.458   0.499 -0.1873 -0.5819 -0.1222
  308TMC3    C3 4632   1.935   0.478   0.514  0.3584 -0.1705 -0.4489
  308TMC3    C4 4633   1.834   0.238   0.412 -0.6255  0.1421 -0.5493
  308TMC3    C5 4634   1.972   0.263   0.412 -0.3413  0.3646 -0.6405
  308TMC3    C6 4635   2.020   0.390   0.453  0.2546  0.5847 -0.3883
  308TMC3     C 4636   1.610   0.319   0.428  0.8080 -0.2008 -0.4042
  308TMC3     O 4637   1.565   0.205   0.444  0.6543  0.0510  0.1973
  308TMC3     H 4638   1.732   0.528   0.542  0.3175  0.3252 -0.7732
  308TMC3    H1 4639   1.800   0.138   0.387 -0.2512 -0.6103  1.9694
  308TMC3    H2 4640   2.125   0.417   0.452  0.6372 -0.7576  1.1147
  308TMC3    C7 4641   2.058   0.181   0.326  0.8960 -0.3356  0.2856
  308TMC3    C8 4642   1.983   0.614   0.540 -0.7862 -0.1554  0.6865
  308TMC3    O1 4643   2.061   0.059   0.325  0.0167 -0.4412  0.1007
  308TMC3    O2 4644   2.071   0.627   0.617  1.1392  0.0592 -0.0287
  309MPD2     C 4645   1.584   1.665  17.021 -0.0394 -0.1188 -0.1849
  309MPD2    C1 4646   1.498   1.684  16.917 -0.2992  0.1168 -0.3494
  309MPD2    C2 4647   1.359   1.679  16.933  0.6890 -0.1002  0.3916
  309MPD2    C3 4648   1.305   1.640  17.055  0.7513  0.5564 -0.5563
  309MPD2    C4 4649   1.394   1.631  17.158  0.0318  0.8737  0.3672
  309MPD2    C5 4650   1.529   1.636  17.142 -0.2968  0.1657 -0.1405
  309MPD2     H 4651   1.297   1.689  16.844 -0.5256  0.2721  1.2937
  309MPD2    H1 4652   1.348   1.604  17.252  0.5311 -4.2771 -0.8285
  309MPD2    H2 4653   1.692   1.674  17.013  0.2915 -0.8188  3.4158
  309MPD2    H3 4654   1.601   1.628  17.222  0.2635  0.2625 -0.6314
  309MPD2     N 4655   1.172   1.621  17.091 -0.5328  0.6264 -0.0100
  309MPD2    H5 4656   1.161   1.568  17.177 -2.4746 -1.0214 -1.2915
  309MPD2    N1 4657   1.552   1.710  16.787  0.2813 -0.4632 -0.1825
  309MPD2    H7 4658   1.487   1.741  16.714 -1.4743 -1.2236  1.0585
  310TMC3    C1 4659   1.705   1.743  16.608 -0.7602  0.0853 -0.0695
  310TMC3    C2 4660   1.609   1.784  16.524 -1.2482  0.1960  0.1702
  310TMC3    C3 4661   1.630   1.777  16.390  0.0322  0.2457 -0.2164
  310TMC3    C4 4662   1.824   1.703  16.551 -0.0838 -0.5038 -0.0140
  310TMC3    C5 4663   1.849   1.703  16.419  0.0739  0.4390  0.0870
  310TMC3    C6 4664   1.748   1.736  16.333 -0.9268  0.3481  0.1750
  310TMC3     C 4665   1.681   1.704  16.743  0.0881  0.5997 -0.4813
  310TMC3     O 4666   1.783   1.690  16.807  0.3025  0.5202 -0.3552
  310TMC3     H 4667   1.516   1.824  16.562 -1.0030  0.2516  0.7001
  310TMC3    H1 4668   1.908   1.671  16.612  0.0509 -1.6705 -0.8033
  310TMC3    H2 4669   1.753   1.712  16.227 -1.8665 -0.3523  0.2870
  310TMC3    C7 4670   1.959   1.614  16.388  0.3359 -0.6108 -0.3232
  310TMC3    C8 4671   1.536   1.843  16.309  0.4817 -0.2834  0.7270
  310TMC3    O1 4672   2.002   1.535  16.473 -0.5065 -0.0871  0.6210
  310TMC3    O2 4673   1.421   1.844  16.349  0.3609  0.0008 -0.0522
  311MPD2     C 4674   3.402   2.283  12.972  0.2104 -0.0711 -0.3005
  311MPD2    C1 4675   3.368   2.397  12.909 -0.4285 -0.2583  0.5844
  311MPD2    C2 4676   3.262   2.472  12.959  0.2361  0.7377  0.2150
  311MPD2    C3 4677   3.198   2.441  13.077  0.6701  0.1908 -0.0965
  311MPD2    C4 4678   3.239   2.328  13.136 -0.0390 -0.1299  0.4937
  311MPD2    C5 4679   3.340   2.259  13.089  0.2402 -0.7234  0.8343
  311MPD2     H 4680   3.231   2.552  12.893 -0.0815 -0.4424 -1.0611
  311MPD2    H1 4681   3.200   2.288  13.229 -0.0092 -3.5548 -1.0053
  311MPD2    H2 4682   3.488   2.225  12.941  0.0427 -0.9676  0.8999
  311MPD2    H3 4683   3.372   2.177  13.151 -0.7364 -0.8546  1.1545
  311MPD2     N 4684   3.084   2.518  13.114  0.0122  0.4188  0.2851
  311MPD2    H5 4685   3.046   2.582  13.045  2.0860 -0.6533 -1.8433
  311MPD2    N1 4686   3.451   2.451  12.807 -0.5156 -0.1642 -0.2087
  311MPD2    H7 4687   3.436   2.543  12.766  1.0316 -0.9723 -2.6265
  312TMC3    C1 4688   2.890   2.575  13.216  0.0235 -0.6077 -0.0791
  312TMC3    C2 4689   2.822   2.584  13.096 -0.0819 -0.0645  0.2353
  312TMC3    C3 4690   2.727   2.685  13.075 -0.1826  0.3635 -0.2892
  312TMC3    C4 4691   2.862   2.665  13.313 -0.6070 -0.9218 -0.3163
  312TMC3    C5 4692   2.768   2.764  13.295 -0.2967 -0.1299 -0.9974
  312TMC3    C6 4693   2.700   2.779  13.178  0.3144 -0.4282 -0.4048
  312TMC3     C 4694   3.016   2.503  13.230 -0.4834  0.2228  0.4516
  312TMC3     O 4695   3.041   2.439  13.330  0.0981 -0.0101  0.2216
  312TMC3     H 4696   2.834   2.503  13.025  0.1178 -2.5095  3.0866
  312TMC3    H1 4697   2.908   2.656  13.410  0.6735  1.9542 -0.6638
  312TMC3    H2 4698   2.624   2.856  13.166  1.8694  1.2065  0.2846
  312TMC3    C7 4699   2.718   2.832  13.415  0.1869 -0.2090 -1.0312
  312TMC3    C8 4700   2.636   2.659  12.967 -0.0751  0.0147  0.6858
  312TMC3    O1 4701   2.608   2.888  13.409 -0.4948  0.5067  0.3010
  312TMC3    O2 4702   2.603   2.542  12.945 -0.1485 -1.0237  0.4621
  313MPD2     C 4703   3.372   2.023  10.135  0.6151  0.0184  0.0347
  313MPD2    C1 4704   3.382   1.906  10.213 -0.0457  0.2635  0.5230
  313MPD2    C2 4705   3.364   1.789  10.149  0.3123 -0.2142 -0.2943
  313MPD2    C3 4706   3.321   1.780  10.016 -0.2208 -0.5644  0.1975
  313MPD2    C4 4707   3.311   1.900   9.935  0.1676 -0.0095 -0.1365
  313MPD2    C5 4708   3.322   2.018  10.004  0.6893  0.5924 -0.0750
  313MPD2     H 4709   3.364   1.693  10.199 -0.1011 -0.2538 -0.3694
  313MPD2    H1 4710   3.288   1.904   9.829 -0.4870 -1.2434 -0.0438
  313MPD2    H2 4711   3.383   2.120  10.183  0.6808  1.1642 -2.2647
  313MPD2    H3 4712   3.317   2.117   9.960 -0.4482 -0.1826 -1.6498
  313MPD2     N 4713   3.288   1.652   9.964  0.4816  0.2250  0.3862
  313MPD2    H5 4714   3.299   1.571  10.024 -1.6024  0.5939  1.2546
  313MPD2    N1 4715   3.416   1.900  10.350 -0.5788  0.0579 -0.0784
  313MPD2    H7 4716   3.432   1.809  10.390  1.6797  0.4203 -0.1672
  314TMC3    C1 4717   3.406   1.969  10.570 -0.6527 -0.9134 -0.0319
  314TMC3    C2 4718   3.430   2.084  10.646  0.0563 -0.4008  0.3160
  314TMC3    C3 4719   3.325   2.111  10.732  0.3684  0.0307  1.0210
  314TMC3    C4 4720   3.290   1.897  10.583  0.5902  0.0354 -0.6338
  314TMC3    C5 4721   3.182   1.928  10.662  0.3621  0.6102 -0.2998
  314TMC3    C6 4722   3.205   2.034  10.746  0.3706  0.6350  0.2177
  314TMC3     C 4723   3.435   2.008  10.433  0.1481 -0.1691  0.5174
  314TMC3     O 4724   3.435   2.131  10.418  0.4900  0.5038  0.0218
  314TMC3     H 4725   3.507   2.159  10.627  0.3912 -0.3582  1.8401
  314TMC3    H1 4726   3.279   1.803  10.529 -1.4208  0.4348 -0.9202
  314TMC3    H2 4727   3.133   2.063  10.821 -0.1047 -1.8015  0.7185
  314TMC3    C7 4728   3.059   1.918  10.592 -0.3681  0.3707  0.4993
  314TMC3    C8 4729   3.346   2.205  10.837 -0.1976 -0.4981  0.1973
  314TMC3    O1 4730   2.953   1.898  10.653  0.3044  0.3440  0.1203
  314TMC3    O2 4731   3.260   2.291  10.857  0.1952  0.1670  0.2172
  315MPD2     C 4732   2.195   1.534   0.079 -0.4332  1.1482  0.3411
  315MPD2    C1 4733   2.313   1.471   0.109 -0.2290 -0.3869  0.5843
  315MPD2    C2 4734   2.425   1.538   0.078  0.0166  0.4774 -0.3078
  315MPD2    C3 4735   2.428   1.668   0.033  0.0634  0.0095 -0.2064
  315MPD2    C4 4736   2.310   1.735   0.018 -0.5092  0.1147 -0.2642
  315MPD2    C5 4737   2.196   1.663   0.040  0.5027  0.7170 -0.0603
  315MPD2     H 4738   2.517   1.482   0.090  0.0090  0.2021 -1.5637
  315MPD2    H1 4739   2.306   1.837  17.665 -1.5674 -0.0223 -0.5216
  315MPD2    H2 4740   2.100   1.483   0.090  0.8385 -1.0063  1.2813
  315MPD2    H3 4741   2.107   1.714   0.006 -0.2706  0.2621  1.2680
  315MPD2     N 4742   2.549   1.721   0.001  0.2650  0.1461  0.2993
  315MPD2    H5 4743   2.629   1.664   0.028  1.4859  1.5945 -0.2439
  315MPD2    N1 4744   2.326   1.339   0.155  0.0695 -0.0401  0.2668
  315MPD2    H7 4745   2.417   1.294   0.150  0.8591  1.4056  1.5571
  316TMC3    C1 4746   2.714   1.881  17.615 -0.4376  0.1323 -0.3441
  316TMC3    C2 4747   2.797   1.816   0.019  1.3812 -0.7310 -0.6955
  316TMC3    C3 4748   2.932   1.847   0.012 -0.2526  0.5937  0.3056
  316TMC3    C4 4749   2.758   1.967  17.522 -0.6070  1.1466 -0.1270
  316TMC3    C5 4750   2.894   1.977  17.515 -0.1415  0.2088  0.2809
  316TMC3    C6 4751   2.984   1.923  17.599  0.2334  0.0498  0.1380
  316TMC3     C 4752   2.569   1.846  17.616  0.0229  0.4508  0.5595
  316TMC3     O 4753   2.493   1.927  17.562 -0.4775  0.0138  0.2593
  316TMC3     H 4754   2.753   1.756   0.098  1.6033  0.2462  0.1666
  316TMC3    H1 4755   2.686   2.020  17.461 -3.0263 -0.9607  0.8828
  316TMC3    H2 4756   3.090   1.937  17.585  0.0214  0.9257 -0.5591
  316TMC3    C7 4757   2.933   2.019  17.385 -0.4506 -0.1861  0.3741
  316TMC3    C8 4758   3.023   1.801   0.117  0.2565  0.4952 -0.2448
  316TMC3    O1 4759   3.050   2.049  17.380  0.1487 -0.5350 -0.5497
  316TMC3    O2 4760   3.116   1.873   0.149 -0.4020  0.8810  0.5742
  317MPD2     C 4761   0.008   4.304  12.432  1.0735  0.2289 -0.5295
  317MPD2    C1 4762   0.079   4.200  12.487  0.1359 -0.0695 -0.4781
  317MPD2    C2 4763   0.092   4.190  12.623 -0.3013 -0.9433  0.4670
  317MPD2    C3 4764   0.027   4.273  12.713  0.3832  0.2845  0.4161
  317MPD2    C4 4765   4.679   4.379  12.651  0.7180  1.0065  0.2161
  317MPD2    C5 4766   4.662   4.383  12.514  0.3280 -0.6743  0.6657
  317MPD2     H 4767   0.155   4.113  12.664  2.2770 -0.7342 -3.0749
  317MPD2    H1 4768   4.630   4.451  12.715  0.6933  3.1955 -2.2566
  317MPD2    H2 4769   4.700   4.310  12.328  0.4152  2.4619 -0.2216
  317MPD2    H3 4770   4.592   4.455  12.473  0.2219  1.2761  4.2736
  317MPD2     N 4771   0.051   4.260  12.852 -0.1804  0.3503 -0.0584
  317MPD2    H5 4772   0.112   4.183  12.878 -0.4620  0.0571 -0.2669
  317MPD2    N1 4773   0.146   4.109  12.410 -0.3563  0.3487  0.3091
  317MPD2    H7 4774   0.211   4.048  12.458 -2.1531 -2.1959 -0.4684
  318TMC3    C1 4775   0.053   4.307  13.085 -0.6470  0.2984 -0.1160
  318TMC3    C2 4776   0.021   4.180  13.127  0.8187 -0.5969  0.0851
  318TMC3    C3 4777   0.024   4.152  13.260 -0.6966  0.0297 -0.7549
  318TMC3    C4 4778   0.058   4.413  13.170 -0.5819 -0.1169 -0.0645
  318TMC3    C5 4779   0.074   4.377  13.298 -0.1062 -0.9587 -0.0825
  318TMC3    C6 4780   0.053   4.252  13.350 -0.5309  0.3618  0.3480
  318TMC3     C 4781   0.000   4.347  12.950  0.1294  0.2273 -0.0141
  318TMC3     O 4782   4.670   4.456  12.939  0.1722 -0.3969 -0.0436
  318TMC3     H 4783   4.713   4.101  13.060  2.5027 -2.1279  1.1727
  318TMC3    H1 4784   0.062   4.518  13.143  3.6623 -0.1654  0.3831
  318TMC3    H2 4785   0.068   4.233  13.456  0.8745 -0.6762 -0.0313
  318TMC3    C7 4786   0.149   4.472  13.375  0.4790  0.2907 -0.3008
  318TMC3    C8 4787   4.681   4.032  13.324 -0.0379  0.0953 -0.1806
  318TMC3    O1 4788   0.123   4.589  13.374  0.0206 -0.4365 -0.6275
  318TMC3    O2 4789   4.682   4.023  13.447 -0.3297  0.4255  0.1531
  319MPD2     C 4790   0.924   1.016  16.178 -0.4640 -0.2201  0.1111
  319MPD2    C1 4791   0.848   1.113  16.229 -0.4786 -1.0816  0.6906
  319MPD2    C2 4792   0.708   1.091  16.255 -0.2176  0.0519  0.3861
  319MPD2    C3 4793   0.657   0.965  16.236 -0.3733  0.6781  0.7794
  319MPD2    C4 4794   0.745   0.870  16.191  0.2208 -0.3048 -0.8441
  319MPD2    C5 4795   0.869   0.895  16.161 -0.4796  0.3712 -0.7364
  319MPD2     H 4796   0.646   1.172  16.294 -0.6176 -0.3076  0.4951
  319MPD2    H1 4797   0.706   0.769  16.180 -1.6921  0.2433  1.0037
  319MPD2    H2 4798   1.028   1.029  16.150 -0.4770  1.5070  0.7900
  319MPD2    H3 4799   0.924   0.806  16.130 -0.7222  0.7275 -2.1759
  319MPD2     N 4800   0.522   0.926  16.262 -0.6145 -0.5859 -0.1337
  319MPD2    H5 4801   0.497   0.834  16.226  1.1426 -1.9824  2.2074
  319MPD2    N1 4802   0.888   1.249  16.252  0.9377 -0.3196  0.8233
  319MPD2    H7 4803   0.829   1.307  16.311 -1.0322 -0.4747 -1.0036
  320TMC3    C1 4804   0.285   0.960  16.287 -0.4594  0.6719 -0.7133
  320TMC3    C2 4805   0.185   1.052  16.281  0.4069  0.3025 -0.4195
  320TMC3    C3 4806   0.068   1.018  16.219  0.2207 -0.0904  0.2284
  320TMC3    C4 4807   0.268   0.828  16.249 -0.0522  1.0286  0.0469
  320TMC3    C5 4808   0.140   0.795  16.202  0.1652 -0.0912  0.6467
  320TMC3    C6 4809   0.042   0.891  16.183 -0.8431 -0.5926  0.2048
  320TMC3     C 4810   0.424   1.007  16.314  0.3196  0.7144 -0.4382
  320TMC3     O 4811   0.434   1.122  16.346 -0.2939  0.2717 -0.0324
  320TMC3     H 4812   0.207   1.154  16.309 -1.2190  0.8502 -1.1175
  320TMC3    H1 4813   0.336   0.747  16.276  0.6631  1.6637  0.1590
  320TMC3    H2 4814   4.672   0.875  16.126 -1.5880  0.1712  1.1895
  320TMC3    C7 4815   0.102   0.662  16.151  0.6103 -0.7229 -0.0044
  320TMC3    C8 4816   4.706   1.130  16.183 -0.8344  0.1510  0.2031
  320TMC3    O1 4817   0.192   0.594  16.099 -0.3790 -0.0222 -0.3527
  320TMC3    O2 4818   0.048   1.236  16.186  0.5127  0.0634 -0.0732
  321TMC3    C1 4819   1.023   1.439  16.257 -0.2624 -0.0323 -0.0954
  321TMC3    C2 4820   1.008   1.450  16.395  0.1345  0.5773 -0.2420
  321TMC3    C3 4821   1.080   1.548  16.456  0.0918  0.6223 -0.8145
  321TMC3    C4 4822   1.120   1.513  16.190 -0.4313 -0.0852  0.1945
  321TMC3    C5 4823   1.208   1.594  16.255 -0.7684  0.3049 -0.1033
  321TMC3    C6 4824   1.179   1.621  16.388  0.7168  0.0603 -0.2748
  321TMC3     C 4825   1.003   1.304  16.209 -0.3549 -0.0473  0.1500
  321TMC3     O 4826   1.083   1.255  16.134 -0.1690 -0.2388 -1.0032
  321TMC3     H 4827   0.938   1.399  16.460  0.9380 -0.8502 -0.4854
  321TMC3    H1 4828   1.134   1.481  16.088  1.1280 -0.8276  0.6372
  321TMC3    H2 4829   1.245   1.692  16.436  1.0398  1.1142 -2.2728
  321TMC3    C7 4830   1.335   1.529  16.246 -0.4635 -0.0861  0.0298
  321TMC3    C8 4831   1.126   1.524  16.590  0.5669  0.1059 -0.3032
  321TMC3    O1 4832   1.371   1.491  16.134 -0.0015 -0.0253 -0.0441
  321TMC3    O2 4833   1.240   1.556  16.616 -0.7457 -0.3295  0.1351
  322MPD2     C 4834   4.139   1.609  13.120  0.5899 -0.3056  0.5923
  322MPD2    C1 4835   4.170   1.599  13.251  0.4909 -0.0077 -0.4107
  322MPD2    C2 4836   4.232   1.480  13.288 -0.4356 -0.1961  0.0178
  322MPD2    C3 4837   4.237   1.375  13.195 -0.7771  0.0999  0.0640
  322MPD2    C4 4838   4.188   1.385  13.070  0.3266 -0.4086 -0.4295
  322MPD2    C5 4839   4.130   1.503  13.032 -0.5234 -0.6463 -0.0418
  322MPD2     H 4840   4.261   1.470  13.392  2.3507 -0.7304 -0.8011
  322MPD2    H1 4841   4.193   1.304  12.998  1.8667 -0.0206 -0.7519
  322MPD2    H2 4842   4.090   1.698  13.083  2.1265  0.8372  1.2836
  322MPD2    H3 4843   4.075   1.513  12.939  3.5124  1.6893 -2.2156
  322MPD2     N 4844   4.302   1.259  13.248  0.1056  0.1330  0.1462
  322MPD2    H5 4845   4.322   1.259  13.347  2.2039  0.9589 -0.2987
  322MPD2    N1 4846   4.162   1.706  13.339  0.0904 -0.1436  0.1324
  322MPD2    H7 4847   4.138   1.793  13.292 -1.4425 -0.1767  0.8529
  323TMC3    C1 4848   4.144   1.830  13.534  0.0126  0.0671  0.5889
  323TMC3    C2 4849   4.139   1.940  13.452  0.1441  0.8742 -0.4846
  323TMC3    C3 4850   4.132   2.059  13.522  0.9959 -0.5610  0.7271
  323TMC3    C4 4851   4.142   1.831  13.672 -0.5657 -1.1594  0.3093
  323TMC3    C5 4852   4.137   1.951  13.729 -0.0619  0.2575 -0.1752
  323TMC3    C6 4853   4.120   2.066  13.658  0.0454  0.5486  0.0181
  323TMC3     C 4854   4.167   1.704  13.476 -0.1217  0.1394  0.0340
  323TMC3     O 4855   4.174   1.603  13.544 -0.3066 -0.0667 -0.0607
  323TMC3     H 4856   4.125   1.936  13.344 -0.9092 -0.6486 -0.2936
  323TMC3    H1 4857   4.144   1.735  13.722 -1.0488 -0.1821  2.1911
  323TMC3    H2 4858   4.105   2.164  13.704  0.9337  0.0703  1.3270
  323TMC3    C7 4859   4.203   1.960  13.851  0.1107 -0.2073 -0.8354
  323TMC3    C8 4860   4.252   2.141  13.495  0.1100 -0.0045 -0.1990
  323TMC3    O1 4861   4.198   1.864  13.926 -0.0216 -0.5783  0.3707
  323TMC3    O2 4862   4.322   2.187  13.586  0.2502 -0.1189 -0.2034
  324MPD2     C 4863   1.388   3.662  14.554  0.1637  0.0701  0.0490
  324MPD2    C1 4864   1.454   3.769  14.493 -0.3844 -0.2946  0.1291
  324MPD2    C2 4865   1.378   3.874  14.442 -0.0473 -0.0866  0.1413
  324MPD2    C3 4866   1.236   3.862  14.439 -0.1400 -0.2637  0.0118
  324MPD2    C4 4867   1.171   3.753  14.489  0.3663  0.2549 -0.4122
  324MPD2    C5 4868   1.249   3.657  14.549  0.4135  0.5746 -0.3611
  324MPD2     H 4869   1.435   3.950  14.389  0.5292 -0.0674  0.7951
  324MPD2    H1 4870   1.064   3.744  14.498  0.8264 -1.7416  3.2433
  324MPD2    H2 4871   1.438   3.581  14.606 -0.1672  0.5412  1.0927
  324MPD2    H3 4872   1.193   3.573  14.587  0.6447 -0.0059 -1.3139
  324MPD2     N 4873   1.154   3.964  14.392 -0.1677 -0.1109  0.3142
  324MPD2    H5 4874   1.053   3.953  14.399 -0.1169 -0.5912  0.2874
  324MPD2    N1 4875   1.591   3.772  14.470 -0.2536 -0.1939  0.7150
  324MPD2    H7 4876   1.634   3.862  14.448 -0.0216  0.0033  2.0015
  325TMC3    C1 4877   1.084   4.157  14.283  0.5117 -0.1733 -0.2255
  325TMC3    C2 4878   0.983   4.098  14.220 -0.2164  0.1603  0.2155
  325TMC3    C3 4879   0.899   4.175  14.144  0.0764 -1.2448 -0.1021
  325TMC3    C4 4880   1.108   4.289  14.269  0.1620 -0.0480 -0.1570
  325TMC3    C5 4881   1.022   4.367  14.196 -0.3134  0.1852  0.3328
  325TMC3    C6 4882   0.917   4.311  14.128 -0.6945 -0.1048  0.4665
  325TMC3     C 4883   1.197   4.084  14.341 -0.0594 -0.1268 -0.0789
  325TMC3     O 4884   1.307   4.125  14.314  0.2209  0.2404  0.0682
  325TMC3     H 4885   0.978   3.990  14.223 -0.9391  0.2365  2.1274
  325TMC3    H1 4886   1.191   4.334  14.322 -0.4156  0.3368  0.4232
  325TMC3    H2 4887   0.843   4.365  14.070 -0.1968  3.1660  2.8643
  325TMC3    C7 4888   1.031   4.507  14.232  0.4714 -0.1403  0.6978
  325TMC3    C8 4889   0.764   4.118  14.132 -0.5444  0.8897  0.7562
  325TMC3    O1 4890   1.142   4.560  14.249  0.3674 -0.1296 -0.2281
  325TMC3    O2 4891   0.764   3.999  14.153 -0.7631  0.0475 -0.6665
  326MPD2     C 4892   2.365   4.428  11.300  0.0506  0.0855 -0.3195
  326MPD2    C1 4893   2.412   4.352  11.196 -0.6306  0.2402 -0.4151
  326MPD2    C2 4894   2.541   4.386  11.146  0.5852  0.8575 -0.1208
  326MPD2    C3 4895   2.610   4.496  11.192 -0.4748  0.3010 -0.0204
  326MPD2    C4 4896   2.555   4.569  11.295  0.0724  0.2878  0.0676
  326MPD2    C5 4897   2.438   4.532  11.348 -0.1035  0.2532 -0.0522
  326MPD2     H 4898   2.583   4.329  11.065 -0.6916  1.8345 -1.4770
  326MPD2    H1 4899   2.604   4.655  11.338  4.0581 -0.8360 -2.2275
  326MPD2    H2 4900   2.262   4.409  11.328  0.3250 -2.1446 -0.7661
  326MPD2    H3 4901   2.406   4.590  11.433  2.5934 -1.6087  2.2395
  326MPD2     N 4902   2.734   4.545  11.140 -0.2693  0.6086 -0.7304
  326MPD2    H5 4903   2.784   4.620  11.185  0.2214 -1.3675  1.9645
  326MPD2    N1 4904   2.326   4.262  11.127 -0.0761  0.0253  0.3048
  326MPD2    H7 4905   2.225   4.262  11.140 -0.0729 -0.7197  0.3324
  327TMC3    C1 4906   2.287   4.113  10.944 -0.2466 -0.2028  1.4564
  327TMC3    C2 4907   2.193   4.207  10.896  0.0403 -0.3690 -0.3309
  327TMC3    C3 4908   2.190   4.238  10.766 -0.8221 -0.3747 -0.1530
  327TMC3    C4 4909   2.360   4.039  10.853 -0.2269 -0.0906  0.2054
  327TMC3    C5 4910   2.348   4.067  10.718  0.3682 -0.4040  0.1565
  327TMC3    C6 4911   2.257   4.160  10.673  0.1219  0.0223  0.2732
  327TMC3     C 4912   2.377   4.158  11.049  0.6057 -0.4377 -0.5746
  327TMC3     O 4913   2.496   4.128  11.033 -0.7351 -0.0942 -0.4488
  327TMC3     H 4914   2.125   4.251  10.968  1.3963  0.6742  0.3286
  327TMC3    H1 4915   2.425   3.959  10.885  1.1189  0.6702 -0.5833
  327TMC3    H2 4916   2.257   4.196  10.571  2.1406 -0.4794  0.0990
  327TMC3    C7 4917   2.475   4.072  10.640 -0.2134  0.1386 -0.4965
  327TMC3    C8 4918   2.192   4.374  10.725  0.8084  0.2795  0.0810
  327TMC3    O1 4919   2.479   4.050  10.521  0.1843 -0.0483  0.0127
  327TMC3    O2 4920   2.235   4.414  10.618 -0.2429 -0.2080  0.7723
  328MPD2     C 4921   0.229   4.262  17.146  0.4109  0.3886 -0.5641
  328MPD2    C1 4922   0.096   4.245  17.119  0.3383  0.1620  0.4267
  328MPD2    C2 4923   0.044   4.293  17.002  0.0559 -0.2631  0.0601
  328MPD2    C3 4924   0.126   4.364  16.915 -1.0252  0.9357  0.4822
  328MPD2    C4 4925   0.262   4.379  16.947 -0.3556 -0.1999 -0.1976
  328MPD2    C5 4926   0.312   4.323  17.055  0.0760 -0.1020 -0.0835
  328MPD2     H 4927   4.657   4.287  16.993  0.0475 -0.5246  0.3348
  328MPD2    H1 4928   0.333   4.427  16.880  2.8731  1.3883  4.3647
  328MPD2    H2 4929   0.277   4.216  17.232  0.6334  1.9263  0.1485
  328MPD2    H3 4930   0.417   4.342  17.077  0.2696 -1.8658  0.4672
  328MPD2     N 4931   0.072   4.412  16.791 -0.2354 -0.5335  0.1867
  328MPD2    H5 4932   0.136   4.472  16.739  1.9168 -1.2178  2.0633
  328MPD2    N1 4933   0.021   4.190  17.225 -0.1744  0.4100 -0.0351
  328MPD2    H7 4934   0.064   4.187  17.317  2.5177  0.7964 -1.2844
  329TMC3    C1 4935   4.550   4.119  17.346  0.5674  0.6254 -0.0200
  329TMC3    C2 4936   4.584   4.192  17.459 -0.2892  0.1179  0.3620
  329TMC3    C3 4937   4.513   4.179  17.573 -0.2096 -0.8575  0.3473
  329TMC3    C4 4938   4.448   4.030  17.340  0.0447  0.2299 -1.0033
  329TMC3    C5 4939   4.373   4.025  17.452 -0.1579  0.1381 -0.8446
  329TMC3    C6 4940   4.409   4.090  17.575 -0.0374  0.1701 -0.4165
  329TMC3     C 4941   4.610   4.160  17.217  0.4290  0.1255 -0.4240
  329TMC3     O 4942   4.535   4.145  17.122  0.3913  0.2040 -1.0682
  329TMC3     H 4943   4.649   4.278  17.447  3.1699 -2.7414 -1.4602
  329TMC3    H1 4944   4.417   3.989  17.244 -0.1242 -2.1255  0.0759
  329TMC3    H2 4945   4.338   4.100  17.656  2.0293 -0.1754  1.4272
  329TMC3    C7 4946   4.231   3.984  17.444  0.0763 -0.0670 -0.1806
  329TMC3    C8 4947   4.608   4.166  17.681 -0.3890  0.6472 -0.1040
  329TMC3    O1 4948   4.165   3.984  17.547 -0.2305 -0.2957 -0.4680
  329TMC3    O2 4949   0.007   4.162  17.658  0.1468  0.0838 -0.3166
  330TMC3    C1 4950   1.292   3.408   9.622  0.2065 -0.2027 -0.2190
  330TMC3    C2 4951   1.184   3.322   9.625 -0.7777  0.4152  1.1004
  330TMC3    C3 4952   1.195   3.187   9.651 -0.5475  0.3047 -0.2001
  330TMC3    C4 4953   1.420   3.360   9.637  0.2088 -0.2937  0.1612
  330TMC3    C5 4954   1.427   3.226   9.652  0.0707  0.4227 -0.5732
  330TMC3    C6 4955   1.323   3.132   9.664  0.2690 -0.0816 -0.0739
  330TMC3     C 4956   1.278   3.547   9.594 -0.1552 -0.2961 -0.3227
  330TMC3     O 4957   1.372   3.621   9.617 -0.6961  0.0232 -0.2357
  330TMC3     H 4958   1.086   3.361   9.601  0.3328  1.4170 -1.8003
  330TMC3    H1 4959   1.508   3.422   9.629  0.5503 -0.7107  0.6856
  330TMC3    H2 4960   1.339   3.025   9.661  1.3600  0.0659  0.5257
  330TMC3    C7 4961   1.561   3.179   9.691  0.7508  0.5892  0.0623
  330TMC3    C8 4962   1.089   3.098   9.599 -1.0108  0.0200  0.2111
  330TMC3    O1 4963   1.659   3.223   9.633  0.7018  0.3849  0.3683
  330TMC3    O2 4964   1.007   3.152   9.527 -0.0862  0.3300 -1.0640
  331MPD2     C 4965   0.514   2.591  11.706  0.5718  0.9882 -0.8014
  331MPD2    C1 4966   0.581   2.655  11.808  0.6531  0.2268 -0.0745
  331MPD2    C2 4967   0.676   2.583  11.874 -0.4434 -0.6014 -0.0041
  331MPD2    C3 4968   0.712   2.457  11.839  0.3322 -0.2619  0.6099
  331MPD2    C4 4969   0.646   2.398  11.738 -0.1826  0.2791 -0.5233
  331MPD2    C5 4970   0.550   2.464  11.668  0.3379 -0.6942 -0.6823
  331MPD2     H 4971   0.733   2.637  11.949  0.0621 -1.3380  0.1406
  331MPD2    H1 4972   0.679   2.307  11.691 -2.4141 -0.8141 -0.0028
  331MPD2    H2 4973   0.433   2.647  11.661  0.1882  0.7387 -0.4265
  331MPD2    H3 4974   0.508   2.417  11.580 -1.4994 -1.0406  0.3714
  331MPD2     N 4975   0.828   2.402  11.897 -0.5324  0.3590 -0.0214
  331MPD2    H5 4976   0.889   2.450  11.962 -0.2532 -2.0296  1.4815
  331MPD2    N1 4977   0.549   2.787  11.854 -0.1444 -0.0240 -0.4467
  331MPD2    H7 4978   0.473   2.831  11.802 -0.3805  0.3500  0.2114
  332TMC3    C1 4979   1.013   2.284  11.892  0.3585 -0.0636  0.6214
  332TMC3    C2 4980   1.059   2.408  11.875  0.3330  0.7431 -0.8587
  332TMC3    C3 4981   1.160   2.448  11.951  0.6471 -0.0484 -0.1108
  332TMC3    C4 4982   1.063   2.198  11.991  1.3790 -0.4458 -0.2060
  332TMC3    C5 4983   1.159   2.247  12.072 -0.1590 -1.1904 -0.2621
  332TMC3    C6 4984   1.216   2.372  12.055 -0.4507 -0.0029  0.6029
  332TMC3     C 4985   0.877   2.278  11.869 -0.2175 -0.3531  0.6097
  332TMC3     O 4986   0.809   2.177  11.858 -0.1257 -0.6065  0.2824
  332TMC3     H 4987   1.031   2.463  11.786 -0.8871  0.9281 -0.3654
  332TMC3    H1 4988   1.012   2.103  12.001 -2.3997  1.5961  0.1613
  332TMC3    H2 4989   1.294   2.409  12.120 -0.3212 -1.6269  1.3750
  332TMC3    C7 4990   1.232   2.146  12.140  0.2588  0.3491  0.0713
  332TMC3    C8 4991   1.239   2.563  11.908  0.7081  0.1133 -0.2446
  332TMC3    O1 4992   1.199   2.032  12.110  0.3275  0.4441 -0.4497
  332TMC3    O2 4993   1.332   2.592  11.985  0.3245 -0.0074  0.4727
  333MPD2     C 4994   1.001   2.910  11.058 -0.0140 -0.2149  0.4229
  333MPD2    C1 4995   1.087   2.839  10.980 -0.0637  1.1819 -0.1612
  333MPD2    C2 4996   1.084   2.703  11.009 -0.1123 -0.1564  0.0300
  333MPD2    C3 4997   1.008   2.638  11.104 -0.1939  0.3685 -1.0041
  333MPD2    C4 4998   0.933   2.716  11.183  0.5578 -0.3973 -0.4122
  333MPD2    C5 4999   0.922   2.851  11.155  0.4941 -0.5401 -0.6077
  333MPD2     H 5000   1.147   2.631  10.958 -3.5481 -2.4587 -0.9389
  333MPD2    H1 5001   0.860   2.677  11.253  0.4391 -0.6343 -0.6691
  333MPD2    H2 5002   0.988   3.017  11.045  0.0776 -0.0863  1.4034
  333MPD2    H3 5003   0.851   2.910  11.211  1.9353  2.5887 -2.1172
  333MPD2     N 5004   1.025   2.491  11.108 -0.0031  0.1987  0.3089
  333MPD2    H5 5005   1.095   2.446  11.051 -0.6255 -0.5397  0.1202
  333MPD2    N1 5006   1.175   2.893  10.887 -1.0177 -0.0045 -0.3797
  333MPD2    H7 5007   1.192   2.993  10.890  0.2619 -0.1569 -2.3912
  334TMC3    C1 5008   1.340   2.905  10.721  0.5580  0.6099 -0.4413
  334TMC3    C2 5009   1.438   2.834  10.656  0.2998 -0.4187 -0.4808
  334TMC3    C3 5010   1.536   2.907  10.594  0.4096 -0.1060 -0.1123
  334TMC3    C4 5011   1.325   3.042  10.711 -0.6868 -0.1455  0.0439
  334TMC3    C5 5012   1.427   3.107  10.641  1.0168 -0.3842 -0.6967
  334TMC3    C6 5013   1.541   3.043  10.583 -0.0851  0.0432  0.0321
  334TMC3     C 5014   1.243   2.826  10.791 -0.2837  0.7714  1.1352
  334TMC3     O 5015   1.230   2.711  10.747  0.2472  0.3868  0.4696
  334TMC3     H 5016   1.448   2.728  10.675 -1.7049 -0.9314 -2.2844
  334TMC3    H1 5017   1.240   3.099  10.745 -1.6601 -0.1143 -2.4204
  334TMC3    H2 5018   1.605   3.100  10.516 -0.5758  0.5803  0.0158
  334TMC3    C7 5019   1.427   3.255  10.653 -0.1147  0.5458  0.5402
  334TMC3    C8 5020   1.615   2.830  10.497 -0.1991  0.4002  0.7435
  334TMC3    O1 5021   1.362   3.296  10.753  0.5586  0.6787  0.6022
  334TMC3    O2 5022   1.567   2.727  10.451  0.1178 -0.1904 -0.3357
  335TMC3    C1 5023   0.828   4.510  17.634 -0.5942 -0.1981  0.6498
  335TMC3    C2 5024   0.792   4.449  17.519 -0.2764 -0.3568  0.1691
  335TMC3    C3 5025   0.809   4.521  17.403  0.0034  0.2318 -0.1058
  335TMC3    C4 5026   0.896   4.626  17.642 -0.2907 -0.3133  0.3653
  335TMC3    C5 5027   0.918   4.696  17.527  0.0164  0.4491 -0.1261
  335TMC3    C6 5028   0.858   4.653  17.411 -0.3659  0.1605 -0.6529
  335TMC3     C 5029   0.870   4.412   0.046 -0.1415  0.2919 -0.1516
  335TMC3     O 5030   0.793   4.320   0.065 -0.0564  0.2675  0.0342
  335TMC3     H 5031   0.761   4.345  17.516  0.6466 -0.5898 -1.5101
  335TMC3    H1 5032   0.948   4.657   0.047  1.5558  0.5146 -0.9811
  335TMC3    H2 5033   0.889   4.697  17.317 -0.4491 -0.4920 -0.9917
  335TMC3    C7 5034   1.056   0.019  17.517 -0.7995  0.7325  0.1367
  335TMC3    C8 5035   0.761   4.475  17.278 -0.8557 -0.5195  0.3617
  335TMC3    O1 5036   1.136   4.691  17.599 -0.1062  0.3164  0.6147
  335TMC3    O2 5037   0.756   4.549  17.184 -0.2667 -0.7396 -0.1082
  336MPD2     C 5038   0.580   2.178  15.932 -0.7975 -0.4819  0.0392
  336MPD2    C1 5039   0.486   2.113  15.854  0.6816  1.1782  0.2898
  336MPD2    C2 5040   0.488   1.978  15.855 -0.0305 -1.0114 -0.2307
  336MPD2    C3 5041   0.555   1.903  15.942  0.4631  0.3151 -0.3567
  336MPD2    C4 5042   0.643   1.966  16.029  0.1588  1.0609 -0.2657
  336MPD2    C5 5043   0.654   2.105  16.020 -0.7318  0.7871 -1.0341
  336MPD2     H 5044   0.418   1.934  15.785 -0.5472  1.2220 -1.1321
  336MPD2    H1 5045   0.704   1.924  16.108 -0.0246  2.2967  0.5325
  336MPD2    H2 5046   0.594   2.285  15.940  0.3497 -0.6400  0.1035
  336MPD2    H3 5047   0.714   2.168  16.085  0.5996 -0.7288 -0.8109
  336MPD2     N 5048   0.541   1.766  15.962  0.7064  0.2477 -0.1133
  336MPD2    H5 5049   0.581   1.741  16.052  1.0232 -0.3776 -0.4269
  336MPD2    N1 5050   0.404   2.181  15.769 -0.1478  0.4129 -0.5265
  336MPD2    H7 5051   0.320   2.130  15.742 -1.5065  1.4999  1.6690
  337TMC3    C1 5052   0.308   2.338  15.628  0.1243 -0.7286 -0.5887
  337TMC3    C2 5053   0.187   2.273  15.629 -0.4931 -0.4867  0.6488
  337TMC3    C3 5054   0.097   2.317  15.538  0.6122  0.3089  0.2379
  337TMC3    C4 5055   0.337   2.442  15.542 -0.0488  0.9444  0.0750
  337TMC3    C5 5056   0.243   2.484  15.453  0.3316 -0.3539 -0.3976
  337TMC3    C6 5057   0.115   2.425  15.454  0.6540  0.0607 -0.3774
  337TMC3     C 5058   0.413   2.314  15.725 -0.7946 -0.0466  0.7663
  337TMC3     O 5059   0.501   2.400  15.745 -0.4146  0.0805 -0.9794
  337TMC3     H 5060   0.167   2.185  15.689 -2.9065 -0.2593  0.1604
  337TMC3    H1 5061   0.437   2.484  15.546 -0.6197  2.3154  0.0857
  337TMC3    H2 5062   0.039   2.476  15.396  1.2255 -0.9830 -2.0460
  337TMC3    C7 5063   0.295   2.566  15.346  0.0308  0.1217 -0.5432
  337TMC3    C8 5064   4.686   2.257  15.535 -0.1836 -0.1780 -0.0791
  337TMC3    O1 5065   0.397   2.626  15.362 -0.2073 -0.3367 -0.0358
  337TMC3    O2 5066   4.662   2.186  15.631  0.7805  0.2514 -0.4039
  338MPD2     C 5067   1.076   1.577   0.737  0.3076  0.2009  0.3817
  338MPD2    C1 5068   1.015   1.548   0.615  0.6419 -0.0294  0.7326
  338MPD2    C2 5069   0.906   1.629   0.582  0.6246 -0.6769 -0.7526
  338MPD2    C3 5070   0.861   1.730   0.662  0.3704 -0.2693  0.1624
  338MPD2    C4 5071   0.924   1.758   0.782  0.3359 -0.3413  0.1500
  338MPD2    C5 5072   1.034   1.678   0.821  0.3648  0.0449 -0.0754
  338MPD2     H 5073   0.868   1.602   0.484  1.4714  0.6061 -1.4242
  338MPD2    H1 5074   0.896   1.835   0.854 -0.4185 -0.1148 -0.3831
  338MPD2    H2 5075   1.161   1.522   0.777  0.5649 -0.7833 -1.5062
  338MPD2    H3 5076   1.092   1.702   0.909 -0.1541  1.7504 -0.2067
  338MPD2     N 5077   0.749   1.795   0.614 -0.0167  0.2271 -0.0617
  338MPD2    H5 5078   0.701   1.746   0.539 -0.2407 -0.2762  0.4113
  338MPD2    N1 5079   1.042   1.434   0.532 -0.6510 -0.3500  0.3112
  338MPD2    H7 5080   0.986   1.433   0.447 -1.1454  1.2018  0.6182
  339TMC3    C1 5081   0.545   1.893   0.623  0.6999 -0.3178  0.2712
  339TMC3    C2 5082   0.436   1.899   0.707  0.5530 -0.0937  0.1774
  339TMC3    C3 5083   0.311   1.921   0.659 -0.0717  0.1102 -0.2793
  339TMC3    C4 5084   0.538   1.897   0.489  0.6090  0.5623  0.3624
  339TMC3    C5 5085   0.402   1.931   0.443  0.5944 -0.1752 -0.0350
  339TMC3    C6 5086   0.294   1.938   0.526 -1.0170 -0.6597 -0.1556
  339TMC3     C 5087   0.672   1.879   0.689  0.0002 -0.0658 -0.6560
  339TMC3     O 5088   0.688   1.925   0.796 -0.1769  0.5361 -0.4869
  339TMC3     H 5089   0.459   1.887   0.812  3.0474  0.7320 -0.2599
  339TMC3    H1 5090   0.623   1.902   0.422 -0.1471  0.1186 -0.6400
  339TMC3    H2 5091   0.195   1.954   0.485 -0.8085 -3.0015 -1.5837
  339TMC3    C7 5092   0.387   2.008   0.322  0.9109  0.3782 -0.4016
  339TMC3    C8 5093   0.196   1.859   0.722  0.4723  0.1301  0.8876
  339TMC3    O1 5094   0.320   2.108   0.323  0.2657  0.3191  0.0700
  339TMC3    O2 5095   0.086   1.872   0.673  0.0335 -0.6534  0.2679
  340MPD2     C 5096   0.975   4.308  11.102 -0.8455 -0.0796 -0.2022
  340MPD2    C1 5097   1.014   4.341  10.972  0.1110  0.3871  0.0440
  340MPD2    C2 5098   1.148   4.393  10.959  0.2870 -0.5327  0.4049
  340MPD2    C3 5099   1.236   4.408  11.069 -0.7351  0.5932  0.6742
  340MPD2    C4 5100   1.195   4.368  11.195  0.1757 -0.1575  0.0185
  340MPD2    C5 5101   1.069   4.320  11.203  0.0099  0.3311 -0.0497
  340MPD2     H 5102   1.184   4.412  10.859 -1.0095  0.7121  0.1843
  340MPD2    H1 5103   1.268   4.365  11.275 -0.0979 -0.5688  0.2525
  340MPD2    H2 5104   0.878   4.264  11.123 -0.1605 -1.6484 -0.2885
  340MPD2    H3 5105   1.018   4.292  11.295  1.3108 -0.3097  0.4711
  340MPD2     N 5106   1.369   4.452  11.054  0.0725  0.0726 -0.3548
  340MPD2    H5 5107   1.427   4.444  11.137 -1.0405 -0.4716  0.3655
  340MPD2    N1 5108   0.918   4.324  10.869  1.4153  0.0075  0.1906
  340MPD2    H7 5109   0.837   4.267  10.889  0.5823  1.8965  2.2589
  341TMC3    C1 5110   0.844   4.316  10.643 -0.7742 -0.5467 -0.0212
  341TMC3    C2 5111   0.802   4.190  10.659  0.1337 -0.1751 -0.3008
  341TMC3    C3 5112   0.727   4.135  10.560  0.2745  0.6400  0.5401
  341TMC3    C4 5113   0.811   4.396  10.534 -1.0416 -0.0908 -0.4322
  341TMC3    C5 5114   0.745   4.334  10.435  0.1147  0.4620  0.7095
  341TMC3    C6 5115   0.707   4.202  10.447  0.3894 -0.8254  0.8294
  341TMC3     C 5116   0.941   4.363  10.743  0.6502 -0.1082  0.6415
  341TMC3     O 5117   1.007   4.463  10.708 -0.8268  0.3439  0.1580
  341TMC3     H 5118   0.853   4.120  10.725 -0.1668 -0.3567 -0.2605
  341TMC3    H1 5119   0.834   4.502  10.527 -2.4318  0.1888 -0.7222
  341TMC3    H2 5120   0.668   4.151  10.360  1.8756 -2.5583  1.1681
  341TMC3    C7 5121   0.759   4.376  10.293 -0.1458  0.1261 -0.5073
  341TMC3    C8 5122   0.707   3.995  10.555 -0.2033  0.7227  0.1058
  341TMC3    O1 5123   0.700   4.305  10.208  0.3112 -0.5265  0.1003
  341TMC3    O2 5124   0.690   3.947  10.446  0.4821  0.0217  0.0068
  342MPD2     C 5125   3.276   2.391  17.633  0.5719 -1.0196 -1.0984
  342MPD2    C1 5126   3.404   2.406  17.582 -0.4295 -0.6910  0.3205
  342MPD2    C2 5127   3.447   2.543  17.565 -0.2740  0.5313 -0.5015
  342MPD2    C3 5128   3.361   2.651  17.589 -0.3038 -0.2081 -0.3384
  342MPD2    C4 5129   3.230   2.628  17.630 -0.7685 -0.2858 -0.0084
  342MPD2    C5 5130   3.193   2.500  17.658  0.4774 -0.5562  0.3627
  342MPD2     H 5131   3.547   2.567  17.531 -0.2123 -2.8469 -2.7228
  342MPD2    H1 5132   3.161   2.709  17.650 -0.5556 -0.1327  0.1073
  342MPD2    H2 5133   3.222   2.298  17.648 -0.0071 -0.7983 -1.8241
  342MPD2    H3 5134   3.093   2.485   0.012 -0.0677  1.8275 -0.1417
  342MPD2     N 5135   3.384   2.783  17.553  0.0160 -0.7475 -0.4408
  342MPD2    H5 5136   3.298   2.837  17.555  0.6207  0.2254 -0.7404
  342MPD2    N1 5137   3.492   2.297  17.546 -0.2833  0.0216 -0.3287
  342MPD2    H7 5138   3.583   2.322  17.508 -0.3201 -0.0235 -0.4464
  343TMC3    C1 5139   3.561   2.067  17.539  0.3789  0.0833  0.4744
  343TMC3    C2 5140   3.636   2.089  17.428  0.0294  0.1420 -0.1852
  343TMC3    C3 5141   3.704   1.983  17.373  0.1699 -0.9726  0.6127
  343TMC3    C4 5142   3.535   1.934  17.584  0.0954 -0.2684  0.6653
  343TMC3    C5 5143   3.600   1.830  17.521 -0.7538  0.5861 -0.3884
  343TMC3    C6 5144   3.685   1.850  17.412 -0.4091  0.1698 -0.6155
  343TMC3     C 5145   3.469   2.170  17.595 -0.2138 -0.2585  0.4195
  343TMC3     O 5146   3.393   2.131  17.680 -0.2970  0.6822 -0.3200
  343TMC3     H 5147   3.654   2.194  17.408  1.4738  0.3659  2.3278
  343TMC3    H1 5148   3.461   1.909  17.659  1.3529 -0.3899  1.8723
  343TMC3    H2 5149   3.752   1.779  17.365  1.0755  1.0757  0.1259
  343TMC3    C7 5150   3.576   1.689  17.564 -0.2219 -1.3685  0.4715
  343TMC3    C8 5151   3.794   2.022  17.271  0.2707 -0.2537  0.0011
  343TMC3    O1 5152   3.637   1.604  17.497 -0.3613  0.5105 -0.7800
  343TMC3    O2 5153   3.827   2.137  17.271 -0.5772 -0.5172  0.5625
  344MPD2     C 5154   0.211   2.042  10.887  0.1507 -0.3355  0.4702
  344MPD2    C1 5155   0.086   2.037  10.816 -0.9393 -0.4238  0.7111
  344MPD2    C2 5156   0.064   2.127  10.714  0.5244  0.2079 -0.2470
  344MPD2    C3 5157   0.155   2.223  10.676  0.3281 -0.7461  0.1381
  344MPD2    C4 5158   0.272   2.231  10.755  0.1509 -0.0552  1.0473
  344MPD2    C5 5159   0.303   2.139  10.857 -0.6096 -0.4729 -0.7586
  344MPD2     H 5160   4.694   2.114  10.656  0.1032 -1.7463  0.8702
  344MPD2    H1 5161   0.351   2.299  10.726 -1.5827  1.5467  0.0872
  344MPD2    H2 5162   0.231   1.990  10.980  0.2124  1.1326  1.2740
  344MPD2    H3 5163   0.398   2.148  10.909 -1.5756  0.8896  0.7559
  344MPD2     N 5164   0.145   2.317  10.576 -0.3808 -1.0163  0.3659
  344MPD2    H5 5165   0.218   2.387  10.570  3.0115 -4.3922  1.9959
  344MPD2    N1 5166   4.710   1.934  10.838  0.1269 -0.3366  0.3040
  344MPD2    H7 5167   4.632   1.930  10.773 -0.6932 -0.7444  1.3041
  345TMC3    C1 5168   0.044   2.458  10.408 -0.4812 -0.0534  0.0585
  345TMC3    C2 5169   0.097   2.569  10.476  0.5362 -0.2523  0.1633
  345TMC3    C3 5170   0.066   2.695  10.431 -0.3353  0.5751 -0.4791
  345TMC3    C4 5171   4.682   2.472  10.302 -0.7172 -1.0264  0.6576
  345TMC3    C5 5172   4.653   2.600  10.259  0.6019  0.3173  0.2677
  345TMC3    C6 5173   4.694   2.708  10.332  0.8446  0.0904  0.3885
  345TMC3     C 5174   0.052   2.325  10.474 -0.4444 -0.0085 -0.1119
  345TMC3     O 5175   4.690   2.241  10.457  0.3649 -0.7479 -0.2720
  345TMC3     H 5176   0.176   2.559  10.549  0.5277 -2.5325 -0.1514
  345TMC3    H1 5177   4.639   2.385  10.254  3.1906 -3.5607  1.7189
  345TMC3    H2 5178   4.677   2.808  10.294  0.5436 -0.2352 -0.3260
  345TMC3    C7 5179   4.660   2.634  10.118 -0.8855 -0.0012  0.3102
  345TMC3    C8 5180   0.159   2.804  10.452 -0.2691 -0.1050 -0.5320
  345TMC3    O1 5181   0.011   2.722  10.081 -0.2174 -0.8839  0.2108
  345TMC3    O2 5182   0.190   2.864  10.352  0.2122  0.1285  0.6055
  346MPD2     C 5183   4.500   3.904  14.400 -0.4958  0.2193  0.5498
  346MPD2    C1 5184   4.599   3.895  14.304  0.9038  0.3605  0.1591
  346MPD2    C2 5185   0.002   3.930  14.339  0.1525 -0.2035  0.1339
  346MPD2    C3 5186   0.045   3.962  14.468 -0.0493  0.4324  0.2046
  346MPD2    C4 5187   4.662   3.962  14.569  0.4950 -0.1718  0.0605
  346MPD2    C5 5188   4.535   3.939  14.529  0.7011  0.3480  0.5245
  346MPD2     H 5189   0.088   3.930  14.272 -1.5104  0.6930 -2.0047
  346MPD2    H1 5190   4.683   3.980  14.674 -2.2392 -1.9795  0.9271
  346MPD2    H2 5191   4.396   3.876  14.387  0.5293 -2.6591 -1.3733
  346MPD2    H3 5192   4.463   3.933  14.609 -0.0114 -0.0633 -0.1397
  346MPD2     N 5193   0.182   3.994  14.492 -0.5677 -0.2712  0.5102
  346MPD2    H5 5194   0.250   3.977  14.418 -2.9662 -2.3786 -1.1773
  346MPD2    N1 5195   4.567   3.826  14.184 -0.1146 -0.4387 -0.1982
  346MPD2    H7 5196   4.642   3.815  14.116 -1.0858 -1.9866 -1.0287
  347TMC3    C1 5197   0.377   4.020  14.614  0.1066  0.1356 -0.2268
  347TMC3    C2 5198   0.443   4.088  14.519  0.2045 -0.1257  0.0230
  347TMC3    C3 5199   0.575   4.110  14.540  0.1086 -0.1292  0.6406
  347TMC3    C4 5200   0.435   3.980  14.734  0.9960  0.2874  0.3003
  347TMC3    C5 5201   0.568   4.001  14.748  0.0951 -0.2284  0.0961
  347TMC3    C6 5202   0.643   4.066  14.653  0.2662  1.3143  0.1743
  347TMC3     C 5203   0.230   4.028  14.615  0.5776 -0.8291 -0.2158
  347TMC3     O 5204   0.176   4.036  14.727 -0.3023 -0.0755  0.5421
  347TMC3     H 5205   0.390   4.131  14.435  0.8324  1.4425  0.4276
  347TMC3    H1 5206   0.373   3.940  14.814 -1.1298 -1.8536 -2.4178
  347TMC3    H2 5207   0.747   4.092  14.671  0.5188 -0.3567  1.1073
  347TMC3    C7 5208   0.629   3.958  14.873 -0.5283 -0.0426 -0.5111
  347TMC3    C8 5209   0.641   4.209  14.464 -0.4695 -0.0003  0.0276
  347TMC3    O1 5210   0.570   3.869  14.928 -0.2793  0.7267 -0.0651
  347TMC3    O2 5211   0.761   4.195  14.451 -0.6911 -0.7305 -0.4519
  348MPD2     C 5212   2.966   2.787  11.746 -0.2040 -0.6398 -0.4639
  348MPD2    C1 5213   3.057   2.877  11.807 -0.3087  0.2363 -0.5140
  348MPD2    C2 5214   3.071   3.006  11.762 -0.3987  0.5995 -0.4510
  348MPD2    C3 5215   2.990   3.053  11.658  0.1933  0.2606 -0.1767
  348MPD2    C4 5216   2.905   2.972  11.592 -0.1631 -0.1059  0.0010
  348MPD2    C5 5217   2.897   2.839  11.639  0.6679  0.7419  0.3864
  348MPD2     H 5218   3.135   3.071  11.819 -2.2423  1.5503  0.5533
  348MPD2    H1 5219   2.843   3.013  11.513 -0.7354 -1.3785 -0.1985
  348MPD2    H2 5220   2.942   2.689  11.784  0.8172 -1.4204 -1.8455
  348MPD2    H3 5221   2.817   2.785  11.590  2.0683 -0.5525 -0.4624
  348MPD2     N 5222   2.990   3.192  11.628 -0.0602 -0.7013 -0.7160
  348MPD2    H5 5223   2.939   3.222  11.546 -0.8962 -0.3678 -0.0757
  348MPD2    N1 5224   3.144   2.838  11.915  0.9427  0.3611 -0.0942
  348MPD2    H7 5225   3.204   2.909  11.955  1.2367 -0.5716  1.0982
  349TMC3    C1 5226   3.264   2.694  12.056  0.1674 -0.0940  0.0974
  349TMC3    C2 5227   3.240   2.626  12.174 -0.3730  0.1085  0.2936
  349TMC3    C3 5228   3.337   2.617  12.266 -0.2709 -0.0076 -0.0796
  349TMC3    C4 5229   3.386   2.762  12.037 -0.1678 -0.1280 -0.3046
  349TMC3    C5 5230   3.484   2.752  12.137 -0.3774 -1.3090  0.1599
  349TMC3    C6 5231   3.453   2.685  12.253  0.0394 -0.6065 -0.5893
  349TMC3     C 5232   3.151   2.712  11.968  0.1120 -0.5733  0.5855
  349TMC3     O 5233   3.063   2.629  11.977 -0.0845  0.5114 -0.2485
  349TMC3     H 5234   3.148   2.569  12.180  0.9091 -2.1921 -2.0631
  349TMC3    H1 5235   3.411   2.808  11.942 -0.7528  1.8319  0.4918
  349TMC3    H2 5236   3.532   2.665  12.325  0.0384  1.4811 -0.0090
  349TMC3    C7 5237   3.598   2.838  12.139  0.0622  0.6017 -0.4341
  349TMC3    C8 5238   3.330   2.500  12.361 -0.5398 -0.2510  0.0255
  349TMC3    O1 5239   3.666   2.853  12.244 -0.5451  0.9602  0.3711
  349TMC3    O2 5240   3.439   2.447  12.388 -0.5699  0.2344  0.6650
  350MPD2     C 5241   2.386   1.095   9.714  0.4955  0.3320  0.3172
  350MPD2    C1 5242   2.482   1.009   9.758  0.1611 -0.6264  0.1726
  350MPD2    C2 5243   2.611   1.060   9.782 -0.5360 -0.0642  0.2170
  350MPD2    C3 5244   2.643   1.196   9.778 -0.0615 -0.1316  0.4940
  350MPD2    C4 5245   2.542   1.281   9.726 -0.2967 -0.2687 -0.1709
  350MPD2    C5 5246   2.416   1.232   9.697  0.5490  0.9255  0.0479
  350MPD2     H 5247   2.685   0.985   9.809  1.7030  1.6439 -1.2725
  350MPD2    H1 5248   2.559   1.387   9.711  1.1808 -0.5667 -0.5960
  350MPD2    H2 5249   2.296   1.052   9.670 -0.3638  0.7319  1.6860
  350MPD2    H3 5250   2.348   1.305   9.654  0.2400 -0.0765 -1.1581
  350MPD2     N 5251   2.777   1.237   9.806 -0.0259 -0.3566 -0.5580
  350MPD2    H5 5252   2.841   1.169   9.847  0.0790 -0.2555 -0.5543
  350MPD2    N1 5253   2.457   0.868   9.771  0.0490  0.5295  0.5744
  350MPD2    H7 5254   2.527   0.810   9.816  1.6884  2.3288  0.3065
  351TMC3    C1 5255   2.356   0.652   9.760  0.4307 -0.6344  0.0143
  351TMC3    C2 5256   2.465   0.600   9.695  0.0095  0.0219 -0.1724
  351TMC3    C3 5257   2.454   0.464   9.675 -0.7139 -0.1791 -0.4107
  351TMC3    C4 5258   2.241   0.578   9.792 -0.5412  0.0718  0.2788
  351TMC3    C5 5259   2.245   0.445   9.780 -0.1526 -0.4026  0.1876
  351TMC3    C6 5260   2.352   0.383   9.723 -0.1800 -0.0762  0.0192
  351TMC3     C 5261   2.343   0.797   9.745  0.7685  0.1958  0.5915
  351TMC3     O 5262   2.229   0.838   9.719  0.7094 -0.0266  0.5387
  351TMC3     H 5263   2.554   0.652   9.661  0.5981  0.1476  1.5560
  351TMC3    H1 5264   2.161   0.631   9.843 -0.2833 -0.6478  1.4326
  351TMC3    H2 5265   2.363   0.275   9.716 -1.5384 -0.3069  1.5511
  351TMC3    C7 5266   2.117   0.363   9.781 -0.0737  0.2390  0.1864
  351TMC3    C8 5267   2.566   0.402   9.608  0.4966  0.2212 -0.1886
  351TMC3    O1 5268   2.087   0.271   9.707 -0.4291  0.5245 -0.4770
  351TMC3    O2 5269   2.666   0.466   9.590  0.4345  0.0886 -0.3101
  352MPD2     C 5270   0.404   3.609   0.655  0.4131  0.5495 -0.5078
  352MPD2    C1 5271   0.313   3.630   0.762 -0.0396  0.0149  0.1463
  352MPD2    C2 5272   0.344   3.582   0.891 -0.5564 -0.3905  0.6472
  352MPD2    C3 5273   0.470   3.529   0.914  0.4956  0.2788  0.4714
  352MPD2    C4 5274   0.564   3.516   0.816 -0.1032 -0.2164 -0.3644
  352MPD2    C5 5275   0.528   3.564   0.688 -0.1178  0.0290  0.2314
  352MPD2     H 5276   0.269   3.585   0.969 -1.1874  0.3031  0.0157
  352MPD2    H1 5277   0.665   3.477   0.825  0.7883  1.8484 -1.1941
  352MPD2    H2 5278   0.382   3.658   0.561  2.9082 -0.5777 -1.6831
  352MPD2    H3 5279   0.600   3.562   0.608  1.4447  1.0954  1.6195
  352MPD2     N 5280   0.505   3.476   1.041  0.2089  0.3863 -0.6580
  352MPD2    H5 5281   0.583   3.411   1.037 -0.5783 -0.6194  0.4281
  352MPD2    N1 5282   0.192   3.691   0.731  0.3490  0.1924 -0.0958
  352MPD2    H7 5283   0.169   3.713   0.635 -0.7616  0.5592  0.2527
  353TMC3    C1 5284   0.454   3.361   1.235 -0.2118  0.4409 -0.1798
  353TMC3    C2 5285   0.575   3.299   1.238  0.8382 -0.5887  0.1719
  353TMC3    C3 5286   0.585   3.164   1.247  0.6030 -0.0058  0.3670
  353TMC3    C4 5287   0.341   3.285   1.254  1.0262 -0.0254  0.4505
  353TMC3    C5 5288   0.350   3.150   1.261 -0.1299  0.3873  0.1535
  353TMC3    C6 5289   0.472   3.087   1.252 -0.7101  0.8674  0.1790
  353TMC3     C 5290   0.426   3.469   1.151  0.1024  0.1071 -0.2929
  353TMC3     O 5291   0.324   3.530   1.181 -0.0507  0.6073 -0.5489
  353TMC3     H 5292   0.662   3.351   1.198  0.7506  0.7539  1.7247
  353TMC3    H1 5293   0.243   3.331   1.248  0.7887 -0.7112 -1.0297
  353TMC3    H2 5294   0.482   2.979   1.253  0.1718  0.9486  0.3315
  353TMC3    C7 5295   0.229   3.082   1.200 -0.1222 -0.3177  0.1564
  353TMC3    C8 5296   0.713   3.096   1.218 -0.2585  0.2880 -0.5599
  353TMC3    O1 5297   0.150   3.156   1.145  0.2982 -0.0219  0.6489
  353TMC3    O2 5298   0.812   3.158   1.253 -0.2083  0.0371 -0.1929
  354TMC3    C1 5299   2.640   0.088  13.553 -0.0103 -0.0215  0.3109
  354TMC3    C2 5300   2.578   0.178  13.470  0.1500 -0.1310 -0.0066
  354TMC3    C3 5301   2.605   0.169  13.336  0.1675  0.4735  0.0621
  354TMC3    C4 5302   2.727   4.707  13.517  0.1651 -0.0300  1.2027
  354TMC3    C5 5303   2.740   4.698  13.376  0.3974  0.1849  0.1069
  354TMC3    C6 5304   2.688   0.068  13.286 -0.8715  0.9221 -0.1212
  354TMC3     C 5305   2.610   0.082  13.697 -0.2366 -0.3611  0.2985
  354TMC3     O 5306   2.510   0.138  13.741 -0.7813 -0.3979 -0.6681
  354TMC3     H 5307   2.499   0.242  13.507 -0.7599  0.4403 -2.9218
  354TMC3    H1 5308   2.735   4.625  13.587 -1.1857 -0.1819  1.1832
  354TMC3    H2 5309   2.691   0.059  13.178  3.5730 -2.0903  0.2603
  354TMC3    C7 5310   2.787   4.572  13.332 -0.2754 -0.8882  0.1583
  354TMC3    C8 5311   2.558   0.266  13.239  0.1762 -0.1789  0.0371
  354TMC3    O1 5312   2.775   4.477  13.412 -0.3001  0.5743  0.2160
  354TMC3    O2 5313   2.570   0.232  13.123  0.2736  0.0868  0.0529
  355MPD2     C 5314   2.665   0.766  11.849  0.4436  0.1614  0.8094
  355MPD2    C1 5315   2.738   0.773  11.734 -0.2835  0.0675 -0.4816
  355MPD2    C2 5316   2.865   0.719  11.723 -0.7053  0.0516  0.3148
  355MPD2    C3 5317   2.922   0.662  11.839 -0.6186 -0.2538 -0.7514
  355MPD2    C4 5318   2.849   0.648  11.958  0.6028 -0.2437 -0.2139
  355MPD2    C5 5319   2.719   0.707  11.958  0.1174  0.4297  0.3427
  355MPD2     H 5320   2.916   0.719  11.628  0.1804 -0.8199  0.7872
  355MPD2    H1 5321   2.893   0.599  12.045 -0.4541 -1.9669 -0.6460
  355MPD2    H2 5322   2.562   0.797  11.860 -0.2265 -1.0566 -1.9859
  355MPD2    H3 5323   2.669   0.704  12.054  0.4184 -3.2546  0.3625
  355MPD2     N 5324   3.055   0.612  11.848  0.8919  0.3973 -0.1914
  355MPD2    H5 5325   3.080   0.557  11.929  0.0747 -1.6735 -1.3609
  355MPD2    N1 5326   2.677   0.827  11.617 -0.1958  0.5890  0.4686
  355MPD2    H7 5327   2.583   0.863  11.628  0.1497  1.7364 -0.3585
  356TMC3    C1 5328   3.286   0.652  11.824 -0.0129  0.3619  0.0641
  356TMC3    C2 5329   3.383   0.680  11.737 -0.5285  0.5093  0.2570
  356TMC3    C3 5330   3.480   0.773  11.764 -0.4250 -0.0538 -0.3290
  356TMC3    C4 5331   3.290   0.712  11.948 -0.3271 -0.1022  0.6881
  356TMC3    C5 5332   3.383   0.810  11.976 -0.7514  0.0939  0.8630
  356TMC3    C6 5333   3.491   0.833  11.888  0.0804 -0.4753  1.1174
  356TMC3     C 5334   3.160   0.641  11.761  0.4826 -0.2677  0.1072
  356TMC3     O 5335   3.135   0.667  11.646  0.2657 -0.2354  0.4175
  356TMC3     H 5336   3.384   0.615  11.650 -0.6352  1.0277 -0.1245
  356TMC3    H1 5337   3.204   0.708  12.013  0.1628 -1.9679  1.2134
  356TMC3    H2 5338   3.574   0.901  11.908 -0.6986  0.8208 -0.0515
  356TMC3    C7 5339   3.347   0.900  12.081  0.3400 -0.6215 -0.1865
  356TMC3    C8 5340   3.581   0.813  11.662  0.1128 -0.1690 -0.0218
  356TMC3    O1 5341   3.271   0.859  12.169 -0.2696 -0.7009  0.2356
  356TMC3    O2 5342   3.640   0.718  11.608  0.6712  0.0344  0.6894
  357MPD2     C 5343   1.916   4.709   0.624 -0.4390 -0.2817 -0.2939
  357MPD2    C1 5344   2.012   0.074   0.682 -0.1980 -0.2977 -0.2666
  357MPD2    C2 5345   1.974   0.178   0.763  0.8977 -0.2363 -0.8689
  357MPD2    C3 5346   1.842   0.208   0.781  0.3355 -0.0780  0.4527
  357MPD2    C4 5347   1.749   0.134   0.710  0.0801 -0.4095  0.5505
  357MPD2    C5 5348   1.787   0.017   0.644  0.1434  0.1085  0.8339
  357MPD2     H 5349   2.049   0.244   0.804 -1.7725  0.6132  2.7126
  357MPD2    H1 5350   1.645   0.164   0.713  1.2736  3.8965 -0.4392
  357MPD2    H2 5351   1.938   4.629   0.555 -1.5767 -0.3438 -0.5901
  357MPD2    H3 5352   1.716   4.686   0.581 -0.0403  0.9465  0.3481
  357MPD2     N 5353   1.794   0.324   0.847 -0.2820  0.5384  0.3560
  357MPD2    H5 5354   1.695   0.341   0.860 -0.6219 -1.9929  0.9418
  357MPD2    N1 5355   2.142   0.053   0.632  0.1052  0.7964 -0.4566
  357MPD2    H7 5356   2.169   4.679   0.607  2.1016  1.2072  0.1627
  358TMC3    C1 5357   2.380   0.093   0.623  0.7232  0.6705 -0.0708
  358TMC3    C2 5358   2.407   4.718   0.526 -0.0525  0.3671 -0.1721
  358TMC3    C3 5359   2.533   4.679   0.515  0.2650  0.4541 -0.2519
  358TMC3    C4 5360   2.475   0.162   0.688  0.0146 -0.9324  0.1795
  358TMC3    C5 5361   2.601   0.121   0.659  0.1842 -0.3551  0.6698
  358TMC3    C6 5362   2.633   0.012   0.586 -1.1660 -0.0416  0.0749
  358TMC3     C 5363   2.244   0.143   0.651 -0.4907  0.5038  0.4478
  358TMC3     O 5364   2.239   0.265   0.667 -0.3869 -0.4601 -0.6764
  358TMC3     H 5365   2.321   4.689   0.466  0.3913  1.7733 -1.4894
  358TMC3    H1 5366   2.458   0.247   0.753 -2.0422  0.7507 -2.5803
  358TMC3    H2 5367   2.733   4.721   0.546 -1.5293 -0.2309 -0.7676
  358TMC3    C7 5368   2.703   0.198   0.721 -0.0020 -0.0557  0.0911
  358TMC3    C8 5369   2.570   4.582   0.408  0.0827  0.0014 -0.4634
  358TMC3    O1 5370   2.799   0.137   0.765 -0.6869  0.4821  0.7100
  358TMC3    O2 5371   2.686   4.578   0.374 -0.7829 -0.3437  0.2421
  359MPD2     C 5372   2.961   4.416  12.341  0.5022  0.4637  0.1357
  359MPD2    C1 5373   3.008   4.295  12.372  0.3473 -0.8183  0.6264
  359MPD2    C2 5374   2.953   4.214  12.471  0.1294  0.0741  0.5857
  359MPD2    C3 5375   2.845   4.256  12.541  0.6891  0.7925  0.0914
  359MPD2    C4 5376   2.783   4.377  12.502 -0.2191  0.2051  0.4036
  359MPD2    C5 5377   2.846   4.459  12.412  0.2300 -0.0938 -0.0409
  359MPD2     H 5378   3.006   4.126  12.506  1.3432  0.0350 -1.3162
  359MPD2    H1 5379   2.693   4.414  12.549  0.0049  0.4373  0.6528
  359MPD2    H2 5380   3.007   4.492  12.278  1.7500 -0.7166 -0.3708
  359MPD2    H3 5381   2.797   4.548  12.374  1.1155 -0.1044 -1.2061
  359MPD2     N 5382   2.787   4.185  12.648  0.1771  0.4695 -0.4187
  359MPD2    H5 5383   2.699   4.220  12.684  1.6027  0.9138  2.6316
  359MPD2    N1 5384   3.126   4.241  12.328  0.7492 -0.6491 -0.4160
  359MPD2    H7 5385   3.148   4.147  12.361 -1.9597 -0.6898  1.2716
  360TMC3    C1 5386   3.327   4.228  12.212 -0.2623 -0.9518 -0.0794
  360TMC3    C2 5387   3.447   4.295  12.192 -0.1206 -1.2578 -0.6005
  360TMC3    C3 5388   3.547   4.225  12.116 -0.2643  0.0275  0.0354
  360TMC3    C4 5389   3.296   4.113  12.152  0.0064  0.2864 -0.3342
  360TMC3    C5 5390   3.385   4.051  12.075 -0.3428  0.2850 -0.8074
  360TMC3    C6 5391   3.515   4.097  12.066  0.2583  0.0773 -0.1342
  360TMC3     C 5392   3.219   4.311  12.257 -0.7873 -0.0084  0.1849
  360TMC3     O 5393   3.218   4.428  12.223  0.2063  0.0398 -0.3572
  360TMC3     H 5394   3.477   4.388  12.238 -1.6687 -1.4307  0.7552
  360TMC3    H1 5395   3.191   4.086  12.155  0.3814 -1.1905 -0.4368
  360TMC3    H2 5396   3.587   4.041  12.008 -1.4861 -0.6424 -1.6000
  360TMC3    C7 5397   3.349   4.034  11.938  0.4458 -0.6266  0.3830
  360TMC3    C8 5398   3.659   4.294  12.061 -0.4885 -0.1634 -0.4467
  360TMC3    O1 5399   3.417   4.080  11.850  0.1513 -0.4414 -0.5766
  360TMC3    O2 5400   3.662   4.418  12.082 -0.0152  0.2214  0.1039
  361MPD2     C 5401   4.358   2.842  16.573  0.3343  0.5019  0.6501
  361MPD2    C1 5402   4.320   2.847  16.703  0.8700 -0.4047  0.5582
  361MPD2    C2 5403   4.386   2.763  16.791  0.7914 -0.0457 -0.1923
  361MPD2    C3 5404   4.487   2.678  16.749  0.5654  0.5840  1.2880
  361MPD2    C4 5405   4.512   2.661  16.614 -0.5617  0.3239  0.3680
  361MPD2    C5 5406   4.452   2.752  16.534  0.5145  0.1388  0.7833
  361MPD2     H 5407   4.359   2.765  16.896  0.8014  2.4236 -0.2263
  361MPD2    H1 5408   4.586   2.593  16.573 -0.4318  0.4595  0.3749
  361MPD2    H2 5409   4.317   2.913  16.502  0.6029  1.7367  1.7248
  361MPD2    H3 5410   4.481   2.743  16.430 -2.9490  1.4405 -0.2813
  361MPD2     N 5411   4.557   2.587  16.834  0.2073 -0.4772  0.1333
  361MPD2    H5 5412   4.623   2.524  16.789  0.5754  0.3898 -0.5357
  361MPD2    N1 5413   4.229   2.946  16.739 -0.7493 -0.4308 -0.7782
  361MPD2    H7 5414   4.188   3.003  16.666 -1.5134  0.6408  0.4968
  362TMC3    C1 5415   4.061   3.055  16.854  0.5782  0.1212  0.4628
  362TMC3    C2 5416   3.971   3.048  16.953  0.8048 -0.3676 -0.3474
  362TMC3    C3 5417   3.888   3.155  16.972 -0.0217  0.5267  0.2874
  362TMC3    C4 5418   4.048   3.158  16.755  0.1197  0.6445  0.3157
  362TMC3    C5 5419   3.944   3.241  16.760 -0.0006 -1.3997  0.3350
  362TMC3    C6 5420   3.859   3.238  16.865 -0.8319 -0.0168 -0.0214
  362TMC3     C 5421   4.144   2.939  16.847 -0.2668 -0.2545  0.0240
  362TMC3     O 5422   4.141   2.857  16.935 -0.3501  0.2709  0.0448
  362TMC3     H 5423   3.970   2.979  17.037 -1.7081 -1.3093 -1.1773
  362TMC3    H1 5424   4.128   3.175  16.684  0.2169  2.4635  0.8553
  362TMC3    H2 5425   3.779   3.310  16.869 -0.1638  0.7932 -1.1342
  362TMC3    C7 5426   3.899   3.302  16.635 -0.4499  0.0259 -0.1581
  362TMC3    C8 5427   3.772   3.126  17.055 -0.2653 -0.1726  0.3630
  362TMC3    O1 5428   3.982   3.336  16.554  0.0603 -0.2224  0.0088
  362TMC3    O2 5429   3.756   3.009  17.090 -0.0109  0.0883  0.0826
  363TMC3    C1 5430   4.070   0.613   9.882 -0.5670  1.2206 -0.7880
  363TMC3    C2 5431   4.081   0.500   9.960  0.1304  0.4270 -0.1110
  363TMC3    C3 5432   3.973   0.433  10.000  0.2181  0.5809 -0.4634
  363TMC3    C4 5433   3.947   0.655   9.835 -0.1540 -0.2526  0.6821
  363TMC3    C5 5434   3.843   0.568   9.865 -0.0452 -0.1697  0.0535
  363TMC3    C6 5435   3.848   0.461   9.954  0.6776 -0.1297 -0.3058
  363TMC3     C 5436   4.191   0.677   9.822 -0.6401 -0.0406 -0.1208
  363TMC3     O 5437   4.171   0.790   9.784  0.3097 -0.0907  0.4799
  363TMC3     H 5438   4.179   0.484  10.005  0.5490  0.8817 -0.8516
  363TMC3    H1 5439   3.937   0.740   9.769  1.5265  0.1183  0.9087
  363TMC3    H2 5440   3.757   0.423   9.999  0.5661 -0.2942 -0.6710
  363TMC3    C7 5441   3.711   0.609   9.821 -0.8769 -0.7548  0.3849
  363TMC3    C8 5442   3.988   0.309  10.081  0.1109 -0.6706 -0.4598
  363TMC3    O1 5443   3.707   0.733   9.796 -0.4821  0.0367  0.5988
  363TMC3    O2 5444   3.880   0.253  10.103  0.3135 -0.1844 -0.0638
  364MPD2     C 5445   2.196   0.142  10.904 -0.0509 -0.0648  0.4733
  364MPD2    C1 5446   2.240   0.088  10.783 -0.4381 -0.1983 -0.1181
  364MPD2    C2 5447   2.233   4.670  10.761 -0.4240  0.0774 -0.0984
  364MPD2    C3 5448   2.184   4.589  10.857  0.0750 -0.7875  0.1832
  364MPD2    C4 5449   2.131   4.640  10.975 -0.0014 -0.4553 -0.6264
  364MPD2    C5 5450   2.139   0.054  11.000  0.2564 -0.3189  0.3082
  364MPD2     H 5451   2.272   4.617  10.674  0.8813  0.0151  0.5314
  364MPD2    H1 5452   2.093   4.573  11.051  0.0648 -1.0891 -1.1530
  364MPD2    H2 5453   2.200   0.249  10.924 -0.0180  0.3255 -1.5906
  364MPD2    H3 5454   2.096   0.090  11.093  2.2361 -1.8529  1.8110
  364MPD2     N 5455   2.161   4.452  10.840 -0.3610 -0.4897 -0.5154
  364MPD2    H5 5456   2.121   4.400  10.917 -1.8868  2.0640  0.3886
  364MPD2    N1 5457   2.305   0.178  10.696  0.5039 -0.0410  0.2751
  364MPD2    H7 5458   2.302   0.274  10.728  1.7991 -0.9329  3.1206
  365TMC3    C1 5459   2.411   0.257  10.491 -0.1895 -0.4738 -0.3914
  365TMC3    C2 5460   2.542   0.243  10.438  0.7490  0.2217 -0.9190
  365TMC3    C3 5461   2.584   0.353  10.364 -0.2438 -0.2374  0.1760
  365TMC3    C4 5462   2.349   0.381  10.497  1.2422 -0.5044 -0.1577
  365TMC3    C5 5463   2.398   0.487  10.417 -0.1730 -0.2268 -0.6517
  365TMC3    C6 5464   2.512   0.469  10.346  0.7112 -0.2175 -0.2215
  365TMC3     C 5465   2.367   0.145  10.572 -0.1739  0.6513  0.6505
  365TMC3     O 5466   2.399   0.035  10.522  0.6968 -0.0888  0.0571
  365TMC3     H 5467   2.591   0.147  10.434 -1.0128 -0.6754 -1.0305
  365TMC3    H1 5468   2.254   0.385  10.550  2.0035 -0.0647  1.1874
  365TMC3    H2 5469   2.553   0.560  10.304  2.1121 -0.9682 -0.4939
  365TMC3    C7 5470   2.353   0.622  10.451  0.6961  0.2910 -0.4302
  365TMC3    C8 5471   2.709   0.348  10.287  0.0311  0.2159  0.4587
  365TMC3    O1 5472   2.397   0.711  10.373  0.0159  0.4895  0.1184
  365TMC3    O2 5473   2.745   0.455  10.239 -0.4547 -0.6332  0.2735
  366MPD2     C 5474   4.575   1.401  15.433 -1.0307  0.3084 -0.8717
  366MPD2    C1 5475   4.681   1.452  15.354  0.0176 -0.3447 -0.3381
  366MPD2    C2 5476   0.037   1.361  15.287  0.9691 -0.1023  0.2685
  366MPD2    C3 5477   0.021   1.226  15.298  0.4959  0.4021 -0.1304
  366MPD2    C4 5478   4.635   1.174  15.375 -0.8884 -0.2418  0.0281
  366MPD2    C5 5479   4.550   1.260  15.434  1.0167  0.4434  0.3456
  366MPD2     H 5480   0.125   1.399  15.235 -1.1778  2.4922 -1.4429
  366MPD2    H1 5481   4.617   1.068  15.387  0.1723 -0.3128  1.0721
  366MPD2    H2 5482   4.510   1.469  15.487 -1.6726  1.0216 -2.5510
  366MPD2    H3 5483   4.470   1.227  15.499 -3.1631  3.4733 -3.2981
  366MPD2     N 5484   0.104   1.143  15.218  0.1527  0.4972 -0.0527
  366MPD2    H5 5485   0.153   1.195  15.146 -2.1397  0.8265 -1.3737
  366MPD2    N1 5486   4.702   1.592  15.338  0.2990 -0.0115 -0.0810
  366MPD2    H7 5487   0.061   1.616  15.280 -0.8401  1.9397 -0.8299
  367TMC3    C1 5488   4.658   1.829  15.336  0.2351 -0.0219  0.6360
  367TMC3    C2 5489   0.064   1.869  15.374  0.8576  0.1516 -0.8359
  367TMC3    C3 5490   0.114   1.984  15.335 -0.3014 -0.6327  0.1065
  367TMC3    C4 5491   4.594   1.896  15.237 -0.0046  0.4166  0.2808
  367TMC3    C5 5492   4.648   2.018  15.201 -0.5249 -0.0517 -0.7844
  367TMC3    C6 5493   0.041   2.065  15.254  0.1862  0.4104 -0.3346
  367TMC3     C 5494   4.611   1.692  15.368 -0.9592 -1.2871  0.1928
  367TMC3     O 5495   4.488   1.687  15.373 -0.8479 -0.0289 -0.1751
  367TMC3     H 5496   0.134   1.797  15.414 -0.5868 -0.4645  0.6041
  367TMC3    H1 5497   4.490   1.873  15.221  0.8924 -1.9572 -1.9838
  367TMC3    H2 5498   0.064   2.168  15.229  0.3548  0.7698  1.2720
  367TMC3    C7 5499   4.583   2.097  15.103  1.1047 -0.4994 -0.0735
  367TMC3    C8 5500   0.246   2.024  15.388 -0.6134 -0.4456  0.3690
  367TMC3    O1 5501   4.583   2.220  15.114  0.3061 -0.3005 -0.3995
  367TMC3    O2 5502   0.287   1.964  15.488  0.2202  0.2929 -0.5202
  368MPD2     C 5503   1.495   3.266  13.731  0.4621  0.2192 -0.7587
  368MPD2    C1 5504   1.483   3.300  13.596  0.1840  0.1507 -0.4405
  368MPD2    C2 5505   1.598   3.337  13.526 -0.5572  1.0296  0.0784
  368MPD2    C3 5506   1.723   3.338  13.590  0.6336  0.1044 -0.1686
  368MPD2    C4 5507   1.731   3.309  13.728 -0.8177  0.8643  0.1469
  368MPD2    C5 5508   1.616   3.271  13.794  0.4174 -0.9960 -0.0276
  368MPD2     H 5509   1.583   3.355  13.420 -2.5717 -0.2077  0.1451
  368MPD2    H1 5510   1.824   3.322  13.782  0.2973 -1.5657 -1.1640
  368MPD2    H2 5511   1.416   3.250  13.803 -0.9821  3.5028 -1.6298
  368MPD2    H3 5512   1.631   3.239  13.897  1.0697  0.0116  0.1981
  368MPD2     N 5513   1.844   3.380  13.518 -0.6722 -0.0737  0.0016
  368MPD2    H5 5514   1.931   3.345  13.558  0.2011 -0.6632 -2.4539
  368MPD2    N1 5515   1.365   3.303  13.520  0.1746  0.3999  0.3208
  368MPD2    H7 5516   1.374   3.321  13.421 -1.8454 -1.4657 -0.1966
  369TMC3    C1 5517   1.134   3.337  13.474 -0.1908 -0.6104 -0.3860
  369TMC3    C2 5518   1.181   3.401  13.369  0.0471 -0.3471  0.1817
  369TMC3    C3 5519   1.101   3.398  13.256  0.5812  0.3886 -0.8193
  369TMC3    C4 5520   1.008   3.288  13.494  0.0173 -0.3680 -0.4740
  369TMC3    C5 5521   0.929   3.298  13.385 -0.1720  0.8007  0.0622
  369TMC3    C6 5522   0.968   3.360  13.266  0.0240  0.5074  0.6027
  369TMC3     C 5523   1.242   3.292  13.569 -0.0678 -0.1550 -0.1546
  369TMC3     O 5524   1.209   3.237  13.670  0.1748 -0.0623  0.1214
  369TMC3     H 5525   1.268   3.465  13.356 -1.8427  2.0391 -0.7343
  369TMC3    H1 5526   0.980   3.224  13.577 -1.2336  0.6044 -0.1520
  369TMC3    H2 5527   0.906   3.352  13.178  0.5059 -0.7038  0.3606
  369TMC3    C7 5528   0.792   3.260  13.394  0.6638 -0.0035  1.1872
  369TMC3    C8 5529   1.145   3.477  13.143  0.1673  0.0462  0.5379
  369TMC3    O1 5530   0.742   3.231  13.289  1.2674 -0.3291  0.1935
  369TMC3    O2 5531   1.066   3.540  13.070 -0.3353 -0.0726  0.7033
  370TMC3    C1 5532   1.108   3.930  16.222  0.4715  0.6664 -0.1095
  370TMC3    C2 5533   0.992   3.899  16.283 -0.5261  0.8479 -0.1002
  370TMC3    C3 5534   0.904   3.807  16.238 -0.4164 -0.7919 -0.9183
  370TMC3    C4 5535   1.152   3.854  16.113  0.1639 -0.1125 -0.4818
  370TMC3    C5 5536   1.069   3.755  16.069  0.0843  0.5150 -0.1804
  370TMC3    C6 5537   0.938   3.736  16.122  0.1988 -0.2974 -0.4480
  370TMC3     C 5538   1.200   4.010  16.309  0.0821  0.8606 -0.6456
  370TMC3     O 5539   1.200   3.978  16.426  0.3242 -0.4251  0.0601
  370TMC3     H 5540   0.974   3.955  16.374  2.0505  0.3976  0.6815
  370TMC3    H1 5541   1.256   3.854  16.082  0.1983 -4.1916 -0.3783
  370TMC3    H2 5542   0.864   3.671  16.077 -0.9984  0.8894 -0.1847
  370TMC3    C7 5543   1.129   3.660  15.976  0.6687  0.8738  0.0792
  370TMC3    C8 5544   0.853   3.719  16.343 -0.0942  0.2195 -0.0747
  370TMC3    O1 5545   1.251   3.658  15.962 -0.0974  0.5039 -0.1763
  370TMC3    O2 5546   0.837   3.600  16.319  0.0352  0.2583  0.8980
  371TMC3    C1 5547   2.122   1.898  15.488  0.1261  0.3540 -0.3143
  371TMC3    C2 5548   2.044   1.945  15.595 -0.5117 -0.6551 -0.6498
  371TMC3    C3 5549   2.002   2.080  15.598 -0.1999 -0.1731 -0.3490
  371TMC3    C4 5550   2.188   1.988  15.408 -0.2187 -0.3925  0.2446
  371TMC3    C5 5551   2.158   2.117  15.427 -0.5759  0.0730  0.2520
  371TMC3    C6 5552   2.063   2.165  15.513  0.3020 -0.3647  0.3290
  371TMC3     C 5553   2.185   1.764  15.493  0.0313 -0.4308  0.9279
  371TMC3     O 5554   2.296   1.752  15.458 -0.1503 -0.1563 -0.5878
  371TMC3     H 5555   2.008   1.880  15.675 -0.8252  0.4921  0.1427
  371TMC3    H1 5556   2.271   1.949  15.350 -0.7955  1.5597 -1.8700
  371TMC3    H2 5557   2.039   2.271  15.517 -0.8692 -0.6194  0.0344
  371TMC3    C7 5558   2.211   2.214  15.326  0.2957 -0.1898  0.5250
  371TMC3    C8 5559   1.967   2.129  15.731  0.3881 -0.1395 -0.2884
  371TMC3    O1 5560   2.158   2.323  15.321 -0.0179  0.0764 -0.2439
  371TMC3    O2 5561   1.981   2.047  15.818 -0.4201  0.2851  0.3979
  372MPD2     C 5562   1.154   3.834  13.369  0.1754  0.6389  0.7224
  372MPD2    C1 5563   1.259   3.805  13.450  0.0236 -0.2065  0.6727
  372MPD2    C2 5564   1.233   3.727  13.561  0.9027 -0.5715 -0.5717
  372MPD2    C3 5565   1.102   3.674  13.586  0.3573 -0.2599  0.7397
  372MPD2    C4 5566   1.003   3.705  13.496  0.2214 -0.0717  0.0009
  372MPD2    C5 5567   1.025   3.791  13.396  0.3429  1.0882 -0.6158
  372MPD2     H 5568   1.318   3.703  13.625  0.4176  0.7272  0.5749
  372MPD2    H1 5569   0.905   3.665  13.522  0.5212 -1.3069 -0.7672
  372MPD2    H2 5570   1.170   3.871  13.269 -0.2730 -1.1891 -0.0352
  372MPD2    H3 5571   0.946   3.826  13.330 -1.3460 -1.6372 -0.0725
  372MPD2     N 5572   1.082   3.593  13.695 -0.1513  0.1497  0.4475
  372MPD2    H5 5573   1.156   3.581  13.762 -0.0556  1.3717  0.5720
  372MPD2    N1 5574   1.393   3.841  13.415 -0.3709 -0.6147 -0.4166
  372MPD2    H7 5575   1.468   3.782  13.453 -0.4147 -0.3676  0.0586
  373TMC3    C1 5576   0.983   3.450  13.855 -0.3803  0.3293 -0.5920
  373TMC3    C2 5577   1.106   3.414  13.912  0.3470 -0.3154  0.0633
  373TMC3    C3 5578   1.097   3.324  14.017 -0.2274  0.9426  0.7533
  373TMC3    C4 5579   0.865   3.397  13.902  0.4783 -0.5031 -0.0656
  373TMC3    C5 5580   0.876   3.300  13.993 -0.0553 -0.1015  0.0190
  373TMC3    C6 5581   0.984   3.262  14.060 -0.2377  0.2788 -0.1189
  373TMC3     C 5582   0.978   3.520  13.726 -1.1523 -0.9881  0.6617
  373TMC3     O 5583   0.870   3.494  13.667 -0.3684 -0.6710 -0.9974
  373TMC3     H 5584   1.202   3.431  13.865  0.1123 -1.0609 -0.6863
  373TMC3    H1 5585   0.768   3.416  13.859  1.2644  2.0638 -0.7278
  373TMC3    H2 5586   0.985   3.199  14.147  1.3155  1.5314  0.7725
  373TMC3    C7 5587   0.778   3.199  13.968 -0.2404  0.1370 -0.3823
  373TMC3    C8 5588   1.224   3.309  14.081 -0.3381 -1.0091 -0.1542
  373TMC3    O1 5589   0.656   3.229  13.961 -0.0813 -0.2167  0.5426
  373TMC3    O2 5590   1.299   3.404  14.066  0.5737  0.2736 -0.0037
  374TMC3    C1 5591   3.189   2.629   9.593 -0.1529  0.2621  0.5911
  374TMC3    C2 5592   3.284   2.727   9.600 -1.0433  0.0373  0.6153
  374TMC3    C3 5593   3.321   2.769   9.728  0.9199  0.0077  0.4680
  374TMC3    C4 5594   3.137   2.577   9.709 -0.4358 -0.3437 -0.1284
  374TMC3    C5 5595   3.183   2.613   9.828 -0.2910 -0.0432  0.1816
  374TMC3    C6 5596   3.277   2.714   9.847 -0.4560 -0.5369  0.2780
  374TMC3     C 5597   3.158   2.564   9.465 -0.5854 -0.1873  0.6871
  374TMC3     O 5598   3.222   2.596   9.368  0.0904 -0.1709  0.1079
  374TMC3     H 5599   3.327   2.773   9.512  0.7330 -1.0775  0.8968
  374TMC3    H1 5600   3.070   2.491   9.706 -1.1265  0.1428  1.2518
  374TMC3    H2 5601   3.330   2.735   9.939  0.3538 -0.8099 -0.1226
  374TMC3    C7 5602   3.162   2.535   9.947 -0.4774 -0.7304 -0.1045
  374TMC3    C8 5603   3.419   2.881   9.732 -0.4964  0.4753  0.3071
  374TMC3    O1 5604   3.238   2.559  10.042  0.8589  0.5260  0.3624
  374TMC3    O2 5605   3.486   2.910   9.630  0.4416 -0.7031  0.0607
  375MPD2     C 5606   2.376   4.671  17.004  0.0506 -0.3348  0.7124
  375MPD2    C1 5607   2.288   4.576  16.965  0.1107  0.4479 -0.0289
  375MPD2    C2 5608   2.326   4.483  16.871 -0.2918  0.7665 -0.3260
  375MPD2    C3 5609   2.447   4.487  16.820 -0.6881 -0.4243 -0.2340
  375MPD2    C4 5610   2.540   4.587  16.860  0.3806  0.2366  0.8389
  375MPD2    C5 5611   2.497   4.679  16.949  0.3230 -0.2608 -0.2837
  375MPD2     H 5612   2.256   4.403  16.851 -0.1436  0.7143 -0.6374
  375MPD2    H1 5613   2.640   4.596  16.820  0.2871 -0.0984  0.5334
  375MPD2    H2 5614   2.349   0.022  17.081  0.5432 -0.6785  1.2010
  375MPD2    H3 5615   2.571   0.024  16.994 -0.2266 -0.2204  0.5562
  375MPD2     N 5616   2.488   4.386  16.726  0.1256 -0.6901  0.2206
  375MPD2    H5 5617   2.586   4.371  16.704  0.5201  1.8376  0.2567
  375MPD2    N1 5618   2.163   4.550  17.022  0.0739  0.1611 -0.4663
  375MPD2    H7 5619   2.121   4.458  17.012  0.8552 -0.1846 -0.6342
  376TMC3    C1 5620   2.487   4.211  16.571 -0.0935 -0.5447  0.0501
  376TMC3    C2 5621   2.620   4.187  16.607 -0.2228 -0.1785  0.0436
  376TMC3    C3 5622   2.704   4.137  16.509  0.3541 -0.3494  0.8993
  376TMC3    C4 5623   2.440   4.169  16.449  0.5548 -0.0107 -0.2190
  376TMC3    C5 5624   2.523   4.139  16.347 -0.0839 -0.6308 -0.1800
  376TMC3    C6 5625   2.656   4.119  16.377 -0.9216  0.4248 -0.5145
  376TMC3     C 5626   2.407   4.307  16.651  0.7909 -0.1327 -0.3339
  376TMC3     O 5627   2.287   4.306  16.635  0.8003  0.3612 -0.3684
  376TMC3     H 5628   2.664   4.212  16.703  1.3539 -1.2790 -0.4054
  376TMC3    H1 5629   2.336   4.185  16.422  1.1266  1.1196 -1.7203
  376TMC3    H2 5630   2.723   4.093  16.295  0.4632 -0.0988  0.7901
  376TMC3    C7 5631   2.484   4.112  16.213 -0.8910  0.6910 -0.6440
  376TMC3    C8 5632   2.842   4.131  16.528 -0.1785  0.7751 -0.4807
  376TMC3    O1 5633   2.570   4.116  16.128 -0.2251 -1.1000 -0.6946
  376TMC3    O2 5634   2.912   4.142  16.429 -0.3429 -0.0411  0.3804
  377MPD2     C 5635   0.600   3.502  13.077  0.2051  0.6030 -0.2294
  377MPD2    C1 5636   0.538   3.550  12.969  0.1724 -0.0885 -0.3310
  377MPD2    C2 5637   0.401   3.580  12.972 -0.6087 -0.7900 -0.0556
  377MPD2    C3 5638   0.338   3.546  13.084  0.1878  0.8282 -0.2388
  377MPD2    C4 5639   0.399   3.488  13.191  0.4509  0.2919 -0.0589
  377MPD2    C5 5640   0.528   3.470  13.191 -0.3044 -0.3676  0.9812
  377MPD2     H 5641   0.341   3.624  12.893 -2.6853 -0.4521  1.6767
  377MPD2    H1 5642   0.349   3.469  13.285  4.7216 -0.0908  2.1122
  377MPD2    H2 5643   0.704   3.472  13.068  0.4229  2.3440 -3.3369
  377MPD2    H3 5644   0.575   3.415  13.272  3.6291 -0.2304 -1.1902
  377MPD2     N 5645   0.193   3.574  13.097 -0.6197  0.0533  0.0680
  377MPD2    H5 5646   0.152   3.529  13.178  0.0987 -0.7673 -0.0167
  377MPD2    N1 5647   0.616   3.576  12.852 -0.6519 -0.2882  0.2409
  377MPD2    H7 5648   0.713   3.544  12.851 -0.0497  1.4949  0.8540
  378TMC3    C1 5649   0.697   3.520  12.396 -0.3754  0.4302 -0.4005
  378TMC3    C2 5650   0.607   3.545  12.503  0.6912 -0.3167 -0.0982
  378TMC3    C3 5651   0.661   3.593  12.615  0.1907  0.6794 -0.1223
  378TMC3    C4 5652   0.830   3.542  12.409  0.2424 -0.8532  0.0575
  378TMC3    C5 5653   0.881   3.592  12.527  0.6611 -0.9770 -0.1045
  378TMC3    C6 5654   0.795   3.620  12.627  0.0574  0.2380  0.3182
  378TMC3     C 5655   0.643   3.492  12.264 -0.2120 -0.3084 -0.6025
  378TMC3     O 5656   0.531   3.442  12.258 -0.0245  0.5619 -0.1490
  378TMC3     H 5657   0.502   3.521  12.490  0.9898 -2.2326  0.9456
  378TMC3    H1 5658   0.897   3.520  12.326  0.0108  0.5786 -0.4984
  378TMC3    H2 5659   0.832   3.659  12.722 -1.9201  1.8569  0.4318
  378TMC3    C7 5660   1.028   3.591  12.559  0.5909 -0.9612 -0.2253
  378TMC3    C8 5661   0.564   3.611  12.725 -0.5258 -0.5727  0.9816
  378TMC3    O1 5662   1.062   3.564  12.674 -0.4896 -0.1482 -0.3394
  378TMC3    O2 5663   0.449   3.621  12.687  0.0911  0.2669 -0.0274
  379MPD2     C 5664   1.409   2.137  15.921  0.2532 -0.5110 -0.3080
  379MPD2    C1 5665   1.337   2.034  15.967  0.5622  0.4239 -0.6515
  379MPD2    C2 5666   1.400   1.962  16.070  0.3339 -0.7381 -0.1447
  379MPD2    C3 5667   1.532   1.983  16.111  0.7030 -0.1108  0.5111
  379MPD2    C4 5668   1.599   2.092  16.065  0.0263 -0.3732 -0.5967
  379MPD2    C5 5669   1.528   2.170  15.978 -0.4216  0.1416  0.3992
  379MPD2     H 5670   1.345   1.880  16.114 -0.7610 -0.1963 -0.5016
  379MPD2    H1 5671   1.702   2.109  16.091  0.4507 -0.8514 -1.9565
  379MPD2    H2 5672   1.370   2.189  15.834  0.9190  0.6859  0.1083
  379MPD2    H3 5673   1.570   2.263  15.942 -2.5945  1.1674  0.5378
  379MPD2     N 5674   1.596   1.905  16.208  0.3401  0.3443  0.0764
  379MPD2    H5 5675   1.696   1.907  16.223  0.2098  0.8461  0.8861
  379MPD2    N1 5676   1.210   2.007  15.919 -0.7292  0.2476  0.3707
  379MPD2    H7 5677   1.174   2.076  15.854 -2.2527  0.3839  1.3655
  380TMC3    C1 5678   0.995   1.916  15.900 -0.4981  0.1745 -0.1118
  380TMC3    C2 5679   0.921   1.804  15.886 -0.7870  0.1338  0.1188
  380TMC3    C3 5680   0.838   1.789  15.777  0.0990  0.8922 -1.1181
  380TMC3    C4 5681   0.971   2.021  15.808  0.4836 -0.3245  0.1404
  380TMC3    C5 5682   0.862   2.016  15.724 -0.2410 -0.6121 -0.7238
  380TMC3    C6 5683   0.807   1.892  15.693 -0.6286  0.2372 -0.0623
  380TMC3     C 5684   1.133   1.896  15.955 -0.0627 -0.2314 -0.4179
  380TMC3     O 5685   1.174   1.789  15.998 -0.1347 -0.1814 -0.2461
  380TMC3     H 5686   0.943   1.721  15.953 -1.1393  2.9543  3.7242
  380TMC3    H1 5687   1.019   2.117  15.824  0.2605 -0.0714 -0.6652
  380TMC3    H2 5688   0.732   1.875  15.616  0.0979  1.1607 -0.9861
  380TMC3    C7 5689   0.823   2.139  15.665 -0.1879 -0.0146 -0.7939
  380TMC3    C8 5690   0.815   1.660  15.721  0.0786 -0.2724 -0.5009
  380TMC3    O1 5691   0.896   2.236  15.667 -0.0356 -0.1689 -0.7451
  380TMC3    O2 5692   0.786   1.659  15.600  0.2649 -0.1231 -0.7565
  381TMC3    C1 5693   0.837   3.037  16.096 -0.0033  0.3717 -0.3297
  381TMC3    C2 5694   0.918   3.143  16.077  0.0156 -0.3924 -0.0893
  381TMC3    C3 5695   0.930   3.233  16.176 -0.0322 -0.3032  0.1552
  381TMC3    C4 5696   0.766   3.013  16.213  0.9029 -0.0801  0.1143
  381TMC3    C5 5697   0.794   3.103  16.313 -0.0963  0.5809 -0.4659
  381TMC3    C6 5698   0.874   3.211  16.300 -0.3730 -0.5510  0.5406
  381TMC3     C 5699   0.785   2.968  15.973 -0.0976 -0.1363 -0.5269
  381TMC3     O 5700   0.844   2.986  15.867 -0.2305 -0.9386 -0.3802
  381TMC3     H 5701   0.962   3.164  15.980 -0.3094  0.9842  0.0671
  381TMC3    H1 5702   0.725   2.915  16.236 -0.7056  0.2504 -1.2867
  381TMC3    H2 5703   0.915   3.256  16.389 -1.9658 -2.8945  2.4461
  381TMC3    C7 5704   0.776   3.047  16.450  0.1741 -0.0441  0.0638
  381TMC3    C8 5705   1.058   3.296  16.178 -1.4037 -0.4147 -0.5134
  381TMC3    O1 5706   0.791   2.927  16.464 -0.2868  0.4124 -0.1391
  381TMC3    O2 5707   1.148   3.230  16.134 -0.2595 -0.3400  0.2989
  382MPD2     C 5708   0.221   0.698  16.838 -0.5042 -0.1568  0.0377
  382MPD2    C1 5709   0.228   0.700  16.972  0.0991 -0.8719 -0.0760
  382MPD2    C2 5710   0.191   0.583  17.039 -0.0011 -0.0576  0.3200
  382MPD2    C3 5711   0.153   0.471  16.967 -0.8948  0.1391  0.0765
  382MPD2    C4 5712   0.157   0.472  16.829 -0.0831 -0.2939 -0.9449
  382MPD2    C5 5713   0.187   0.591  16.766  0.2077 -0.1843 -0.6998
  382MPD2     H 5714   0.190   0.585  17.147 -1.1936 -1.3019  0.3336
  382MPD2    H1 5715   0.117   0.386  16.776  0.8778 -1.3217  0.0105
  382MPD2    H2 5716   0.230   0.795  16.792 -0.4962  0.5114  1.4632
  382MPD2    H3 5717   0.166   0.602  16.660 -2.4954  2.1299  0.0618
  382MPD2     N 5718   0.125   0.343  17.021 -0.3044  0.2961  0.7647
  382MPD2    H5 5719   0.105   0.270  16.954  1.3558 -0.0411  0.6504
  382MPD2    N1 5720   0.252   0.811  17.056 -0.3273 -0.1264  0.2818
  382MPD2    H7 5721   0.251   0.789  17.156 -2.2406  0.3351  0.3636
  383TMC3    C1 5722   0.076   0.167  17.176 -0.6232 -0.5835  0.0293
  383TMC3    C2 5723   0.014   0.096  17.070 -0.4079 -0.3893  0.1920
  383TMC3    C3 5724   0.010   4.682  17.089  0.3351  0.1479  0.3287
  383TMC3    C4 5725   0.129   0.107  17.295  0.2074 -0.1479 -0.2802
  383TMC3    C5 5726   0.117   4.697  17.300  0.1303  1.1904  0.2710
  383TMC3    C6 5727   0.071   4.622  17.194 -0.0105  0.3022  0.1351
  383TMC3     C 5728   0.131   0.301  17.154 -0.0295 -0.3643  0.9054
  383TMC3     O 5729   0.144   0.367  17.256 -0.4093  0.4810  0.1074
  383TMC3     H 5730   4.680   0.150  16.994  1.8283  0.5881 -0.7549
  383TMC3    H1 5731   0.138   0.172  17.382  1.2937  0.4229 -0.8184
  383TMC3    H2 5732   0.080   4.515  17.204 -0.1070  0.2008 -0.8751
  383TMC3    C7 5733   0.103   4.633  17.428  0.0503  0.3791  0.4984
  383TMC3    C8 5734   4.603   4.626  17.057 -0.1665  0.4123  0.2636
  383TMC3    O1 5735   0.030   4.535  17.428 -0.2065 -0.5985  0.3740
  383TMC3    O2 5736   4.535   4.678  16.971  0.8953  0.2328 -0.0733
  384MPD2     C 5737   1.953   2.073  11.785 -0.7037  0.2929  0.7395
  384MPD2    C1 5738   1.896   1.953  11.817 -0.3030  0.6114  0.0552
  384MPD2    C2 5739   1.981   1.839  11.814  0.0335  0.1632 -0.4650
  384MPD2    C3 5740   2.119   1.855  11.806 -0.2012  0.6177 -0.6591
  384MPD2    C4 5741   2.176   1.980  11.811 -0.3056 -0.1813  0.5146
  384MPD2    C5 5742   2.087   2.087  11.796  0.0102  0.3066 -0.3956
  384MPD2     H 5743   1.938   1.741  11.830  1.0473 -0.1285  0.4303
  384MPD2    H1 5744   2.282   1.998  11.802 -0.6512  0.8273 -1.5374
  384MPD2    H2 5745   1.904   2.169  11.768 -0.3755  1.0973  4.2920
  384MPD2    H3 5746   2.125   2.186  11.773  0.6913 -0.0119 -0.6584
  384MPD2     N 5747   2.208   1.746  11.820 -0.3452 -0.0852  0.4587
  384MPD2    H5 5748   2.307   1.769  11.813 -0.8851  1.5751 -1.3967
  384MPD2    N1 5749   1.762   1.925  11.850  0.1096  0.1354 -0.3602
  384MPD2    H7 5750   1.736   1.830  11.872  2.4056 -0.5398 -0.5321
  385TMC3    C1 5751   2.285   1.527  11.824  0.7735 -0.5716  0.3658
  385TMC3    C2 5752   2.251   1.403  11.795  0.5222  0.4692  0.0809
  385TMC3    C3 5753   2.262   1.295  11.884 -1.0245  0.1687 -0.3023
  385TMC3    C4 5754   2.349   1.545  11.945 -0.3661  0.1887 -0.1399
  385TMC3    C5 5755   2.355   1.445  12.038 -0.2398  0.1826  0.0263
  385TMC3    C6 5756   2.318   1.317  12.002  0.0891 -0.0277  0.6403
  385TMC3     C 5757   2.168   1.613  11.821 -0.3896 -0.1712  0.9750
  385TMC3     O 5758   2.058   1.559  11.798  0.3257 -1.5652  0.2024
  385TMC3     H 5759   2.207   1.385  11.698  3.6487 -1.9188 -0.9102
  385TMC3    H1 5760   2.373   1.649  11.963  1.1706 -0.2957  0.5738
  385TMC3    H2 5761   2.327   1.235  12.072  0.1741 -0.9786 -0.4892
  385TMC3    C7 5762   2.296   1.494  12.166  0.0343  0.1460  0.5017
  385TMC3    C8 5763   2.175   1.177  11.875 -0.1614 -0.4157  0.2150
  385TMC3    O1 5764   2.285   1.613  12.194 -0.3185 -0.3920 -0.9870
  385TMC3    O2 5765   2.126   1.145  11.981 -0.5935 -0.1345 -0.4523
  386TMC3    C1 5766   2.221   3.956  12.063 -0.3250  0.5581 -0.4137
  386TMC3    C2 5767   2.251   4.016  11.948  0.2263 -0.2056 -0.0772
  386TMC3    C3 5768   2.160   4.103  11.890  0.3018  0.0194 -0.7319
  386TMC3    C4 5769   2.099   3.976  12.131 -0.9231 -0.1552  0.4499
  386TMC3    C5 5770   2.014   4.067  12.074 -0.0120  0.1989 -0.1434
  386TMC3    C6 5771   2.038   4.115  11.950  0.2698 -0.1145 -0.8423
  386TMC3     C 5772   2.284   3.825  12.078  0.1095 -0.2424 -0.3341
  386TMC3     O 5773   2.353   3.795  11.981  0.0776  0.1642 -0.6027
  386TMC3     H 5774   2.350   4.009  11.905 -0.1400 -2.4454 -0.5633
  386TMC3    H1 5775   2.076   3.925  12.224 -1.0162 -1.3297 -0.2258
  386TMC3    H2 5776   1.964   4.186  11.914 -0.6405 -0.4954  0.2704
  386TMC3    C7 5777   1.881   4.073  12.133  0.0178 -0.1404  0.3602
  386TMC3    C8 5778   2.148   4.087  11.749  0.5557 -0.5795 -0.4064
  386TMC3    O1 5779   1.863   4.050  12.252  0.0054  0.0553  0.7826
  386TMC3    O2 5780   2.067   4.153  11.686  0.2609 -0.5325  0.6458
  387MPD2     C 5781   4.522   3.823   9.338 -0.0612 -0.4573 -0.6190
  387MPD2    C1 5782   4.650   3.787   9.375 -0.9327  0.3730 -0.6862
  387MPD2    C2 5783   4.694   3.660   9.359 -0.1616  0.4621  0.1907
  387MPD2    C3 5784   4.607   3.562   9.307  0.6212  0.4022 -0.4160
  387MPD2    C4 5785   4.475   3.592   9.284 -0.3603  0.4335 -0.9058
  387MPD2    C5 5786   4.442   3.727   9.289 -0.3513 -0.5026 -0.5239
  387MPD2     H 5787   0.074   3.629   9.383 -0.1992  0.6771  0.6236
  387MPD2    H1 5788   4.394   3.525   9.257 -0.5078  0.2399  0.0080
  387MPD2    H2 5789   4.480   3.923   9.337 -3.4014 -1.9385 -3.8218
  387MPD2    H3 5790   4.342   3.741   9.248 -0.2876 -1.0733 -0.8812
  387MPD2     N 5791   4.661   3.435   9.311 -0.5992 -0.0544  0.4050
  387MPD2    H5 5792   0.039   3.431   9.332 -0.7581 -2.9806  0.6811
  387MPD2    N1 5793   0.007   3.879   9.445 -0.4296  0.1873  0.0013
  387MPD2    H7 5794   0.102   3.847   9.460  0.1212  0.9437 -1.8499
  388TMC3    C1 5795   0.095   4.039   9.597  0.6066  0.2985  0.1201
  388TMC3    C2 5796   0.113   4.172   9.624  0.3617  0.4925  0.9379
  388TMC3    C3 5797   0.227   4.197   9.700 -0.3560 -0.5652 -0.0328
  388TMC3    C4 5798   0.175   3.942   9.643  0.5507  0.5936 -0.3377
  388TMC3    C5 5799   0.286   3.969   9.715 -0.2091 -0.0351  0.3914
  388TMC3    C6 5800   0.307   4.094   9.756  0.0215 -0.1191 -0.6556
  388TMC3     C 5801   4.708   4.006   9.497  0.5513  0.1849  0.6154
  388TMC3     O 5802   4.633   4.091   9.463  0.0045  0.6570  0.4422
  388TMC3     H 5803   0.053   4.248   9.575 -0.7407  0.5504  2.3980
  388TMC3    H1 5804   0.152   3.837   9.629  1.3288  0.5335 -1.1113
  388TMC3    H2 5805   0.396   4.112   9.816  1.4050  1.4637 -3.1861
  388TMC3    C7 5806   0.377   3.864   9.762 -0.2047 -0.1557  0.6926
  388TMC3    C8 5807   0.261   4.336   9.730 -0.5950  0.2163  0.6617
  388TMC3    O1 5808   0.448   3.889   9.855  0.4112  0.3133  0.0706
  388TMC3    O2 5809   0.370   4.362   9.778 -0.5199 -0.3075  0.1917
  389MPD2     C 5810   3.920   1.518  10.510 -0.0301 -0.4419  0.3711
  389MPD2    C1 5811   3.844   1.622  10.556  0.1708  0.4425 -0.1429
  389MPD2    C2 5812   3.764   1.601  10.666 -0.1789 -0.0125  0.3448
  389MPD2    C3 5813   3.773   1.482  10.740  0.6393 -0.1282 -0.2939
  389MPD2    C4 5814   3.856   1.379  10.689  0.3521 -0.2155  0.3202
  389MPD2    C5 5815   3.926   1.395  10.575  0.3503 -0.3279 -0.1572
  389MPD2     H 5816   3.695   1.678  10.698 -0.0028 -0.1862  1.1326
  389MPD2    H1 5817   3.848   1.277  10.726  1.2081  0.2480  1.7688
  389MPD2    H2 5818   3.980   1.532  10.421  0.1494  0.6485  0.6556
  389MPD2    H3 5819   3.978   1.307  10.540  0.7777  0.0893 -0.5782
  389MPD2     N 5820   3.717   1.458  10.868  0.2238 -0.0269 -0.3244
  389MPD2    H5 5821   3.752   1.387  10.932  0.5733  0.4338 -0.0044
  389MPD2    N1 5822   3.847   1.737  10.469  0.0445 -0.2530  0.3403
  389MPD2    H7 5823   3.891   1.740  10.378  0.9219 -2.3417  0.6987
  390TMC3    C1 5824   3.620   1.502  11.075  0.0311 -1.4571 -0.8349
  390TMC3    C2 5825   3.522   1.404  11.072  0.2774  0.4354  0.4816
  390TMC3    C3 5826   3.463   1.371  11.188  0.9604 -0.0783  0.4356
  390TMC3    C4 5827   3.653   1.569  11.188  0.2384 -0.2262  0.3209
  390TMC3    C5 5828   3.597   1.527  11.308  0.6546 -0.0349 -0.4145
  390TMC3    C6 5829   3.496   1.434  11.306  0.0255  0.1571  0.1586
  390TMC3     C 5830   3.658   1.556  10.946  0.0946  0.3975  0.6422
  390TMC3     O 5831   3.632   1.673  10.928  0.1964 -0.0286  0.5285
  390TMC3     H 5832   3.480   1.365  10.980  1.7577  0.3015 -0.1206
  390TMC3    H1 5833   3.709   1.661  11.177  1.2355 -0.9924 -0.9542
  390TMC3    H2 5834   3.458   1.380  11.392 -1.2311  0.8240  0.0316
  390TMC3    C7 5835   3.588   1.634  11.401  0.3236  0.5228 -0.6380
  390TMC3    C8 5836   3.319   1.339  11.170 -0.0840 -0.7916  1.0092
  390TMC3    O1 5837   3.641   1.740  11.389 -0.2432  0.2704 -0.3553
  390TMC3    O2 5838   3.286   1.243  11.104 -0.0730  0.1390  0.0191
  391MPD2     C 5839   2.819   3.414  11.052 -0.3282 -0.0715  1.0370
  391MPD2    C1 5840   2.945   3.446  11.081 -0.2493  0.4600  0.2256
  391MPD2    C2 5841   3.035   3.448  10.974  0.2172  0.0779 -0.1033
  391MPD2    C3 5842   3.005   3.420  10.846  0.7745 -0.0125 -0.1036
  391MPD2    C4 5843   2.872   3.385  10.818  0.0708  0.4894  0.0395
  391MPD2    C5 5844   2.785   3.388  10.924 -0.1591 -0.9790  0.3403
  391MPD2     H 5845   3.140   3.472  10.984 -0.2674  1.7633  0.8464
  391MPD2    H1 5846   2.839   3.354  10.720 -0.6720 -0.2883  0.5328
  391MPD2    H2 5847   2.739   3.422  11.124 -3.8221 -2.2548 -2.6553
  391MPD2    H3 5848   2.682   3.365  10.896 -0.0485 -1.5007  0.3573
  391MPD2     N 5849   3.105   3.427  10.753 -0.1111  0.0684 -0.3843
  391MPD2    H5 5850   3.197   3.456  10.785 -0.0773  0.1383 -0.5440
  391MPD2    N1 5851   2.969   3.481  11.218  0.1958 -0.1919 -0.4638
  391MPD2    H7 5852   2.889   3.474  11.280  1.9958  1.5614  2.0770
  392TMC3    C1 5853   3.229   3.406  10.547  0.2331 -0.3422  0.2594
  392TMC3    C2 5854   3.236   3.355  10.417  0.3540 -0.1313  0.2703
  392TMC3    C3 5855   3.355   3.359  10.354  1.0803 -0.4675 -0.3774
  392TMC3    C4 5856   3.339   3.446  10.611 -0.5903  0.8697 -0.4689
  392TMC3    C5 5857   3.460   3.445  10.543 -0.3559 -0.1456  0.7491
  392TMC3    C6 5858   3.469   3.401  10.418 -0.4693 -0.2318  0.7342
  392TMC3     C 5859   3.096   3.402  10.619 -0.2424 -0.0937 -0.3073
  392TMC3     O 5860   3.003   3.360  10.550  0.1908  0.2439 -0.2330
  392TMC3     H 5861   3.144   3.327  10.366 -0.3241  1.9207  0.3418
  392TMC3    H1 5862   3.347   3.472  10.716  3.4286  0.1917 -0.5972
  392TMC3    H2 5863   3.564   3.374  10.373 -0.6881  1.5588 -0.7662
  392TMC3    C7 5864   3.574   3.505  10.617  0.4419 -0.0002  0.3032
  392TMC3    C8 5865   3.362   3.296  10.222  0.2942 -0.2570 -0.5544
  392TMC3    O1 5866   3.563   3.533  10.736 -0.5575 -0.0298  0.5375
  392TMC3    O2 5867   3.256   3.252  10.179  0.5803 -0.2068  0.2522
  393TMC3    C1 5868   2.287   1.376  10.565 -0.1581  0.1335  0.4337
  393TMC3    C2 5869   2.220   1.426  10.671 -0.0455  0.0450  0.2967
  393TMC3    C3 5870   2.286   1.500  10.765 -0.1684  0.9672  0.8801
  393TMC3    C4 5871   2.414   1.414  10.539 -0.0862 -0.7224 -0.0771
  393TMC3    C5 5872   2.476   1.496  10.630 -0.3259 -0.1221  0.2586
  393TMC3    C6 5873   2.418   1.534  10.746 -0.0771  0.1019 -0.2728
  393TMC3     C 5874   2.204   1.340  10.445  0.3957 -0.5308  0.2185
  393TMC3     O 5875   2.081   1.327  10.459 -0.2575 -0.1679 -0.3456
  393TMC3     H 5876   2.112   1.417  10.674  0.0655 -1.0961  0.8607
  393TMC3    H1 5877   2.464   1.374  10.451 -0.1521  1.8312 -1.2812
  393TMC3    H2 5878   2.474   1.594  10.818 -1.1614 -1.4058  1.8177
  393TMC3    C7 5879   2.616   1.538  10.611  0.6239 -0.7113  0.6505
  393TMC3    C8 5880   2.209   1.583  10.856  0.4360 -0.6083 -0.0447
  393TMC3    O1 5881   2.649   1.620  10.701  0.1466  0.1949 -0.6837
  393TMC3    O2 5882   2.100   1.538  10.881  0.1466  0.7930 -0.5055
  394TMC3    C1 5883   3.774   1.913  10.353  0.0696 -0.0177  0.0127
  394TMC3    C2 5884   3.722   1.845  10.245 -0.1578 -1.0636  0.1822
  394TMC3    C3 5885   3.710   1.908  10.128 -0.0153  1.0641 -0.5512
  394TMC3    C4 5886   3.809   2.047  10.350 -0.0630  0.6368 -0.8324
  394TMC3    C5 5887   3.797   2.108  10.225 -0.1925 -0.0983 -0.5287
  394TMC3    C6 5888   3.758   2.035  10.108 -0.0536 -0.9846  0.1326
  394TMC3     C 5889   3.774   1.851  10.479  0.5347 -0.1191 -0.7813
  394TMC3     O 5890   3.715   1.905  10.572 -0.1956 -0.1446 -0.6129
  394TMC3     H 5891   3.677   1.750  10.271  1.1720 -1.7813 -0.1046
  394TMC3    H1 5892   3.843   2.093  10.441 -0.1732 -1.9335  0.5074
  394TMC3    H2 5893   3.768   2.064  10.004  0.6442 -2.1344 -0.1308
  394TMC3    C7 5894   3.879   2.218  10.193 -0.0749  0.9660  0.0703
  394TMC3    C8 5895   3.686   1.818  10.013  0.8634  0.7019 -0.8778
  394TMC3    O1 5896   3.917   2.224  10.077  0.3647 -0.6481 -0.2388
  394TMC3    O2 5897   3.622   1.861   9.921 -0.4338  0.0743  0.4017
  395TMC3    C1 5898   2.679   4.249  14.546  0.1828  0.2896  0.4433
  395TMC3    C2 5899   2.583   4.208  14.637  0.2717  0.2261 -0.1593
  395TMC3    C3 5900   2.592   4.263  14.763 -0.1059  1.2273  0.0651
  395TMC3    C4 5901   2.765   4.343  14.574  0.5540  0.4002  0.2403
  395TMC3    C5 5902   2.777   4.392  14.702  0.1445 -0.3518  0.2106
  395TMC3    C6 5903   2.697   4.348  14.801  0.1695 -0.0571  0.2948
  395TMC3     C 5904   2.738   4.138  14.482 -0.7798  0.2927  0.2934
  395TMC3     O 5905   2.732   4.035  14.544  0.1854  0.0010  0.1040
  395TMC3     H 5906   2.515   4.128  14.610 -0.2431  0.0772  1.6214
  395TMC3    H1 5907   2.824   4.395  14.500  2.6886 -3.6108 -0.9148
  395TMC3    H2 5908   2.738   4.342  14.902 -1.8563  0.1902  1.1437
  395TMC3    C7 5909   2.917   4.394  14.745  0.4514  0.0245 -0.1815
  395TMC3    C8 5910   2.576   4.170  14.872 -0.2212  1.5557  0.0658
  395TMC3    O1 5911   2.935   4.489  14.825  0.5422  0.0770 -0.1160
  395TMC3    O2 5912   2.551   4.216  14.980  0.0449  0.0273  0.9560
  396MPD2     C 5913   3.145   0.348  16.884  0.0749  0.3032 -0.3687
  396MPD2    C1 5914   3.278   0.336  16.912  0.0525  0.4742  0.2492
  396MPD2    C2 5915   3.380   0.398  16.843  0.0302  0.4766 -0.1413
  396MPD2    C3 5916   3.346   0.473  16.740  0.6034  0.0219 -0.4400
  396MPD2    C4 5917   3.217   0.479  16.703  0.1031  0.8085 -0.1646
  396MPD2    C5 5918   3.112   0.420  16.778  0.0054 -0.6504 -0.2222
  396MPD2     H 5919   3.485   0.386  16.866 -0.2710 -1.4158  0.2834
  396MPD2    H1 5920   3.187   0.534  16.614 -0.8388  1.7150  0.7025
  396MPD2    H2 5921   3.069   0.286  16.930  1.3091  0.2620  1.6236
  396MPD2    H3 5922   3.010   0.432  16.740  0.2655 -0.1401 -0.7703
  396MPD2     N 5923   3.451   0.537  16.675  0.0438 -0.4621  0.0722
  396MPD2    H5 5924   3.544   0.519  16.712  0.1749  0.5238  0.2107
  396MPD2    N1 5925   3.295   0.243  17.023 -0.4676  0.2395 -0.5901
  396MPD2    H7 5926   3.210   0.189  17.041 -0.0462 -0.0651  0.5041
  397TMC3    C1 5927   3.400   0.098  17.175 -0.1889 -0.3518 -0.1346
  397TMC3    C2 5928   3.521   0.040  17.204  0.0914 -0.2749  0.1894
  397TMC3    C3 5929   3.539   4.630  17.224  0.2037  0.3639 -0.9278
  397TMC3    C4 5930   3.299   0.006  17.155  0.3621 -0.4136  0.4960
  397TMC3    C5 5931   3.321   4.590  17.176  0.8348 -1.0653 -0.0615
  397TMC3    C6 5932   3.439   4.541  17.218 -0.1026 -0.0201 -0.1501
  397TMC3     C 5933   3.411   0.205  17.080  0.0672 -0.6132 -0.4531
  397TMC3     O 5934   3.507   0.277  17.085  0.1538  0.2683  0.4763
  397TMC3     H 5935   3.609   0.105  17.203  1.3365 -1.9678  1.5428
  397TMC3    H1 5936   3.198   0.025  17.121  1.1275  1.3452 -0.7753
  397TMC3    H2 5937   3.459   4.435  17.226 -2.1653 -0.4326 -0.2956
  397TMC3    C7 5938   3.195   4.529  17.205  0.3971 -0.1580 -0.0201
  397TMC3    C8 5939   3.667   4.585  17.270  0.5311 -0.1284  0.3248
  397TMC3    O1 5940   3.091   4.545  17.143  0.6882  0.1504  0.2578
  397TMC3    O2 5941   3.664   4.487  17.345 -0.6626  0.4713 -0.4385
  398MPD2     C 5942   1.257   0.681  17.277 -0.6495  1.0793 -0.6803
  398MPD2    C1 5943   1.226   0.736  17.394 -0.0140 -0.4263  0.4035
  398MPD2    C2 5944   1.295   0.845  17.455  0.1936  0.9141  0.3453
  398MPD2    C3 5945   1.416   0.883  17.397  1.2449  0.4280 -0.4888
  398MPD2    C4 5946   1.449   0.824  17.274 -0.6392 -0.7261 -0.0322
  398MPD2    C5 5947   1.375   0.723  17.214  0.0623 -0.3098 -0.0615
  398MPD2     H 5948   1.276   0.889  17.552  0.0532  1.3081  0.1404
  398MPD2    H1 5949   1.548   0.848  17.238 -0.3730 -0.0984  1.1175
  398MPD2    H2 5950   1.198   0.605  17.227  2.6483  0.9515 -4.3494
  398MPD2    H3 5951   1.411   0.681  17.121 -0.1620 -2.5006  0.8578
  398MPD2     N 5952   1.500   0.976  17.467 -0.2334 -0.0782  0.8797
  398MPD2    H5 5953   1.456   1.025  17.544  1.0502  0.7730  1.0672
  398MPD2    N1 5954   1.117   0.693  17.470  0.7491  0.1550 -0.2800
  398MPD2    H7 5955   1.109   0.734  17.562  0.0891  1.4567 -0.9087
  399TMC3    C1 5956   0.933   0.560  17.553 -0.2616  0.1904  0.1551
  399TMC3    C2 5957   0.898   0.650  17.645  0.2943  0.2620  0.1875
  399TMC3    C3 5958   0.795   0.629   0.049  0.8176  0.4887 -0.5007
  399TMC3    C4 5959   0.844   0.459  17.531  0.2644  0.9574  0.0023
  399TMC3    C5 5960   0.747   0.430  17.628  0.5923 -0.3924 -0.4675
  399TMC3    C6 5961   0.710   0.514   0.044  0.4172 -0.3246  0.4144
  399TMC3     C 5962   1.018   0.602  17.438 -0.1509  0.6675  0.0636
  399TMC3     O 5963   1.002   0.527  17.343  0.2758  0.4738  0.1938
  399TMC3     H 5964   0.959   0.739  17.655  2.4552 -1.2675  0.4664
  399TMC3    H1 5965   0.866   0.382  17.458 -0.4388  0.5644  0.2069
  399TMC3    H2 5966   0.646   0.492   0.129  0.2598 -2.0695 -0.1552
  399TMC3    C7 5967   0.671   0.316  17.608  0.2481 -0.5204  0.0542
  399TMC3    C8 5968   0.787   0.723   0.160  1.0321 -0.1012  0.2024
  399TMC3    O1 5969   0.610   0.278   0.022 -0.2079  0.7104 -0.1094
  399TMC3    O2 5970   0.866   0.819   0.171  0.3037 -0.2077 -0.5878
  400TMC3    C1 5971   4.633   4.493  16.657  0.1782  1.0073  0.3083
  400TMC3    C2 5972   4.535   4.462  16.566  0.3874 -0.7036 -0.1747
  400TMC3    C3 5973   4.470   4.561  16.493 -0.4663  0.6457 -0.1701
  400TMC3    C4 5974   4.659   4.623  16.686  0.0128  0.2852  0.6029
  400TMC3    C5 5975   4.588   4.720  16.613 -0.0691  0.4731  0.4820
  400TMC3    C6 5976   4.498   4.693  16.515 -0.2541 -0.2157  0.3288
  400TMC3     C 5977   4.666   4.397  16.753  0.3449  0.1396 -0.4541
  400TMC3     O 5978   4.580   4.316  16.784  0.0136  0.1100 -0.2124
  400TMC3     H 5979   4.507   4.358  16.555 -1.4986 -0.4067  1.9246
  400TMC3    H1 5980   4.714   4.649  16.776  2.3747  0.0689 -0.7754
  400TMC3    H2 5981   4.460   0.049  16.448  0.5664 -0.1727 -0.0890
  400TMC3    C7 5982   4.618   0.135  16.648 -0.1869 -0.1049 -0.0543
  400TMC3    C8 5983   4.340   4.537  16.449 -0.4069 -0.1377 -0.9683
  400TMC3    O1 5984   4.660   0.153  16.763  0.4468 -0.4642  0.1625
  400TMC3    O2 5985   4.257   4.627  16.465  0.4907  0.0866  0.2368
  401MPD2     C 5986   2.073   3.091   0.735 -0.0586 -0.4647 -0.3866
  401MPD2    C1 5987   2.145   3.062   0.840  0.6230  0.2098 -0.5208
  401MPD2    C2 5988   2.209   2.938   0.849 -0.1520  0.3644  0.6039
  401MPD2    C3 5989   2.202   2.842   0.751 -0.4677 -0.0592 -0.1270
  401MPD2    C4 5990   2.133   2.874   0.639 -0.4752  0.0140  0.1766
  401MPD2    C5 5991   2.066   2.994   0.633  0.5195 -0.1815  0.3123
  401MPD2     H 5992   2.270   2.915   0.935  0.6878  1.6887  0.3568
  401MPD2    H1 5993   2.108   2.797   0.567 -1.7326  0.4863  0.1056
  401MPD2    H2 5994   2.019   3.182   0.710 -0.2786  0.1932  2.4889
  401MPD2    H3 5995   2.001   3.009   0.548 -0.2982 -1.3660  0.7305
  401MPD2     N 5996   2.276   2.722   0.769  0.2068 -0.1168  0.1426
  401MPD2    H5 5997   2.332   2.722   0.855 -2.2067  0.1032  1.7026
  401MPD2    N1 5998   2.174   3.145   0.940  0.3959 -0.1781  0.8790
  401MPD2    H7 5999   2.243   3.106   1.004  2.7939  0.9445 -1.0151
  402TMC3    C1 6000   2.402   2.541   0.699 -0.1953  0.1754 -0.1236
  402TMC3    C2 6001   2.448   2.527   0.827 -0.9741  0.4068  0.1501
  402TMC3    C3 6002   2.580   2.532   0.857 -0.3227  0.1870  0.0313
  402TMC3    C4 6003   2.493   2.553   0.597  0.2139 -0.3891 -0.6378
  402TMC3    C5 6004   2.628   2.544   0.631  0.7076 -0.0785 -0.2138
  402TMC3    C6 6005   2.673   2.540   0.758 -0.1749 -0.6627  0.7148
  402TMC3     C 6006   2.282   2.626   0.671  0.2718  0.7248  0.2597
  402TMC3     O 6007   2.237   2.623   0.556  0.2641  0.2915  0.2467
  402TMC3     H 6008   2.375   2.523   0.907 -0.2309 -0.0295  0.7948
  402TMC3    H1 6009   2.464   2.568   0.494  0.5659 -1.8342 -0.9375
  402TMC3    H2 6010   2.776   2.546   0.792  0.5880 -0.4092 -1.6993
  402TMC3    C7 6011   2.723   2.580   0.518 -0.0536  0.3398  0.3696
  402TMC3    C8 6012   2.630   2.494   0.987  0.3921 -0.0165  0.1900
  402TMC3    O1 6013   2.681   2.630   0.411  0.4366 -0.7535  0.3986
  402TMC3    O2 6014   2.749   2.491   1.010  0.3634  0.3029 -0.2850
  403MPD2     C 6015   1.252   1.690  13.588  0.2880  0.2610  0.6799
  403MPD2    C1 6016   1.373   1.637  13.549  0.1376  0.5111  0.1794
  403MPD2    C2 6017   1.484   1.684  13.612  0.1152  0.1222  0.8419
  403MPD2    C3 6018   1.475   1.783  13.706 -0.7745 -0.3580 -0.0199
  403MPD2    C4 6019   1.352   1.840  13.739 -0.1642  0.1377  0.1599
  403MPD2    C5 6020   1.244   1.782  13.682  0.1567 -0.0885 -0.0102
  403MPD2     H 6021   1.585   1.648  13.593 -0.6345 -2.5563  1.9786
  403MPD2    H1 6022   1.327   1.915  13.813  0.4860  0.1311  0.3802
  403MPD2    H2 6023   1.166   1.651  13.534  0.6415 -1.9162  1.6780
  403MPD2    H3 6024   1.143   1.820  13.695 -0.1945 -1.0272  0.0069
  403MPD2     N 6025   1.593   1.833  13.765 -0.3546  0.0586  0.0993
  403MPD2    H5 6026   1.684   1.797  13.739  0.5658  0.5844  2.6000
  403MPD2    N1 6027   1.363   1.525  13.471 -0.3129 -0.4124  0.2651
  403MPD2    H7 6028   1.274   1.482  13.452  0.3031 -1.3616 -0.4635
  404TMC3    C1 6029   1.426   1.320  13.385 -0.7876  0.4404  0.6703
  404TMC3    C2 6030   1.334   1.246  13.456 -0.1142 -0.6040  0.2031
  404TMC3    C3 6031   1.339   1.110  13.429 -0.5567 -0.3514  0.7830
  404TMC3    C4 6032   1.495   1.274  13.276 -0.0153 -0.5931  0.1473
  404TMC3    C5 6033   1.483   1.143  13.243 -0.3970  0.5545  1.2753
  404TMC3    C6 6034   1.409   1.057  13.322 -0.0451  0.0757  0.5140
  404TMC3     C 6035   1.465   1.448  13.429  0.0494  0.2464 -0.7206
  404TMC3     O 6036   1.586   1.468  13.432  0.3409 -0.1683 -0.0944
  404TMC3     H 6037   1.278   1.294  13.535 -0.0125  2.6051 -1.6491
  404TMC3    H1 6038   1.567   1.334  13.222  0.0868 -0.2099  0.7076
  404TMC3    H2 6039   1.408   0.949  13.316  0.3812  0.1922 -2.0319
  404TMC3    C7 6040   1.488   1.117  13.097  0.6658 -0.3915 -0.6409
  404TMC3    C8 6041   1.364   1.035  13.553  0.6750 -0.2194 -0.0773
  404TMC3    O1 6042   1.501   1.214  13.023 -0.5724 -0.3719  0.5755
  404TMC3    O2 6043   1.457   0.954  13.544 -0.4531 -0.7893  0.9657
  405MPD2     C 6044   1.411   2.253  14.623 -0.1245  0.2050  0.0245
  405MPD2    C1 6045   1.476   2.135  14.601 -0.2818  0.3422  0.1873
  405MPD2    C2 6046   1.470   2.062  14.485  0.1418  0.1194  0.8481
  405MPD2    C3 6047   1.378   2.092  14.391  0.0913 -0.4770  0.3121
  405MPD2    C4 6048   1.321   2.214  14.401  0.8065  0.1067 -0.9410
  405MPD2    C5 6049   1.342   2.296  14.513  0.0917 -0.4325  0.1502
  405MPD2     H 6050   1.542   1.982  14.473 -1.9445 -1.3387 -2.0034
  405MPD2    H1 6051   1.257   2.250  14.322 -2.5066 -1.5144  0.9802
  405MPD2    H2 6052   1.417   2.313  14.712 -0.0766  1.6670 -0.9607
  405MPD2    H3 6053   1.280   2.384  14.526  0.3476 -0.3812  1.0450
  405MPD2     N 6054   1.358   2.002  14.280  0.0004 -1.1414  0.1300
  405MPD2    H5 6055   1.428   1.930  14.264  0.8102 -0.1081 -1.0511
  405MPD2    N1 6056   1.546   2.084  14.713  0.1925  0.5404  0.4902
  405MPD2    H7 6057   1.535   2.145  14.793 -0.8628  0.8829  0.0769
  406TMC3    C1 6058   1.040   1.817  14.056 -0.4159  0.1601  0.3421
  406TMC3    C2 6059   1.067   1.718  14.145 -0.3311  0.3648  0.2094
  406TMC3    C3 6060   1.194   1.711  14.184  0.2769  0.5731 -0.0372
  406TMC3    C4 6061   1.128   1.922  14.028 -0.3873 -0.2789  0.0167
  406TMC3    C5 6062   1.249   1.924  14.089 -0.8291  0.9457  0.1151
  406TMC3    C6 6063   1.283   1.812  14.160 -0.2259 -0.1634 -0.6249
  406TMC3     C 6064   0.904   1.864  14.043  0.4413  0.7971 -0.0060
  406TMC3     O 6065   0.884   1.911  13.934  0.3121  0.2481 -0.0138
  406TMC3     H 6066   0.995   1.647  14.185 -1.4117  0.9689 -0.6742
  406TMC3    H1 6067   1.095   2.006  13.967 -2.3265  0.5089  2.1527
  406TMC3    H2 6068   1.386   1.794  14.187 -0.8447 -1.5448  0.8003
  406TMC3    C7 6069   1.267   2.031  14.180  0.4597 -0.1986 -0.2879
  406TMC3    C8 6070   1.217   1.618  14.294 -0.0924  0.2172 -0.1580
  406TMC3    O1 6071   1.184   2.117  14.172 -0.1013 -0.3431  0.7433
  406TMC3    O2 6072   1.167   1.507  14.284 -0.2850 -0.1650  0.3107
  407MPD2     C 6073   4.182   3.784   9.472 -0.3445  1.2797  0.5663
  407MPD2    C1 6074   4.243   3.889   9.531  0.5931 -0.1824  0.2470
  407MPD2    C2 6075   4.315   3.872   9.646 -0.5750 -0.6792 -0.4267
  407MPD2    C3 6076   4.322   3.746   9.707  0.2406  0.4852 -0.6730
  407MPD2    C4 6077   4.254   3.646   9.647  0.4925 -0.0135 -0.4862
  407MPD2    C5 6078   4.196   3.654   9.523  0.4616 -0.0909  0.0538
  407MPD2     H 6079   4.366   3.956   9.692 -2.3899  1.3195 -2.0674
  407MPD2    H1 6080   4.241   3.549   9.694  2.0076 -0.9418 -1.9930
  407MPD2    H2 6081   4.128   3.784   9.378  1.3496  0.5358 -0.3971
  407MPD2    H3 6082   4.146   3.572   9.473  0.1159  0.6079 -0.7596
  407MPD2     N 6083   4.385   3.720   9.831  0.4444  0.1793  0.7809
  407MPD2    H5 6084   4.363   3.634   9.880 -1.3552 -0.1876 -0.6932
  407MPD2    N1 6085   4.246   4.021   9.474 -0.3742 -0.5921  0.0771
  407MPD2    H7 6086   4.288   4.099   9.523 -1.4564 -1.4096  2.3222
  408TMC3    C1 6087   4.188   4.204   9.341  0.8086 -0.2348 -0.2686
  408TMC3    C2 6088   4.321   4.245   9.329  0.4679 -0.6327  0.2955
  408TMC3    C3 6089   4.359   4.359   9.262 -0.4940  0.1620 -0.1887
  408TMC3    C4 6090   4.089   4.265   9.277 -0.0838  0.7569  0.1546
  408TMC3    C5 6091   4.124   4.380   9.214 -0.2298 -0.0170  0.0351
  408TMC3    C6 6092   4.253   4.431   9.212  0.1163  0.1584 -0.2997
  408TMC3     C 6093   4.174   4.061   9.366  0.1989 -0.1884 -0.3243
  408TMC3     O 6094   4.098   3.999   9.295 -1.0663  0.1643  0.5333
  408TMC3     H 6095   4.404   4.185   9.364 -0.1156 -0.8753  1.2554
  408TMC3    H1 6096   3.989   4.224   9.284 -0.4564  1.7537  0.5250
  408TMC3    H2 6097   4.264   4.525   9.158  0.5088  1.0667  1.3427
  408TMC3    C7 6098   4.025   4.479   9.173  0.0597  0.5763  0.0774
  408TMC3    C8 6099   4.493   4.428   9.249 -0.2303  0.1068 -0.0387
  408TMC3    O1 6100   4.051   4.585   9.124 -0.2213  0.8695 -0.2575
  408TMC3    O2 6101   4.483   4.536   9.196  0.3486 -0.0857 -0.8526
  409MPD2     C 6102   3.178   4.239  16.999 -0.2012 -0.0300  0.2709
  409MPD2    C1 6103   3.286   4.197  17.058 -0.4450  0.0673 -0.6279
  409MPD2    C2 6104   3.404   4.254  17.013  0.3353  0.4452 -0.3939
  409MPD2    C3 6105   3.396   4.366  16.931 -0.5885  0.6130 -0.6308
  409MPD2    C4 6106   3.283   4.412  16.877 -0.3053 -0.1252  0.5548
  409MPD2    C5 6107   3.168   4.335  16.899  0.0280 -0.5519 -0.0499
  409MPD2     H 6108   3.492   4.210  17.058 -0.5112  2.1201  2.9181
  409MPD2    H1 6109   3.292   4.484  16.796  0.9546 -0.1711  0.6531
  409MPD2    H2 6110   3.081   4.201  17.030  0.3336 -1.5262  0.0964
  409MPD2    H3 6111   3.071   4.353  16.854 -0.3813  1.7801  1.7638
  409MPD2     N 6112   3.517   4.431  16.892 -0.0115 -0.1551 -0.1234
  409MPD2    H5 6113   3.509   4.515  16.836 -1.6331  0.7317  1.4411
  409MPD2    N1 6114   3.286   4.106  17.159 -0.0148 -0.2085  0.0562
  409MPD2    H7 6115   3.377   4.101  17.205 -1.1622  0.7381  2.4157
  410TMC3    C1 6116   3.748   4.464  16.871 -0.4162  0.1662 -0.1415
  410TMC3    C2 6117   3.871   4.446  16.915 -0.7032  0.7005  0.2294
  410TMC3    C3 6118   3.979   4.480  16.829 -0.0142 -0.0956 -0.4160
  410TMC3    C4 6119   3.721   4.497  16.735  0.2838 -0.0146  0.6419
  410TMC3    C5 6120   3.829   4.539  16.662  0.2130 -0.3270  0.3510
  410TMC3    C6 6121   3.957   4.525  16.700  0.0120  0.2112 -0.3783
  410TMC3     C 6122   3.644   4.401  16.946 -1.0842  0.0946  0.1391
  410TMC3     O 6123   3.677   4.327  17.038  0.2449 -0.1549  0.4159
  410TMC3     H 6124   3.882   4.425  17.020  1.4971  1.7591  0.2140
  410TMC3    H1 6125   3.622   4.496  16.690  0.4347 -0.6019  0.3301
  410TMC3    H2 6126   4.034   4.546  16.627  1.4027  0.8474  1.2899
  410TMC3    C7 6127   3.796   4.615  16.540  0.4007 -0.6780 -0.1008
  410TMC3    C8 6128   4.113   4.471  16.874 -0.1844  0.7816 -0.0214
  410TMC3    O1 6129   3.681   4.586  16.503  0.0989  0.3198  0.2072
  410TMC3    O2 6130   4.202   4.532  16.807  0.5913 -0.3375 -0.0693
  411MPD2     C 6131   3.817   4.667  14.628 -0.4650 -0.6330  0.7832
  411MPD2    C1 6132   3.708   0.011  14.587  0.1186 -0.1986  0.0321
  411MPD2    C2 6133   3.627   4.670  14.496  0.5469 -0.2627 -0.8249
  411MPD2    C3 6134   3.647   4.536  14.460  0.1343 -0.8043 -0.9987
  411MPD2    C4 6135   3.747   4.463  14.530 -0.4462 -1.1657 -0.7355
  411MPD2    C5 6136   3.841   4.535  14.594 -0.4896 -0.5220  0.3603
  411MPD2     H 6137   3.540   4.719  14.455  0.8772  0.7509 -0.3306
  411MPD2    H1 6138   3.761   4.358  14.509 -0.4015 -0.7537 -2.6937
  411MPD2    H2 6139   3.899   4.710  14.684 -1.7415  0.9240  1.4626
  411MPD2    H3 6140   3.917   4.474  14.641  1.3228  0.7039 -0.9694
  411MPD2     N 6141   3.571   4.466  14.362  0.3465  0.6164  0.6495
  411MPD2    H5 6142   3.609   4.380  14.325 -2.3644  0.1982 -1.1455
  411MPD2    N1 6143   3.693   0.154  14.598  0.0927  0.1612 -0.1429
  411MPD2    H7 6144   3.605   0.196  14.569 -0.7202 -1.8969 -0.6534
  412TMC3    C1 6145   3.428   4.421  14.179  0.2592  0.0169 -0.3883
  412TMC3    C2 6146   3.383   4.488  14.071 -0.0003 -0.4022  0.4125
  412TMC3    C3 6147   3.358   4.411  13.958 -0.0645 -0.1587 -1.3422
  412TMC3    C4 6148   3.438   4.288  14.189  0.5645  0.1553  0.4083
  412TMC3    C5 6149   3.411   4.213  14.081  0.1117  0.3375  0.4073
  412TMC3    C6 6150   3.369   4.271  13.965  0.5925  0.3458  0.0886
  412TMC3     C 6151   3.467   4.512  14.290 -0.0734 -0.3369 -0.2964
  412TMC3     O 6152   3.418   4.623  14.276 -0.2031 -0.3027  0.6137
  412TMC3     H 6153   3.393   4.595  14.065  0.1131 -0.3581  1.3563
  412TMC3    H1 6154   3.479   4.248  14.280  0.0584 -0.1890  0.4845
  412TMC3    H2 6155   3.356   4.215  13.874 -1.0623 -0.3063  0.7290
  412TMC3    C7 6156   3.508   4.111  14.062  0.2514 -0.2580  0.3675
  412TMC3    C8 6157   3.437   4.459  13.843 -0.2585 -0.0248  0.4624
  412TMC3    O1 6158   3.508   4.011  14.132  0.2852  0.1161  0.2868
  412TMC3    O2 6159   3.516   4.381  13.794 -0.3424  0.1869 -0.0429
  413MPD2     C 6160   0.895   2.871  15.462 -0.0297  0.1421  0.5601
  413MPD2    C1 6161   0.830   2.832  15.347  0.5300 -0.5683  0.0030
  413MPD2    C2 6162   0.860   2.707  15.287 -0.5348 -1.2802  0.5456
  413MPD2    C3 6163   0.954   2.631  15.347 -0.5420 -0.2970 -0.1088
  413MPD2    C4 6164   1.025   2.674  15.458 -0.1925 -0.1603 -0.1799
  413MPD2    C5 6165   0.996   2.796  15.511  0.7579 -0.0528 -0.2594
  413MPD2     H 6166   0.812   2.675  15.196 -0.0003 -2.9749  0.8633
  413MPD2    H1 6167   1.110   2.617  15.497 -0.1830  0.9653  1.4282
  413MPD2    H2 6168   0.881   2.970  15.505 -0.6266  0.8792 -1.3344
  413MPD2    H3 6169   1.047   2.838  15.596 -0.5858  0.4467  0.3056
  413MPD2     N 6170   0.982   2.506  15.291 -0.8532  0.1293 -0.0043
  413MPD2    H5 6171   0.945   2.492  15.198  1.2769  2.5092 -1.2047
  413MPD2    N1 6172   0.726   2.911  15.295  0.2653  0.1778 -0.0911
  413MPD2    H7 6173   0.696   2.981  15.362  0.9513 -0.5898  1.0205
  414TMC3    C1 6174   1.096   2.317  15.239  0.5858  0.2680  0.3483
  414TMC3    C2 6175   1.126   2.183  15.269  0.2398  0.2239 -0.2121
  414TMC3    C3 6176   1.197   2.109  15.177  0.1693 -0.0754 -0.3824
  414TMC3    C4 6177   1.149   2.375  15.120 -0.1108 -1.0392 -0.0975
  414TMC3    C5 6178   1.218   2.292  15.033 -0.3078 -0.1568  0.4782
  414TMC3    C6 6179   1.240   2.162  15.062  0.0041 -0.0641 -0.7925
  414TMC3     C 6180   1.051   2.405  15.338 -0.2979  0.1383  0.6466
  414TMC3     O 6181   1.056   2.376  15.457 -0.7281 -0.5454 -0.3791
  414TMC3     H 6182   1.083   2.142  15.359  0.1794 -0.3324 -0.4951
  414TMC3    H1 6183   1.145   2.483  15.104  0.0269 -0.9026  0.7861
  414TMC3    H2 6184   1.303   2.105  14.995 -0.0112 -0.5970 -0.3521
  414TMC3    C7 6185   1.320   2.360  14.956 -0.3027 -1.1261 -0.0284
  414TMC3    C8 6186   1.229   1.974  15.208  0.1462  0.5507 -0.8484
  414TMC3    O1 6187   1.433   2.310  14.957 -0.0120 -0.2686  0.4423
  414TMC3    O2 6188   1.262   1.904  15.115  0.1965  0.4973  0.8235
  415TMC3    C1 6189   1.630   0.547   9.836  0.5389  0.0345 -0.1635
  415TMC3    C2 6190   1.731   0.536   9.741  0.6802  0.6105 -0.5657
  415TMC3    C3 6191   1.694   0.489   9.621  0.5631 -0.1642 -0.2786
  415TMC3    C4 6192   1.498   0.522   9.806 -0.2153  0.7832  0.5739
  415TMC3    C5 6193   1.470   0.477   9.679 -0.3176 -0.3073 -0.0094
  415TMC3    C6 6194   1.569   0.459   9.587 -0.3885  0.7189 -0.3569
  415TMC3     C 6195   1.656   0.616   9.960 -0.4816 -0.1778 -0.8970
  415TMC3     O 6196   1.564   0.598  10.036  0.2892 -0.2818 -0.3176
  415TMC3     H 6197   1.833   0.558   9.770  0.1163  1.4876  0.7725
  415TMC3    H1 6198   1.417   0.543   9.876 -0.7567 -1.7255  0.7174
  415TMC3    H2 6199   1.549   0.412   9.491  1.1917  1.7111 -1.1615
  415TMC3    C7 6200   1.343   0.414   9.647 -1.2816  0.4266 -0.5737
  415TMC3    C8 6201   1.794   0.450   9.529 -0.4408  0.5346  0.3594
  415TMC3    O1 6202   1.334   0.366   9.534  0.1740 -0.1431  0.1085
  415TMC3    O2 6203   1.767   0.361   9.452 -0.0841  0.3681 -0.3161
  416MPD2     C 6204   3.246   0.298  11.230 -0.4454  0.5477 -0.3484
  416MPD2    C1 6205   3.172   0.216  11.315 -1.0315  0.8911  0.3995
  416MPD2    C2 6206   3.182   0.083  11.313 -0.0679  0.3954  0.1848
  416MPD2    C3 6207   3.252   0.022  11.209  0.0314 -0.5749 -0.8336
  416MPD2    C4 6208   3.330   0.102  11.123 -0.5280 -1.2269 -0.1401
  416MPD2    C5 6209   3.323   0.242  11.132  0.3214  0.6782 -0.0308
  416MPD2     H 6210   3.117   0.028  11.381  2.7425 -2.0210  0.9299
  416MPD2    H1 6211   3.378   0.067  11.032  1.1678 -2.3899  1.2037
  416MPD2    H2 6212   3.235   0.406  11.235 -0.7509  0.4724  0.5718
  416MPD2    H3 6213   3.368   0.305  11.056  2.9063 -1.3136 -0.1585
  416MPD2     N 6214   3.245   4.600  11.204 -0.3223  0.3624  0.1564
  416MPD2    H5 6215   3.183   4.563  11.275  0.9407  0.9321  1.5684
  416MPD2    N1 6216   3.086   0.297  11.396 -0.0897  0.3664  1.1805
  416MPD2    H7 6217   3.089   0.396  11.375 -1.6124  0.0394 -0.5674
  417TMC3    C1 6218   2.919   0.364  11.546  0.8603  0.5438  0.7224
  417TMC3    C2 6219   2.879   0.332  11.668  0.4013  0.2564  0.0783
  417TMC3    C3 6220   2.748   0.352  11.707  0.7835  0.0828 -0.0899
  417TMC3    C4 6221   2.825   0.404  11.451 -0.6063  0.1725 -0.5291
  417TMC3    C5 6222   2.693   0.414  11.492 -0.5558  0.3381 -0.2788
  417TMC3    C6 6223   2.651   0.386  11.620 -0.8011 -0.7596 -0.1955
  417TMC3     C 6224   3.010   0.259  11.506  0.4166 -0.6409  0.3038
  417TMC3     O 6225   2.985   0.145  11.542  0.1700 -0.1535  0.0378
  417TMC3     H 6226   2.960   0.329  11.741  0.1335  1.0736  0.4151
  417TMC3    H1 6227   2.870   0.457  11.367  0.2323  1.7744  0.9367
  417TMC3    H2 6228   2.546   0.390  11.648 -1.0734  0.5095 -1.3520
  417TMC3    C7 6229   2.604   0.474  11.400 -0.3492  0.4375 -0.2926
  417TMC3    C8 6230   2.712   0.336  11.845 -0.3776  0.0363 -0.1098
  417TMC3    O1 6231   2.649   0.490  11.293  0.0568  0.5617 -0.5271
  417TMC3    O2 6232   2.601   0.377  11.877 -0.6601 -0.1572 -0.1564
  418TMC3    C1 6233   1.886   1.219  17.596  0.4342 -0.5205  0.6087
  418TMC3    C2 6234   1.814   1.146  17.505 -0.1900  0.2778  0.1121
  418TMC3    C3 6235   1.684   1.106  17.538  0.1282  0.6483  0.0748
  418TMC3    C4 6236   1.834   1.257   0.032  0.2323  0.2540  0.2142
  418TMC3    C5 6237   1.720   1.190   0.070  0.1435  0.6217  0.5448
  418TMC3    C6 6238   1.638   1.133  17.663  0.7621  0.8769 -0.2538
  418TMC3     C 6239   2.013   1.281  17.559 -0.5771 -0.0010 -0.0055
  418TMC3     O 6240   2.034   1.403  17.547 -0.2451  0.0761 -0.5641
  418TMC3     H 6241   1.859   1.128  17.409  1.0533 -1.3669  1.0010
  418TMC3    H1 6242   1.893   1.304   0.109  0.1964 -2.0228  1.6218
  418TMC3    H2 6243   1.544   1.095   0.015 -0.1889  1.4015 -2.0681
  418TMC3    C7 6244   1.736   1.094   0.179  0.3365  0.2333 -0.7063
  418TMC3    C8 6245   1.624   1.020  17.443 -0.4735 -0.0949 -0.1302
  418TMC3    O1 6246   1.690   0.981   0.156 -0.6210 -0.0922  0.1984
  418TMC3    O2 6247   1.693   0.987  17.350  0.6258 -0.0322  0.2697
  419MPD2     C 6248   0.501   4.306  12.499  0.2523 -0.0101  0.3800
  419MPD2    C1 6249   0.391   4.383  12.462 -0.0560 -0.0518  0.6724
  419MPD2    C2 6250   0.313   4.446  12.548  0.3844  0.1931 -0.3318
  419MPD2    C3 6251   0.347   4.441  12.686 -0.7159  0.4383 -0.1081
  419MPD2    C4 6252   0.452   4.358  12.727 -0.6906 -0.7787  0.6578
  419MPD2    C5 6253   0.525   4.287  12.633  0.6738 -0.2398 -0.0122
  419MPD2     H 6254   0.228   4.502  12.511 -0.3688 -0.2598  0.7481
  419MPD2    H1 6255   0.479   4.343  12.831 -0.9574 -1.7084  0.5915
  419MPD2    H2 6256   0.560   4.243  12.433  1.4234 -0.4488  1.8650
  419MPD2    H3 6257   0.602   4.230  12.683  0.5184 -0.4751 -0.0414
  419MPD2     N 6258   0.278   4.519  12.780 -0.1187 -0.9302 -0.7522
  419MPD2    H5 6259   0.205   4.574  12.736  0.0672 -0.4391 -0.4474
  419MPD2    N1 6260   0.351   4.398  12.326 -0.7679  0.2071 -0.0408
  419MPD2    H7 6261   0.261   4.443  12.312 -1.2382 -1.1732 -1.3893
  420TMC3    C1 6262   0.234   4.655  12.956 -0.1305  0.3817  0.1098
  420TMC3    C2 6263   0.136   4.709  12.875 -0.8962 -0.0839  0.2737
  420TMC3    C3 6264   0.093   0.114  12.909 -0.2757  0.1981  0.5093
  420TMC3    C4 6265   0.279   0.001  13.064 -0.1911  0.4111 -0.3709
  420TMC3    C5 6266   0.237   0.124  13.089  0.6245 -0.8805 -0.5289
  420TMC3    C6 6267   0.142   0.183  13.017 -0.1918 -0.0176  0.1752
  420TMC3     C 6268   0.308   4.540  12.907 -0.1671  0.0952  0.1359
  420TMC3     O 6269   0.390   4.492  12.980  0.3837 -0.4085 -0.6391
  420TMC3     H 6270   0.060   4.659  12.815 -1.3544 -0.6111  1.2883
  420TMC3    H1 6271   0.354   4.669  13.123  0.0837 -0.0348 -1.1123
  420TMC3    H2 6272   0.084   0.269  13.049 -1.7079 -0.2902 -1.8587
  420TMC3    C7 6273   0.265   0.179  13.217 -0.0214  0.7903  0.3010
  420TMC3    C8 6274   4.683   0.143  12.872 -0.5471 -0.3238  0.7482
  420TMC3    O1 6275   0.299   0.098  13.300 -0.3301  0.5154 -0.2651
  420TMC3    O2 6276   4.673   0.162  12.750 -0.1141  0.0781  0.0209
  421TMC3    C1 6277   1.731   1.968  13.905  0.4513 -0.3233  0.2807
  421TMC3    C2 6278   1.758   2.101  13.923 -0.1761 -0.4122 -0.2961
  421TMC3    C3 6279   1.888   2.141  13.965 -0.3551  0.6453 -0.4306
  421TMC3    C4 6280   1.820   1.868  13.941 -0.0411 -0.5906  0.3964
  421TMC3    C5 6281   1.946   1.909  13.975  0.0408  1.1762 -0.3158
  421TMC3    C6 6282   1.979   2.045  13.988 -1.3511 -0.2498 -0.1843
  421TMC3     C 6283   1.593   1.937  13.860  0.7026 -0.2440 -0.9173
  421TMC3     O 6284   1.506   2.015  13.894  0.5747 -0.2199  0.5318
  421TMC3     H 6285   1.674   2.169  13.916  1.1079  1.0329 -1.4820
  421TMC3    H1 6286   1.795   1.763  13.950 -1.4747 -0.3188 -0.4330
  421TMC3    H2 6287   2.072   2.069  14.039 -1.3032 -3.7924  1.4060
  421TMC3    C7 6288   2.027   1.820  14.047 -0.1480 -0.6393  0.0522
  421TMC3    C8 6289   1.891   2.247  14.070  0.0831  0.1633  1.0102
  421TMC3    O1 6290   2.133   1.866  14.087 -0.2863  0.0920 -0.1059
  421TMC3    O2 6291   1.783   2.254  14.132  0.3737  0.8406  0.3012
  422TMC3    C1 6292   3.732   2.548  12.482  0.4118 -0.4704  0.4147
  422TMC3    C2 6293   3.767   2.667  12.542  0.9954 -0.5239  0.3981
  422TMC3    C3 6294   3.718   2.695  12.670  0.5445 -0.1553  0.1337
  422TMC3    C4 6295   3.673   2.447  12.549  0.3394 -1.0195  0.1623
  422TMC3    C5 6296   3.640   2.471  12.679  0.5071 -0.0373 -0.4106
  422TMC3    C6 6297   3.656   2.593  12.739 -0.4067 -0.2449 -0.4588
  422TMC3     C 6298   3.794   2.521  12.354  0.5742 -0.5078 -0.2672
  422TMC3     O 6299   3.907   2.567  12.329 -0.0996 -0.1870 -0.1810
  422TMC3     H 6300   3.831   2.734  12.484  0.8047  0.3660  1.2201
  422TMC3    H1 6301   3.647   2.356  12.496 -0.3152  0.6065 -2.2788
  422TMC3    H2 6302   3.650   2.589  12.847  0.9130  0.3377 -0.3599
  422TMC3    C7 6303   3.553   2.382  12.749  0.0217 -0.6000  0.0436
  422TMC3    C8 6304   3.697   2.832  12.706  0.3462 -1.2925  0.0394
  422TMC3    O1 6305   3.574   2.264  12.732 -0.3174 -0.7156 -0.1210
  422TMC3    O2 6306   3.744   2.913  12.629  0.0417 -0.1997  0.8472
  423MPD2     C 6307   4.473   3.447   0.262 -0.3504  0.1781 -0.0844
  423MPD2    C1 6308   4.584   3.521   0.281  0.0844  0.3391  0.0300
  423MPD2    C2 6309   4.680   3.526   0.184  0.4259 -0.5380 -0.5938
  423MPD2    C3 6310   4.675   3.454   0.069 -0.5266  0.1153 -0.0112
  423MPD2    C4 6311   4.555   3.382   0.045  0.3001  0.1999 -0.4380
  423MPD2    C5 6312   4.457   3.383   0.141  0.2901 -0.2595 -0.5086
  423MPD2     H 6313   0.040   3.597   0.203  0.1779 -0.8169  1.4986
  423MPD2    H1 6314   4.541   3.316  17.646  3.6013 -2.0391  0.7276
  423MPD2    H2 6315   4.391   3.442   0.333 -1.4096 -2.3271 -1.4765
  423MPD2    H3 6316   4.361   3.333   0.128  0.4452 -0.2128 -1.8130
  423MPD2     N 6317   0.054   3.444  17.659  0.4815 -0.4275 -0.3633
  423MPD2    H5 6318   0.023   3.403  17.571 -1.4809  0.1728  0.0625
  423MPD2    N1 6319   4.604   3.613   0.394  0.2540 -0.1999  0.0369
  423MPD2    H7 6320   4.699   3.649   0.398 -0.5255  1.8414  0.6484
  424TMC3    C1 6321   4.554   3.750   0.575 -0.1794  0.3505 -0.0932
  424TMC3    C2 6322   4.661   3.706   0.642  0.3490  0.0395 -0.8912
  424TMC3    C3 6323   4.696   3.767   0.759 -0.5428  0.8295  0.4237
  424TMC3    C4 6324   4.457   3.827   0.632 -0.0373 -0.3560 -0.1528
  424TMC3    C5 6325   4.482   3.870   0.760 -0.5175 -0.1783  0.2672
  424TMC3    C6 6326   4.601   3.842   0.823  0.0228 -0.8236 -0.3655
  424TMC3     C 6327   4.504   3.662   0.475 -0.3375  0.5804 -0.2101
  424TMC3     O 6328   4.385   3.630   0.471  0.3622  0.1024 -0.3519
  424TMC3     H 6329   4.712   3.619   0.604  1.5076 -0.2435  1.2845
  424TMC3    H1 6330   4.362   3.836   0.581 -1.4268  0.9753  2.6435
  424TMC3    H2 6331   4.624   3.884   0.920  0.5759  0.3788 -1.0044
  424TMC3    C7 6332   4.361   3.883   0.839 -0.1069  0.1430 -0.7106
  424TMC3    C8 6333   0.104   3.745   0.819  0.0963 -0.5102 -0.6683
  424TMC3    O1 6334   4.260   3.889   0.772  0.1141  0.0215  0.2941
  424TMC3    O2 6335   0.121   3.760   0.938 -0.9433  0.3007  0.5439
  425MPD2     C 6336   4.269   3.055  17.316 -0.2809 -0.0414  0.1103
  425MPD2    C1 6337   4.194   2.943  17.356  1.2998 -0.2217  0.4776
  425MPD2    C2 6338   4.056   2.951  17.385 -0.2792 -0.8494 -0.0429
  425MPD2    C3 6339   3.993   3.071  17.378 -0.2454  0.0211 -0.4193
  425MPD2    C4 6340   4.066   3.180  17.326 -0.3077 -0.2171 -0.2101
  425MPD2    C5 6341   4.203   3.174  17.302  0.3325 -0.1218 -0.6805
  425MPD2     H 6342   3.996   2.867  17.419 -1.8338 -0.3336 -1.5058
  425MPD2    H1 6343   4.018   3.278  17.324  0.3677  0.0979 -0.9179
  425MPD2    H2 6344   4.372   3.053  17.283 -0.2935  2.7293 -0.0581
  425MPD2    H3 6345   4.255   3.254  17.250  0.0892 -0.8340 -1.9958
  425MPD2     N 6346   3.858   3.080  17.412 -0.1809 -0.3257 -0.4105
  425MPD2    H5 6347   3.820   2.989  17.434 -0.3226 -0.0806  0.3409
  425MPD2    N1 6348   4.264   2.822  17.372 -0.5693 -0.0087 -0.0546
  425MPD2    H7 6349   4.355   2.812  17.330 -1.2868 -0.2662 -1.5551
  426TMC3    C1 6350   4.285   2.594  17.445  0.5216  0.1417 -0.0837
  426TMC3    C2 6351   4.303   2.543  17.321 -0.1667  0.4007  0.2749
  426TMC3    C3 6352   4.333   2.410  17.308 -0.7637  0.8305 -0.2953
  426TMC3    C4 6353   4.291   2.517  17.560 -0.5536 -0.0076  0.5662
  426TMC3    C5 6354   4.320   2.387  17.538 -0.4439 -0.4959  0.5091
  426TMC3    C6 6355   4.342   2.331  17.418  0.4228  0.6449 -0.5915
  426TMC3     C 6356   4.216   2.719  17.452  0.6129  0.0540 -0.0351
  426TMC3     O 6357   4.148   2.726  17.557 -0.6430 -0.6659 -0.6274
  426TMC3     H 6358   4.295   2.610  17.237  0.9140 -0.2657 -0.3643
  426TMC3    H1 6359   4.287   2.562  17.659 -1.4654 -0.2853  0.6557
  426TMC3    H2 6360   4.352   2.223  17.418  1.2027  0.7125 -0.2270
  426TMC3    C7 6361   4.325   2.300  17.649 -0.4598 -0.1697  0.2247
  426TMC3    C8 6362   4.356   2.348  17.182  0.6690  0.0379 -0.5536
  426TMC3    O1 6363   4.407   2.210  17.639 -0.0680  0.2039  0.7265
  426TMC3    O2 6364   4.442   2.256  17.177 -0.3702  0.4282 -0.3782
  427MPD2     C 6365   2.964   0.352  14.785 -0.4285  0.0922  0.8035
  427MPD2    C1 6366   2.905   0.305  14.900 -0.1201  0.2300  0.2637
  427MPD2    C2 6367   2.767   0.319  14.931 -0.3783 -0.2146  0.2246
  427MPD2    C3 6368   2.686   0.393  14.848  0.0769  0.1223 -0.3529
  427MPD2    C4 6369   2.740   0.439  14.727  0.0160 -0.4541  0.1944
  427MPD2    C5 6370   2.875   0.415  14.700 -0.1556  0.8571  0.1082
  427MPD2     H 6371   2.732   0.258  15.014 -0.4652  0.8109  0.9312
  427MPD2    H1 6372   2.681   0.491  14.652 -1.7804  0.2004  2.0377
  427MPD2    H2 6373   3.064   0.344  14.745  0.0291  1.5754  1.6595
  427MPD2    H3 6374   2.903   0.442  14.599  0.9038  1.1982  0.4946
  427MPD2     N 6375   2.550   0.416  14.875  0.5324 -0.3480 -0.4951
  427MPD2    H5 6376   2.502   0.468  14.802  0.6682 -1.3204 -1.2736
  427MPD2    N1 6377   2.982   0.230  14.992 -0.0187  0.6175  0.2134
  427MPD2    H7 6378   2.936   0.201  15.077  3.8544 -0.1529  2.0507
  428TMC3    C1 6379   3.157   0.123  15.100 -0.5641 -0.0157 -0.2578
  428TMC3    C2 6380   3.088   0.008  15.136  0.5365  0.1500 -0.3050
  428TMC3    C3 6381   3.145   4.649  15.231 -0.0181  0.6217 -0.1705
  428TMC3    C4 6382   3.278   0.154  15.152  0.0539  0.7893  1.0843
  428TMC3    C5 6383   3.332   0.066  15.240  0.3333  0.1934 -0.5896
  428TMC3    C6 6384   3.272   4.678  15.279 -0.3030  0.1895  0.1469
  428TMC3     C 6385   3.117   0.203  14.984 -0.2892 -0.0424 -0.3371
  428TMC3     O 6386   3.204   0.225  14.903  0.0983  0.0680 -0.1523
  428TMC3     H 6387   3.005   4.692  15.076 -1.2480  1.1852  1.4923
  428TMC3    H1 6388   3.317   0.248  15.115 -0.7038  0.4443 -0.6121
  428TMC3    H2 6389   3.326   4.609  15.342  0.8489  0.7927 -0.1735
  428TMC3    C7 6390   3.469   0.093  15.290 -0.3223  0.3257  0.5153
  428TMC3    C8 6391   3.132   4.512  15.182  0.2861  1.0312 -0.2225
  428TMC3    O1 6392   3.491   0.062  15.407 -0.6643 -0.0606 -0.4234
  428TMC3    O2 6393   3.237   4.448  15.170  0.0832 -0.4713  0.3021
  429MPD2     C 6394   3.869   0.259  17.391  0.0039 -0.8504  0.9028
  429MPD2    C1 6395   3.993   0.228  17.438  0.8434  0.6573  0.0591
  429MPD2    C2 6396   4.103   0.301  17.400 -0.1605  0.2824 -0.0414
  429MPD2    C3 6397   4.092   0.421  17.317 -0.1857 -0.4138  0.9920
  429MPD2    C4 6398   3.962   0.455  17.286 -0.0691 -0.3108  0.3878
  429MPD2    C5 6399   3.859   0.377  17.321  0.0117  0.5229 -0.2266
  429MPD2     H 6400   4.200   0.263  17.431 -0.2889  0.9719  1.2052
  429MPD2    H1 6401   3.944   0.541  17.222  1.2871  0.3710  0.9116
  429MPD2    H2 6402   3.774   0.207  17.395 -0.3461 -0.3265 -0.5231
  429MPD2    H3 6403   3.758   0.397  17.286 -0.2437  3.0450  1.9706
  429MPD2     N 6404   4.211   0.497  17.288 -0.4314  0.9575 -0.7588
  429MPD2    H5 6405   4.299   0.468  17.329 -1.5277  1.4928  1.9517
  429MPD2    N1 6406   4.015   0.120  17.518  0.1379 -0.5627 -0.8858
  429MPD2    H7 6407   4.108   0.085  17.543 -0.2551  0.5199  2.1456
  430TMC3    C1 6408   4.339   0.679  17.202 -0.1953 -0.3114 -1.0331
  430TMC3    C2 6409   4.343   0.807  17.154 -0.5516 -0.0351 -0.2668
  430TMC3    C3 6410   4.454   0.857  17.087 -0.2183  0.6839 -0.0448
  430TMC3    C4 6411   4.439   0.587  17.174 -0.3091 -0.0631  0.1866
  430TMC3    C5 6412   4.545   0.633  17.100 -0.3685 -0.7564  0.1213
  430TMC3    C6 6413   4.560   0.773  17.073  0.0572 -0.0131  0.2381
  430TMC3     C 6414   4.208   0.623  17.225 -0.6867 -0.1678  0.1406
  430TMC3     O 6415   4.117   0.699  17.189  0.4280  0.0169 -0.3566
  430TMC3     H 6416   4.264   0.878  17.177 -0.8384  0.2048 -2.0225
  430TMC3    H1 6417   4.430   0.480  17.187  1.8099 -0.4975 -1.8875
  430TMC3    H2 6418   4.654   0.805  17.030  0.7293  0.0163  1.7404
  430TMC3    C7 6419   4.559   0.544  16.988  0.2157 -0.2068 -0.1807
  430TMC3    C8 6420   4.411   0.908  16.961  0.1787  0.4711 -0.1841
  430TMC3    O1 6421   4.532   0.425  17.003 -0.3435 -0.0591  0.1213
  430TMC3    O2 6422   4.309   0.851  16.926  0.2193  0.6810 -0.2323
  431MPD2     C 6423   0.764   0.023  12.677 -0.6429  0.2799  0.2346
  431MPD2    C1 6424   0.727   0.120  12.594 -0.0666 -0.1958 -0.0539
  431MPD2    C2 6425   0.654   0.102  12.475 -0.1330 -0.0334  0.0148
  431MPD2    C3 6426   0.642   4.700  12.424 -0.3330 -0.0267 -0.3173
  431MPD2    C4 6427   0.694   4.598  12.500 -0.3218 -0.3276 -0.4278
  431MPD2    C5 6428   0.743   4.621  12.627 -0.0574 -0.8266 -0.0825
  431MPD2     H 6429   0.631   0.190  12.416 -2.1840 -1.4548 -1.2981
  431MPD2    H1 6430   0.696   4.496  12.465 -2.5167 -0.6463  0.3986
  431MPD2    H2 6431   0.797   0.032  12.780  0.6817 -0.5898 -0.1020
  431MPD2    H3 6432   0.771   4.530  12.679  2.7551 -0.1378 -0.3594
  431MPD2     N 6433   0.562   4.668  12.316 -0.4514 -0.0079  0.0777
  431MPD2    H5 6434   0.546   4.568  12.313 -3.4236  0.4390  0.7123
  431MPD2    N1 6435   0.742   0.263  12.620 -0.7315  0.0139 -0.4764
  431MPD2    H7 6436   0.711   0.335  12.555 -2.9346 -1.7344 -1.3498
  432TMC3    C1 6437   0.471   4.681  12.092 -0.7368 -0.1234 -0.4443
  432TMC3    C2 6438   0.553   4.647  11.998  0.1776  0.4328  0.0625
  432TMC3    C3 6439   0.546   4.518  11.941 -0.2723 -0.3372  0.6412
  432TMC3    C4 6440   0.381   4.587  12.141 -0.0753  0.2160  0.3230
  432TMC3    C5 6441   0.393   4.454  12.102  0.5504  0.3545  1.0661
  432TMC3    C6 6442   0.471   4.421  11.992 -0.0534 -0.1699  0.2211
  432TMC3     C 6443   0.536   0.025  12.206 -0.1178  0.5334 -0.0244
  432TMC3     O 6444   0.589   0.132  12.183  0.7625  0.0188  0.2076
  432TMC3     H 6445   0.611   0.007  11.955 -1.1707  1.0808 -0.5727
  432TMC3    H1 6446   0.332   4.624  12.230 -2.2339  0.4543 -0.9662
  432TMC3    H2 6447   0.459   4.326  11.942 -0.3933  1.5756 -3.0509
  432TMC3    C7 6448   0.415   4.364  12.209  0.4211  0.2356  0.1356
  432TMC3    C8 6449   0.637   4.490  11.833  0.7612 -1.0205 -0.1920
  432TMC3    O1 6450   0.514   4.297  12.195 -0.1274 -0.4353 -0.3515
  432TMC3    O2 6451   0.596   4.417  11.745  0.1404  0.1747 -0.8066
  433MPD2     C 6452   4.256   3.862  10.834 -0.9539  0.0790  0.4357
  433MPD2    C1 6453   4.200   3.748  10.894  0.1711  0.1122 -0.0281
  433MPD2    C2 6454   4.182   3.743  11.030 -0.9363  0.6760 -0.6651
  433MPD2    C3 6455   4.222   3.853  11.106 -0.0556  0.0481 -0.5546
  433MPD2    C4 6456   4.263   3.972  11.045 -0.3689 -0.3811  0.2026
  433MPD2    C5 6457   4.282   3.970  10.908  1.0884 -0.9662  0.1640
  433MPD2     H 6458   4.137   3.659  11.081  0.0076  0.6147  0.0710
  433MPD2    H1 6459   4.280   4.068  11.091  0.0671 -0.4082  0.0995
  433MPD2    H2 6460   4.276   3.863  10.728  0.0355 -0.9135  0.6024
  433MPD2    H3 6461   4.328   4.053  10.856  1.7879 -0.3640  1.7472
  433MPD2     N 6462   4.220   3.834  11.242  0.5608 -0.9825 -0.0345
  433MPD2    H5 6463   4.161   3.760  11.279  1.0988 -1.1956  0.4045
  433MPD2    N1 6464   4.171   3.631  10.818 -0.2939  0.0952  0.1521
  433MPD2    H7 6465   4.204   3.638  10.723  2.0722  0.9486  1.0438
  434TMC3    C1 6466   4.118   3.409  10.754  0.4054  0.9290  1.0801
  434TMC3    C2 6467   4.135   3.290  10.810  0.0265  0.6645 -0.1286
  434TMC3    C3 6468   4.204   3.194  10.743 -0.1340  0.4489  0.0207
  434TMC3    C4 6469   4.172   3.434  10.632 -0.9795 -0.6360 -0.4083
  434TMC3    C5 6470   4.238   3.341  10.561  0.1015 -0.2262 -0.0644
  434TMC3    C6 6471   4.255   3.213  10.613 -0.2644 -1.1263  0.6727
  434TMC3     C 6472   4.107   3.512  10.854 -0.4232  0.1572 -0.0084
  434TMC3     O 6473   4.041   3.492  10.955 -0.2692 -0.0560 -0.5011
  434TMC3     H 6474   4.102   3.268  10.911 -2.2694 -2.6166 -1.6189
  434TMC3    H1 6475   4.160   3.534  10.591  0.8499 -0.0678  0.4136
  434TMC3    H2 6476   4.309   3.137  10.559 -0.9306 -0.9876 -0.1859
  434TMC3    C7 6477   4.218   3.348  10.420  0.6009 -0.6898  0.2883
  434TMC3    C8 6478   4.254   3.085  10.823 -0.1444 -0.1206  0.3895
  434TMC3    O1 6479   4.231   3.458  10.368  0.1761 -0.0496 -0.4430
  434TMC3    O2 6480   4.257   3.113  10.943 -0.1614 -0.6115  0.1543
  435MPD2     C 6481   1.239   3.637  15.347  0.4925  0.0334  0.2532
  435MPD2    C1 6482   1.193   3.648  15.478  0.4753  0.7694  0.6064
  435MPD2    C2 6483   1.286   3.644  15.584  0.0024 -0.2798  0.3956
  435MPD2    C3 6484   1.418   3.625  15.559  0.5008 -0.5071 -0.4274
  435MPD2    C4 6485   1.459   3.637  15.429  0.0419 -0.1481 -0.2464
  435MPD2    C5 6486   1.372   3.632  15.326  0.6930  0.2754  0.5371
  435MPD2     H 6487   1.245   3.654  15.683 -4.6268  1.0897 -1.6716
  435MPD2    H1 6488   1.562   3.666  15.412 -0.1725 -1.1330 -3.2121
  435MPD2    H2 6489   1.170   3.651  15.265  1.8228 -1.1358 -1.0689
  435MPD2    H3 6490   1.414   3.643  15.226 -0.7356  1.2183  0.0424
  435MPD2     N 6491   1.521   3.593  15.662  0.2105  0.2970 -0.4659
  435MPD2    H5 6492   1.487   3.582  15.757  1.0990 -1.7446 -0.3798
  435MPD2    N1 6493   1.059   3.671  15.517 -1.0019 -0.5632  0.3140
  435MPD2    H7 6494   1.053   3.706  15.612 -0.2262 -0.5714  0.3599
  436TMC3    C1 6495   0.690   3.763  15.674  0.5185  0.0664  0.1283
  436TMC3    C2 6496   0.813   3.730  15.620 -0.9462  0.7559  0.2902
  436TMC3    C3 6497   0.815   3.680  15.495  0.0270  0.6019  0.3204
  436TMC3    C4 6498   0.574   3.739  15.598 -0.2763  0.9193 -0.0481
  436TMC3    C5 6499   0.577   3.693  15.469  0.0694 -0.8765 -0.4465
  436TMC3    C6 6500   0.702   3.667  15.415  0.1311 -1.0105  0.4570
  436TMC3     C 6501   0.689   3.772  15.814  0.8255 -0.1221  0.0926
  436TMC3     O 6502   0.775   3.708  15.876 -1.0083 -0.1022  0.3728
  436TMC3     H 6503   0.906   3.725  15.674 -1.9711  0.9860  2.0739
  436TMC3    H1 6504   0.479   3.758  15.645 -0.5525 -4.5127  1.6570
  436TMC3    H2 6505   0.713   3.625  15.316  2.5092  1.1753 -0.1986
  436TMC3    C7 6506   0.460   3.643  15.407 -0.0496 -0.1991 -0.1025
  436TMC3    C8 6507   0.945   3.651  15.438  0.0161  0.2261  0.1852
  436TMC3    O1 6508   0.487   3.621  15.290  0.2515  0.7247  0.2732
  436TMC3    O2 6509   0.948   3.603  15.328  0.1778  0.3872 -0.2387
  437TMC3    C1 6510   4.398   0.958  12.424 -0.1186 -0.2130  0.1223
  437TMC3    C2 6511   4.269   0.992  12.447 -0.5770 -0.6073 -0.2608
  437TMC3    C3 6512   4.231   1.119  12.408  0.3909 -0.4835  0.0656
  437TMC3    C4 6513   4.492   1.049  12.386 -0.0017  0.0642 -0.1085
  437TMC3    C5 6514   4.442   1.160  12.321 -0.4331 -0.2602 -0.3588
  437TMC3    C6 6515   4.318   1.199  12.337 -0.4551  0.5670  0.3167
  437TMC3     C 6516   4.432   0.832  12.483  0.0905 -0.4113 -0.2950
  437TMC3     O 6517   4.353   0.782  12.558  0.7751  0.1693  0.0274
  437TMC3     H 6518   4.197   0.926  12.493 -1.3109 -0.1786 -0.7955
  437TMC3    H1 6519   4.593   1.014  12.366 -0.6900 -0.8372 -2.0524
  437TMC3    H2 6520   4.291   1.294  12.293 -1.2228 -0.0746 -0.5958
  437TMC3    C7 6521   4.532   1.240  12.232 -0.4261  0.8228  0.8501
  437TMC3    C8 6522   4.093   1.160  12.412 -0.1201  0.2162 -0.6034
  437TMC3    O1 6523   4.477   1.310  12.150 -0.0864  0.1385 -0.0754
  437TMC3    O2 6524   4.033   1.123  12.512  0.2644 -0.3079 -0.0357
  438MPD2     C 6525   2.225   1.802  16.280 -1.0390  0.5536 -0.0735
  438MPD2    C1 6526   2.265   1.725  16.386  0.0219 -0.0819 -0.2304
  438MPD2    C2 6527   2.235   1.765  16.520 -0.5410  0.6699 -0.4601
  438MPD2    C3 6528   2.146   1.871  16.539 -0.2466 -0.4210  0.4810
  438MPD2    C4 6529   2.101   1.944  16.428  0.3346  0.3190  0.5415
  438MPD2    C5 6530   2.141   1.908  16.304  0.6318 -0.4482 -0.2710
  438MPD2     H 6531   2.269   1.713  16.609 -0.4279 -1.0448 -1.5093
  438MPD2    H1 6532   2.037   2.030  16.443 -0.9929 -0.2714 -1.6055
  438MPD2    H2 6533   2.251   1.780  16.177  0.5732 -2.2457  0.9323
  438MPD2    H3 6534   2.097   1.966  16.224 -0.4899 -1.9292 -0.7153
  438MPD2     N 6535   2.117   1.902  16.672 -0.3878  0.5362 -0.8740
  438MPD2    H5 6536   2.156   1.841  16.742  0.6675  3.2582  0.9039
  438MPD2    N1 6537   2.343   1.611  16.373 -0.0896  0.2664  0.8065
  438MPD2    H7 6538   2.360   1.563  16.461  1.0714  0.1650  0.5249
  439TMC3    C1 6539   2.463   1.436  16.306  0.1765  0.0943  0.3835
  439TMC3    C2 6540   2.489   1.341  16.212  0.0553 -0.7299 -0.1244
  439TMC3    C3 6541   2.573   1.233  16.238  0.0113  0.0624 -0.0636
  439TMC3    C4 6542   2.517   1.436  16.431  0.2518  0.5253  0.2894
  439TMC3    C5 6543   2.608   1.334  16.450 -0.2676 -0.1020  0.0964
  439TMC3    C6 6544   2.632   1.229  16.361  0.3253  0.0310 -0.2702
  439TMC3     C 6545   2.385   1.550  16.263 -0.0632  0.8879  0.0482
  439TMC3     O 6546   2.365   1.571  16.141  0.2359 -0.0682  0.1542
  439TMC3     H 6547   2.442   1.348  16.114  0.8363  0.9457 -0.3725
  439TMC3    H1 6548   2.510   1.510  16.510  0.3587  0.6616  0.1691
  439TMC3    H2 6549   2.699   1.147  16.382 -1.6856 -2.1534 -2.2690
  439TMC3    C7 6550   2.677   1.326  16.574 -0.2068  0.3694  0.5487
  439TMC3    C8 6551   2.656   1.192  16.128 -0.1502 -0.8755  0.4609
  439TMC3    O1 6552   2.694   1.215  16.620  0.5810  0.3218 -0.0233
  439TMC3    O2 6553   2.773   1.181  16.147  0.5406  0.7465 -0.2991
  440MPD2     C 6554   0.840   1.518  14.558  0.1396 -0.8322  0.6021
  440MPD2    C1 6555   0.944   1.570  14.643  0.0565 -0.1393  0.4845
  440MPD2    C2 6556   0.979   1.511  14.759 -0.4682 -0.1141 -0.1632
  440MPD2    C3 6557   0.924   1.392  14.794  0.9264  0.4895 -0.1312
  440MPD2    C4 6558   0.841   1.332  14.707 -0.2104  0.6655 -0.4070
  440MPD2    C5 6559   0.796   1.393  14.589  0.3325  0.4427  0.2630
  440MPD2     H 6560   1.052   1.563  14.820 -0.9525  1.7285 -1.1639
  440MPD2    H1 6561   0.785   1.247  14.743  0.5367  0.6915  0.8241
  440MPD2    H2 6562   0.814   1.569  14.466 -0.1186 -0.1642  1.0452
  440MPD2    H3 6563   0.722   1.345  14.525  0.9723 -1.7580  1.1785
  440MPD2     N 6564   0.947   1.323  14.914 -0.0879 -0.6781  0.6142
  440MPD2    H5 6565   0.902   1.233  14.923  0.7601 -1.0840  0.8224
  440MPD2    N1 6566   1.002   1.696  14.615 -0.0395 -0.5179  0.0147
  440MPD2    H7 6567   1.068   1.722  14.688 -2.1397 -0.9486  2.0447
  441TMC3    C1 6568   1.062   1.268  15.107 -0.4789 -0.1213  0.0195
  441TMC3    C2 6569   1.182   1.289  15.166  0.2142 -0.1570 -0.4155
  441TMC3    C3 6570   1.202   1.248  15.291  0.3155 -0.2878  0.0954
  441TMC3    C4 6571   0.956   1.231  15.181  0.3022 -0.0385 -0.4997
  441TMC3    C5 6572   0.979   1.203  15.312 -0.2373  0.2686 -0.4526
  441TMC3    C6 6573   1.107   1.192  15.369  0.1099  0.0983  0.3728
  441TMC3     C 6574   1.036   1.369  15.014 -0.4451  0.0697  1.6067
  441TMC3     O 6575   1.098   1.472  15.010  0.8146 -0.2547 -0.6317
  441TMC3     H 6576   1.267   1.339  15.122  1.6307 -2.2356 -0.0201
  441TMC3    H1 6577   0.854   1.244  15.150  0.3811  1.1867 -0.2502
  441TMC3    H2 6578   1.123   1.191  15.476 -3.0909  0.0251  0.8423
  441TMC3    C7 6579   0.876   1.254  15.398 -0.4007  0.3784 -0.1830
  441TMC3    C8 6580   1.279   1.331  15.377  0.0447 -0.3808  0.2069
  441TMC3    O1 6581   0.820   1.359  15.369 -0.3894 -0.1197 -0.1418
  441TMC3    O2 6582   1.316   1.293  15.487 -0.2308  0.2706 -0.3717
  442MPD2     C 6583   3.806   2.933  16.564 -0.0912 -0.3536 -0.6484
  442MPD2    C1 6584   3.726   2.836  16.631  0.1757  0.2570  0.3353
  442MPD2    C2 6585   3.742   2.697  16.599  0.5779 -0.6214 -1.2971
  442MPD2    C3 6586   3.828   2.661  16.500  0.1684 -0.8648 -0.2897
  442MPD2    C4 6587   3.897   2.761  16.428  0.0954  0.6031  0.3634
  442MPD2    C5 6588   3.886   2.895  16.459  0.2046  0.7062 -0.1695
  442MPD2     H 6589   3.681   2.625  16.652 -2.6636  1.0560 -2.7693
  442MPD2    H1 6590   3.964   2.739  16.346  0.8811  2.3830  0.5189
  442MPD2    H2 6591   3.797   3.039  16.584  2.4181 -0.5937  1.6482
  442MPD2    H3 6592   3.936   2.970  16.398  0.5203  1.0067  0.4610
  442MPD2     N 6593   3.858   2.528  16.468  0.0199  0.3061 -0.3870
  442MPD2    H5 6594   3.925   2.523  16.392  2.0581  0.5945  1.3875
  442MPD2    N1 6595   3.633   2.868  16.733 -0.0865 -0.1402 -0.7180
  442MPD2    H7 6596   3.571   2.796  16.768  0.5922  0.1477  1.0347
  443TMC3    C1 6597   3.480   2.975  16.846 -0.0123 -0.0837 -0.1789
  443TMC3    C2 6598   3.381   3.014  16.767  0.1962  0.0484  0.1583
  443TMC3    C3 6599   3.251   2.968  16.793  0.4980  0.7000 -0.0482
  443TMC3    C4 6600   3.470   2.868  16.928  0.3154 -0.2376 -0.0901
  443TMC3    C5 6601   3.342   2.831  16.953  0.3429 -0.3606 -0.2845
  443TMC3    C6 6602   3.232   2.868  16.886  1.0988 -0.0545  0.3413
  443TMC3     C 6603   3.599   2.991  16.777 -0.3111 -0.2511 -0.2390
  443TMC3     O 6604   3.629   3.111  16.757  0.0125  0.3077  0.3254
  443TMC3     H 6605   3.398   3.102  16.707 -3.4799  0.4196 -0.3534
  443TMC3    H1 6606   3.545   2.829  16.995  0.0018  0.5749  0.7360
  443TMC3    H2 6607   3.135   2.821  16.887  0.5657  1.0085 -2.1854
  443TMC3    C7 6608   3.329   2.715  17.039  0.0750  0.4674  0.7743
  443TMC3    C8 6609   3.187   2.936  16.670 -0.0587  0.5167 -0.2109
  443TMC3    O1 6610   3.410   2.625  17.012 -0.6588 -0.0789  0.0793
  443TMC3    O2 6611   3.168   2.815  16.663  0.1277  0.3645  0.2333
  444MPD2     C 6612   4.015   2.029  17.072 -0.5186  0.0524  0.7232
  444MPD2    C1 6613   3.926   1.926  17.091  0.4652 -0.0572 -0.4010
  444MPD2    C2 6614   3.958   1.808  17.029  0.1059 -0.7248  0.4484
  444MPD2    C3 6615   4.070   1.787  16.955  0.6875 -0.3421  0.2246
  444MPD2    C4 6616   4.145   1.900  16.929 -1.0955  0.2894 -0.1204
  444MPD2    C5 6617   4.125   2.014  16.995  0.2533 -0.4526  0.0011
  444MPD2     H 6618   3.887   1.728  17.051  0.7052 -0.6361  2.6928
  444MPD2    H1 6619   4.232   1.902  16.865 -0.4812 -0.2075  0.7021
  444MPD2    H2 6620   4.002   2.131  17.105  2.7387  0.3885  1.0284
  444MPD2    H3 6621   4.186   2.099  16.965 -1.0984  1.5303  2.9375
  444MPD2     N 6622   4.093   1.664  16.888  0.1002 -1.1314  0.0584
  444MPD2    H5 6623   4.021   1.594  16.895 -1.8184  0.7747 -0.4745
  444MPD2    N1 6624   3.818   1.923  17.185  0.1711 -0.0232 -0.5121
  444MPD2    H7 6625   3.762   1.839  17.193 -1.3109  0.8817 -1.4271
  445TMC3    C1 6626   4.202   1.499  16.766 -0.3607  0.1591  0.2563
  445TMC3    C2 6627   4.095   1.468  16.690 -0.0873 -0.1513  0.3222
  445TMC3    C3 6628   4.115   1.412  16.560  0.4354  0.4127 -0.7962
  445TMC3    C4 6629   4.329   1.446  16.733 -0.5967  0.1279  0.3080
  445TMC3    C5 6630   4.341   1.384  16.616  0.1026  0.6019  0.7834
  445TMC3    C6 6631   4.243   1.368  16.528  0.1284 -0.0337 -0.3751
  445TMC3     C 6632   4.210   1.630  16.831  0.1032 -0.2944  0.5259
  445TMC3     O 6633   4.322   1.683  16.831  0.5236 -0.6521  0.3175
  445TMC3     H 6634   3.997   1.502  16.721 -1.1129 -0.8839 -2.1063
  445TMC3    H1 6635   4.411   1.494  16.786 -2.5923  1.1982  2.4229
  445TMC3    H2 6636   4.261   1.331  16.428  0.1322 -2.1994  0.4447
  445TMC3    C7 6637   4.476   1.376  16.560 -0.1594  0.2498  0.2684
  445TMC3    C8 6638   4.003   1.361  16.480  0.1899  1.0652  0.6733
  445TMC3    O1 6639   4.479   1.362  16.439  0.6650  0.2343 -1.1532
  445TMC3    O2 6640   4.040   1.318  16.369  0.0795 -0.0626  0.3217
  446MPD2     C 6641   3.885   3.232  11.392  0.2199  0.2345 -0.2653
  446MPD2    C1 6642   3.896   3.178  11.263  0.0950 -0.0787  0.1704
  446MPD2    C2 6643   4.020   3.189  11.201 -0.0895 -0.3817  0.1690
  446MPD2    C3 6644   4.130   3.231  11.269  0.2637  0.3986 -0.2603
  446MPD2    C4 6645   4.117   3.275  11.394 -0.3234  0.1099  0.1877
  446MPD2    C5 6646   4.001   3.278  11.458  0.1945 -0.2990 -0.2218
  446MPD2     H 6647   4.039   3.151  11.102  0.0124 -0.2408  0.1345
  446MPD2    H1 6648   4.199   3.322  11.449  0.8372  0.5203 -1.8851
  446MPD2    H2 6649   3.792   3.241  11.448 -0.0838  1.8021 -1.0302
  446MPD2    H3 6650   3.993   3.320  11.558 -2.0150 -0.5953 -0.2675
  446MPD2     N 6651   4.250   3.231  11.197 -0.3224  0.3300  0.1606
  446MPD2    H5 6652   4.245   3.209  11.099 -0.2587 -1.0366  0.4718
  446MPD2    N1 6653   3.783   3.127  11.194  0.2384  0.0602  0.2322
  446MPD2    H7 6654   3.793   3.102  11.096  1.4758  0.3500  0.2767
  447TMC3    C1 6655   4.480   3.209  11.161  0.3338  0.1628 -0.0645
  447TMC3    C2 6656   4.474   3.272  11.043 -0.2670  0.2759 -0.1805
  447TMC3    C3 6657   4.586   3.281  10.967  0.0676  0.0382 -0.0353
  447TMC3    C4 6658   4.595   3.153  11.216 -0.9170  0.3036 -0.1335
  447TMC3    C5 6659   4.715   3.185  11.144  0.2361 -1.1571  0.3741
  447TMC3    C6 6660   4.706   3.243  11.020 -0.0499  0.7999 -0.0479
  447TMC3     C 6661   4.373   3.213  11.253  0.1576 -1.4185  0.9295
  447TMC3     O 6662   4.396   3.206  11.370  0.1616  0.0179  0.2260
  447TMC3     H 6663   4.384   3.319  11.004 -0.3881 -0.7986 -1.1941
  447TMC3    H1 6664   4.591   3.099  11.310  0.8007  0.0838 -0.1847
  447TMC3    H2 6665   0.069   3.256  10.953  0.8204  1.7494  1.2214
  447TMC3    C7 6666   0.122   3.125  11.172  0.9608 -0.7989  0.2266
  447TMC3    C8 6667   4.578   3.324  10.831  0.8948 -0.0724 -0.1220
  447TMC3    O1 6668   0.206   3.137  11.085  0.0729  0.0669 -0.2917
  447TMC3    O2 6669   4.499   3.418  10.809 -0.4608 -0.5869  0.1579
  448TMC3    C1 6670   2.352   3.267  16.860  0.4676 -0.4102 -0.2008
  448TMC3    C2 6671   2.317   3.148  16.796 -0.4662  0.3421 -0.1085
  448TMC3    C3 6672   2.336   3.039  16.880 -0.6504 -0.1684 -0.0635
  448TMC3    C4 6673   2.389   3.283  16.990 -0.2168 -0.1448 -0.0776
  448TMC3    C5 6674   2.399   3.168  17.067  0.5920  0.2429  1.4104
  448TMC3    C6 6675   2.379   3.044  17.009 -0.0412  0.0639  0.0844
  448TMC3     C 6676   2.341   3.391  16.780  0.0092 -0.0917 -0.2905
  448TMC3     O 6677   2.361   3.379  16.661 -0.0381  0.4477 -0.0470
  448TMC3     H 6678   2.284   3.150  16.693  1.5436  0.7514 -0.7453
  448TMC3    H1 6679   2.408   3.376  17.042  1.2704  0.0672 -1.0155
  448TMC3    H2 6680   2.361   2.958  17.072 -0.0181  0.0437  0.0635
  448TMC3    C7 6681   2.446   3.179  17.201  0.2626 -0.8325  0.4417
  448TMC3    C8 6682   2.305   2.909  16.830 -0.4562  0.2811 -0.4864
  448TMC3    O1 6683   2.492   3.283  17.252  0.3329 -0.5361 -0.1729
  448TMC3    O2 6684   2.339   2.811  16.901  0.5688  0.1646  0.6270
  449MPD2     C 6685   3.859   1.484  13.692  0.5162  0.3472  0.0317
  449MPD2    C1 6686   3.730   1.532  13.676  0.0053  0.5604 -0.3562
  449MPD2    C2 6687   3.637   1.490  13.767  0.1543 -0.2226  0.3661
  449MPD2    C3 6688   3.663   1.400  13.866  0.0573  1.0348  0.4873
  449MPD2    C4 6689   3.792   1.347  13.878 -0.6695 -0.1912 -0.3534
  449MPD2    C5 6690   3.892   1.387  13.788  0.0207  0.1798  1.1345
  449MPD2     H 6691   3.538   1.524  13.740 -0.7176 -0.4025  3.3445
  449MPD2    H1 6692   3.825   1.277  13.953 -0.3592  0.3049 -0.0337
  449MPD2    H2 6693   3.938   1.524  13.629 -0.0747  1.4458 -0.0084
  449MPD2    H3 6694   3.996   1.354  13.794  0.0636 -0.4588 -2.9353
  449MPD2     N 6695   3.556   1.361  13.950 -0.8097  0.0224  0.5638
  449MPD2    H5 6696   3.466   1.387  13.912 -0.1002 -0.3948 -1.4101
  449MPD2    N1 6697   3.686   1.626  13.583 -0.6021  0.4361  0.2967
  449MPD2    H7 6698   3.587   1.648  13.590 -0.7079  1.3301 -3.8843
  450TMC3    C1 6699   3.663   1.737  13.384 -0.3891 -0.4576 -0.0411
  450TMC3    C2 6700   3.664   1.679  13.262 -0.6252 -0.4606 -0.1006
  450TMC3    C3 6701   3.538   1.647  13.201  0.3768  0.2038  0.2004
  450TMC3    C4 6702   3.549   1.769  13.448 -0.7039  0.1304 -0.6172
  450TMC3    C5 6703   3.431   1.732  13.390  0.2991 -0.8956 -0.4538
  450TMC3    C6 6704   3.423   1.673  13.269 -0.4381  0.0705 -0.4631
  450TMC3     C 6705   3.757   1.675  13.474 -0.0880  0.4014  0.1934
  450TMC3     O 6706   3.860   1.639  13.426  0.7055  0.3035 -0.5648
  450TMC3     H 6707   3.762   1.655  13.222 -0.9898 -0.5583 -0.9516
  450TMC3    H1 6708   3.550   1.824  13.542  0.9355  1.7250 -1.5576
  450TMC3    H2 6709   3.334   1.628  13.226  0.4790 -0.4369 -1.8211
  450TMC3    C7 6710   3.343   1.681  13.493 -0.3320 -0.7613  0.0562
  450TMC3    C8 6711   3.539   1.577  13.074  0.0420  0.6648  0.3404
  450TMC3    O1 6712   3.400   1.661  13.596  0.5361 -0.0221  0.0707
  450TMC3    O2 6713   3.440   1.581  13.004  0.4428  0.1156  0.3609
  451MPD2     C 6714   4.570   0.292   1.577 -0.5759  1.6430  0.7157
  451MPD2    C1 6715   4.645   0.328   1.466  0.0710 -0.0913  0.2478
  451MPD2    C2 6716   4.707   0.231   1.395  0.4433  0.4905  0.1850
  451MPD2    C3 6717   4.704   0.102   1.442  0.7507 -0.1263 -0.3377
  451MPD2    C4 6718   4.629   0.062   1.551 -0.2171  0.0320 -0.2075
  451MPD2    C5 6719   4.559   0.156   1.621 -0.1788  0.2242 -0.2495
  451MPD2     H 6720   0.061   0.258   1.322  0.1662 -1.4389 -0.8161
  451MPD2    H1 6721   4.621   4.678   1.579  1.9811 -0.2158 -0.4396
  451MPD2    H2 6722   4.519   0.362   1.642 -0.9259  1.7886  0.2885
  451MPD2    H3 6723   4.509   0.131   1.714 -0.6592  0.3234 -0.4812
  451MPD2     N 6724   0.070   0.009   1.376 -0.4058 -0.3939  0.3070
  451MPD2    H5 6725   0.070   4.638   1.420 -1.5315 -0.2855  0.5383
  451MPD2    N1 6726   4.660   0.468   1.444 -0.0072  0.0974  0.3560
  451MPD2    H7 6727   4.606   0.525   1.509  2.4951 -0.9519  3.3481
  452TMC3    C1 6728   0.208   4.614   1.217 -0.0962 -0.6778 -0.9590
  452TMC3    C2 6729   0.262   4.548   1.323  0.1915 -0.1006  0.6150
  452TMC3    C3 6730   0.310   4.423   1.300 -0.3634 -0.2541 -0.4690
  452TMC3    C4 6731   0.195   4.563   1.093  0.0882  0.0869 -0.7130
  452TMC3    C5 6732   0.259   4.445   1.078  0.7914 -0.3550 -0.1232
  452TMC3    C6 6733   0.322   4.369   1.176 -0.8009  0.9727  0.3097
  452TMC3     C 6734   0.118   0.009   1.246  0.1818 -0.0392 -0.1585
  452TMC3     O 6735   0.115   0.098   1.163  0.1079 -0.2682 -0.5214
  452TMC3     H 6736   0.265   4.600   1.418  1.2217 -0.6791  0.8944
  452TMC3    H1 6737   0.139   4.615   1.017 -0.9364 -1.8887 -1.3020
  452TMC3    H2 6738   0.377   4.276   1.166 -0.5689  1.2110 -0.5836
  452TMC3    C7 6739   0.250   4.391   0.939 -0.3834  1.2143  1.1803
  452TMC3    C8 6740   0.384   4.355   1.404  0.0990 -0.6061 -0.2813
  452TMC3    O1 6741   0.201   4.459   0.853 -0.0809 -0.0030 -0.2570
  452TMC3    O2 6742   0.356   4.384   1.518  0.5908  0.5533  0.1300
  453TMC3    C1 6743   1.695   2.510  11.798 -0.2542  0.6547 -0.3958
  453TMC3    C2 6744   1.587   2.423  11.814 -0.1110 -0.2100 -0.5086
  453TMC3    C3 6745   1.501   2.417  11.705 -0.4917  0.1749  0.4997
  453TMC3    C4 6746   1.714   2.588  11.691  0.6043  0.2542  1.4667
  453TMC3    C5 6747   1.618   2.584  11.593 -0.3097 -0.5557 -0.8994
  453TMC3    C6 6748   1.513   2.494  11.590 -0.3755  0.4910  0.0297
  453TMC3     C 6749   1.793   2.521  11.907  0.8846  0.2602 -0.1401
  453TMC3     O 6750   1.841   2.631  11.933  0.4777 -0.4184 -0.0973
  453TMC3     H 6751   1.570   2.373  11.909 -2.0391  1.4530  0.0136
  453TMC3    H1 6752   1.794   2.660  11.694  1.6371 -0.9337  2.0657
  453TMC3    H2 6753   1.449   2.478  11.503  0.4340  0.6689 -0.5926
  453TMC3    C7 6754   1.639   2.644  11.453 -1.1991 -0.6001 -0.7282
  453TMC3    C8 6755   1.396   2.319  11.708  0.2695  0.0095 -0.4984
  453TMC3    O1 6756   1.558   2.604  11.369  0.0500  0.1724  0.4583
  453TMC3    O2 6757   1.284   2.342  11.670 -0.3145 -0.3362  0.4714
  454MPD2     C 6758   0.241   1.986  16.127 -0.2138  0.8221 -0.1475
  454MPD2    C1 6759   0.167   1.869  16.112 -0.1066  0.4923 -0.1956
  454MPD2    C2 6760   0.098   1.816  16.220  0.1390  0.1293  0.6166
  454MPD2    C3 6761   0.102   1.869  16.348 -0.2533 -0.1400  0.4139
  454MPD2    C4 6762   0.167   1.988  16.363 -0.2828  0.2685 -0.1821
  454MPD2    C5 6763   0.235   2.038  16.251 -0.3496 -0.3888 -0.0933
  454MPD2     H 6764   0.050   1.720  16.206  0.9239 -0.6375  3.3128
  454MPD2    H1 6765   0.174   2.030  16.462 -1.5298 -0.0683  0.0436
  454MPD2    H2 6766   0.304   2.022  16.047 -0.4940  3.3770  0.7770
  454MPD2    H3 6767   0.294   2.128  16.268 -1.0634 -0.4690  2.8227
  454MPD2     N 6768   0.012   1.830  16.449 -0.1182  1.0246 -0.7777
  454MPD2    H5 6769   4.720   1.894  16.527  0.1928  0.1178  0.0122
  454MPD2    N1 6770   0.130   1.816  15.983  0.1218  0.3267  0.0181
  454MPD2    H7 6771   0.077   1.730  15.987  1.5976 -0.4643  2.9683
  455TMC3    C1 6772   4.539   1.740  16.528  0.1019 -0.4330  0.0111
  455TMC3    C2 6773   4.553   1.834  16.625 -0.3079  0.1537  0.8421
  455TMC3    C3 6774   4.446   1.915  16.648  0.6331 -0.0005  0.0808
  455TMC3    C4 6775   4.425   1.709  16.468  0.1694  0.4361 -0.0814
  455TMC3    C5 6776   4.325   1.791  16.490  0.4714  0.1092  0.4423
  455TMC3    C6 6777   4.335   1.895  16.576  0.5038  0.7341  0.4145
  455TMC3     C 6778   4.651   1.721  16.441 -0.3692 -0.5764  0.1160
  455TMC3     O 6779   4.643   1.630  16.358 -0.2277  0.2720 -0.4604
  455TMC3     H 6780   4.644   1.845  16.682  0.4819 -3.0471  0.2272
  455TMC3    H1 6781   4.428   1.620  16.407  1.6032  1.2728 -1.2389
  455TMC3    H2 6782   4.243   1.949  16.594  0.4420 -0.0073  2.2564
  455TMC3    C7 6783   4.191   1.740  16.458  0.2731  0.2916  0.5815
  455TMC3    C8 6784   4.442   2.028  16.738  0.0459  0.3942 -0.5545
  455TMC3    O1 6785   4.098   1.776  16.532 -0.1061  0.3034 -0.3602
  455TMC3    O2 6786   4.525   2.020  16.828 -0.2797  0.0062  0.3094
  456MPD2     C 6787   2.666   1.775  16.023 -0.2990 -0.5066  0.1128
  456MPD2    C1 6788   2.691   1.722  16.146  0.8337  0.3549 -0.3259
  456MPD2    C2 6789   2.643   1.791  16.252  0.4605  0.4309 -0.2069
  456MPD2    C3 6790   2.571   1.909  16.243  0.4730  0.1518  0.0741
  456MPD2    C4 6791   2.544   1.962  16.121 -0.6084  0.0679 -0.2738
  456MPD2    C5 6792   2.588   1.887  16.016 -0.1357  1.1680 -0.0269
  456MPD2     H 6793   2.661   1.754  16.352  0.4822 -0.0757 -0.3984
  456MPD2    H1 6794   2.487   2.054  16.109  1.0547  1.1503  0.2401
  456MPD2    H2 6795   2.692   1.729  15.929 -1.1464  0.9832 -0.8569
  456MPD2    H3 6796   2.556   1.907  15.914  1.1646  2.1779 -0.2370
  456MPD2     N 6797   2.522   1.959  16.361  0.4621  0.0025 -0.3395
  456MPD2    H5 6798   2.549   1.914  16.448 -0.0289  0.2845 -0.0433
  456MPD2    N1 6799   2.780   1.607  16.156 -0.7639 -0.5029 -0.6333
  456MPD2    H7 6800   2.803   1.563  16.068  0.4346  1.2091 -1.1895
  457TMC3    C1 6801   2.415   2.105  16.514  0.3654  0.4926  0.1738
  457TMC3    C2 6802   2.326   2.210  16.533 -1.3477 -0.5440 -0.1308
  457TMC3    C3 6803   2.300   2.237  16.662  0.1754 -0.4886  0.1846
  457TMC3    C4 6804   2.478   2.038  16.616 -0.3908 -0.0504 -0.3865
  457TMC3    C5 6805   2.445   2.077  16.748  0.3268  0.3945 -0.1190
  457TMC3    C6 6806   2.345   2.165  16.767  0.1018 -0.4755 -0.2770
  457TMC3     C 6807   2.439   2.070  16.376  0.0186 -0.3183 -0.0706
  457TMC3     O 6808   2.387   2.138  16.293 -0.1783 -0.0755 -0.1792
  457TMC3     H 6809   2.277   2.267  16.455 -1.3051  0.2830  0.4491
  457TMC3    H1 6810   2.552   1.961  16.598 -0.0126  0.0880  0.5734
  457TMC3    H2 6811   2.317   2.195  16.867 -1.2493  0.5020 -0.9459
  457TMC3    C7 6812   2.528   2.047  16.859 -0.7411  0.0717  0.8427
  457TMC3    C8 6813   2.264   2.376  16.697  0.0851 -0.1242 -0.6125
  457TMC3    O1 6814   2.477   2.065  16.967 -0.5118 -0.0018 -0.1199
  457TMC3    O2 6815   2.301   2.421  16.805  0.2724 -0.5957  0.1362
  458MPD2     C 6816   0.266   1.438  12.106 -0.4651 -0.1599 -0.8550
  458MPD2    C1 6817   0.284   1.339  12.189 -0.8703  0.3423 -0.7882
  458MPD2    C2 6818   0.182   1.266  12.239 -0.9618  0.6304 -0.2832
  458MPD2    C3 6819   0.050   1.300  12.204 -0.0884  0.1964 -0.3991
  458MPD2    C4 6820   0.024   1.407  12.124 -0.3022  0.1329  0.0969
  458MPD2    C5 6821   0.138   1.479  12.079  0.4565 -0.8121 -0.2336
  458MPD2     H 6822   0.193   1.174  12.295 -0.6963  1.4919  1.0999
  458MPD2    H1 6823   4.647   1.449  12.108  0.2282  1.5581  0.5456
  458MPD2    H2 6824   0.347   1.498  12.063  1.6618 -0.6579  2.4781
  458MPD2    H3 6825   0.121   1.563  12.013 -0.6257 -2.4633 -2.0326
  458MPD2     N 6826   4.666   1.215  12.253 -0.2217  0.0492 -0.2796
  458MPD2    H5 6827   4.684   1.136  12.314  0.9006  1.9653  1.8664
  458MPD2    N1 6828   0.419   1.317  12.212  0.3141  0.3111  0.1910
  458MPD2    H7 6829   0.478   1.385  12.164 -0.4556  0.4429 -0.5814
  459TMC3    C1 6830   0.613   1.221  12.296 -0.9081  0.2620  0.5028
  459TMC3    C2 6831   0.694   1.299  12.222 -0.2900  0.2105 -0.5263
  459TMC3    C3 6832   0.831   1.303  12.248  0.0804 -0.2220  0.9107
  459TMC3    C4 6833   0.660   1.143  12.397  0.0867  0.0946 -0.5975
  459TMC3    C5 6834   0.795   1.144  12.415 -0.6334  0.2390  0.4032
  459TMC3    C6 6835   0.886   1.221  12.344  0.0967 -0.4625  0.8540
  459TMC3     C 6836   0.468   1.230  12.298 -0.5763  0.4033  0.2325
  459TMC3     O 6837   0.408   1.160  12.380  0.1268  0.0893 -0.3076
  459TMC3     H 6838   0.655   1.368  12.149  1.1672 -0.7425 -2.2289
  459TMC3    H1 6839   0.595   1.095  12.470 -1.1299  0.4503 -1.4445
  459TMC3    H2 6840   0.994   1.219  12.356 -0.0939 -0.0425  2.6538
  459TMC3    C7 6841   0.834   1.099  12.545 -0.2170 -0.1966 -0.0761
  459TMC3    C8 6842   0.926   1.397  12.184  0.0888 -0.4706  0.1199
  459TMC3    O1 6843   0.759   1.026  12.613 -0.0695  0.2170  0.1229
  459TMC3    O2 6844   1.045   1.380  12.202  0.3269 -0.3862 -0.3448
  460MPD2     C 6845   4.657   3.100  10.542 -0.3926 -1.1124 -0.2153
  460MPD2    C1 6846   4.630   3.221  10.612  0.5384 -0.3118 -0.3039
  460MPD2    C2 6847   4.624   3.345  10.546  0.3541 -0.5395 -0.2056
  460MPD2    C3 6848   4.626   3.341  10.408 -0.5264  1.0781  0.0112
  460MPD2    C4 6849   4.664   3.229  10.333 -0.1803  0.4551 -0.2208
  460MPD2    C5 6850   4.664   3.108  10.404 -0.0583 -0.1532  0.5974
  460MPD2     H 6851   4.619   3.440  10.598 -0.4886 -0.3019 -0.7354
  460MPD2    H1 6852   4.665   3.221  10.225  1.1927  0.5824 -0.2200
  460MPD2    H2 6853   4.661   3.002  10.588  1.2558 -1.0429 -0.2023
  460MPD2    H3 6854   4.690   3.021  10.344 -2.4453 -0.7468  0.4573
  460MPD2     N 6855   4.616   3.465  10.344  0.2071  0.0335 -0.0577
  460MPD2    H5 6856   4.601   3.545  10.404 -0.5918  0.9365 -1.4527
  460MPD2    N1 6857   4.635   3.226  10.752 -0.0811  0.1050  0.7260
  460MPD2    H7 6858   4.667   3.141  10.798  0.8839  0.2294  0.2867
  461TMC3    C1 6859   4.596   3.627  10.179  0.1029  0.4439 -0.1117
  461TMC3    C2 6860   4.524   3.657  10.064  0.1092  0.6131  0.0981
  461TMC3    C3 6861   4.479   3.784  10.049  0.2872 -0.3361  0.8728
  461TMC3    C4 6862   4.623   3.719  10.273 -0.2774  0.0467 -0.1610
  461TMC3    C5 6863   4.585   3.844  10.249  0.4699 -0.2897 -0.2914
  461TMC3    C6 6864   4.510   3.878  10.137  0.5047 -0.5359 -0.4678
  461TMC3     C 6865   4.604   3.487  10.212 -0.1437 -0.2766  0.4352
  461TMC3     O 6866   4.579   3.413  10.119 -0.7451 -1.0291 -0.3434
  461TMC3     H 6867   4.512   3.584   9.985 -0.2279  1.0980 -0.3041
  461TMC3    H1 6868   4.682   3.687  10.359 -1.6538 -1.3297  0.2510
  461TMC3    H2 6869   4.510   3.975  10.090 -2.6024 -0.2652  0.1583
  461TMC3    C7 6870   4.643   3.951  10.328 -0.2897  0.0473  0.2492
  461TMC3    C8 6871   4.453   3.817   9.909  0.3597  0.3599  0.5261
  461TMC3    O1 6872   4.581   4.054  10.333  0.1293 -0.0563  0.7126
  461TMC3    O2 6873   4.477   3.934   9.878 -0.9031 -0.1072  0.0486
  462TMC3    C1 6874   4.301   4.221   0.953 -0.4598 -0.2154  0.0253
  462TMC3    C2 6875   4.362   4.249   0.839  0.3999 -0.2497 -0.5837
  462TMC3    C3 6876   4.287   4.244   0.724 -0.4402 -0.4684 -0.0170
  462TMC3    C4 6877   4.175   4.180   0.953 -0.2920 -0.5806 -0.7399
  462TMC3    C5 6878   4.098   4.167   0.838 -0.0118 -0.2775  0.2023
  462TMC3    C6 6879   4.156   4.207   0.722 -0.7391 -0.5767  0.2089
  462TMC3     C 6880   4.374   4.226   1.077  0.0236 -0.0890  1.2243
  462TMC3     O 6881   4.493   4.216   1.066  0.4130 -0.2170  0.3720
  462TMC3     H 6882   4.466   4.274   0.823  0.8457 -2.0775 -0.5720
  462TMC3    H1 6883   4.134   4.133   1.041  1.7146 -0.1866  0.4002
  462TMC3    H2 6884   4.109   4.178   0.630  0.1057 -1.1618 -0.0442
  462TMC3    C7 6885   3.968   4.102   0.837  0.3650  0.2179  0.7013
  462TMC3    C8 6886   4.350   4.253   0.591  0.5105 -0.4723  0.2870
  462TMC3    O1 6887   3.920   4.073   0.729 -0.4195  0.5976  0.1344
  462TMC3    O2 6888   4.277   4.295   0.502 -0.4491  0.5246 -0.1139
  463MPD2     C 6889   0.375   3.489   1.907  0.1058  0.6000 -0.1197
  463MPD2    C1 6890   0.310   3.542   1.805  0.6847  0.1694 -0.8108
  463MPD2    C2 6891   0.376   3.608   1.703  0.1949  0.0322 -0.2002
  463MPD2    C3 6892   0.515   3.627   1.714 -0.3285 -0.2458 -0.4939
  463MPD2    C4 6893   0.584   3.571   1.817  0.3357 -0.3748 -0.2249
  463MPD2    C5 6894   0.508   3.505   1.913 -0.0723 -0.1887 -0.5480
  463MPD2     H 6895   0.315   3.652   1.625  0.7682  0.5870 -0.3378
  463MPD2    H1 6896   0.691   3.562   1.828  0.4110 -0.6860 -1.1960
  463MPD2    H2 6897   0.329   3.447   1.996  1.0315  0.3264  0.2322
  463MPD2    H3 6898   0.560   3.463   1.998  0.7131 -0.0687 -0.9668
  463MPD2     N 6899   0.599   3.696   1.627  0.3481  0.0424  0.0011
  463MPD2    H5 6900   0.698   3.704   1.647  0.3449  0.1203 -0.0132
  463MPD2    N1 6901   0.165   3.528   1.792  0.1237  0.4250  0.6000
  463MPD2    H7 6902   0.127   3.583   1.716  0.5205  1.9275  1.4872
  464TMC3    C1 6903   4.664   3.444   1.837 -0.4884 -0.8868  0.0191
  464TMC3    C2 6904   4.628   3.486   1.712 -0.5747  0.0323 -0.2814
  464TMC3    C3 6905   4.508   3.446   1.662  0.3160  0.3291  0.3500
  464TMC3    C4 6906   4.592   3.364   1.921 -0.0197 -0.1890 -0.0672
  464TMC3    C5 6907   4.472   3.329   1.869  0.1905  0.4118 -0.4767
  464TMC3    C6 6908   4.427   3.366   1.740 -0.0037  0.4389 -0.3672
  464TMC3     C 6909   0.088   3.431   1.862 -0.1985 -0.9881  0.1324
  464TMC3     O 6910   0.123   3.354   1.954  0.0889 -0.4804 -0.1537
  464TMC3     H 6911   4.696   3.551   1.659  1.1227  0.3147  2.2240
  464TMC3    H1 6912   4.625   3.335   2.020  3.8986  2.5553 -0.6030
  464TMC3    H2 6913   4.333   3.333   1.698 -0.0197 -0.4250  0.3334
  464TMC3    C7 6914   4.404   3.226   1.942 -0.3027  0.3340 -0.5348
  464TMC3    C8 6915   4.473   3.473   1.525  0.0134  0.2607  0.1702
  464TMC3    O1 6916   4.416   3.226   2.062  0.7528  0.0202  0.1935
  464TMC3    O2 6917   4.352   3.468   1.494  0.5827  0.1332 -0.1419
  465MPD2     C 6918   1.538   2.073  16.963  0.1533 -0.0984 -0.3041
  465MPD2    C1 6919   1.417   2.012  16.954 -0.1367  0.2587  0.0243
  465MPD2    C2 6920   1.362   2.020  16.824 -0.3787  0.6961  0.3929
  465MPD2    C3 6921   1.430   2.064  16.711  0.0902 -0.7143  0.6428
  465MPD2    C4 6922   1.557   2.104  16.726 -1.2432 -0.5124  0.1348
  465MPD2    C5 6923   1.607   2.112  16.853 -0.1446  0.2419 -0.7213
  465MPD2     H 6924   1.256   1.998  16.815 -0.6263  1.3995  1.5104
  465MPD2    H1 6925   1.615   2.138  16.641  1.9952 -0.7529  2.2493
  465MPD2    H2 6926   1.587   2.099  17.056 -1.2601 -0.7504  0.6230
  465MPD2    H3 6927   1.697   2.169  16.872 -1.7810  2.7238 -0.3726
  465MPD2     N 6928   1.361   2.065  16.592 -0.6875  0.1700  0.4835
  465MPD2    H5 6929   1.266   2.030  16.596 -0.2271 -0.9696  1.4739
  465MPD2    N1 6930   1.337   1.991  17.071  0.0566 -0.2803 -0.2129
  465MPD2    H7 6931   1.237   1.992  17.060  0.0373  2.0372  0.0744
  466TMC3    C1 6932   1.079   2.081  16.294  0.6100 -0.2518  0.2959
  466TMC3    C2 6933   1.087   2.171  16.192  0.6300  0.4210 -0.3915
  466TMC3    C3 6934   1.207   2.238  16.175  0.5000 -0.1693  0.1764
  466TMC3    C4 6935   1.185   2.055  16.376  0.2924  0.4337 -0.0028
  466TMC3    C5 6936   1.295   2.138  16.375 -0.3075 -0.1642 -0.4083
  466TMC3    C6 6937   1.313   2.225  16.264  0.3098  0.1802  0.6526
  466TMC3     C 6938   0.946   2.074  16.359  0.2434 -0.6122  0.3808
  466TMC3     O 6939   0.934   1.991  16.445  0.0742 -0.6129 -0.0340
  466TMC3     H 6940   1.008   2.190  16.120  1.7673  2.6623 -1.0370
  466TMC3    H1 6941   1.164   1.983  16.455  1.3523 -0.7592 -0.8104
  466TMC3    H2 6942   1.401   2.289  16.260  1.3982 -1.3301  0.2346
  466TMC3    C7 6943   1.404   2.123  16.468  0.0007  0.1079  0.2616
  466TMC3    C8 6944   1.194   2.364  16.118 -0.3838 -0.1500  0.4919
  466TMC3    O1 6945   1.509   2.188  16.447 -0.1293  0.1243 -0.2582
  466TMC3    O2 6946   1.162   2.385  16.001 -0.0963 -0.1856  0.2567
  467TMC3    C1 6947   2.341   0.793  13.572 -0.8158 -0.2425 -0.5992
  467TMC3    C2 6948   2.281   0.915  13.559  0.1760  0.1312 -0.4671
  467TMC3    C3 6949   2.170   0.940  13.646  0.6092 -0.1268 -0.1660
  467TMC3    C4 6950   2.306   0.714  13.681 -0.3882 -0.0440 -0.3585
  467TMC3    C5 6951   2.205   0.749  13.764 -0.6031 -0.3119  0.7251
  467TMC3    C6 6952   2.125   0.856  13.744  0.3711  0.0399 -0.0041
  467TMC3     C 6953   2.485   0.794  13.555 -0.7732  0.3826  0.3370
  467TMC3     O 6954   2.556   0.718  13.619 -0.1012 -0.2330 -0.1383
  467TMC3     H 6955   2.305   0.983  13.478 -2.2650  0.9714 -0.4754
  467TMC3    H1 6956   2.357   0.622  13.707  0.4636  0.2398 -1.0422
  467TMC3    H2 6957   2.033   0.871  13.799  0.2935  0.3706 -0.2250
  467TMC3    C7 6958   2.172   0.658  13.874  0.2381  0.0635  0.3806
  467TMC3    C8 6959   2.103   1.063  13.623  0.1387  0.2304  0.0301
  467TMC3    O1 6960   2.241   0.557  13.884  0.3893  0.2599  0.5262
  467TMC3    O2 6961   2.147   1.137  13.535  0.5778 -0.6644  0.0558
  468MPD2     C 6962   1.559   3.736  10.588 -0.0302  0.6446  0.5902
  468MPD2    C1 6963   1.554   3.657  10.705 -0.1973 -0.1245 -0.1034
  468MPD2    C2 6964   1.537   3.522  10.687 -0.2737  0.4787 -0.2654
  468MPD2    C3 6965   1.513   3.466  10.565  0.2931 -0.2926  0.2584
  468MPD2    C4 6966   1.519   3.540  10.448 -0.3844 -0.4673  0.3554
  468MPD2    C5 6967   1.540   3.675  10.464 -0.3954  0.2413  0.0090
  468MPD2     H 6968   1.535   3.460  10.776  3.5004 -0.3925 -0.8021
  468MPD2    H1 6969   1.507   3.500  10.348  0.2477  3.2541 -1.2127
  468MPD2    H2 6970   1.580   3.842  10.594 -0.1728  0.8456 -2.4622
  468MPD2    H3 6971   1.545   3.738  10.376  1.0055  0.8308  0.5158
  468MPD2     N 6972   1.495   3.327  10.552 -0.3294 -0.1344 -0.4770
  468MPD2    H5 6973   1.509   3.277  10.464  0.1066 -3.9221  1.7162
  468MPD2    N1 6974   1.585   3.703  10.836 -0.3856  0.3606  0.0252
  468MPD2    H7 6975   1.599   3.633  10.908 -1.2533 -1.3701 -1.4699
  469TMC3    C1 6976   1.603   3.848  11.011  0.0522  0.0101 -0.3225
  469TMC3    C2 6977   1.691   3.771  11.089  0.0966 -0.1782  0.6521
  469TMC3    C3 6978   1.724   3.804  11.214  0.7127  0.4848 -0.6822
  469TMC3    C4 6979   1.545   3.961  11.064  0.0581  0.5023 -0.0771
  469TMC3    C5 6980   1.572   3.987  11.192  0.2296 -0.1949 -0.2487
  469TMC3    C6 6981   1.659   3.913  11.270 -0.7682 -0.2666  0.5923
  469TMC3     C 6982   1.571   3.831  10.873  0.7251  0.0452 -0.2028
  469TMC3     O 6983   1.527   3.921  10.806  0.1884  1.0438  0.3870
  469TMC3     H 6984   1.748   3.700  11.030 -0.2026  0.3086 -0.2271
  469TMC3    H1 6985   1.487   4.031  11.005 -1.8304  0.4402  1.7161
  469TMC3    H2 6986   1.677   3.939  11.374 -0.2914 -0.3081  0.5173
  469TMC3    C7 6987   1.464   4.054  11.262 -0.3944 -0.2646  0.4231
  469TMC3    C8 6988   1.844   3.746  11.268  0.7716  0.8469  0.5416
  469TMC3    O1 6989   1.356   4.065  11.200  0.2374 -0.1653 -0.2579
  469TMC3    O2 6990   1.876   3.637  11.225  0.2218 -0.2367  0.1574
  470TMC3    C1 6991   3.475   4.245   0.766 -0.0586 -0.1643 -0.1144
  470TMC3    C2 6992   3.571   4.343   0.748 -0.5243  0.2052  0.1204
  470TMC3    C3 6993   3.636   4.398   0.859 -0.0015 -0.0931  0.4374
  470TMC3    C4 6994   3.435   4.208   0.891 -1.0600 -0.4017 -0.3995
  470TMC3    C5 6995   3.503   4.263   1.000  0.3431 -0.3665  0.5050
  470TMC3    C6 6996   3.608   4.352   0.985 -0.4220 -0.4471  0.0756
  470TMC3     C 6997   3.397   4.194   0.657  0.4810  0.8629  0.2278
  470TMC3     O 6998   3.281   4.167   0.674 -0.2542 -0.1414  0.9148
  470TMC3     H 6999   3.592   4.390   0.653 -0.6965 -0.4370 -0.2353
  470TMC3    H1 7000   3.361   4.130   0.908  1.4569 -2.3877  1.3005
  470TMC3    H2 7001   3.665   4.379   1.073 -1.0037  0.1501  0.2682
  470TMC3    C7 7002   3.436   4.240   1.123 -0.6549  0.2548  0.1294
  470TMC3    C8 7003   3.729   4.503   0.828 -0.0433 -0.2176 -0.8274
  470TMC3    O1 7004   3.351   4.150   1.127  0.1791  0.2218  0.0381
  470TMC3    O2 7005   3.816   4.484   0.741  0.1269  0.3976  0.5888
  471MPD2     C 7006   4.521   0.997  16.485 -0.2032 -0.2003 -0.4612
  471MPD2    C1 7007   4.416   0.917  16.540  0.3855 -1.1112  0.1641
  471MPD2    C2 7008   4.406   0.906  16.673  0.6321 -0.2219 -0.2460
  471MPD2    C3 7009   4.505   0.972  16.749  1.0822  0.0052  0.3083
  471MPD2    C4 7010   4.611   1.055  16.699 -0.4652  0.5427 -0.7723
  471MPD2    C5 7011   4.610   1.071  16.566 -1.3655  0.1863  0.7197
  471MPD2     H 7012   4.320   0.851  16.710 -0.9098  0.4187 -2.8996
  471MPD2    H1 7013   4.690   1.089  16.765 -0.0443 -1.6049 -0.1847
  471MPD2    H2 7014   4.518   1.014  16.378 -1.8081 -1.4697 -0.6344
  471MPD2    H3 7015   4.685   1.132  16.517 -0.3912 -1.4607  0.1699
  471MPD2     N 7016   4.507   0.962  16.888 -0.1127 -0.1452  0.2476
  471MPD2    H5 7017   4.587   1.002  16.935 -1.7997  1.6901  1.5318
  471MPD2    N1 7018   4.327   0.834  16.457 -0.4411 -0.8933 -0.0274
  471MPD2    H7 7019   4.259   0.779  16.508  1.3439 -0.7248  2.5374
  472TMC3    C1 7020   4.229   0.726  16.263 -0.0257  0.7218  0.0373
  472TMC3    C2 7021   4.171   0.767  16.149 -0.4209  0.1747  0.1298
  472TMC3    C3 7022   4.134   0.671  16.057 -0.0172  0.3273 -0.4905
  472TMC3    C4 7023   4.248   0.593  16.295 -0.0279  0.6205 -0.1118
  472TMC3    C5 7024   4.199   0.501  16.211 -0.3336  0.3432  0.2329
  472TMC3    C6 7025   4.143   0.541  16.091 -0.3328 -0.0737  0.4426
  472TMC3     C 7026   4.340   0.807  16.322 -0.2880  0.4048 -0.8876
  472TMC3     O 7027   4.429   0.838  16.241 -0.9060 -0.3021 -0.4292
  472TMC3     H 7028   4.164   0.872  16.123  0.5466 -0.0177 -0.8668
  472TMC3    H1 7029   4.292   0.565  16.391 -1.1094 -0.4933  0.0458
  472TMC3    H2 7030   4.102   0.474  16.016  1.3027  1.4068 -1.7526
  472TMC3    C7 7031   4.159   0.367  16.259  0.0957  0.4593 -0.6067
  472TMC3    C8 7032   3.998   0.694  16.009 -0.2836 -0.0955 -0.3204
  472TMC3    O1 7033   4.213   0.325  16.360 -0.0049 -0.4786  0.8569
  472TMC3    O2 7034   3.988   0.710  15.888  0.3745 -0.3442 -0.5571
  473MPD2     C 7035   4.258   2.948  13.788 -0.1342  0.7238  0.1463
  473MPD2    C1 7036   4.193   3.071  13.782  0.8209  0.3936  0.3675
  473MPD2    C2 7037   4.217   3.170  13.870 -0.2265  0.5965  0.7732
  473MPD2    C3 7038   4.305   3.150  13.973 -0.4429  0.3099  0.7961
  473MPD2    C4 7039   4.371   3.029  13.977  0.9249  0.0491 -1.0903
  473MPD2    C5 7040   4.340   2.933  13.897 -0.2880  0.6865 -0.2840
  473MPD2     H 7041   4.164   3.264  13.857 -0.5127  0.4259  0.7061
  473MPD2    H1 7042   4.436   3.010  14.062  0.4761  0.2279 -0.7022
  473MPD2    H2 7043   4.233   2.860  13.730 -1.9287  2.2597 -1.4303
  473MPD2    H3 7044   4.371   2.837  13.935  0.9774  0.1478 -2.6850
  473MPD2     N 7045   4.344   3.253  14.057 -0.4792  0.0650 -0.2116
  473MPD2    H5 7046   4.426   3.238  14.115 -0.7083 -0.7501 -0.0962
  473MPD2    N1 7047   4.107   3.097  13.674 -1.0689 -0.0418  0.5845
  473MPD2    H7 7048   4.088   3.196  13.659 -1.1027 -0.2804 -0.9152
  474TMC3    C1 7049   4.340   3.447  14.187 -0.4194 -0.4980 -0.0740
  474TMC3    C2 7050   4.252   3.527  14.253 -0.7865 -0.1464  0.4266
  474TMC3    C3 7051   4.292   3.599  14.359  0.3440  0.6705  0.4148
  474TMC3    C4 7052   4.471   3.438  14.226  0.3805 -0.1592 -0.1830
  474TMC3    C5 7053   4.508   3.512  14.339 -0.2283  0.1982  0.0218
  474TMC3    C6 7054   4.416   3.581  14.414 -0.2572  0.6765  0.2117
  474TMC3     C 7055   4.284   3.372  14.075  0.1033  0.0627 -0.4283
  474TMC3     O 7056   4.169   3.401  14.040  0.3539  0.3096  0.6209
  474TMC3     H 7057   4.153   3.542  14.213 -0.7819  3.1744  1.6334
  474TMC3    H1 7058   4.550   3.386  14.172 -0.9301 -2.5574  0.2377
  474TMC3    H2 7059   4.429   3.620  14.514  2.5004  0.9965 -0.2995
  474TMC3    C7 7060   4.649   3.538  14.365 -0.5092 -0.0501  0.5417
  474TMC3    C8 7061   4.189   3.676  14.428 -0.8026  0.0388 -0.7993
  474TMC3    O1 7062   0.013   3.501  14.284 -0.7257 -0.1341 -0.3204
  474TMC3    O2 7063   4.200   3.686  14.552 -0.0305 -0.1054  0.1624
  475MPD2     C 7064   3.090   1.501  10.416  0.3463 -0.2121  0.2819
  475MPD2    C1 7065   3.008   1.420  10.347  0.0731  0.7594 -0.4740
  475MPD2    C2 7066   2.876   1.402  10.390  0.1360 -0.2193 -0.9368
  475MPD2    C3 7067   2.828   1.476  10.501  0.3344  0.0176  1.0188
  475MPD2    C4 7068   2.910   1.561  10.567 -0.1804 -0.3541  1.2972
  475MPD2    C5 7069   3.037   1.568  10.524 -0.4373 -0.0849 -0.2299
  475MPD2     H 7070   2.813   1.335  10.332  1.2951 -1.6332 -0.5658
  475MPD2    H1 7071   2.884   1.635  10.642 -0.7948  0.8685 -0.1196
  475MPD2    H2 7072   3.198   1.503  10.408  0.2163  1.9399 -1.1472
  475MPD2    H3 7073   3.105   1.633  10.578 -0.6519 -0.9325  1.0480
  475MPD2     N 7074   2.689   1.460  10.526 -0.7254 -0.0694  0.0445
  475MPD2    H5 7075   2.642   1.377  10.491  0.0983 -0.2017 -0.7554
  475MPD2    N1 7076   3.043   1.360  10.226  0.1711  0.5844 -0.2207
  475MPD2    H7 7077   2.980   1.293  10.182  1.3546 -0.5823 -0.1629
  476TMC3    C1 7078   3.131   1.335  10.002 -0.1679 -0.1354 -1.0500
  476TMC3    C2 7079   2.999   1.320   9.958  0.2208 -0.0382 -0.3382
  476TMC3    C3 7080   2.969   1.369   9.836 -0.7354  0.1067  0.6221
  476TMC3    C4 7081   3.229   1.392   9.922  0.7732  0.6154 -0.1381
  476TMC3    C5 7082   3.184   1.482   9.836 -0.7147  0.7955  0.4041
  476TMC3    C6 7083   3.058   1.469   9.784 -0.0010  0.9316 -0.0492
  476TMC3     C 7084   3.153   1.375  10.145  0.2111 -0.5919 -0.0061
  476TMC3     O 7085   3.246   1.445  10.161  0.4009 -0.3462 -0.0417
  476TMC3     H 7086   2.930   1.271  10.026  0.1876  1.0573  0.4204
  476TMC3    H1 7087   3.330   1.418   9.954  0.3445  0.0523  1.6896
  476TMC3    H2 7088   3.034   1.525   9.694  2.3200 -0.2619 -1.4150
  476TMC3    C7 7089   3.229   1.621   9.844 -0.1576  0.6104 -0.1981
  476TMC3    C8 7090   2.830   1.358   9.786 -0.6133  0.1140  0.8378
  476TMC3    O1 7091   3.197   1.700   9.755 -0.5880 -0.2283  0.0514
  476TMC3    O2 7092   2.784   1.461   9.743 -0.2898 -0.4118 -0.0990
  477MPD2     C 7093   0.205   2.724  11.990 -0.1118 -0.1688  0.5747
  477MPD2    C1 7094   0.191   2.645  11.883 -0.3180  0.0870  0.1366
  477MPD2    C2 7095   0.258   2.522  11.894 -0.0881 -0.5416 -0.8699
  477MPD2    C3 7096   0.330   2.486  12.008 -0.7760 -0.2613  0.0856
  477MPD2    C4 7097   0.353   2.576  12.109  0.1334  0.6447  0.5612
  477MPD2    C5 7098   0.287   2.701  12.095 -0.1312  0.7039  0.0115
  477MPD2     H 7099   0.254   2.458  11.807 -3.0625 -1.9664  0.3183
  477MPD2    H1 7100   0.408   2.555  12.201  0.7054  1.0482  0.3141
  477MPD2    H2 7101   0.152   2.819  11.985  0.2498 -0.0047 -0.2411
  477MPD2    H3 7102   0.299   2.772  12.176  2.2779 -0.5968  0.7677
  477MPD2     N 7103   0.372   2.353  12.008 -0.4363  0.1154  0.2294
  477MPD2    H5 7104   0.338   2.293  11.934  2.5162 -2.3151  0.8671
  477MPD2    N1 7105   0.090   2.675  11.786  0.0156 -0.3557  0.6971
  477MPD2    H7 7106   0.027   2.748  11.816 -0.7934 -1.2458  1.1821
  478TMC3    C1 7107   4.699   2.687  11.581  0.1048 -0.0577  0.1697
  478TMC3    C2 7108   4.605   2.765  11.640  0.3030 -0.9354  0.6169
  478TMC3    C3 7109   4.524   2.842  11.563 -0.2458 -0.1562 -1.4297
  478TMC3    C4 7110   4.704   2.669  11.443 -0.0533  0.0849  0.3724
  478TMC3    C5 7111   4.614   2.742  11.370  0.4550  0.4926 -0.2955
  478TMC3    C6 7112   4.541   2.840  11.428  0.3094  0.1351  0.1357
  478TMC3     C 7113   0.081   2.624  11.657 -0.1347 -0.2475  0.2734
  478TMC3     O 7114   0.157   2.546  11.595  0.3875 -0.2473  0.3816
  478TMC3     H 7115   4.580   2.748  11.744  1.7013 -1.2316  0.9042
  478TMC3    H1 7116   0.045   2.595  11.393  0.4154  1.3228 -0.8638
  478TMC3    H2 7117   4.501   2.918  11.364 -0.0737  0.0295  0.2422
  478TMC3    C7 7118   4.639   2.744  11.229 -0.1962  0.5490 -0.0838
  478TMC3    C8 7119   4.401   2.886  11.620 -0.3434 -0.0596  0.2989
  478TMC3    O1 7120   0.015   2.683  11.185  0.1899 -0.1300 -0.1747
  478TMC3    O2 7121   4.355   2.818  11.709  0.2944  0.0518  0.0498
  479MPD2     C 7122   3.721   0.299  15.112  0.4980  0.0341  0.0477
  479MPD2    C1 7123   3.668   0.234  15.220  0.4090 -0.0617  0.0242
  479MPD2    C2 7124   3.727   0.248  15.347 -0.6601  0.5463  0.5296
  479MPD2    C3 7125   3.849   0.317  15.355 -0.0730 -0.2486  0.1124
  479MPD2    C4 7126   3.902   0.368  15.239  0.0385  0.4610 -0.1636
  479MPD2    C5 7127   3.844   0.362  15.119 -0.0219  0.5002  0.0138
  479MPD2     H 7128   3.692   0.199  15.437  0.6972 -1.5410 -0.0876
  479MPD2    H1 7129   3.996   0.422  15.239  0.0132  0.5053  0.2120
  479MPD2    H2 7130   3.667   0.305  15.018  0.9417 -0.9882 -0.2791
  479MPD2    H3 7131   3.895   0.406  15.034  0.5097 -2.9863 -1.4499
  479MPD2     N 7132   3.920   0.339  15.479 -0.1056  0.6774  0.6964
  479MPD2    H5 7133   4.018   0.363  15.475 -0.5584  2.1024 -1.6340
  479MPD2    N1 7134   3.545   0.164  15.195  0.1241  0.3095  0.2331
  479MPD2    H7 7135   3.511   0.178  15.101 -0.0345 -1.4889  0.0183
  480TMC3    C1 7136   3.559   0.252  15.775  0.3491 -0.1345 -0.7602
  480TMC3    C2 7137   3.467   0.332  15.704 -0.9801 -0.2688  0.0883
  480TMC3    C3 7138   3.520   0.419  15.612  0.2899  0.4435  0.2798
  480TMC3    C4 7139   3.693   0.244  15.752 -0.1612 -0.1900  0.3374
  480TMC3    C5 7140   3.731   0.321  15.646 -0.5937  0.3826 -0.6520
  480TMC3    C6 7141   3.653   0.413  15.578  0.7217 -0.4192 -0.3418
  480TMC3     C 7142   3.502   0.153  15.862 -0.7288 -0.0154  0.0513
  480TMC3     O 7143   3.580   0.061  15.894 -0.6199  0.6329 -0.4007
  480TMC3     H 7144   3.360   0.333  15.716 -0.8325  0.1759  1.3938
  480TMC3    H1 7145   3.767   0.180  15.799 -0.0030 -0.5627 -0.4218
  480TMC3    H2 7146   3.694   0.478  15.501  0.7475 -1.1710 -0.9631
  480TMC3    C7 7147   3.874   0.328  15.615  0.0067  0.2191  0.1703
  480TMC3    C8 7148   3.417   0.445  15.508  0.5610 -0.1381  0.8586
  480TMC3    O1 7149   3.944   0.322  15.712 -0.0078 -0.3628 -0.1275
  480TMC3    O2 7150   3.297   0.431  15.532 -0.1640  0.1208 -0.5101
  481MPD2     C 7151   0.532   0.396  14.236 -0.2829 -0.0715 -0.2388
  481MPD2    C1 7152   0.449   0.295  14.278 -0.5176 -0.2496  0.4000
  481MPD2    C2 7153   0.482   0.223  14.392 -0.2037 -0.3031 -0.1114
  481MPD2    C3 7154   0.605   0.236  14.456  0.1160 -0.7214  0.1479
  481MPD2    C4 7155   0.695   0.319  14.400 -0.4090  0.5153  0.1443
  481MPD2    C5 7156   0.657   0.409  14.300 -0.6974  0.2560 -0.0577
  481MPD2     H 7157   0.414   0.144  14.422 -1.2179 -0.1018 -1.8345
  481MPD2    H1 7158   0.799   0.330  14.428 -0.0011  0.6941 -1.4721
  481MPD2    H2 7159   0.529   0.438  14.136  1.4652  2.6301  0.8045
  481MPD2    H3 7160   0.723   0.488  14.264 -0.3136 -1.0577 -2.2406
  481MPD2     N 7161   0.649   0.149  14.563 -0.2900  0.3974 -0.2779
  481MPD2    H5 7162   0.749   0.156  14.581 -0.5367 -0.0319  1.2078
  481MPD2    N1 7163   0.342   0.266  14.195  0.2449 -0.4288 -0.1873
  481MPD2    H7 7164   0.342   0.311  14.103  1.0484 -1.6713 -0.7919
  482TMC3    C1 7165   0.144   0.164  14.109  0.5008 -0.3084  0.0178
  482TMC3    C2 7166   0.109   0.043  14.061  0.4547  0.2013  0.3489
  482TMC3    C3 7167   0.038   0.036  13.948  0.0291 -0.5019 -0.4720
  482TMC3    C4 7168   0.148   0.272  14.021  0.3785  0.0453  1.0753
  482TMC3    C5 7169   0.092   0.253  13.893 -0.1214 -0.0856 -0.0360
  482TMC3    C6 7170   0.029   0.139  13.858  0.3320 -0.4877  1.3324
  482TMC3     C 7171   0.246   0.166  14.212 -0.0796  0.0640  0.5289
  482TMC3     O 7172   0.239   0.085  14.305 -0.3772  0.4212 -0.3114
  482TMC3     H 7173   0.110   4.684  14.135 -0.4240 -0.2445 -0.1240
  482TMC3    H1 7174   0.177   0.373  14.048  0.5981 -0.1143  1.4318
  482TMC3    H2 7175   4.691   0.135  13.767 -2.0269 -0.3409  2.8543
  482TMC3    C7 7176   0.093   0.361  13.797  0.0535 -0.1039  0.0703
  482TMC3    C8 7177   4.696   4.639  13.911 -0.0535 -0.1643  0.1607
  482TMC3    O1 7178   0.101   0.479  13.838 -0.4677  0.3785 -0.7264
  482TMC3    O2 7179   0.034   4.532  13.931 -0.5360 -1.1464  0.1780
  483TMC3    C1 7180   2.225   3.355   1.047  0.7080 -0.6036 -0.0233
  483TMC3    C2 7181   2.301   3.460   1.001  0.4180 -0.7692 -0.0400
  483TMC3    C3 7182   2.419   3.479   1.063  0.4045 -0.3263 -0.6068
  483TMC3    C4 7183   2.264   3.272   1.151 -0.2217  0.1904  0.1562
  483TMC3    C5 7184   2.390   3.292   1.208  0.7917 -0.1070  0.0722
  483TMC3    C6 7185   2.467   3.395   1.166 -0.5854  0.2855 -0.1334
  483TMC3     C 7186   2.140   3.280   0.948 -0.4752  0.0800  0.3063
  483TMC3     O 7187   2.066   3.342   0.876 -0.8211 -0.0548 -0.7627
  483TMC3     H 7188   2.272   3.511   0.910  2.8997  1.8819  0.6511
  483TMC3    H1 7189   2.210   3.181   1.171 -1.4265  0.8574 -0.0701
  483TMC3    H2 7190   2.555   3.423   1.225  0.2884 -0.0122 -1.3049
  483TMC3    C7 7191   2.443   3.196   1.288  0.5058  0.1932 -0.3443
  483TMC3    C8 7192   2.514   3.576   1.011  0.0213  0.5729  0.8629
  483TMC3    O1 7193   2.567   3.188   1.299  0.0267  0.1048  0.2856
  483TMC3    O2 7194   2.619   3.591   1.068  0.2350  0.1215  0.4919
  484MPD2     C 7195   0.843   1.699  12.002  0.4802 -0.6801 -0.1912
  484MPD2    C1 7196   0.926   1.614  12.060 -0.2872 -0.1453 -0.0983
  484MPD2    C2 7197   1.066   1.630  12.062  0.1168  0.8921 -0.9597
  484MPD2    C3 7198   1.127   1.738  11.992 -0.2052 -0.1636 -0.0678
  484MPD2    C4 7199   1.037   1.833  11.937 -0.0212  0.2746  0.2749
  484MPD2    C5 7200   0.903   1.814  11.949 -0.0571  0.3600 -0.0815
  484MPD2     H 7201   1.124   1.547  12.101  0.1554 -0.6939 -4.3780
  484MPD2    H1 7202   1.064   1.933  11.906  1.1524  0.0539  0.5877
  484MPD2    H2 7203   0.736   1.685  12.008  0.3321  0.9252  0.8721
  484MPD2    H3 7204   0.844   1.893  11.902 -1.9675 -1.7456 -1.1861
  484MPD2     N 7205   1.262   1.774  12.007  0.0392 -0.2972  0.1046
  484MPD2    H5 7206   1.297   1.862  11.970  0.3490 -0.6399 -0.4236
  484MPD2    N1 7207   0.865   1.509  12.128 -0.3770  0.3244 -0.0945
  484MPD2    H7 7208   0.764   1.513  12.118 -0.3201  1.0384 -0.4034
  485TMC3    C1 7209   1.482   1.790  12.076 -0.2562  0.0626 -0.3000
  485TMC3    C2 7210   1.579   1.741  12.163 -0.0641 -0.2132  0.0438
  485TMC3    C3 7211   1.693   1.816  12.180  0.2356 -0.0040  0.8245
  485TMC3    C4 7212   1.498   1.908  12.003  0.2823 -0.8277 -0.1126
  485TMC3    C5 7213   1.616   1.976  12.019 -0.0448  0.1859 -0.3842
  485TMC3    C6 7214   1.717   1.929  12.109  0.3623  0.5625  0.3197
  485TMC3     C 7215   1.357   1.716  12.085 -0.0540 -1.0809 -0.7031
  485TMC3     O 7216   1.346   1.623  12.166  0.3402  0.0151 -0.2071
  485TMC3     H 7217   1.577   1.637  12.195  0.3605  0.0232  0.8473
  485TMC3    H1 7218   1.422   1.956  11.942  3.1409 -0.1017 -3.0950
  485TMC3    H2 7219   1.811   1.983  12.120  1.5460 -1.0247 -1.9404
  485TMC3    C7 7220   1.673   2.027  11.896  0.2378  0.0928  0.1891
  485TMC3    C8 7221   1.815   1.740  12.213  0.1642 -0.8175 -0.1998
  485TMC3    O1 7222   1.695   2.150  11.884  0.5084  0.5858  0.0393
  485TMC3    O2 7223   1.919   1.777  12.160  0.1437  0.6868 -0.0686
  486MPD2     C 7224   3.492   0.316  12.817  0.3360 -0.5229  0.1998
  486MPD2    C1 7225   3.403   0.303  12.710 -0.0243  0.0362 -0.1931
  486MPD2    C2 7226   3.336   0.416  12.669  0.5148 -0.2038  0.2288
  486MPD2    C3 7227   3.338   0.526  12.753  0.6220  0.5987  0.2425
  486MPD2    C4 7228   3.430   0.539  12.852  0.2867 -0.0800  0.6489
  486MPD2    C5 7229   3.516   0.436  12.878  0.1598  0.5359 -0.3291
  486MPD2     H 7230   3.268   0.408  12.586 -2.8211 -1.0276  3.0565
  486MPD2    H1 7231   3.455   0.632  12.902  0.9438  0.5159 -0.8015
  486MPD2    H2 7232   3.556   0.232  12.840 -0.0214 -0.9029 -0.2155
  486MPD2    H3 7233   3.599   0.454  12.945  1.7195  2.0370 -2.6905
  486MPD2     N 7234   3.242   0.628  12.718 -0.4672 -0.3234 -0.3224
  486MPD2    H5 7235   3.183   0.606  12.638  0.1651  1.9985 -1.4283
  486MPD2    N1 7236   3.404   0.176  12.655  0.5638 -0.0355  0.0954
  486MPD2    H7 7237   3.449   0.101  12.706 -0.2667 -1.4547 -1.2184
  487TMC3    C1 7238   3.319   4.707  12.539 -1.4578  0.3071 -0.9186
  487TMC3    C2 7239   3.197   4.655  12.572 -0.8185 -0.5117 -0.0833
  487TMC3    C3 7240   3.195   4.538  12.653 -0.2493  0.3596  0.0098
  487TMC3    C4 7241   3.434   4.647  12.575 -0.4502 -0.3332 -0.3686
  487TMC3    C5 7242   3.431   4.518  12.633 -0.1331  0.0580 -0.1527
  487TMC3    C6 7243   3.310   4.460  12.676  1.0265  0.4757 -0.7040
  487TMC3     C 7244   3.318   0.134  12.556  1.0252 -0.0410 -0.0498
  487TMC3     O 7245   3.225   0.191  12.505  0.1424  0.5357 -0.1377
  487TMC3     H 7246   3.102   4.704  12.553 -1.0447 -0.5835  0.8500
  487TMC3    H1 7247   3.527   4.703  12.564 -0.5696 -0.2166 -0.7849
  487TMC3    H2 7248   3.311   4.383  12.752  2.9824 -0.5243 -1.7505
  487TMC3    C7 7249   3.552   4.486  12.700  0.8974  0.4130 -0.4428
  487TMC3    C8 7250   3.092   4.539  12.743 -0.2880 -0.4521  0.2843
  487TMC3    O1 7251   3.618   4.584  12.742  0.0768 -0.1096  0.1534
  487TMC3    O2 7252   3.040   4.645  12.767  0.0390  0.0071 -0.1633
  488MPD2     C 7253   3.330   1.951  16.421 -0.1538 -0.1218 -0.4512
  488MPD2    C1 7254   3.383   2.065  16.484 -0.5935 -0.2444  0.3799
  488MPD2    C2 7255   3.413   2.064  16.622  0.8104 -0.2271 -0.0158
  488MPD2    C3 7256   3.370   1.962  16.703  0.4299  0.5190 -0.2754
  488MPD2    C4 7257   3.298   1.860  16.645  0.0483 -0.5528 -0.1458
  488MPD2    C5 7258   3.279   1.853  16.506  0.1872 -0.1199 -0.0263
  488MPD2     H 7259   3.466   2.142  16.675  0.1800 -0.3338  0.7906
  488MPD2    H1 7260   3.250   1.776  16.696  0.2750 -0.7481 -0.2567
  488MPD2    H2 7261   3.312   1.941  16.314 -1.2089  1.2215 -0.4030
  488MPD2    H3 7262   3.220   1.773  16.464  1.7777 -1.4319  0.2426
  488MPD2     N 7263   3.390   1.978  16.841 -0.2448 -0.8630 -0.2314
  488MPD2    H5 7264   3.454   2.052  16.868 -1.3788 -0.9776  2.7359
  488MPD2    N1 7265   3.438   2.175  16.416 -0.6440 -0.0364  0.1289
  488MPD2    H7 7266   3.447   2.264  16.463 -1.5283  0.7458 -1.1636
  489TMC3    C1 7267   3.391   1.914  17.069  0.4867  0.5841 -0.3102
  489TMC3    C2 7268   3.409   2.049  17.098 -0.7929  0.2084 -0.4489
  489TMC3    C3 7269   3.374   2.097  17.218  0.5357 -0.4993 -0.3838
  489TMC3    C4 7270   3.347   1.823  17.164  0.0638 -0.8309 -0.6867
  489TMC3    C5 7271   3.306   1.879  17.280  0.2545  0.2846  0.2775
  489TMC3    C6 7272   3.319   2.011  17.310  0.4551 -0.3112  0.8371
  489TMC3     C 7273   3.374   1.872  16.930 -0.1541 -0.4211  0.1972
  489TMC3     O 7274   3.315   1.766  16.920  0.1518 -0.3185 -0.0926
  489TMC3     H 7275   3.448   2.114  17.020  0.4798  0.2576  0.2449
  489TMC3    H1 7276   3.343   1.716  17.148 -1.0393 -1.2854  2.5293
  489TMC3    H2 7277   3.301   2.035  17.414  0.9049  2.1963  0.3507
  489TMC3    C7 7278   3.235   1.789  17.369 -0.0721  0.1076 -0.7747
  489TMC3    C8 7279   3.366   2.234  17.225 -0.5484  0.1662  0.6552
  489TMC3    O1 7280   3.250   1.801  17.485  0.9273 -0.2468 -0.1013
  489TMC3    O2 7281   3.438   2.305  17.152  0.5471  0.0240 -0.2744
  490MPD2     C 7282   3.898   1.604   0.180 -0.2002 -0.0291  0.5978
  490MPD2    C1 7283   3.982   1.554   0.082  0.2571  0.4653 -0.2161
  490MPD2    C2 7284   4.105   1.614   0.066  0.0705 -0.3359 -0.1531
  490MPD2    C3 7285   4.132   1.734   0.130 -0.1663  0.6973 -0.4641
  490MPD2    C4 7286   4.051   1.779   0.232  0.9917  0.2915 -0.4394
  490MPD2    C5 7287   3.938   1.711   0.256 -0.3086 -0.1002 -0.0416
  490MPD2     H 7288   4.171   1.575  17.674  0.8001  0.3109  0.1450
  490MPD2    H1 7289   4.068   1.866   0.294 -0.6253 -0.7003  1.3699
  490MPD2    H2 7290   3.799   1.564   0.201 -0.8918  0.5449 -1.5315
  490MPD2    H3 7291   3.873   1.738   0.339 -0.6952  1.2560 -0.7983
  490MPD2     N 7292   4.260   1.798   0.107  0.0353 -0.0523  0.0327
  490MPD2    H5 7293   4.300   1.859   0.179  2.6718 -2.0066  0.2127
  490MPD2    N1 7294   3.939   1.444  17.680  0.0555 -0.7816 -0.2642
  490MPD2    H7 7295   3.852   1.396   0.015  0.1550  0.1007  2.3510
  491TMC3    C1 7296   3.945   1.275  17.529  0.2102  0.2993  0.5637
  491TMC3    C2 7297   3.834   1.234  17.603 -0.5484 -0.5219  0.4837
  491TMC3    C3 7298   3.740   1.162  17.534  0.3013  0.0547  0.1700
  491TMC3    C4 7299   3.965   1.242  17.394  0.0429  0.1929  0.0984
  491TMC3    C5 7300   3.857   1.194  17.330 -0.7096 -0.0665  0.2448
  491TMC3    C6 7301   3.744   1.158  17.396 -0.1705  0.6129 -0.2737
  491TMC3     C 7302   4.015   1.387  17.585  0.2478  0.6327 -0.1302
  491TMC3     O 7303   4.122   1.417  17.531  0.7615  0.2688  0.3474
  491TMC3     H 7304   3.860   1.200   0.017  0.0714  1.0218  0.8513
  491TMC3    H1 7305   4.055   1.279  17.347  1.4040  0.8655  3.2648
  491TMC3    H2 7306   3.675   1.092  17.345  0.9703 -2.0031  1.5628
  491TMC3    C7 7307   3.855   1.171  17.189 -0.4880  0.0644  0.4613
  491TMC3    C8 7308   3.652   1.078  17.612  0.2416  0.4641 -0.0699
  491TMC3    O1 7309   3.748   1.139  17.136  0.3898  0.2254  0.4395
  491TMC3    O2 7310   3.621   1.117   0.039  0.1347  0.1073  0.6030
  492MPD2     C 7311   4.435   1.696  11.573  0.1257 -0.4979 -0.2025
  492MPD2    C1 7312   4.403   1.620  11.456  0.9192 -0.1088  0.1359
  492MPD2    C2 7313   4.349   1.495  11.476  0.2645  0.3894  0.0356
  492MPD2    C3 7314   4.319   1.442  11.602 -0.6786 -0.3542  0.6988
  492MPD2    C4 7315   4.352   1.523  11.712 -0.5435  0.1145  0.7522
  492MPD2    C5 7316   4.410   1.645  11.692 -0.0336 -0.0720 -0.4191
  492MPD2     H 7317   4.319   1.432  11.393  1.2803 -1.2196  0.9128
  492MPD2    H1 7318   4.341   1.487  11.814  0.9488  0.7974  1.1529
  492MPD2    H2 7319   4.463   1.800  11.561  2.8298 -1.2204 -0.1624
  492MPD2    H3 7320   4.435   1.708  11.777  0.5924 -1.3638  0.3388
  492MPD2     N 7321   4.261   1.318  11.632 -0.1326 -0.3097 -0.0161
  492MPD2    H5 7322   4.236   1.294  11.727  1.0305  0.4393  0.4680
  492MPD2    N1 7323   4.419   1.685  11.326  0.3490  0.0908 -0.0269
  492MPD2    H7 7324   4.473   1.771  11.328 -2.1465  1.5779  3.5319
  493TMC3    C1 7325   4.422   1.715  11.089 -0.5067  0.0868  0.9084
  493TMC3    C2 7326   4.559   1.743  11.083  0.0323 -0.6237 -0.0185
  493TMC3    C3 7327   4.610   1.748  10.954 -0.3889 -0.2038 -0.6651
  493TMC3    C4 7328   4.347   1.686  10.979 -0.2478 -0.0387  0.0502
  493TMC3    C5 7329   4.413   1.677  10.855 -0.2150  0.0095 -0.0120
  493TMC3    C6 7330   4.539   1.718  10.839  0.3598  0.1356  0.2044
  493TMC3     C 7331   4.379   1.638  11.206 -0.1233  0.1423  0.1274
  493TMC3     O 7332   4.309   1.544  11.173  0.4684 -0.0104  0.0901
  493TMC3     H 7333   4.618   1.760  11.173 -0.5496  0.9446  0.0562
  493TMC3    H1 7334   4.246   1.647  10.991 -0.3621  0.1484 -0.3117
  493TMC3    H2 7335   4.578   1.703  10.739  2.2729 -0.5941  1.0568
  493TMC3    C7 7336   4.388   1.543  10.798 -0.4652 -0.3687  0.4397
  493TMC3    C8 7337   4.717   1.850  10.948 -0.5065  0.2316 -0.7010
  493TMC3    O1 7338   4.382   1.534  10.676  0.2201  0.0213 -0.3012
  493TMC3    O2 7339   0.060   1.864  11.052 -0.0699  0.2408  0.1561
  494TMC3    C1 7340   4.041   3.630  17.625 -0.0746  0.2337 -0.3586
  494TMC3    C2 7341   3.993   3.500  17.615  0.1616 -0.1545  0.3170
  494TMC3    C3 7342   4.074   3.392  17.596 -0.3084 -0.2444 -0.2675
  494TMC3    C4 7343   4.168   3.662  17.588  0.3609 -0.6256 -0.1145
  494TMC3    C5 7344   4.234   3.552  17.539 -0.2189  0.0654  0.2969
  494TMC3    C6 7345   4.195   3.416  17.540 -0.4959  0.9875 -0.2580
  494TMC3     C 7346   3.982   3.693   0.058  0.4348 -0.2189  0.0255
  494TMC3     O 7347   3.928   3.617   0.135  0.1392 -0.7606 -0.1395
  494TMC3     H 7348   3.889   3.491  17.647 -0.2198 -2.2995 -1.5228
  494TMC3    H1 7349   4.210   3.762  17.578  0.4195 -0.8494 -2.1388
  494TMC3    H2 7350   4.248   3.331  17.502 -0.1043  1.3812 -0.5911
  494TMC3    C7 7351   4.373   3.574  17.507  0.5288 -0.3224 -0.5000
  494TMC3    C8 7352   4.087   3.303   0.022  0.0722 -0.1717 -0.2811
  494TMC3    O1 7353   4.417   3.501  17.422  0.4391 -0.1141 -0.3411
  494TMC3    O2 7354   4.166   3.209   0.011  0.5813  0.4987 -0.2803
  495TMC3    C1 7355   3.744   0.384  14.642 -0.2171  0.0158  0.2977
  495TMC3    C2 7356   3.665   0.422  14.537  0.2768  0.5506  0.0227
  495TMC3    C3 7357   3.596   0.542  14.554  0.0547  0.0145  0.5416
  495TMC3    C4 7358   3.764   0.467  14.747 -1.1672 -0.3026 -0.3892
  495TMC3    C5 7359   3.677   0.573  14.762 -0.1363  0.3473  0.3080
  495TMC3    C6 7360   3.590   0.611  14.672  0.1121 -0.0889 -0.7031
  495TMC3     C 7361   3.785   0.242  14.651  0.1650  0.0088  0.0008
  495TMC3     O 7362   3.893   0.218  14.706  0.0148 -0.6140 -0.1419
  495TMC3     H 7363   3.648   0.357  14.453 -1.3792  1.2241 -0.1630
  495TMC3    H1 7364   3.814   0.438  14.838  1.1560  0.5052 -1.4131
  495TMC3    H2 7365   3.532   0.702  14.685  1.5167  0.6744  0.1712
  495TMC3    C7 7366   3.629   0.572  14.898  0.3252 -0.1623 -0.4484
  495TMC3    C8 7367   3.487   0.542  14.467 -0.0319  0.4044  0.5317
  495TMC3    O1 7368   3.711   0.592  14.986 -1.0063 -0.3195 -0.5911
  495TMC3    O2 7369   3.385   0.579  14.524  0.5211  0.0811 -0.4536
  496MPD2     C 7370   0.397   0.624  15.584 -0.2851  0.5332 -0.1274
  496MPD2    C1 7371   0.495   0.528  15.613 -0.0873  0.1787  0.0718
  496MPD2    C2 7372   0.483   0.453  15.725  0.8862 -0.2019 -0.0342
  496MPD2    C3 7373   0.371   0.463  15.816  0.4172 -0.0819  0.0160
  496MPD2    C4 7374   0.284   0.562  15.786 -0.0602  0.1718  0.2782
  496MPD2    C5 7375   0.294   0.642  15.678  0.2322  0.1141 -0.5059
  496MPD2     H 7376   0.560   0.380  15.749 -0.5841 -0.7157  3.0157
  496MPD2    H1 7377   0.199   0.590  15.847 -0.0107 -1.5913  1.1416
  496MPD2    H2 7378   0.397   0.678  15.491  0.8632 -0.7114 -0.8476
  496MPD2    H3 7379   0.208   0.705  15.660  0.4667  0.6682  0.3314
  496MPD2     N 7380   0.358   0.393  15.935  0.2601  0.3711  0.3933
  496MPD2    H5 7381   0.286   0.421  16.001  0.8688 -0.3051  1.3647
  496MPD2    N1 7382   0.596   0.514  15.512  0.3625 -0.0902 -0.5077
  496MPD2    H7 7383   0.590   0.574  15.430 -0.3784 -5.0061 -4.0213
  497TMC3    C1 7384   0.425   0.248  16.114  0.2696  0.9237  0.6239
  497TMC3    C2 7385   0.500   0.139  16.156 -0.7927  0.1797 -0.0321
  497TMC3    C3 7386   0.528   0.129  16.292  0.4349 -0.4859  0.1692
  497TMC3    C4 7387   0.377   0.338  16.200  0.2643  0.0960 -0.0569
  497TMC3    C5 7388   0.418   0.328  16.330  0.1331  0.3174 -0.5842
  497TMC3    C6 7389   0.496   0.230  16.379 -0.3904 -0.3263 -0.7633
  497TMC3     C 7390   0.442   0.289  15.976 -0.6312  0.0122 -0.2524
  497TMC3     O 7391   0.515   0.226  15.898  0.3792  0.0180 -0.2341
  497TMC3     H 7392   0.546   0.073  16.083  1.6733  0.7101  1.0598
  497TMC3    H1 7393   0.316   0.423  16.170  0.8759  0.9691  1.1426
  497TMC3    H2 7394   0.523   0.227  16.483  3.6316 -0.3603 -1.8154
  497TMC3    C7 7395   0.392   0.448  16.406  0.3566  0.6571 -0.1254
  497TMC3    C8 7396   0.620   0.027  16.338 -0.2196  0.5468 -0.1740
  497TMC3    O1 7397   0.293   0.514  16.379 -0.1412  0.0939 -0.2077
  497TMC3    O2 7398   0.662   0.033  16.453  0.2465 -0.4751 -0.0981
  498MPD2     C 7399   2.278   0.497   9.371 -0.5286  0.0103  0.0200
  498MPD2    C1 7400   2.241   0.612   9.422  0.1642  0.1239  0.9036
  498MPD2    C2 7401   2.111   0.625   9.461  0.2347 -0.0976 -0.0074
  498MPD2    C3 7402   2.025   0.514   9.474 -0.0835 -0.0347 -0.1540
  498MPD2    C4 7403   2.065   0.394   9.419  0.0301  0.4014 -0.5905
  498MPD2    C5 7404   2.196   0.389   9.364  0.4955 -0.4502 -0.5694
  498MPD2     H 7405   2.078   0.718   9.504  0.3267 -0.2712  0.4394
  498MPD2    H1 7406   1.997   0.309   9.423 -0.6654  1.1260  2.8250
  498MPD2    H2 7407   2.378   0.466   9.342 -0.2680  0.1947  0.7345
  498MPD2    H3 7408   2.247   0.299   9.332 -1.0172 -1.4942 -0.0525
  498MPD2     N 7409   1.904   0.536   9.538 -0.2938 -0.2077  0.5886
  498MPD2    H5 7410   1.883   0.622   9.587  2.6905  0.0827  1.3389
  498MPD2    N1 7411   2.316   0.732   9.418 -0.4399 -0.3926 -0.3956
  498MPD2    H7 7412   2.268   0.812   9.457  2.1118 -0.0890  2.1556
  499TMC3    C1 7413   2.511   0.874   9.406 -0.6332 -0.1572  1.0963
  499TMC3    C2 7414   2.641   0.875   9.442  0.0880 -0.5194 -0.7388
  499TMC3    C3 7415   2.698   0.997   9.459  0.0977  0.3630  0.0863
  499TMC3    C4 7416   2.437   0.980   9.373 -0.5143  0.0125  0.6439
  499TMC3    C5 7417   2.498   1.100   9.385 -0.6487  0.4426  0.6949
  499TMC3    C6 7418   2.633   1.112   9.417 -0.2355  0.1706 -0.2219
  499TMC3     C 7419   2.448   0.742   9.381  0.5344  0.8821 -0.0321
  499TMC3     O 7420   2.526   0.653   9.343  0.8367 -0.4740  0.1183
  499TMC3     H 7421   2.689   0.780   9.464 -2.6702 -1.8512 -0.5802
  499TMC3    H1 7422   2.337   0.964   9.334  0.1659 -1.6678 -0.4068
  499TMC3    H2 7423   2.677   1.211   9.428 -1.9142  0.4427  3.8611
  499TMC3    C7 7424   2.425   1.216   9.348  0.1695  0.2028  0.7959
  499TMC3    C8 7425   2.829   1.004   9.514  0.0424 -0.2679 -0.3067
  499TMC3    O1 7426   2.493   1.310   9.307 -0.4077  0.6484  0.1542
  499TMC3    O2 7427   2.874   0.902   9.569  0.5478 -0.0381 -0.0343
  500MPD2     C 7428   3.595   2.510   9.501  0.7916 -0.3822 -0.4988
  500MPD2    C1 7429   3.554   2.482   9.634 -0.2042 -0.0257  0.4121
  500MPD2    C2 7430   3.456   2.395   9.658  0.0763  0.3191  0.2825
  500MPD2    C3 7431   3.403   2.319   9.553 -0.9083  0.1911 -0.3364
  500MPD2    C4 7432   3.457   2.329   9.428  0.2946  0.2701  0.1835
  500MPD2    C5 7433   3.558   2.419   9.401  0.1568  0.3684  0.4524
  500MPD2     H 7434   3.414   2.391   9.758 -2.0532 -1.8361 -0.6847
  500MPD2    H1 7435   3.433   2.259   9.349  0.1975 -0.0439  0.4884
  500MPD2    H2 7436   3.671   2.584   9.480 -0.6991  1.0381 -0.9232
  500MPD2    H3 7437   3.604   2.415   9.303 -1.2212  0.6231 -0.1986
  500MPD2     N 7438   3.306   2.214   9.569 -0.1251 -0.0163  0.2374
  500MPD2    H5 7439   3.280   2.151   9.493  0.6961 -1.1209  0.8739
  500MPD2    N1 7440   3.611   2.545   9.749 -0.4399 -0.1327  0.0030
  500MPD2    H7 7441   3.588   2.494   9.834 -1.7841 -2.7935 -1.9515
  501TMC3    C1 7442   3.740   2.693   9.884  0.3441 -0.0787 -0.9595
  501TMC3    C2 7443   3.775   2.826   9.904 -0.6638 -0.3019 -0.4946
  501TMC3    C3 7444   3.726   2.889  10.020  0.1292  0.2355  0.2081
  501TMC3    C4 7445   3.676   2.621   9.982  0.3671 -0.5493  1.2096
  501TMC3    C5 7446   3.630   2.690  10.093 -0.2129  0.0877  0.1268
  501TMC3    C6 7447   3.650   2.820  10.111 -0.4318 -0.8933 -0.0904
  501TMC3     C 7448   3.702   2.649   9.748 -0.4919  0.0954 -0.1223
  501TMC3     O 7449   3.748   2.715   9.655 -0.1858 -0.2177 -0.1095
  501TMC3     H 7450   3.843   2.876   9.835  0.2123 -1.9705 -0.8270
  501TMC3    H1 7451   3.668   2.513   9.986 -0.0941 -0.6612 -2.8849
  501TMC3    H2 7452   3.628   2.873  10.203  0.4186 -2.2258  0.8974
  501TMC3    C7 7453   3.576   2.608  10.194  0.5781 -0.2833  0.3853
  501TMC3    C8 7454   3.796   3.005  10.075  0.0607  0.2459 -0.6793
  501TMC3    O1 7455   3.592   2.482  10.195  0.4531  0.0439  0.2128
  501TMC3    O2 7456   3.764   3.038  10.191 -0.3211 -0.1571 -0.5945
  502TMC3    C1 7457   3.076   1.245  14.661 -0.7714  0.8847 -0.2846
  502TMC3    C2 7458   3.031   1.374  14.663  0.1939 -0.1000 -0.2282
  502TMC3    C3 7459   2.906   1.399  14.708 -0.8074  0.7379  0.5335
  502TMC3    C4 7460   2.997   1.144  14.703  0.1186  0.2309 -0.7644
  502TMC3    C5 7461   2.870   1.175  14.744  0.9523 -0.2252  0.0939
  502TMC3    C6 7462   2.819   1.306  14.745  0.7342 -0.3001  0.8356
  502TMC3     C 7463   3.206   1.256  14.720 -0.0380 -0.2237 -0.1050
  502TMC3     O 7464   3.296   1.279  14.642  0.4106  0.8960 -0.1027
  502TMC3     H 7465   3.102   1.456  14.656  0.0816 -0.2207 -2.7022
  502TMC3    H1 7466   3.036   1.045  14.723 -1.2364 -0.5497 -1.9769
  502TMC3    H2 7467   2.721   1.338  14.780  0.3917  2.4195 -2.5290
  502TMC3    C7 7468   2.790   1.074  14.802 -0.1952  0.0635 -0.7394
  502TMC3    C8 7469   2.894   1.523  14.779 -0.3386 -0.2267 -0.3946
  502TMC3    O1 7470   2.837   0.962  14.789 -0.4285 -0.7017 -0.1814
  502TMC3    O2 7471   2.877   1.622  14.708 -0.4415  0.1621 -0.6080
  503MPD2     C 7472   0.272   2.003  16.741  0.2011 -0.6552 -0.4633
  503MPD2    C1 7473   0.295   2.030  16.875  0.2459 -0.1906  0.7025
  503MPD2    C2 7474   0.395   1.959  16.939 -0.5238  0.5779  0.3544
  503MPD2    C3 7475   0.452   1.850  16.873 -0.1775 -0.1762 -0.3238
  503MPD2    C4 7476   0.420   1.821  16.737 -0.2952  0.5220  0.4153
  503MPD2    C5 7477   0.333   1.905  16.674 -0.0555 -0.0649  0.3722
  503MPD2     H 7478   0.432   1.985  17.037  0.9634 -2.0206  0.4951
  503MPD2    H1 7479   0.473   1.743  16.682 -1.5140  2.9039 -4.1214
  503MPD2    H2 7480   0.209   2.061  16.675  1.2323  0.9761 -0.0206
  503MPD2    H3 7481   0.298   1.869  16.578  0.0773 -4.8788  2.1141
  503MPD2     N 7482   0.543   1.779  16.954  0.2043  0.5773 -0.4244
  503MPD2    H5 7483   0.556   1.807  17.051 -0.4950 -2.3038  0.5185
  503MPD2    N1 7484   0.234   2.135  16.950 -1.1329 -0.2668 -0.2461
  503MPD2    H7 7485   0.275   2.164  17.038 -2.1377  0.0558  0.1059
  504TMC3    C1 7486   0.708   1.627  17.011  0.2137  0.7186  0.0497
  504TMC3    C2 7487   0.684   1.516  17.091 -0.2264  0.1021  0.3776
  504TMC3    C3 7488   0.793   1.465  17.153  0.6256 -0.9645 -0.7625
  504TMC3    C4 7489   0.831   1.675  16.990  0.2379  0.3930 -0.7369
  504TMC3    C5 7490   0.936   1.626  17.065  0.3515 -0.0237 -0.7604
  504TMC3    C6 7491   0.923   1.517  17.148  0.0756 -0.1058  0.6147
  504TMC3     C 7492   0.613   1.671  16.915 -0.6903 -0.2358  0.5381
  504TMC3     O 7493   0.629   1.621  16.805  0.0072 -0.1987 -0.1885
  504TMC3     H 7494   0.596   1.459  17.065  0.1454  0.1016 -0.8702
  504TMC3    H1 7495   0.851   1.747  16.911  0.0560  1.2466 -0.0123
  504TMC3    H2 7496   1.006   1.474  17.202  0.0188 -0.3008  0.5441
  504TMC3    C7 7497   1.071   1.667  17.017 -0.1054 -0.4864  0.7507
  504TMC3    C8 7498   0.771   1.346  17.224  0.1159 -0.1170 -0.2629
  504TMC3    O1 7499   1.078   1.732  16.915  0.2467 -0.2071  0.4010
  504TMC3    O2 7500   0.665   1.289  17.198  0.1579  0.0111 -0.4544
  505MPD2     C 7501   0.951   0.884  10.603  0.5518  0.0560 -0.4312
  505MPD2    C1 7502   0.971   0.745  10.609 -0.4151  0.0922 -0.0520
  505MPD2    C2 7503   1.093   0.698  10.673  0.3290 -0.1485 -0.2782
  505MPD2    C3 7504   1.179   0.790  10.734  0.4417 -0.2343  0.2028
  505MPD2    C4 7505   1.156   0.919  10.728  0.6695 -0.1999 -0.3965
  505MPD2    C5 7506   1.042   0.957  10.672 -0.2823 -0.6460 -0.2504
  505MPD2     H 7507   1.131   0.597  10.661  0.1930  0.0135 -2.0946
  505MPD2    H1 7508   1.227   0.985  10.776 -0.9654  3.2030 -2.6506
  505MPD2    H2 7509   0.870   0.934  10.551 -0.2238  0.7297  1.4512
  505MPD2    H3 7510   1.035   1.064  10.659  2.3341 -0.0177  3.4564
  505MPD2     N 7511   1.300   0.733  10.781 -0.4959  0.0025 -0.4797
  505MPD2    H5 7512   1.301   0.632  10.789  0.4574  0.0690  0.2969
  505MPD2    N1 7513   0.876   0.663  10.548  0.6210  0.2226 -0.9478
  505MPD2    H7 7514   0.799   0.703  10.496  1.9184  1.7368 -1.7105
  506TMC3    C1 7515   0.799   0.454  10.452 -0.9695 -0.0011 -0.6156
  506TMC3    C2 7516   0.806   0.480  10.322  0.0613 -0.6067 -0.1272
  506TMC3    C3 7517   0.813   0.372  10.241  0.3763  0.1653 -0.0820
  506TMC3    C4 7518   0.773   0.331  10.491 -0.9057 -0.3804  0.1002
  506TMC3    C5 7519   0.775   0.222  10.410 -0.7145  0.8947 -0.7748
  506TMC3    C6 7520   0.795   0.242  10.273 -0.1248 -0.0453  0.1644
  506TMC3     C 7521   0.885   0.527  10.553  0.1954  0.1182 -0.5646
  506TMC3     O 7522   0.934   0.459  10.639 -0.7877 -0.2651  0.4614
  506TMC3     H 7523   0.814   0.583  10.288 -0.7750 -0.7287 -0.6967
  506TMC3    H1 7524   0.761   0.319  10.598 -0.6892 -1.4152  0.0021
  506TMC3    H2 7525   0.825   0.156  10.214  0.0584  0.1664 -0.0497
  506TMC3    C7 7526   0.862   0.122  10.456 -0.2522  0.9083  0.2284
  506TMC3    C8 7527   0.905   0.392  10.137 -0.0050 -0.1109  0.3729
  506TMC3    O1 7528   0.844   0.009  10.407  0.1922  0.3310  0.2486
  506TMC3    O2 7529   0.995   0.471  10.162 -0.2195 -0.4857  0.1264
  507TMC3    C1 7530   1.603   2.001  15.052  0.1720  0.0949  0.3260
  507TMC3    C2 7531   1.577   1.865  15.057 -0.7038 -0.5075 -0.1761
  507TMC3    C3 7532   1.627   1.784  14.962  0.2162 -0.3526 -0.3398
  507TMC3    C4 7533   1.652   2.057  14.939 -0.1374 -0.3607  0.2887
  507TMC3    C5 7534   1.714   1.975  14.848  0.0629  0.3859  0.3887
  507TMC3    C6 7535   1.709   1.841  14.866 -0.2844 -0.2244  0.5943
  507TMC3     C 7536   1.584   2.080  15.172 -0.7553  0.7600  0.2763
  507TMC3     O 7537   1.623   2.195  15.174 -0.2797 -0.1922 -0.3549
  507TMC3     H 7538   1.518   1.818  15.135  0.5756 -2.7964 -0.6200
  507TMC3    H1 7539   1.657   2.164  14.923  0.5159 -0.7075 -1.7562
  507TMC3    H2 7540   1.762   1.786  14.789 -2.9496  0.7316 -1.9370
  507TMC3    C7 7541   1.648   1.991  14.711 -0.0730 -0.2392  0.0500
  507TMC3    C8 7542   1.561   1.663  14.923  0.1121  0.5175 -0.2016
  507TMC3    O1 7543   1.666   1.901  14.630  0.1047 -0.2432 -0.2648
  507TMC3    O2 7544   1.496   1.596  15.004 -0.4854  0.2581 -0.3624
  508MPD2     C 7545   2.198   3.898  16.104  0.0162 -0.3084 -0.1538
  508MPD2    C1 7546   2.309   3.984  16.092 -0.4763 -0.5522  1.1264
  508MPD2    C2 7547   2.352   4.009  15.962 -0.1463  0.1198  0.2725
  508MPD2    C3 7548   2.287   3.960  15.848 -0.3228  0.0846 -0.3021
  508MPD2    C4 7549   2.183   3.869  15.867 -0.7675  0.4652 -0.7647
  508MPD2    C5 7550   2.140   3.838  15.995 -0.6911  0.1155  0.1427
  508MPD2     H 7551   2.432   4.080  15.944  0.6525 -0.4515  1.4773
  508MPD2    H1 7552   2.136   3.810  15.789  0.7124  1.1658 -2.2130
  508MPD2    H2 7553   2.174   3.870  16.206  0.9739 -0.2148  0.1000
  508MPD2    H3 7554   2.067   3.760  16.013  0.6947 -1.6408 -1.8341
  508MPD2     N 7555   2.336   3.987  15.714 -0.5103 -0.7556 -0.0809
  508MPD2    H5 7556   2.411   4.056  15.713 -0.7011 -0.5414  0.6102
  508MPD2    N1 7557   2.360   4.047  16.208 -0.4178  0.4379  0.8735
  508MPD2    H7 7558   2.306   4.020  16.289  0.1608 -1.3153  0.6796
  509TMC3    C1 7559   2.239   4.199  15.339 -0.4440 -0.2609 -0.2371
  509TMC3    C2 7560   2.345   4.282  15.367 -0.3988 -0.2354 -0.1566
  509TMC3    C3 7561   2.446   4.226  15.449  0.1224 -0.3633 -0.6358
  509TMC3    C4 7562   2.229   4.077  15.395 -0.3257  0.2434 -0.6629
  509TMC3    C5 7563   2.329   4.029  15.482 -0.3723 -0.0997  0.0008
  509TMC3    C6 7564   2.446   4.097  15.503  0.3552 -0.4686  0.0635
  509TMC3     C 7565   2.111   4.249  15.289  0.2686 -0.0700 -0.5133
  509TMC3     O 7566   2.004   4.195  15.314  0.7017  0.6384 -0.1681
  509TMC3     H 7567   2.346   4.387  15.339 -0.8952 -1.3571 -4.2945
  509TMC3    H1 7568   2.135   4.023  15.398  0.7652 -1.6212  0.3307
  509TMC3    H2 7569   2.519   4.043  15.562 -0.0350 -1.3334 -0.2454
  509TMC3    C7 7570   2.279   3.954  15.597  0.2881 -0.3507 -0.3589
  509TMC3    C8 7571   2.580   4.291  15.461 -0.4505 -0.3756  0.0498
  509TMC3    O1 7572   2.173   3.895  15.582  0.3880 -0.0386  0.0121
  509TMC3    O2 7573   2.675   4.218  15.489 -0.1120 -0.0044 -0.0997
  510MPD2     C 7574   0.171   1.260  14.309  0.0317 -0.5416 -0.6774
  510MPD2    C1 7575   0.196   1.197  14.425  1.1370 -0.2560  0.0240
  510MPD2    C2 7576   0.327   1.156  14.436  0.3004  0.6758 -0.8116
  510MPD2    C3 7577   0.426   1.178  14.332 -0.3318  0.6806 -0.4494
  510MPD2    C4 7578   0.395   1.259  14.223 -0.3346  0.5253 -0.5205
  510MPD2    C5 7579   0.264   1.299  14.212 -0.3105 -0.5438 -0.7643
  510MPD2     H 7580   0.360   1.092  14.518  1.0476 -0.5111 -2.0323
  510MPD2    H1 7581   0.467   1.285  14.146  1.3679  0.6084  1.1201
  510MPD2    H2 7582   0.078   1.306  14.279 -1.0626 -0.8312  2.2370
  510MPD2    H3 7583   0.231   1.365  14.133  1.7051  0.9684 -0.3513
  510MPD2     N 7584   0.545   1.116  14.349  0.1291  0.1009 -0.8882
  510MPD2    H5 7585   0.563   1.068  14.437  0.8012  2.7074  0.4140
  510MPD2    N1 7586   0.092   1.153  14.508 -0.4917  0.4658 -0.0283
  510MPD2    H7 7587   4.718   1.169  14.477 -0.3278  0.0373 -0.7325
  511TMC3    C1 7588   4.674   1.030  14.648  0.3189  0.5456 -0.0774
  511TMC3    C2 7589   4.628   1.075  14.778  0.5725  0.2729 -0.8893
  511TMC3    C3 7590   4.543   0.990  14.840 -0.2630  0.3008  0.3422
  511TMC3    C4 7591   4.664   0.896  14.624 -0.2490  0.3553 -0.2972
  511TMC3    C5 7592   4.592   0.813  14.710 -0.0995 -0.3366  0.3640
  511TMC3    C6 7593   4.536   0.857  14.826 -0.2557 -0.0740  0.3444
  511TMC3     C 7594   0.090   1.073  14.621 -0.8357  0.0474  0.1176
  511TMC3     O 7595   0.181   1.016  14.683 -0.2426 -0.1014  0.2117
  511TMC3     H 7596   4.651   1.171  14.822  0.2727 -0.2135  0.3334
  511TMC3    H1 7597   4.704   0.841  14.539 -0.6321  0.0653 -0.2866
  511TMC3    H2 7598   4.455   0.796  14.865  0.4885  0.2492  2.4407
  511TMC3    C7 7599   4.576   0.679  14.664 -0.0228 -0.2940  0.1140
  511TMC3    C8 7600   4.479   1.049  14.966  0.8862  0.0156  0.0897
  511TMC3    O1 7601   4.559   0.661  14.541 -0.3523 -0.0806 -0.1090
  511TMC3    O2 7602   4.449   1.164  14.965  0.4778  0.1177 -0.6583
  512TMC3    C1 7603   3.961   4.692  12.635 -0.5989 -0.3976  0.1184
  512TMC3    C2 7604   4.018   4.648  12.752 -0.0354  1.0149  0.2987
  512TMC3    C3 7605   4.035   4.514  12.767  0.0224  1.2267 -0.0642
  512TMC3    C4 7606   3.928   4.603  12.530  0.2652 -0.2246 -0.0348
  512TMC3    C5 7607   3.938   4.470  12.547  0.0428  0.2178  0.1837
  512TMC3    C6 7608   3.999   4.426  12.663  0.3916 -0.2225 -0.0568
  512TMC3     C 7609   3.906   0.103  12.640 -0.2780 -0.2218 -0.2602
  512TMC3     O 7610   3.917   0.155  12.750  0.0305 -0.0165 -0.4048
  512TMC3     H 7611   4.076   4.717  12.812  0.4832 -1.3225  2.5075
  512TMC3    H1 7612   3.902   4.636  12.430  3.6941  1.5738 -0.3366
  512TMC3    H2 7613   3.988   4.324  12.697 -0.8304 -0.1816 -0.3409
  512TMC3    C7 7614   3.864   4.379  12.466  0.0434  0.1546  0.1799
  512TMC3    C8 7615   4.124   4.465  12.874  0.1386 -0.4405  0.6079
  512TMC3    O1 7616   3.775   4.426  12.395 -0.3294 -0.0853  0.7101
  512TMC3    O2 7617   4.172   4.354  12.848  0.3615  0.1131  0.9276
  513MPD2     C 7618   1.172   4.696  13.327  0.0804 -0.3393 -0.1929
  513MPD2    C1 7619   1.268   0.065  13.283  0.4508 -0.2854  0.1751
  513MPD2    C2 7620   1.294   0.180  13.368  0.2446 -0.0244 -0.0253
  513MPD2    C3 7621   1.224   0.197  13.483 -0.5620 -0.9002  0.5914
  513MPD2    C4 7622   1.129   0.105  13.527  0.0583  0.0699 -0.7849
  513MPD2    C5 7623   1.105   4.721  13.445  0.0581  0.5163 -0.0198
  513MPD2     H 7624   1.369   0.257  13.358 -1.0425  1.2678  0.2083
  513MPD2    H1 7625   1.069   0.113  13.617  2.3816 -1.7814  0.8941
  513MPD2    H2 7626   1.157   4.602  13.275  1.3373  0.9790 -2.9791
  513MPD2    H3 7627   1.016   4.662  13.463 -0.2165  0.9758  0.1185
  513MPD2     N 7628   1.253   0.315  13.554 -0.0509 -0.0711 -0.4265
  513MPD2    H5 7629   1.301   0.386  13.499 -1.2263  2.6348  2.0655
  513MPD2    N1 7630   1.346   0.045  13.164 -0.8617  0.0815 -0.2785
  513MPD2    H7 7631   1.315   4.691  13.102 -2.6981 -0.3908  1.2152
  514TMC3    C1 7632   1.508   0.095  12.995  0.7067  0.2492 -0.0038
  514TMC3    C2 7633   1.416   0.080  12.892 -0.0744 -0.1948  0.1089
  514TMC3    C3 7634   1.441   0.140  12.769 -0.1103  0.0046 -0.7493
  514TMC3    C4 7635   1.617   0.178  12.980 -0.5177 -0.6448  0.1842
  514TMC3    C5 7636   1.627   0.253  12.862  0.7082  0.0237 -0.5765
  514TMC3    C6 7637   1.550   0.222  12.752 -0.2612  0.1448  0.4144
  514TMC3     C 7638   1.452   0.129  13.128  0.3471  0.3269  0.2425
  514TMC3     O 7639   1.510   0.214  13.194 -0.1688 -0.1640 -0.0810
  514TMC3     H 7640   1.334   0.009  12.892 -0.5904  0.4084  0.5374
  514TMC3    H1 7641   1.691   0.184  13.059  0.6056  1.3629 -1.0110
  514TMC3    H2 7642   1.551   0.285  12.664 -1.1312 -1.5125 -0.7816
  514TMC3    C7 7643   1.654   0.396  12.878  0.2155 -0.2733 -0.3215
  514TMC3    C8 7644   1.328   0.142  12.676 -0.0478  0.0322 -0.1650
  514TMC3    O1 7645   1.689   0.467  12.784  0.6884  0.0228 -0.2968
  514TMC3    O2 7646   1.217   0.113  12.722 -0.0382 -0.2085 -0.2180
  515MPD2     C 7647   3.465   1.898  14.840 -0.3447 -0.5916  0.6073
  515MPD2    C1 7648   3.572   1.921  14.761  0.0174 -0.3942  0.8118
  515MPD2    C2 7649   3.641   2.039  14.777 -0.1563 -0.0452 -0.3149
  515MPD2    C3 7650   3.618   2.120  14.889 -0.1776  0.5006 -0.6237
  515MPD2    C4 7651   3.511   2.097  14.971 -0.4560 -0.6032  0.7554
  515MPD2    C5 7652   3.434   1.987  14.943  0.6508 -0.2573  0.1061
  515MPD2     H 7653   3.734   2.062  14.727 -0.4070  2.4747  0.3831
  515MPD2    H1 7654   3.478   2.151  15.059 -0.8573 -0.9007  0.7850
  515MPD2    H2 7655   3.406   1.810  14.820  0.1547 -0.5846 -0.8731
  515MPD2    H3 7656   3.347   1.964  15.003 -0.0261 -0.2138 -0.8721
  515MPD2     N 7657   3.705   2.238  14.918  0.4356  0.5578  0.2354
  515MPD2    H5 7658   3.667   2.296  14.992  1.3935 -0.8436  1.8067
  515MPD2    N1 7659   3.607   1.824  14.668  0.6764 -0.3444 -0.3558
  515MPD2    H7 7660   3.554   1.738  14.662 -0.6745  0.4673 -0.0765
  516TMC3    C1 7661   3.717   1.744  14.474 -0.3276 -0.5949 -0.1591
  516TMC3    C2 7662   3.751   1.764  14.345  0.3794 -0.0430 -0.4681
  516TMC3    C3 7663   3.778   1.658  14.267 -0.5090 -0.1400  0.2278
  516TMC3    C4 7664   3.727   1.619  14.531 -0.1376 -0.2862 -1.3949
  516TMC3    C5 7665   3.765   1.511  14.453  0.8077  0.7751  0.1565
  516TMC3    C6 7666   3.774   1.526  14.319  0.0997  0.0378  0.5062
  516TMC3     C 7667   3.679   1.855  14.557  0.4682  0.6783  0.1244
  516TMC3     O 7668   3.716   1.962  14.512  0.7083  0.1835  0.1430
  516TMC3     H 7669   3.748   1.861  14.296  1.5328 -0.0182 -0.4977
  516TMC3    H1 7670   3.701   1.605  14.635  1.7314  1.3445 -0.7025
  516TMC3    H2 7671   3.821   1.452  14.255 -0.5708 -0.4415  0.5787
  516TMC3    C7 7672   3.754   1.388  14.516 -0.0040  0.2786 -0.0550
  516TMC3    C8 7673   3.706   1.663  14.144 -0.1432 -0.1974 -0.5187
  516TMC3    O1 7674   3.768   1.390  14.639 -0.0240 -0.4467  0.0088
  516TMC3    O2 7675   3.586   1.639  14.148 -0.3299 -0.4072  0.1634
  517MPD2     C 7676   3.215   3.549  17.627 -0.0816  1.1411  0.4635
  517MPD2    C1 7677   3.324   3.517   0.018 -0.8690  0.0007 -0.4305
  517MPD2    C2 7678   3.362   3.604   0.122  0.1184  0.0567  0.1006
  517MPD2    C3 7679   3.287   3.720   0.147 -0.2101  0.8832  0.8486
  517MPD2    C4 7680   3.189   3.758   0.058 -0.0226  0.0823  0.5170
  517MPD2    C5 7681   3.153   3.667  17.648  0.0446  0.7179  0.1376
  517MPD2     H 7682   3.432   3.561   0.193  0.2443 -0.4235 -0.3174
  517MPD2    H1 7683   3.138   3.854   0.061 -1.2703 -0.5021 -2.2723
  517MPD2    H2 7684   3.181   3.494  17.540  0.5790  0.6187  0.5357
  517MPD2    H3 7685   3.073   3.694  17.580 -2.3769 -4.6630  0.8046
  517MPD2     N 7686   3.297   3.794   0.272  0.3486  0.2432  0.3113
  517MPD2    H5 7687   3.231   3.869   0.289  0.7533  0.8512 -0.7972
  517MPD2    N1 7688   3.400   3.399  17.673 -0.0042 -0.3756  0.0252
  517MPD2    H7 7689   3.495   3.399   0.024  0.0852 -0.6339 -0.2171
  518TMC3    C1 7690   3.453   3.194  17.567  0.3311 -0.1795  0.5393
  518TMC3    C2 7691   3.419   3.060  17.551  0.0643 -0.4598 -0.4282
  518TMC3    C3 7692   3.503   2.976  17.487 -0.3695  0.1977  0.0380
  518TMC3    C4 7693   3.567   3.243  17.512  0.4078 -0.4837  0.0983
  518TMC3    C5 7694   3.647   3.155  17.444 -0.5693 -0.0199 -0.2040
  518TMC3    C6 7695   3.616   3.021  17.432 -0.9496 -0.2888  0.7138
  518TMC3     C 7696   3.355   3.291  17.599 -0.4424 -0.5158  0.1317
  518TMC3     O 7697   3.245   3.252  17.568  0.5003  0.1393  0.4351
  518TMC3     H 7698   3.343   3.015  17.613  0.6906  0.2277  0.8253
  518TMC3    H1 7699   3.581   3.350  17.500  1.2730 -0.5633  0.3991
  518TMC3    H2 7700   3.666   2.953  17.363  2.0120  1.1838  1.4326
  518TMC3    C7 7701   3.782   3.193  17.414 -0.5202 -0.5806  0.3969
  518TMC3    C8 7702   3.496   2.833  17.488  0.4802 -0.2060 -0.6792
  518TMC3    O1 7703   3.802   3.316  17.419  0.4721  0.3428 -0.5336
  518TMC3    O2 7704   3.593   2.766  17.466 -0.9865 -0.3374 -0.2546
  519MPD2     C 7705   0.397   1.692  14.181 -0.2596 -0.0776 -0.3737
  519MPD2    C1 7706   0.333   1.673  14.063  0.1233  0.1179  0.0692
  519MPD2    C2 7707   0.408   1.597  13.975  0.3727  0.3353 -0.0861
  519MPD2    C3 7708   0.528   1.541  14.015 -0.2575 -0.0203  1.1408
  519MPD2    C4 7709   0.582   1.564  14.136 -0.3818  0.2880  0.3990
  519MPD2    C5 7710   0.514   1.635  14.223  0.5526  0.1875 -0.3168
  519MPD2     H 7711   0.375   1.603  13.872  3.2758  0.6086 -1.0090
  519MPD2    H1 7712   0.676   1.515  14.161  0.4264  0.9945 -1.2032
  519MPD2    H2 7713   0.336   1.740  14.257  0.0839 -2.1620  1.2139
  519MPD2    H3 7714   0.537   1.635  14.329 -1.7456  1.4141  0.1880
  519MPD2     N 7715   0.603   1.454  13.928 -0.7950  0.4388  0.1471
  519MPD2    H5 7716   0.685   1.406  13.963 -1.1712 -0.4378 -0.1644
  519MPD2    N1 7717   0.206   1.736  14.044 -0.2971 -0.3199  0.4233
  519MPD2    H7 7718   0.181   1.797  14.121  1.4527  1.9089 -0.7611
  520TMC3    C1 7719   0.643   1.308  13.756  0.2878  0.9320  0.2218
  520TMC3    C2 7720   0.599   1.214  13.669 -0.6104 -0.0265  0.3622
  520TMC3    C3 7721   0.694   1.132  13.607 -0.9731 -0.6603 -0.3222
  520TMC3    C4 7722   0.773   1.322  13.790  0.4290 -0.1653 -0.3786
  520TMC3    C5 7723   0.861   1.235  13.724 -0.4112 -0.0113  0.1716
  520TMC3    C6 7724   0.830   1.147  13.623  0.8333 -0.3374  0.0172
  520TMC3     C 7725   0.552   1.404  13.809  0.2143  0.5047  0.1544
  520TMC3     O 7726   0.445   1.414  13.753  0.4080 -0.5473 -0.0263
  520TMC3     H 7727   0.493   1.194  13.661 -0.7484  0.5123  0.8499
  520TMC3    H1 7728   0.809   1.412  13.839 -3.3734  1.6902 -0.9818
  520TMC3    H2 7729   0.905   1.084  13.578 -0.3147 -0.6817 -1.4047
  520TMC3    C7 7730   1.003   1.280  13.731  0.4249 -0.3078  0.5840
  520TMC3    C8 7731   0.649   1.046  13.507 -0.2691  0.2924 -1.0955
  520TMC3    O1 7732   1.076   1.259  13.636  0.1562 -0.2833 -0.0141
  520TMC3    O2 7733   0.722   1.042  13.405 -0.0837 -0.1600 -0.5752
  521MPD2     C 7734   1.229   0.271  17.339  0.5460 -0.1327  0.5542
  521MPD2    C1 7735   1.218   0.146  17.387 -0.1695 -0.0528  0.5978
  521MPD2    C2 7736   1.335   0.071  17.413  0.0653 -0.3790  0.2639
  521MPD2    C3 7737   1.457   0.116  17.368  0.1371  0.7203  0.2348
  521MPD2    C4 7738   1.457   0.235  17.303  0.1179 -0.2483  0.0507
  521MPD2    C5 7739   1.354   0.320  17.295  0.2163 -0.0069 -0.7534
  521MPD2     H 7740   1.326   4.693  17.457  0.3847 -0.7182 -0.4362
  521MPD2    H1 7741   1.551   0.272  17.262 -0.4225  2.2036  1.0165
  521MPD2    H2 7742   1.141   0.330  17.317  1.7950  1.7685  0.5711
  521MPD2    H3 7743   1.366   0.416  17.245  1.8500 -0.2176 -0.7691
  521MPD2     N 7744   1.571   0.024  17.356  0.1242 -0.3429  0.1611
  521MPD2    H5 7745   1.548   4.651  17.386 -3.1268  0.4923  0.3374
  521MPD2    N1 7746   1.085   0.096  17.405 -0.4945  0.3223 -0.2216
  521MPD2    H7 7747   1.009   0.136  17.351  1.1512  1.1608 -1.9386
  522TMC3    C1 7748   1.773   4.667  17.271  0.2218 -0.2474 -0.1669
  522TMC3    C2 7749   1.903   4.690  17.242 -0.5836  0.3808  0.7180
  522TMC3    C3 7750   1.965   4.611  17.150 -0.0607  0.0036  0.5691
  522TMC3    C4 7751   1.704   4.563  17.213 -0.0979  0.6180 -0.4869
  522TMC3    C5 7752   1.773   4.488  17.123 -0.0624  0.0358  0.0738
  522TMC3    C6 7753   1.909   4.501  17.098  0.6521 -0.7703  0.2111
  522TMC3     C 7754   1.698   0.063  17.316 -0.1630 -0.7053  0.2710
  522TMC3     O 7755   1.746   0.175  17.290  0.2010  0.1725 -0.0593
  522TMC3     H 7756   1.952   0.063  17.266 -0.6483  0.7866 -0.6973
  522TMC3    H1 7757   1.599   4.543  17.232  0.0394  0.5586  0.2092
  522TMC3    H2 7758   1.956   4.442  17.020  0.0230 -1.3704  0.2881
  522TMC3    C7 7759   1.714   4.364  17.077 -0.1225  0.0029 -0.3056
  522TMC3    C8 7760   2.089   4.647  17.086 -0.7497 -0.8815 -0.3874
  522TMC3    O1 7761   1.801   4.279  17.065 -0.9229 -0.0970  0.3196
  522TMC3    O2 7762   2.112   0.046  17.082  0.3199 -0.6139  0.2337
  523MPD2     C 7763   0.258   3.955  10.481  0.2268  0.0150  0.5363
  523MPD2    C1 7764   0.141   4.009  10.439  0.7217  0.3518 -0.3167
  523MPD2    C2 7765   0.120   4.145  10.442  0.0112 -0.2836 -0.2330
  523MPD2    C3 7766   0.227   4.225  10.477  0.1412 -0.8864  0.4314
  523MPD2    C4 7767   0.348   4.169  10.513 -0.0424 -0.5483  0.7365
  523MPD2    C5 7768   0.354   4.038  10.527  0.1266  0.2719 -0.5450
  523MPD2     H 7769   0.027   4.190  10.410 -0.3443 -0.1446  0.9850
  523MPD2    H1 7770   0.429   4.238  10.533 -2.1626  2.2056 -0.0845
  523MPD2    H2 7771   0.282   3.850  10.492 -0.1652 -0.2393 -0.9683
  523MPD2    H3 7772   0.438   3.984  10.569 -0.3350  0.0795  0.1192
  523MPD2     N 7773   0.210   4.365  10.461  0.7705  0.2012 -0.4370
  523MPD2    H5 7774   0.296   4.418  10.461  1.4051 -0.8369 -1.3565
  523MPD2    N1 7775   0.046   3.919  10.378  0.1246  0.2434  0.2352
  523MPD2    H7 7776   0.073   3.821  10.377  0.1992  0.2809 -1.0898
  524TMC3    C1 7777   0.084   4.579  10.443  0.0724 -0.3063  0.1912
  524TMC3    C2 7778   0.187   4.656  10.500  0.2757  0.6112  0.7787
  524TMC3    C3 7779   0.155   0.064  10.523  0.1194 -0.3481  0.2582
  524TMC3    C4 7780   4.693   4.633  10.394 -0.3829  0.0051 -0.2765
  524TMC3    C5 7781   4.682   0.050  10.409  0.1437  0.0163  0.2614
  524TMC3    C6 7782   0.055   0.131  10.458 -0.0264  1.2457  0.1912
  524TMC3     C 7783   0.088   4.434  10.464 -0.4230 -0.8156  0.5119
  524TMC3     O 7784   4.698   4.397  10.502 -0.1001 -0.5155 -0.4364
  524TMC3     H 7785   0.255   4.608  10.570  0.3470  1.1703  1.0923
  524TMC3    H1 7786   4.626   4.577  10.330 -1.5124  0.1271  0.7949
  524TMC3    H2 7787   0.031   0.234  10.481  1.0801  1.7309 -0.8458
  524TMC3    C7 7788   4.558   0.108  10.363 -0.0599  0.3167 -0.2628
  524TMC3    C8 7789   0.218   0.125  10.647 -0.3314 -0.5717 -0.3156
  524TMC3    O1 7790   4.560   0.231  10.370  0.0812 -0.0645  0.0665
  524TMC3    O2 7791   0.297   0.053  10.713 -0.5221 -0.2337 -0.2912
  525MPD2     C 7792   1.806   1.480  14.516  0.9748 -0.4695  0.2151
  525MPD2    C1 7793   1.934   1.482  14.550 -1.0146 -0.0057  0.6959
  525MPD2    C2 7794   2.012   1.598  14.527 -0.3045 -0.3258  0.0653
  525MPD2    C3 7795   1.946   1.708  14.469 -0.0999 -0.4436 -1.2171
  525MPD2    C4 7796   1.810   1.706  14.444 -0.0864  0.5258 -0.5457
  525MPD2    C5 7797   1.743   1.584  14.463  0.1581  0.2098 -0.1583
  525MPD2     H 7798   2.117   1.600  14.556 -0.5485  1.9453  0.8331
  525MPD2    H1 7799   1.754   1.785  14.396 -0.5196  0.2102 -0.5597
  525MPD2    H2 7800   1.745   1.392  14.535  0.2642  0.1765  0.9319
  525MPD2    H3 7801   1.636   1.575  14.453  0.1161 -0.9314  1.2774
  525MPD2     N 7802   2.008   1.828  14.437 -0.2615  0.2238 -0.5399
  525MPD2    H5 7803   1.951   1.907  14.408 -1.5508 -0.8073 -0.8451
  525MPD2    N1 7804   2.006   1.375  14.611 -0.1870  0.0934  0.0738
  525MPD2    H7 7805   2.106   1.386  14.615 -0.1818  0.1960 -0.4076
  526TMC3    C1 7806   2.049   1.178  14.728  0.5264 -0.1901 -0.0515
  526TMC3    C2 7807   1.999   1.100  14.834  0.0165  0.4534 -0.2700
  526TMC3    C3 7808   2.081   0.993  14.879  0.3453  0.7621  0.3193
  526TMC3    C4 7809   2.173   1.155  14.673 -0.2750  0.2559  0.2649
  526TMC3    C5 7810   2.241   1.045  14.718  0.3712 -0.8697  0.3852
  526TMC3    C6 7811   2.205   0.967  14.824  0.1732  0.2071 -0.5438
  526TMC3     C 7812   1.950   1.262  14.673 -0.7309  0.0157 -0.0119
  526TMC3     O 7813   1.834   1.226  14.682 -0.1771  0.2531  0.4613
  526TMC3     H 7814   1.900   1.127  14.869  0.1068  0.9764 -0.4284
  526TMC3    H1 7815   2.193   1.192  14.573  1.4653  1.5328  1.0756
  526TMC3    H2 7816   2.274   0.888  14.854  0.3214  0.4932 -0.1305
  526TMC3    C7 7817   2.353   0.994  14.637  0.4216 -0.1743 -0.4205
  526TMC3    C8 7818   2.030   0.884  14.961 -0.6864 -0.2710 -0.3959
  526TMC3    O1 7819   2.386   0.880  14.665  0.4804 -0.1000 -0.6263
  526TMC3    O2 7820   2.109   0.792  14.976  0.4038 -0.1058  0.1997
  527MPD2     C 7821   4.062   3.790   1.252 -0.1046 -0.1261  0.0692
  527MPD2    C1 7822   4.188   3.818   1.294  0.1943 -0.5661  0.1945
  527MPD2    C2 7823   4.289   3.842   1.200  0.3492  0.0155 -0.1448
  527MPD2    C3 7824   4.264   3.843   1.066  0.4553  0.6881 -0.0313
  527MPD2    C4 7825   4.132   3.830   1.028  0.5084 -0.1504  0.2402
  527MPD2    C5 7826   4.035   3.787   1.117 -0.4924  0.1518  0.0862
  527MPD2     H 7827   4.384   3.857   1.250  0.0947  0.4251  0.2204
  527MPD2    H1 7828   4.099   3.837   0.925 -0.8232  0.1339  0.6895
  527MPD2    H2 7829   3.981   3.769   1.322  1.3507 -2.5146  1.0234
  527MPD2    H3 7830   3.935   3.761   1.084 -1.2052  2.0554  0.7313
  527MPD2     N 7831   4.373   3.865   0.975  1.0422 -0.1704 -0.5887
  527MPD2    H5 7832   4.470   3.875   1.006  0.0671 -0.1778  2.4772
  527MPD2    N1 7833   4.211   3.823   1.434 -0.1731  0.3314  0.2250
  527MPD2    H7 7834   4.309   3.833   1.457 -0.6768  2.0489  1.6657
  528TMC3    C1 7835   4.165   3.869   1.653 -0.3792 -0.5455  0.2841
  528TMC3    C2 7836   4.290   3.843   1.690  0.0568 -0.0507  0.4574
  528TMC3    C3 7837   4.333   3.875   1.818  0.7649  0.5490  0.1504
  528TMC3    C4 7838   4.090   3.946   1.738 -1.1911  0.3347  0.1281
  528TMC3    C5 7839   4.129   3.981   1.862 -0.3097 -0.6398 -0.0820
  528TMC3    C6 7840   4.253   3.943   1.904  0.3128  0.3223  0.2804
  528TMC3     C 7841   4.111   3.845   1.527 -0.7264  0.6106  0.4052
  528TMC3     O 7842   3.987   3.864   1.520  1.0852  0.0482  0.3297
  528TMC3     H 7843   4.345   3.767   1.636  2.4248  1.0564  1.2869
  528TMC3    H1 7844   3.989   3.969   1.705 -1.7605 -2.8218 -0.3992
  528TMC3    H2 7845   4.282   3.963   2.006 -2.7864  0.6764  1.0990
  528TMC3    C7 7846   4.065   4.102   1.919 -0.2421 -0.8236  0.0275
  528TMC3    C8 7847   4.460   3.820   1.865 -0.2946  0.0064  0.1596
  528TMC3    O1 7848   3.945   4.115   1.885  0.1486  0.3268 -0.0959
  528TMC3    O2 7849   4.543   3.815   1.775  0.1132  0.1997 -0.6341
  529MPD2     C 7850   2.649   2.153   0.687 -0.0058 -0.4687  0.3766
  529MPD2    C1 7851   2.519   2.177   0.686  0.2211 -0.9761 -0.6865
  529MPD2    C2 7852   2.452   2.225   0.575 -0.0832  0.1438  0.3162
  529MPD2    C3 7853   2.523   2.260   0.460 -0.0955  0.4053  0.2285
  529MPD2    C4 7854   2.664   2.250   0.465  0.2146  0.0774 -0.4158
  529MPD2    C5 7855   2.721   2.187   0.575 -0.1622  0.0828 -0.0639
  529MPD2     H 7856   2.344   2.233   0.572 -0.1424 -0.5445  0.4802
  529MPD2    H1 7857   2.728   2.273   0.380  1.9302  0.2028  0.9201
  529MPD2    H2 7858   2.702   2.107   0.770  0.3218 -2.5075 -0.9709
  529MPD2    H3 7859   2.822   2.152   0.595 -0.9391 -2.6391 -0.9180
  529MPD2     N 7860   2.458   2.317   0.348 -0.2231  0.1810  0.1682
  529MPD2    H5 7861   2.513   2.359   0.275 -2.0680  1.1618 -0.6505
  529MPD2    N1 7862   2.438   2.156   0.800  0.0121  0.4756  0.8000
  529MPD2    H7 7863   2.340   2.185   0.797  0.3297  1.5380  0.7374
  530TMC3    C1 7864   2.365   2.111   1.018  0.1451  0.0221 -0.5725
  530TMC3    C2 7865   2.394   2.151   1.147 -0.6639 -0.0530 -0.1110
  530TMC3    C3 7866   2.299   2.117   1.241 -0.0677 -0.7862 -0.2127
  530TMC3    C4 7867   2.254   2.048   0.982  0.1727  0.1793 -0.4567
  530TMC3    C5 7868   2.165   2.013   1.079 -0.0226 -0.1228 -0.3126
  530TMC3    C6 7869   2.184   2.053   1.208 -1.2050 -0.0738 -0.3010
  530TMC3     C 7870   2.474   2.118   0.927 -0.3867 -0.0976  0.0514
  530TMC3     O 7871   2.583   2.137   0.981  0.0999 -0.1375 -0.1885
  530TMC3     H 7872   2.483   2.207   1.173 -0.7173  0.5648 -1.2763
  530TMC3    H1 7873   2.238   2.021   0.878 -2.6633  5.3500 -1.3699
  530TMC3    H2 7874   2.118   2.021   1.288 -0.8969 -0.8221 -0.3496
  530TMC3    C7 7875   2.037   1.983   1.034  0.2329  0.3917 -0.2353
  530TMC3    C8 7876   2.333   2.106   1.384  0.4469  0.2939 -0.4526
  530TMC3    O1 7877   2.008   2.021   0.923  0.2011  0.6316  0.0278
  530TMC3    O2 7878   2.242   2.090   1.463  0.0160  0.3031 -0.5259
  531MPD2     C 7879   1.630   0.799  13.199 -0.2145 -0.1861 -0.0823
  531MPD2    C1 7880   1.564   0.699  13.255 -0.3796  0.6553 -0.3781
  531MPD2    C2 7881   1.576   0.574  13.198 -0.2246  0.5711  0.4748
  531MPD2    C3 7882   1.631   0.555  13.071 -0.6354 -0.0681 -0.0194
  531MPD2    C4 7883   1.691   0.657  13.011 -0.4741 -0.1354  0.5757
  531MPD2    C5 7884   1.686   0.778  13.074  0.2106  0.6735 -0.7989
  531MPD2     H 7885   1.525   0.490  13.245  0.1041  0.2263  0.2168
  531MPD2    H1 7886   1.733   0.654  12.911  0.5837  0.3802  1.0022
  531MPD2    H2 7887   1.630   0.899  13.239  1.0138 -0.8559  1.5983
  531MPD2    H3 7888   1.721   0.866  13.021 -0.8180  1.6459  0.1274
  531MPD2     N 7889   1.621   0.429  13.010  0.1308  0.7071 -0.3755
  531MPD2    H5 7890   1.591   0.355  13.072  0.0810  0.7729 -0.3215
  531MPD2    N1 7891   1.507   0.711  13.390  0.4103  0.6022  0.3224
  531MPD2    H7 7892   1.520   0.799  13.437  0.5894  0.3452  0.7566
  532TMC3    C1 7893   1.349   0.658  13.570  0.2545  0.4248 -0.2464
  532TMC3    C2 7894   1.250   0.566  13.588 -0.0695 -0.1934 -0.1069
  532TMC3    C3 7895   1.261   0.486  13.697 -0.5465 -0.7023  0.4491
  532TMC3    C4 7896   1.443   0.674  13.659 -0.4159 -0.0491  0.7246
  532TMC3    C5 7897   1.444   0.601  13.775 -0.3286  0.2305 -0.3738
  532TMC3    C6 7898   1.360   0.500  13.788 -0.0209  0.9333  0.3845
  532TMC3     C 7899   1.419   0.617  13.449 -0.5484  0.5180 -0.2867
  532TMC3     O 7900   1.370   0.510  13.410 -0.1103 -0.4208 -0.2701
  532TMC3     H 7901   1.183   0.556  13.504 -0.7703  0.0001  0.4285
  532TMC3    H1 7902   1.533   0.731  13.640 -1.2974  1.0489 -0.1044
  532TMC3    H2 7903   1.364   0.429  13.870  0.0126 -0.2325 -0.6213
  532TMC3    C7 7904   1.581   0.558  13.809  0.2218 -0.3153 -0.3432
  532TMC3    C8 7905   1.213   0.356  13.674 -0.4200  0.4461 -0.2012
  532TMC3    O1 7906   1.665   0.646  13.813  0.0004  0.1191  0.2814
  532TMC3    O2 7907   1.167   0.289  13.763 -0.2635 -0.1798  0.0729
  533TMC3    C1 7908   2.178   2.000  14.450  0.1364  0.3402  0.1315
  533TMC3    C2 7909   2.309   2.027  14.427 -0.2621  0.7232 -0.4964
  533TMC3    C3 7910   2.363   2.120  14.511  0.0045  0.5294 -0.2793
  533TMC3    C4 7911   2.094   2.063  14.541  0.2636 -0.5671  0.1643
  533TMC3    C5 7912   2.162   2.140  14.635 -0.0807  0.3064  0.2306
  533TMC3    C6 7913   2.298   2.163  14.621 -0.6317  0.0243 -0.4378
  533TMC3     C 7914   2.140   1.855  14.446  0.5308 -0.0567 -0.5427
  533TMC3     O 7915   2.234   1.782  14.477 -0.0468 -0.4465  0.1451
  533TMC3     H 7916   2.372   1.975  14.355  1.4010 -0.3416  1.7048
  533TMC3    H1 7917   1.990   2.038  14.556  0.2617 -1.7705 -1.9364
  533TMC3    H2 7918   2.335   2.220  14.706  1.6113  0.2532 -1.5766
  533TMC3    C7 7919   2.097   2.156  14.765 -0.2530  0.8873 -0.6541
  533TMC3    C8 7920   2.509   2.122  14.524 -0.4624 -0.0256  0.1748
  533TMC3    O1 7921   2.069   2.270  14.798 -0.6592 -0.2514  0.3020
  533TMC3    O2 7922   2.561   2.097  14.630 -0.6315 -0.1279 -0.3730
  534MPD2     C 7923   4.267   2.966   2.016 -0.8261  0.6974  0.9180
  534MPD2    C1 7924   4.265   3.017   1.891  0.3892  0.2080 -0.1382
  534MPD2    C2 7925   4.208   2.950   1.794 -0.7589  0.4419  0.4747
  534MPD2    C3 7926   4.142   2.832   1.811 -0.7966 -0.2353 -0.3088
  534MPD2    C4 7927   4.130   2.793   1.947  1.0108  0.1488 -0.5496
  534MPD2    C5 7928   4.202   2.852   2.048  0.5254 -0.4530  0.3390
  534MPD2     H 7929   4.220   2.997   1.697 -0.2397  0.6594  0.6459
  534MPD2    H1 7930   4.080   2.703   1.981  1.1585  0.9254  1.6688
  534MPD2    H2 7931   4.318   3.023   2.093  1.3557  1.1301 -0.8440
  534MPD2    H3 7932   4.180   2.820   2.150  1.4395 -0.0621  0.6521
  534MPD2     N 7933   4.106   2.750   1.705 -0.7284 -0.3621 -0.2500
  534MPD2    H5 7934   4.032   2.686   1.734 -0.9039 -1.0711 -2.2898
  534MPD2    N1 7935   4.336   3.137   1.859 -0.1788 -0.3522 -0.5742
  534MPD2    H7 7936   4.370   3.152   1.765 -2.1551 -1.7184 -1.4746
  535TMC3    C1 7937   4.062   2.672   1.479  0.8731 -0.5373  0.3425
  535TMC3    C2 7938   4.015   2.549   1.529  0.6211 -0.2595  0.2514
  535TMC3    C3 7939   3.978   2.444   1.440 -0.1656 -0.0990 -0.2996
  535TMC3    C4 7940   4.062   2.703   1.347 -0.6750  0.1415 -0.3303
  535TMC3    C5 7941   4.021   2.600   1.269 -0.4383 -0.4791 -0.1856
  535TMC3    C6 7942   3.997   2.472   1.310 -0.3338 -0.0778 -0.1112
  535TMC3     C 7943   4.136   2.765   1.573  0.8501 -0.2646 -0.2005
  535TMC3     O 7944   4.202   2.854   1.520 -0.1917 -0.3058  0.1755
  535TMC3     H 7945   4.025   2.527   1.634 -2.8774  0.1471  0.6813
  535TMC3    H1 7946   4.096   2.797   1.305 -0.7190  0.6570  0.7681
  535TMC3    H2 7947   3.964   2.396   1.241 -1.3504  0.1603  0.1138
  535TMC3    C7 7948   4.031   2.613   1.126  0.4992  0.9842 -0.6623
  535TMC3    C8 7949   3.870   2.350   1.481 -0.0302 -0.1419 -0.0593
  535TMC3    O1 7950   4.077   2.526   1.056 -0.0050 -0.2922  0.0693
  535TMC3    O2 7951   3.821   2.285   1.393 -0.3813 -0.0858  0.3793
  536MPD2     C 7952   3.923   1.082  16.061  0.0470  0.0531  0.6904
  536MPD2    C1 7953   3.803   1.009  16.070 -0.3544 -0.5877 -0.3391
  536MPD2    C2 7954   3.713   1.013  15.966  0.3046 -0.8411  0.0528
  536MPD2    C3 7955   3.744   1.091  15.852  0.2568 -0.2501  0.5083
  536MPD2    C4 7956   3.864   1.160  15.843  0.3557 -0.5117  0.0756
  536MPD2    C5 7957   3.953   1.151  15.951  0.0541 -0.1179  0.3510
  536MPD2     H 7958   3.619   0.960  15.980  0.9333 -1.6430  1.2197
  536MPD2    H1 7959   3.881   1.217  15.752 -1.6031 -1.6656 -1.0106
  536MPD2    H2 7960   4.000   1.074  16.137  0.4218 -3.6499 -0.0814
  536MPD2    H3 7961   4.056   1.176  15.926 -0.5285 -0.0473 -1.9250
  536MPD2     N 7962   3.656   1.106  15.740 -0.2648  0.7422  1.0791
  536MPD2    H5 7963   3.668   1.182  15.675 -0.6907  0.8903  1.1705
  536MPD2    N1 7964   3.782   0.951  16.203  0.4017 -0.0298  0.4331
  536MPD2    H7 7965   3.859   0.951  16.269 -0.7482  1.3544  1.7689
  537TMC3    C1 7966   3.651   0.853  16.386 -0.1275 -0.2799  0.1538
  537TMC3    C2 7967   3.729   0.909  16.479  0.1146  0.8887  0.3036
  537TMC3    C3 7968   3.706   0.864  16.610 -0.3970 -0.4002  0.6260
  537TMC3    C4 7969   3.568   0.746  16.408  0.7619  0.3790  0.4761
  537TMC3    C5 7970   3.561   0.694  16.538 -1.3709 -0.3551  0.1297
  537TMC3    C6 7971   3.624   0.753  16.641 -0.3231  0.3115 -0.2663
  537TMC3     C 7972   3.663   0.890  16.242 -0.5122  0.2744 -0.4161
  537TMC3     O 7973   3.565   0.869  16.170  0.1765 -0.6559  0.3668
  537TMC3     H 7974   3.785   0.998  16.454 -1.6529  2.1362  0.8690
  537TMC3    H1 7975   3.502   0.714  16.329  0.9359 -0.0552  0.5041
  537TMC3    H2 7976   3.612   0.724  16.744 -0.2695 -1.1737 -0.6758
  537TMC3    C7 7977   3.446   0.606  16.559 -0.3190  0.1976 -0.0852
  537TMC3    C8 7978   3.782   0.911  16.724 -0.5011 -0.4730  0.4396
  537TMC3    O1 7979   3.352   0.626  16.487  0.4383  0.0182 -0.0584
  537TMC3    O2 7980   3.748   0.872  16.835  0.0419  0.1102 -0.1228
  538TMC3    C1 7981   0.027   3.928  10.785  0.4562  0.3455 -0.6802
  538TMC3    C2 7982   0.152   3.965  10.822 -0.5091 -0.1804  0.2054
  538TMC3    C3 7983   0.167   4.100  10.834  0.1576  0.4600  0.8330
  538TMC3    C4 7984   4.656   4.011  10.737 -0.2042 -0.3324  0.3093
  538TMC3    C5 7985   4.681   4.142  10.735  0.8148  0.3740  0.0696
  538TMC3    C6 7986   0.074   4.196  10.788  0.4111  0.4445  0.6854
  538TMC3     C 7987   4.688   3.813  10.842 -0.1239 -0.2152 -0.2791
  538TMC3     O 7988   4.616   3.754  10.762 -0.7821  0.1638 -0.2429
  538TMC3     H 7989   0.220   3.890  10.861 -0.9456  0.6232  2.5572
  538TMC3    H1 7990   4.554   3.986  10.710 -1.8161  2.7043  3.5501
  538TMC3    H2 7991   0.075   4.301  10.816  0.2387 -0.3588  3.6423
  538TMC3    C7 7992   4.569   4.218  10.790  0.2367 -0.4143  0.2527
  538TMC3    C8 7993   0.300   4.142  10.863  0.5936  0.4995  0.4175
  538TMC3    O1 7994   4.537   4.182  10.900  0.1577  0.0994 -0.3376
  538TMC3    O2 7995   0.377   4.065  10.920 -0.3876 -0.1136  0.9799
  539MPD2     C 7996   4.182   3.048  11.747 -0.3272  0.3887  0.3039
  539MPD2    C1 7997   4.296   3.097  11.677  0.0005  0.0031  0.2149
  539MPD2    C2 7998   4.321   3.239  11.669 -0.5684 -0.2499 -0.7662
  539MPD2    C3 7999   4.234   3.328  11.726 -0.5895 -0.5249  0.2486
  539MPD2    C4 8000   4.129   3.270  11.800  0.4983 -0.3325 -0.1581
  539MPD2    C5 8001   4.099   3.137  11.801 -0.2506 -0.4710 -0.0860
  539MPD2     H 8002   4.402   3.271  11.605 -0.0797  0.2962  0.1234
  539MPD2    H1 8003   4.065   3.346  11.845  2.3157  2.6703 -2.6331
  539MPD2    H2 8004   4.166   2.941  11.743  0.8488  0.2498 -1.2310
  539MPD2    H3 8005   4.001   3.107  11.835  0.9169 -2.0892  1.8552
  539MPD2     N 8006   4.233   3.469  11.719  0.0342 -0.0843 -0.8799
  539MPD2    H5 8007   4.168   3.519  11.779  0.5715 -3.2284  2.3929
  539MPD2    N1 8008   4.383   3.019  11.599  0.4300  0.8748 -0.2982
  539MPD2    H7 8009   4.447   3.072  11.540 -0.7954  2.6407 -0.0592
  540TMC3    C1 8010   4.252   3.674  11.611  0.2101 -0.1115  0.4827
  540TMC3    C2 8011   4.266   3.731  11.490  0.9429 -0.3040 -0.5173
  540TMC3    C3 8012   4.269   3.871  11.472 -0.0904 -0.8217  0.4885
  540TMC3    C4 8013   4.254   3.755  11.719  0.2727  0.0855  0.3698
  540TMC3    C5 8014   4.256   3.895  11.707  1.1579  0.1550  0.4096
  540TMC3    C6 8015   4.270   3.952  11.583 -0.2858 -0.1675 -0.3750
  540TMC3     C 8016   4.298   3.539  11.628  0.2648  0.0989 -0.2332
  540TMC3     O 8017   4.394   3.513  11.553  0.8999  0.2726 -0.0258
  540TMC3     H 8018   4.286   3.668  11.403 -1.5129 -2.3587  0.3955
  540TMC3    H1 8019   4.239   3.708  11.815 -0.6905 -1.4392 -0.5280
  540TMC3    H2 8020   4.289   4.056  11.562  0.6944 -0.1474  0.5672
  540TMC3    C7 8021   4.169   3.962  11.794  0.0950  0.2783  0.1818
  540TMC3    C8 8022   4.274   3.924  11.334  0.0056 -0.3263 -0.8801
  540TMC3    O1 8023   4.092   3.887  11.860 -0.8668 -0.1013 -0.1213
  540TMC3    O2 8024   4.343   4.023  11.322  0.6689 -0.9919  0.5079
  541MPD2     C 8025   2.418   0.603  13.280  0.2249  1.0113  0.2192
  541MPD2    C1 8026   2.470   0.496  13.212 -0.2153 -0.8783 -0.3972
  541MPD2    C2 8027   2.496   0.518  13.074 -0.3289 -1.0898 -0.5766
  541MPD2    C3 8028   2.479   0.648  13.011  0.7555  0.2170  0.0261
  541MPD2    C4 8029   2.410   0.736  13.091 -0.3881  0.0402  0.6075
  541MPD2    C5 8030   2.376   0.715  13.218  0.1838 -0.2525  0.6767
  541MPD2     H 8031   2.540   0.440  13.014 -0.4917 -2.1428  0.6855
  541MPD2    H1 8032   2.382   0.829  13.042  1.3916  0.4474  0.3715
  541MPD2    H2 8033   2.400   0.594  13.386  2.3147 -1.4261  0.3705
  541MPD2    H3 8034   2.328   0.793  13.276 -1.5301 -0.9195  0.1415
  541MPD2     N 8035   2.509   0.676  12.876  0.0371  0.8107 -0.0476
  541MPD2    H5 8036   2.487   0.770  12.844 -0.4789  0.6939 -0.0392
  541MPD2    N1 8037   2.507   0.384  13.291 -0.2835  0.0945  0.5650
  541MPD2    H7 8038   2.519   0.392  13.391  1.4530 -1.4482  0.4687
  542TMC3    C1 8039   2.588   0.646  12.657 -0.2246 -0.1653  0.0432
  542TMC3    C2 8040   2.611   0.559  12.559 -0.2868 -0.5964 -0.1706
  542TMC3    C3 8041   2.610   0.598  12.430 -0.2071  0.2267  0.7656
  542TMC3    C4 8042   2.576   0.781  12.633  0.3837 -0.1493  0.1998
  542TMC3    C5 8043   2.569   0.819  12.504  0.1080  0.3499  0.8898
  542TMC3    C6 8044   2.590   0.728  12.403 -1.1468 -0.3480 -0.6503
  542TMC3     C 8045   2.557   0.583  12.784  0.1039 -0.5889 -0.1273
  542TMC3     O 8046   2.609   0.473  12.806  0.9452 -0.1573 -0.3361
  542TMC3     H 8047   2.595   0.454  12.578 -0.1330 -0.6998 -0.6037
  542TMC3    H1 8048   2.582   0.858  12.709 -0.4135  1.4257 -1.3477
  542TMC3    H2 8049   2.592   0.757  12.299 -0.9215  1.0493 -0.2602
  542TMC3    C7 8050   2.550   0.958  12.470  0.5869 -0.6297 -0.1897
  542TMC3    C8 8051   2.627   0.505  12.322  0.7995 -0.4360 -0.0004
  542TMC3    O1 8052   2.590   0.995  12.361  0.3870  0.7226  0.6670
  542TMC3    O2 8053   2.587   0.550  12.216  1.1345  0.1169 -0.0317
  543TMC3    C1 8054   2.010   1.996  16.860 -0.0070  0.2615 -0.3619
  543TMC3    C2 8055   2.008   1.873  16.913  0.1575 -0.7055  0.2380
  543TMC3    C3 8056   1.975   1.867  17.048 -0.2251 -0.1497  0.4998
  543TMC3    C4 8057   1.976   2.103  16.928 -0.3844  0.6671 -0.1555
  543TMC3    C5 8058   1.930   2.088  17.060 -0.1814 -0.2397  0.3378
  543TMC3    C6 8059   1.917   1.964  17.112 -0.0882 -0.2970  0.4125
  543TMC3     C 8060   2.036   2.006  16.717  0.8877 -0.1581  0.2553
  543TMC3     O 8061   2.022   2.115  16.662 -0.0043 -1.0059 -0.0169
  543TMC3     H 8062   1.999   1.789  16.845  0.6013 -1.2153  0.8175
  543TMC3    H1 8063   1.980   2.197  16.874  0.9589  0.5895 -0.1912
  543TMC3    H2 8064   1.895   1.949  17.217  0.4633 -2.4860  0.2216
  543TMC3    C7 8065   1.869   2.199  17.121  0.7745 -0.4481 -0.0428
  543TMC3    C8 8066   1.957   1.738  17.107 -0.2850 -0.4802  0.0980
  543TMC3    O1 8067   1.873   2.306  17.060 -0.1202  0.2522  0.1055
  543TMC3    O2 8068   1.883   1.728  17.205 -0.1067 -0.3350  0.1140
  544MPD2     C 8069   2.039   1.240  17.158 -0.0931  0.2891 -1.0906
  544MPD2    C1 8070   2.148   1.283  17.080 -0.1824 -0.1233  0.5667
  544MPD2    C2 8071   2.148   1.419  17.060 -0.7888  1.0394 -0.1600
  544MPD2    C3 8072   2.043   1.504  17.095  0.3305  0.3868  0.2887
  544MPD2    C4 8073   1.938   1.448  17.164  0.3594  0.9891 -0.0531
  544MPD2    C5 8074   1.939   1.320  17.196 -0.3506  0.0623 -0.4809
  544MPD2     H 8075   2.239   1.452  17.011 -0.9346  0.5552 -0.7638
  544MPD2    H1 8076   1.846   1.500  17.190  0.0243  0.5453 -0.3603
  544MPD2    H2 8077   2.037   1.133  17.175  2.1809  0.6634  1.4096
  544MPD2    H3 8078   1.852   1.271  17.238 -0.2936 -1.2843 -1.9211
  544MPD2     N 8079   2.043   1.639  17.051  0.4123 -0.1787  0.2552
  544MPD2    H5 8080   2.116   1.669  16.988 -0.5672 -0.3064 -0.9397
  544MPD2    N1 8081   2.243   1.192  17.037  0.4168 -0.2051  0.3518
  544MPD2    H7 8082   2.229   1.095  17.066 -0.9906  0.2326  1.1035
  545TMC3    C1 8083   2.436   1.097  16.942 -0.0689 -0.1296  0.2100
  545TMC3    C2 8084   2.574   1.107  16.955 -0.2476 -0.3014 -0.8131
  545TMC3    C3 8085   2.652   0.996  16.926  0.4012  0.2761  0.0342
  545TMC3    C4 8086   2.375   0.982  16.910 -0.8068 -0.3539 -1.0437
  545TMC3    C5 8087   2.453   0.868  16.881 -0.9769 -0.3463  0.2894
  545TMC3    C6 8088   2.590   0.878  16.889  0.0999  0.3091  0.2687
  545TMC3     C 8089   2.357   1.217  16.960  0.0960  0.5427 -0.8959
  545TMC3     O 8090   2.418   1.318  16.923 -0.3038  0.0456  0.6250
  545TMC3     H 8091   2.619   1.200  16.989 -1.7390 -0.3588  1.2749
  545TMC3    H1 8092   2.267   0.976  16.901 -0.9088 -0.1062  0.1148
  545TMC3    H2 8093   2.643   0.784  16.877 -2.9047 -1.6472  2.4534
  545TMC3    C7 8094   2.382   0.746  16.927 -1.0832 -0.2087 -0.1354
  545TMC3    C8 8095   2.795   1.005  16.952 -0.3642 -0.1669  0.2762
  545TMC3    O1 8096   2.260   0.749  16.912  0.2206  0.2258 -0.1719
  545TMC3    O2 8097   2.837   1.122  16.961 -0.0089 -0.1272  0.6095
  546MPD2     C 8098   3.319   1.307   0.095  0.1440  0.1278  0.4564
  546MPD2    C1 8099   3.362   1.327  17.652 -0.4183  0.1517 -0.5066
  546MPD2    C2 8100   3.414   1.443  17.606  1.0819  0.3238 -0.2740
  546MPD2    C3 8101   3.428   1.547   0.017  0.1113 -0.2339 -0.0669
  546MPD2    C4 8102   3.383   1.531   0.147 -0.3815  0.7656  0.7556
  546MPD2    C5 8103   3.321   1.415   0.187  0.3114 -0.7579  0.3843
  546MPD2     H 8104   3.433   1.460  17.500  1.8853  0.7234 -0.0667
  546MPD2    H1 8105   3.416   1.603   0.222  0.8201 -0.0985  1.0623
  546MPD2    H2 8106   3.279   1.213   0.131  3.0446 -1.2076  0.2342
  546MPD2    H3 8107   3.305   1.400   0.293 -2.7208 -1.3975 -0.1856
  546MPD2     N 8108   3.492   1.669  17.674  0.1722 -0.1941  0.1883
  546MPD2    H5 8109   3.481   1.742   0.059  1.4883 -1.6340  1.8914
  546MPD2    N1 8110   3.321   1.231  17.552  0.3403  0.2040  0.4192
  546MPD2    H7 8111   3.251   1.162  17.577 -0.7899  0.8941 -0.8478
  547TMC3    C1 8112   3.272   1.158  17.328  0.1155 -0.6166  0.0586
  547TMC3    C2 8113   3.258   1.236  17.211 -0.2600  0.6160  0.7600
  547TMC3    C3 8114   3.130   1.238  17.156  0.3001  0.0353 -0.3297
  547TMC3    C4 8115   3.166   1.092  17.386 -0.7653 -0.0311 -0.4443
  547TMC3    C5 8116   3.040   1.104  17.325  0.1415 -0.5138  0.0338
  547TMC3    C6 8117   3.020   1.179  17.217  0.0465  0.3293  0.0523
  547TMC3     C 8118   3.356   1.237  17.415  0.1351  0.2865 -0.5020
  547TMC3     O 8119   3.448   1.291  17.356  0.1712 -0.7896  0.3795
  547TMC3     H 8120   3.342   1.273  17.154 -0.5875  0.1187 -0.0457
  547TMC3    H1 8121   3.170   1.037  17.479  2.0934  0.8891 -0.0508
  547TMC3    H2 8122   2.919   1.203  17.188  0.0886 -1.3411 -1.4834
  547TMC3    C7 8123   2.929   1.035  17.387  0.3261  0.0920  0.2027
  547TMC3    C8 8124   3.113   1.356  17.080 -0.1575 -0.7382 -0.4848
  547TMC3    O1 8125   2.822   1.092  17.385 -0.0874  0.0116  0.1151
  547TMC3    O2 8126   3.194   1.444  17.102  0.5929  0.6954 -0.0342
  548MPD2     C 8127   2.801   2.074  12.168 -0.4840  0.2382 -0.3407
  548MPD2    C1 8128   2.861   1.979  12.243  0.0511 -0.2089  0.0276
  548MPD2    C2 8129   2.983   1.929  12.199  0.3536 -0.9776  0.1519
  548MPD2    C3 8130   3.049   1.985  12.094  0.1192  0.4031  0.0376
  548MPD2    C4 8131   2.989   2.084  12.024  0.3088 -0.4333  0.5557
  548MPD2    C5 8132   2.866   2.130  12.066 -0.6349  0.1786  0.5529
  548MPD2     H 8133   3.036   1.850  12.251  0.8842  0.1587  1.3368
  548MPD2    H1 8134   3.035   2.131  11.939  0.7286 -1.8987 -0.0195
  548MPD2    H2 8135   2.699   2.109  12.176 -0.1568  1.3970 -1.1380
  548MPD2    H3 8136   2.820   2.211  12.010 -0.8723  0.0115  0.5062
  548MPD2     N 8137   3.176   1.927  12.058 -0.0498  0.1109 -0.2197
  548MPD2    H5 8138   3.202   1.842  12.106 -2.8175 -0.1102  0.8520
  548MPD2    N1 8139   2.791   1.919  12.355  0.3415 -0.1660  0.1340
  548MPD2    H7 8140   2.703   1.964  12.378 -0.3389 -1.2397 -0.3547
  549TMC3    C1 8141   2.783   1.823  12.570  0.1059 -0.4690  0.1428
  549TMC3    C2 8142   2.706   1.926  12.599  0.3734 -0.1732  0.2044
  549TMC3    C3 8143   2.704   1.974  12.729  0.3292  0.2662  0.8202
  549TMC3    C4 8144   2.862   1.771  12.666  1.1205 -1.3305 -0.1748
  549TMC3    C5 8145   2.847   1.808  12.800  0.0106  0.1445  0.2547
  549TMC3    C6 8146   2.783   1.927  12.826  0.5220 -0.3509  0.2840
  549TMC3     C 8147   2.848   1.823  12.440  0.6076 -0.5260  0.0667
  549TMC3     O 8148   2.942   1.750  12.430  0.4297 -0.7369 -0.5488
  549TMC3     H 8149   2.629   1.964  12.532  0.4220  1.3302  1.0103
  549TMC3    H1 8150   2.921   1.685  12.635  3.1181  0.8586 -2.3292
  549TMC3    H2 8151   2.763   1.956  12.928 -2.0251 -0.0647 -0.3014
  549TMC3    C7 8152   2.865   1.719  12.910  0.8342 -0.2111  0.3855
  549TMC3    C8 8153   2.659   2.112  12.746  1.1861  0.1015  0.1771
  549TMC3    O1 8154   2.890   1.780  13.014  0.3072  0.3825 -0.7229
  549TMC3    O2 8155   2.558   2.148  12.682  0.0949 -0.1782  0.5201
  550TMC3    C1 8156   2.454   4.615  12.221  0.3589  0.5848  0.6328
  550TMC3    C2 8157   2.448   4.705  12.321  0.3492  0.5499 -0.0189
  550TMC3    C3 8158   2.440   0.121  12.298  0.1076  0.1131 -0.5173
  550TMC3    C4 8159   2.478   4.659  12.094  0.7050  0.2723  0.0256
  550TMC3    C5 8160   2.469   0.074  12.075  0.3189  0.2001  0.2817
  550TMC3    C6 8161   2.443   0.169  12.176 -0.0205 -0.2339  0.4128
  550TMC3     C 8162   2.332   4.532  12.224  0.1732 -0.1326  0.1873
  550TMC3     O 8163   2.288   4.515  12.340  0.1429 -0.0225 -0.1118
  550TMC3     H 8164   2.454   4.674  12.424  0.2895  1.1330  0.1592
  550TMC3    H1 8165   2.484   4.593  12.008  1.3695  0.0720  0.2330
  550TMC3    H2 8166   2.426   0.274  12.155 -2.4138 -0.7149 -0.0321
  550TMC3    C7 8167   2.415   0.118  11.946  0.4494 -0.2267  0.4964
  550TMC3    C8 8168   2.344   0.196  12.385  0.0989 -0.2087  0.3175
  550TMC3    O1 8169   2.479   0.084  11.847 -0.2229 -0.4444  1.0064
  550TMC3    O2 8170   2.335   0.314  12.370 -0.3083 -0.0267 -0.6155
  551TMC3    C1 8171   4.196   2.474  13.207  0.1697  0.2985  0.3149
  551TMC3    C2 8172   4.259   2.499  13.086  0.4457 -0.0811  0.3542
  551TMC3    C3 8173   4.340   2.606  13.082 -0.4222 -0.2559  0.0115
  551TMC3    C4 8174   4.228   2.542  13.324 -0.5244 -0.2258 -0.7663
  551TMC3    C5 8175   4.316   2.642  13.312  0.0431  0.0163 -0.8436
  551TMC3    C6 8176   4.371   2.678  13.193  1.0311  0.3115  0.3604
  551TMC3     C 8177   4.098   2.362  13.209 -0.4112  0.4231 -0.1863
  551TMC3     O 8178   4.080   2.308  13.099 -0.1795 -0.0683 -0.1322
  551TMC3     H 8179   4.236   2.434  13.003 -0.1282 -0.7234  1.0080
  551TMC3    H1 8180   4.187   2.512  13.420 -1.7002  1.6421 -0.6778
  551TMC3    H2 8181   4.449   2.754  13.187 -0.3972  1.5559 -2.2910
  551TMC3    C7 8182   4.378   2.690  13.435 -0.3433  0.3563  0.5957
  551TMC3    C8 8183   4.378   2.653  12.953  0.2460 -0.6249  0.1973
  551TMC3    O1 8184   4.378   2.606  13.526  0.1167 -0.2300 -0.0182
  551TMC3    O2 8185   4.377   2.581  12.854 -0.1368 -0.5843  0.1964
  552MPD2     C 8186   1.680   0.188  14.111 -0.3548  0.1485 -0.1288
  552MPD2    C1 8187   1.634   0.066  14.144  0.2392 -0.9596  0.4340
  552MPD2    C2 8188   1.674   0.008  14.263  0.9460  0.2531 -0.0848
  552MPD2    C3 8189   1.760   0.084  14.342  0.1784  0.4252  0.0268
  552MPD2    C4 8190   1.800   0.210  14.306 -1.0097  0.7744 -0.4166
  552MPD2    C5 8191   1.765   0.265  14.189 -0.5218  0.7704 -0.0603
  552MPD2     H 8192   1.634   4.632  14.290 -1.8972  1.8518  1.4795
  552MPD2    H1 8193   1.879   0.249  14.368 -0.7625  1.4068 -1.1335
  552MPD2    H2 8194   1.664   0.228  14.012 -0.3671 -0.9311 -0.5594
  552MPD2    H3 8195   1.806   0.361  14.161 -0.4289  0.8718  0.4193
  552MPD2     N 8196   1.821   0.028  14.459  0.5346 -0.3022 -0.2978
  552MPD2    H5 8197   1.849   0.097  14.528  0.1070  1.4701 -1.9174
  552MPD2    N1 8198   1.519   0.008  14.080  0.0853  0.3246  0.3453
  552MPD2    H7 8199   1.493   4.632  14.097 -2.6666  0.5726 -2.5724
  553TMC3    C1 8200   1.368   4.696  13.900  0.4961 -0.1899  0.0061
  553TMC3    C2 8201   1.399   4.694  13.763  0.2544 -0.0037  0.1449
  553TMC3    C3 8202   1.381   4.577  13.687 -0.1672 -0.0868  0.4043
  553TMC3    C4 8203   1.325   4.579  13.963  0.5650 -0.1509 -0.2240
  553TMC3    C5 8204   1.333   4.460  13.894  0.2519  0.3129 -0.1306
  553TMC3    C6 8205   1.359   4.453  13.755 -0.6630 -0.2328 -0.5936
  553TMC3     C 8206   1.444   0.064  13.976 -0.8971  0.1139  0.3678
  553TMC3     O 8207   1.458   0.181  13.939 -0.1162  0.4878 -0.3915
  553TMC3     H 8208   1.437   0.065  13.718  1.8013 -0.6449  0.1567
  553TMC3    H1 8209   1.289   4.589  14.064  2.2931  0.0341  0.3816
  553TMC3    H2 8210   1.385   4.360  13.705  2.9861  0.0057  0.8064
  553TMC3    C7 8211   1.337   4.337  13.968 -0.5227 -0.0335 -0.9477
  553TMC3    C8 8212   1.445   4.578  13.553 -0.0033  0.1188  0.1035
  553TMC3    O1 8213   1.324   4.236  13.903 -0.0825  0.5751  0.0618
  553TMC3    O2 8214   1.518   4.671  13.536  0.0291  0.0243 -0.3388
  554TMC3    C1 8215   3.082   3.415  11.618 -1.0604 -0.5911  0.0041
  554TMC3    C2 8216   3.056   3.421  11.484 -0.9804  0.6885  0.4439
  554TMC3    C3 8217   3.101   3.527  11.410 -0.2965 -0.5223  0.1128
  554TMC3    C4 8218   3.170   3.500  11.679  0.7481  0.6509 -0.4533
  554TMC3    C5 8219   3.228   3.597  11.600 -0.3635  0.1502 -0.2636
  554TMC3    C6 8220   3.199   3.611  11.468 -0.1832 -0.2669 -0.6129
  554TMC3     C 8221   3.064   3.291  11.694  0.3833 -0.6921  0.4521
  554TMC3     O 8222   3.132   3.286  11.799 -0.1361  0.0137  0.0867
  554TMC3     H 8223   2.993   3.351  11.431  1.0007  1.4929 -2.9843
  554TMC3    H1 8224   3.174   3.510  11.787  0.3122 -2.6347 -0.1278
  554TMC3    H2 8225   3.243   3.678  11.395 -0.5673  0.4579 -0.1702
  554TMC3    C7 8226   3.341   3.673  11.665  0.6548 -0.0499 -0.2761
  554TMC3    C8 8227   3.097   3.519  11.265 -0.2465  0.7716  0.1281
  554TMC3    O1 8228   3.366   3.653  11.784 -0.0235 -0.0045  0.7652
  554TMC3    O2 8229   3.204   3.546  11.202  0.1123 -1.0219  0.4076
  555TMC3    C1 8230   2.447   2.984  14.899 -0.0081  0.5012  0.0258
  555TMC3    C2 8231   2.406   3.072  14.992 -0.2787 -0.2986 -0.5051
  555TMC3    C3 8232   2.379   3.023  15.120 -0.1970  0.0699 -0.6970
  555TMC3    C4 8233   2.447   2.845  14.926  0.4120  0.1905  0.1840
  555TMC3    C5 8234   2.425   2.808  15.057  0.3886 -0.3215 -0.2056
  555TMC3    C6 8235   2.375   2.894  15.153 -0.4151 -0.0971 -0.0541
  555TMC3     C 8236   2.490   3.027  14.769 -0.6181 -0.0182 -0.3412
  555TMC3     O 8237   2.546   2.943  14.707  0.0322  0.1819 -0.2298
  555TMC3     H 8238   2.412   3.179  14.972  3.5027 -0.2429  0.8872
  555TMC3    H1 8239   2.466   2.778  14.843  0.5113  1.3863 -0.7706
  555TMC3    H2 8240   2.360   2.859  15.254 -0.0971  0.1784  0.0889
  555TMC3    C7 8241   2.405   2.671  15.095  0.0377  0.2387 -0.6725
  555TMC3    C8 8242   2.363   3.122  15.221 -0.3385  0.1152 -0.8715
  555TMC3    O1 8243   2.340   2.652  15.191  0.1190 -0.3876 -0.3222
  555TMC3    O2 8244   2.334   3.235  15.187 -0.0207 -0.0453  0.0756
  556MPD2     C 8245   0.472   0.771  10.661  0.6136  0.1506  0.6556
  556MPD2    C1 8246   0.486   0.666  10.749 -0.5435 -0.0070  0.5437
  556MPD2    C2 8247   0.476   0.539  10.691  0.2286 -0.1234 -0.3783
  556MPD2    C3 8248   0.460   0.521  10.558  0.3258 -0.6300 -0.2120
  556MPD2    C4 8249   0.441   0.629  10.477 -0.2087 -0.2244 -0.5155
  556MPD2    C5 8250   0.444   0.749  10.529  0.1110  0.2203  0.3304
  556MPD2     H 8251   0.492   0.455  10.758 -0.3499  0.5632  0.6236
  556MPD2    H1 8252   0.426   0.622  10.370 -1.4990  0.4144 -0.3700
  556MPD2    H2 8253   0.482   0.875  10.691  1.5583 -0.5209  2.6882
  556MPD2    H3 8254   0.435   0.830  10.458 -2.0727 -1.2436 -1.0242
  556MPD2     N 8255   0.462   0.387  10.509 -0.4178 -0.2170 -0.4072
  556MPD2    H5 8256   0.470   0.311  10.576  2.8042 -0.6253 -1.2566
  556MPD2    N1 8257   0.511   0.692  10.886 -0.4661 -0.5813 -0.6400
  556MPD2    H7 8258   0.514   0.610  10.947  0.6828 -0.9484 -1.1804
  557TMC3    C1 8259   0.462   0.208  10.347 -0.2508  0.4818 -0.2691
  557TMC3    C2 8260   0.473   0.186  10.213 -0.2893  1.0643  0.4111
  557TMC3    C3 8261   0.501   0.058  10.174  0.4102  0.0298 -0.3039
  557TMC3    C4 8262   0.481   0.106  10.443  0.0547 -0.5133 -0.2711
  557TMC3    C5 8263   0.523   4.705  10.395 -0.0049 -0.0083  0.2051
  557TMC3    C6 8264   0.515   4.674  10.266 -0.5929  0.6066  1.0893
  557TMC3     C 8265   0.432   0.341  10.379  0.5824  1.0486  0.7456
  557TMC3     O 8266   0.389   0.402  10.284 -0.2959  0.5097  0.1616
  557TMC3     H 8267   0.475   0.262  10.136 -0.5565 -2.2600 -2.8743
  557TMC3    H1 8268   0.479   0.122  10.551  1.1754 -3.1420  0.1461
  557TMC3    H2 8269   0.537   4.575  10.230  0.6754  0.8469  1.2116
  557TMC3    C7 8270   0.511   4.592  10.482  0.6934 -0.4834 -0.1439
  557TMC3    C8 8271   0.601   0.051  10.070  0.4313 -0.0334  0.8233
  557TMC3    O1 8272   0.449   4.497  10.439  0.5070  0.3760 -0.5247
  557TMC3    O2 8273   0.648   0.157  10.037 -0.0405  0.4786 -0.5235
  558TMC3    C1 8274   3.143   2.087   9.663  0.9750 -0.0985 -0.6354
  558TMC3    C2 8275   3.061   2.058   9.769  0.5233  0.3092 -0.1444
  558TMC3    C3 8276   2.958   1.968   9.750 -0.5094  0.0579  0.0982
  558TMC3    C4 8277   3.119   2.029   9.543  0.3368  0.6127  0.1311
  558TMC3    C5 8278   3.007   1.954   9.523 -0.7911  0.3888  0.2693
  558TMC3    C6 8279   2.923   1.921   9.627  0.1767 -0.2832  0.2704
  558TMC3     C 8280   3.235   2.190   9.680 -0.6527 -0.2973  0.3863
  558TMC3     O 8281   3.237   2.254   9.785  0.0098 -0.0605 -0.2049
  558TMC3     H 8282   3.075   2.091   9.872 -0.6290 -3.1680  1.1194
  558TMC3    H1 8283   3.174   2.046   9.451  1.3859  1.8338  0.9819
  558TMC3    H2 8284   2.841   1.850   9.615  0.7564 -1.1382  1.4321
  558TMC3    C7 8285   2.982   1.909   9.390 -0.1579 -0.0196  0.3330
  558TMC3    C8 8286   2.885   1.918   9.869 -0.0579 -0.3652  0.7709
  558TMC3    O1 8287   3.078   1.865   9.332 -0.5213 -0.4949  0.5299
  558TMC3    O2 8288   2.769   1.892   9.853  0.1407  0.1148 -0.2870
  559MPD2     C 8289   3.098   3.001  10.430  0.1304 -0.3791 -0.0366
  559MPD2    C1 8290   3.017   2.993  10.541 -0.3012  0.3214  0.0269
  559MPD2    C2 8291   3.074   3.005  10.670  0.1235 -0.3998 -0.5387
  559MPD2    C3 8292   3.207   3.030  10.683  0.3333 -0.2133  0.6645
  559MPD2    C4 8293   3.293   3.033  10.565  1.0101  0.1677 -0.2976
  559MPD2    C5 8294   3.230   3.020  10.444  0.1698 -0.1549 -0.2377
  559MPD2     H 8295   3.020   3.002  10.764 -1.2774 -1.7850 -1.3768
  559MPD2    H1 8296   3.398   3.060  10.568  1.2971 -0.6555 -2.5114
  559MPD2    H2 8297   3.054   2.989  10.332 -1.3775  1.4760  0.4137
  559MPD2    H3 8298   3.281   3.030  10.349  1.0332 -1.0899  0.1271
  559MPD2     N 8299   3.260   3.043  10.813  0.3089  0.0757  0.1882
  559MPD2    H5 8300   3.210   2.994  10.887 -1.3862  1.8797  0.2449
  559MPD2    N1 8301   2.879   2.971  10.522 -0.0092 -0.8837 -0.5686
  559MPD2    H7 8302   2.829   2.970  10.434  2.5429  1.4675 -1.9975
  560TMC3    C1 8303   3.436   3.028  10.973  0.1758 -0.2088  0.9740
  560TMC3    C2 8304   3.382   2.909  11.000  0.3279  0.4340  0.1266
  560TMC3    C3 8305   3.436   2.843  11.107  0.1884  0.1290 -0.6127
  560TMC3    C4 8306   3.531   3.095  11.048  0.0671 -0.4434 -0.2557
  560TMC3    C5 8307   3.572   3.023  11.158 -0.2085 -0.9599  0.8875
  560TMC3    C6 8308   3.537   2.902  11.187 -0.7510 -0.0243  0.4364
  560TMC3     C 8309   3.387   3.085  10.846  0.1341  0.0636 -0.1785
  560TMC3     O 8310   3.468   3.150  10.779  0.2735  0.1062 -0.1290
  560TMC3     H 8311   3.327   2.850  10.927  1.2206 -0.5014  0.2102
  560TMC3    H1 8312   3.571   3.190  11.015 -2.7225  0.3103 -1.5012
  560TMC3    H2 8313   3.571   2.859  11.280 -1.3392 -0.8607  0.2629
  560TMC3    C7 8314   3.665   3.084  11.252 -0.6516 -0.4154  0.0140
  560TMC3    C8 8315   3.433   2.697  11.094 -0.3965 -0.0632 -0.5198
  560TMC3    O1 8316   3.653   3.069  11.373 -0.7563  0.4147  0.0638
  560TMC3    O2 8317   3.334   2.653  11.038 -0.3599  0.2750 -0.5471
  561TMC3    C1 8318   1.088   2.111  11.014 -0.0381 -0.2920 -0.6235
  561TMC3    C2 8319   1.034   2.011  11.087  0.6276  0.8185 -0.4657
  561TMC3    C3 8320   0.959   2.040  11.196 -0.4064  0.0670 -0.3970
  561TMC3    C4 8321   1.062   2.243  11.034 -0.3030 -0.4434  0.1223
  561TMC3    C5 8322   0.978   2.270  11.136  0.1396  0.1165  0.3867
  561TMC3    C6 8323   0.930   2.168  11.217  0.0194  0.1132  0.0039
  561TMC3     C 8324   1.209   2.081  10.936  0.2413 -0.4402  0.0511
  561TMC3     O 8325   1.216   1.970  10.889 -0.0074  0.3883  0.4646
  561TMC3     H 8326   1.057   1.910  11.056  1.7096  0.8801  0.1320
  561TMC3    H1 8327   1.101   2.320  10.968 -0.6333  1.1044  1.7287
  561TMC3    H2 8328   0.851   2.200  11.284 -0.2271  2.0889 -1.2123
  561TMC3    C7 8329   0.957   2.403  11.183  0.8668 -0.0843 -0.1209
  561TMC3    C8 8330   0.895   1.935  11.272 -0.7859  0.1842 -0.3597
  561TMC3    O1 8331   0.881   2.433  11.274 -0.2847 -0.2697 -0.0922
  561TMC3    O2 8332   0.897   1.823  11.224 -0.6664 -0.4454  0.7052
  562TMC3    C1 8333   2.009   3.381  16.462  0.2887 -0.2961  0.2023
  562TMC3    C2 8334   1.948   3.503  16.434 -0.4986 -0.4249  0.4090
  562TMC3    C3 8335   1.947   3.551  16.305 -0.6796 -0.4134 -0.7435
  562TMC3    C4 8336   2.055   3.303  16.367  0.1187  0.1144  0.3048
  562TMC3    C5 8337   2.065   3.352  16.239 -0.0317 -0.2383  0.1169
  562TMC3    C6 8338   2.004   3.475  16.207  0.5269 -0.4810 -0.0824
  562TMC3     C 8339   2.006   3.346  16.599 -0.4970 -0.5120  0.1077
  562TMC3     O 8340   2.021   3.445  16.677 -0.6710 -0.4932 -0.1572
  562TMC3     H 8341   1.904   3.559  16.515  0.0242  2.1323 -1.0819
  562TMC3    H1 8342   2.110   3.215  16.397 -0.8499 -0.3439  0.7379
  562TMC3    H2 8343   2.009   3.515  16.107 -0.9655  1.3392  0.5739
  562TMC3    C7 8344   2.122   3.276  16.126  0.3217  0.2337 -0.5494
  562TMC3    C8 8345   1.842   3.643  16.267 -0.2555  0.2932 -0.0535
  562TMC3    O1 8346   2.111   3.321  16.013  0.4365  0.3850  0.4654
  562TMC3    O2 8347   1.750   3.656  16.345 -0.7817 -0.5389 -0.6223
  563MPD2     C 8348   4.245   4.378  15.549 -0.8050  0.6787  0.7346
  563MPD2    C1 8349   4.278   4.515  15.554  0.9995 -0.3991 -0.2888
  563MPD2    C2 8350   4.406   4.556  15.594 -0.1022 -0.1410  0.0656
  563MPD2    C3 8351   4.498   4.460  15.636 -0.7245 -0.4049 -0.7143
  563MPD2    C4 8352   4.463   4.325  15.634 -0.8115  0.4249 -0.3951
  563MPD2    C5 8353   4.339   4.285  15.587  0.1307 -0.1803 -0.3226
  563MPD2     H 8354   4.437   4.659  15.583  0.0630 -0.4315 -2.1656
  563MPD2    H1 8355   4.537   4.249  15.654 -2.0380 -0.0474  2.3116
  563MPD2    H2 8356   4.144   4.351  15.521 -1.5088  3.8263  0.2946
  563MPD2    H3 8357   4.317   4.180  15.570  1.5469 -0.7430  1.3203
  563MPD2     N 8358   4.619   4.509  15.688 -0.0216  0.2196  0.0683
  563MPD2    H5 8359   4.624   4.610  15.693 -2.8982  0.3179  1.1508
  563MPD2    N1 8360   4.173   4.608  15.553 -0.1222 -0.2558  0.6206
  563MPD2    H7 8361   4.078   4.572  15.547 -0.1381 -0.2464  0.7933
  564TMC3    C1 8362   4.065   0.051  15.667  0.0664 -0.1934  0.0807
  564TMC3    C2 8363   3.961   4.690  15.616 -0.8418  0.3296 -0.0787
  564TMC3    C3 8364   3.875   4.633  15.709 -0.3595  0.7260  0.1597
  564TMC3    C4 8365   4.090   0.059  15.798 -0.2555  0.0381  0.1545
  564TMC3    C5 8366   4.001   0.008  15.886  0.0165 -0.2761  0.0852
  564TMC3    C6 8367   3.891   4.659  15.846 -0.4773 -0.3349 -0.0915
  564TMC3     C 8368   4.187   0.022  15.591  0.1219 -0.4586 -0.5706
  564TMC3     O 8369   4.279   0.106  15.595  0.1263 -0.1204 -0.3537
  564TMC3     H 8370   3.935   4.696  15.510  1.1001  0.2226 -0.5534
  564TMC3    H1 8371   4.179   0.110  15.834 -0.7853 -1.2309  3.3118
  564TMC3    H2 8372   3.816   4.623  15.915  0.2829  1.8489  1.8902
  564TMC3    C7 8373   4.079   4.644  15.968 -0.1606 -0.6449  0.1662
  564TMC3    C8 8374   3.851   4.491  15.699  0.4399  0.5619  0.9778
  564TMC3    O1 8375   4.165   4.698  16.034 -0.5872  0.1370 -0.3560
  564TMC3    O2 8376   3.823   4.439  15.806 -0.0395  0.1417 -0.0509
  565TMC3    C1 8377   0.710   1.930  10.181  0.3035  0.1605 -0.9736
  565TMC3    C2 8378   0.671   1.884  10.307 -0.0307  0.4019  0.1160
  565TMC3    C3 8379   0.716   1.757  10.335 -0.6543 -0.3373 -0.1179
  565TMC3    C4 8380   0.795   1.862  10.099  0.6052 -0.4726  0.4162
  565TMC3    C5 8381   0.834   1.737  10.134  0.3067 -0.1336 -0.0868
  565TMC3    C6 8382   0.803   1.686  10.259  0.5115  0.2352 -0.6342
  565TMC3     C 8383   0.676   2.065  10.151 -0.4885  1.1683 -0.7621
  565TMC3     O 8384   0.647   2.144  10.240  0.2799 -0.2710  0.5126
  565TMC3     H 8385   0.593   1.928  10.369 -1.7998 -2.2536 -0.2193
  565TMC3    H1 8386   0.833   1.920  10.016  0.3618 -0.4883  0.2948
  565TMC3    H2 8387   0.845   1.588  10.277 -3.0357 -1.2581 -0.3848
  565TMC3    C7 8388   0.918   1.656  10.049 -0.0048  0.5083  0.3973
  565TMC3    C8 8389   0.641   1.664  10.426 -0.0925  0.2071 -0.3175
  565TMC3    O1 8390   0.906   1.670   9.927 -0.4827 -0.1245 -0.5483
  565TMC3    O2 8391   0.670   1.545  10.427  0.4278 -0.4416 -0.4931
  566MPD2     C 8392   1.545   3.075  14.392 -0.3648  0.2263 -0.1121
  566MPD2    C1 8393   1.571   3.189  14.317  0.2282 -0.5626 -0.2608
  566MPD2    C2 8394   1.471   3.229  14.234  0.0473 -0.0086 -0.2665
  566MPD2    C3 8395   1.346   3.158  14.236 -0.0166 -0.6732  1.2872
  566MPD2    C4 8396   1.330   3.040  14.307  0.2081  0.3367 -0.0048
  566MPD2    C5 8397   1.428   3.001  14.388  0.0901 -0.0124  0.6832
  566MPD2     H 8398   1.477   3.301  14.153  0.0806 -1.2915 -1.4208
  566MPD2    H1 8399   1.240   2.981  14.301  1.3709 -1.5065  0.5647
  566MPD2    H2 8400   1.618   3.041  14.464 -1.0790  0.9581  0.9656
  566MPD2    H3 8401   1.407   2.914  14.449 -2.7008  0.2398  0.0785
  566MPD2     N 8402   1.233   3.194  14.159  0.3339  0.2940  0.1552
  566MPD2    H5 8403   1.157   3.127  14.165  0.7771 -0.3662 -1.7256
  566MPD2    N1 8404   1.693   3.252  14.327 -0.4318  0.6641 -0.7256
  566MPD2    H7 8405   1.759   3.215  14.395 -1.4727  0.3226  0.0840
  567TMC3    C1 8406   1.852   3.393  14.219 -0.7120 -0.2720  0.1864
  567TMC3    C2 8407   1.876   3.483  14.118 -1.3942 -0.1916  0.4411
  567TMC3    C3 8408   1.995   3.491  14.046 -0.0975 -0.0532  0.3752
  567TMC3    C4 8409   1.945   3.299  14.239 -0.5236 -0.2982 -0.5150
  567TMC3    C5 8410   2.063   3.306  14.171 -0.1401 -0.2789  0.2335
  567TMC3    C6 8411   2.098   3.405  14.074  0.9028  0.1699  0.1399
  567TMC3     C 8412   1.716   3.372  14.253  0.0525 -0.3642 -0.2152
  567TMC3     O 8413   1.633   3.445  14.201  0.8270  0.6139  0.5154
  567TMC3     H 8414   1.784   3.532  14.087  1.0694  2.7005 -2.2033
  567TMC3    H1 8415   1.918   3.206  14.287  1.8630 -1.3719 -1.2516
  567TMC3    H2 8416   2.190   3.403  14.018  1.1773  0.4837  0.5815
  567TMC3    C7 8417   2.151   3.195  14.197  0.0855 -0.6801 -0.1751
  567TMC3    C8 8418   1.988   3.572  13.932 -0.2534 -0.0408  0.4009
  567TMC3    O1 8419   2.199   3.138  14.103  0.0958 -0.1345  0.3388
  567TMC3    O2 8420   1.889   3.643  13.919 -0.3680  0.1073 -0.0771
  568MPD2     C 8421   3.559   3.337  16.518  0.1033  0.2273  0.6759
  568MPD2    C1 8422   3.691   3.370  16.531 -0.5572  0.1740 -0.3804
  568MPD2    C2 8423   3.749   3.458  16.441 -0.2971  0.7159  0.2283
  568MPD2    C3 8424   3.673   3.507  16.341  0.3732  0.8901  0.0971
  568MPD2    C4 8425   3.534   3.486  16.337 -0.4361 -0.0630 -0.0635
  568MPD2    C5 8426   3.484   3.402  16.429 -1.2489 -0.7772 -0.5927
  568MPD2     H 8427   3.856   3.476  16.446  0.4505 -2.7229 -2.9766
  568MPD2    H1 8428   3.461   3.536  16.274 -0.0022 -0.2062 -0.6782
  568MPD2    H2 8429   3.510   3.269  16.587 -2.6777 -0.9640 -2.4398
  568MPD2    H3 8430   3.377   3.387  16.437 -1.2790 -0.0493  0.2956
  568MPD2     N 8431   3.739   3.600  16.256 -0.3848  0.0958 -0.4577
  568MPD2    H5 8432   3.836   3.624  16.276 -0.2378 -0.6138 -0.3445
  568MPD2    N1 8433   3.763   3.310  16.632  0.6683 -0.3062  0.1303
  568MPD2    H7 8434   3.714   3.254  16.701 -1.5048  0.1026 -1.0932
  569TMC3    C1 8435   3.773   3.740  16.077 -0.5347  0.5680  0.4545
  569TMC3    C2 8436   3.876   3.804  16.148 -0.8137  0.1461  0.0383
  569TMC3    C3 8437   3.967   3.871  16.067  0.7354  0.5030 -0.1777
  569TMC3    C4 8438   3.769   3.738  15.943 -0.4366  0.4613  0.1403
  569TMC3    C5 8439   3.865   3.793  15.869 -0.1008 -0.6872  0.1888
  569TMC3    C6 8440   3.966   3.854  15.932 -0.1318 -0.2420  0.1948
  569TMC3     C 8441   3.679   3.656  16.144  0.8742 -0.4470  0.0653
  569TMC3     O 8442   3.569   3.636  16.096 -0.3497 -0.8712 -0.2414
  569TMC3     H 8443   3.864   3.811  16.256  2.8769  2.4818  0.2851
  569TMC3    H1 8444   3.700   3.666  15.899  1.2701 -0.1057 -1.6089
  569TMC3    H2 8445   4.047   3.904  15.879 -1.5736  0.9852 -0.8510
  569TMC3    C7 8446   3.830   3.849  15.742  0.1647  1.1042  0.7326
  569TMC3    C8 8447   3.967   4.012  16.099 -0.1545 -0.1127 -0.4987
  569TMC3    O1 8448   3.805   3.772  15.648  0.1213 -0.3235 -0.1990
  569TMC3    O2 8449   3.920   4.078  16.005  0.3388  0.4153 -0.0750
  570TMC3    C1 8450   3.476   2.300  16.224 -0.2774  0.1191  0.1223
  570TMC3    C2 8451   3.578   2.318  16.142 -0.0140  0.1032  0.2283
  570TMC3    C3 8452   3.591   2.442  16.076  0.2386 -0.4826 -0.6923
  570TMC3    C4 8453   3.382   2.398  16.250 -0.5406 -0.9883 -0.5193
  570TMC3    C5 8454   3.394   2.523  16.189 -0.8718 -0.1872  0.0543
  570TMC3    C6 8455   3.499   2.542  16.106 -0.7715  0.4120  0.0820
  570TMC3     C 8456   3.451   2.172  16.279 -1.1930  0.3017  0.0850
  570TMC3     O 8457   3.478   2.071  16.215  0.0640 -0.5244  0.6634
  570TMC3     H 8458   3.654   2.241  16.139 -0.8199 -0.7405  1.3675
  570TMC3    H1 8459   3.301   2.369  16.316 -0.5429  0.9517  0.3470
  570TMC3    H2 8460   3.511   2.639  16.059 -5.5990  1.4930  1.1203
  570TMC3    C7 8461   3.314   2.628  16.252 -0.0443 -0.4864 -0.4740
  570TMC3    C8 8462   3.712   2.475  15.995  0.4238  0.0530  0.2143
  570TMC3    O1 8463   3.266   2.596  16.361  0.1043 -0.4151 -0.0295
  570TMC3    O2 8464   3.738   2.597  15.993 -0.6801 -0.1390  0.0316
  571MPD2     C 8465   2.054   4.469  17.595 -1.0024  0.4495  0.2437
  571MPD2    C1 8466   1.918   4.447  17.567  0.3314 -0.1242 -0.2842
  571MPD2    C2 8467   1.830   4.544  17.603 -0.7020  0.1174 -0.1375
  571MPD2    C3 8468   1.874   4.670  17.647  0.1884 -0.3440 -0.2532
  571MPD2    C4 8469   2.010   4.686  17.677  0.2027 -0.1199 -0.1631
  571MPD2    C5 8470   2.100   4.581  17.656 -0.9185  0.7011  0.2866
  571MPD2     H 8471   1.723   4.536  17.590 -0.6240  0.0956 -0.7941
  571MPD2    H1 8472   2.053   0.057   0.031 -0.5126  0.1042  0.1031
  571MPD2    H2 8473   2.124   4.388  17.582 -0.5742  0.6911  1.0679
  571MPD2    H3 8474   2.205   4.598  17.680 -0.2855  0.7104 -2.4523
  571MPD2     N 8475   1.794   0.062  17.652  0.0413 -0.9623 -0.0682
  571MPD2    H5 8476   1.845   0.149  17.651 -0.2691 -0.7448  1.7910
  571MPD2    N1 8477   1.887   4.326  17.508  0.8292  0.3503 -0.0369
  571MPD2    H7 8478   1.968   4.266  17.498  0.3327 -0.1895 -0.7757
  572TMC3    C1 8479   1.608   0.207  17.682 -1.1677 -0.2320  0.0527
  572TMC3    C2 8480   1.488   0.229   0.056 -1.1919  1.1515 -0.1124
  572TMC3    C3 8481   1.429   0.350   0.033  0.5895  0.0122 -0.2850
  572TMC3    C4 8482   1.657   0.284  17.575  0.4029 -0.0145  0.2107
  572TMC3    C5 8483   1.591   0.400  17.553  0.9758  0.2382  0.7050
  572TMC3    C6 8484   1.486   0.442  17.632 -0.1262 -0.3761 -0.4215
  572TMC3     C 8485   1.662   0.070  17.677  0.0637  0.0150 -0.7157
  572TMC3     O 8486   1.580   4.703   0.015  0.0425 -0.4458  1.1046
  572TMC3     H 8487   1.462   0.169   0.143  0.4982  2.2800  1.1676
  572TMC3    H1 8488   1.754   0.265  17.531 -0.7700 -2.9772 -1.1260
  572TMC3    H2 8489   1.442   0.540  17.615  1.3344  0.1226 -1.3657
  572TMC3    C7 8490   1.644   0.498  17.456 -0.6439 -0.1900  0.2419
  572TMC3    C8 8491   1.298   0.387   0.088  0.0087 -0.2779  1.4411
  572TMC3    O1 8492   1.635   0.616  17.492 -0.1659 -1.0499 -0.3869
  572TMC3    O2 8493   1.258   0.503   0.069  0.3268 -0.5441 -0.2186
  573MPD2     C 8494   2.358   4.336   0.238  0.6107 -0.3667  0.5678
  573MPD2    C1 8495   2.455   4.430   0.253 -0.1377  0.4255 -0.5701
  573MPD2    C2 8496   2.542   4.456   0.141  0.5764 -0.3715  0.4573
  573MPD2    C3 8497   2.504   4.407   0.015 -0.3527  0.0316  0.6353
  573MPD2    C4 8498   2.401   4.316   0.007 -0.1390  0.4875  0.2640
  573MPD2    C5 8499   2.332   4.275   0.117 -0.2988 -0.0579 -0.5213
  573MPD2     H 8500   2.628   4.521   0.152  1.3021 -0.6973 -3.0411
  573MPD2    H1 8501   2.370   4.270  17.599 -0.0127 -0.4046  0.6622
  573MPD2    H2 8502   2.292   4.314   0.320  0.0750 -0.6782  0.0543
  573MPD2    H3 8503   2.256   4.198   0.113  0.3368 -0.5293 -3.1822
  573MPD2     N 8504   2.587   4.444  17.592  0.7540  0.5508 -0.5518
  573MPD2    H5 8505   2.553   4.428  17.497 -0.1576  2.0704 -0.4803
  573MPD2    N1 8506   2.462   4.508   0.369 -0.1889  0.4625  0.0025
  573MPD2    H7 8507   2.379   4.518   0.427  0.9390  0.7906  1.5556
  574TMC3    C1 8508   2.731   4.580  17.457  0.2957 -0.8159 -0.3083
  574TMC3    C2 8509   2.626   4.650  17.403  0.3824 -0.3638  0.5996
  574TMC3    C3 8510   2.648   0.029  17.317  0.5639  0.8054 -0.2200
  574TMC3    C4 8511   2.860   4.624  17.441  0.6565  0.5789  0.0028
  574TMC3    C5 8512   2.880   0.012  17.348  0.3987  0.6837 -0.2407
  574TMC3    C6 8513   2.775   0.068  17.280  0.0197  0.5065  0.4768
  574TMC3     C 8514   2.700   4.530  17.593  0.4503  0.5676 -0.4121
  574TMC3     O 8515   2.784   4.565  17.673  0.3318  0.6090  0.6368
  574TMC3     H 8516   2.528   4.637  17.450  0.2228  1.1168  0.6895
  574TMC3    H1 8517   2.933   4.577  17.506  1.5046 -0.4570 -1.7048
  574TMC3    H2 8518   2.787   0.156  17.218 -1.1619  0.6873  0.5078
  574TMC3    C7 8519   2.993   0.096  17.351 -0.0674 -0.1029  0.3183
  574TMC3    C8 8520   2.527   0.109  17.276 -0.2146 -0.8203 -0.3142
  574TMC3    O1 8521   2.982   0.206  17.308 -0.7753  0.5701  0.3351
  574TMC3    O2 8522   2.419   0.079  17.329  0.0782  0.4447  0.3019
  575TMC3    C1 8523   0.219   0.976  10.864  0.4244 -0.9147  0.5470
  575TMC3    C2 8524   0.180   0.879  10.771  0.0097 -0.5768 -0.1887
  575TMC3    C3 8525   0.174   0.916  10.643  0.1328  0.2415  0.0145
  575TMC3    C4 8526   0.245   1.104  10.829 -0.3931  0.8598  0.2299
  575TMC3    C5 8527   0.228   1.140  10.697  0.3697  0.7622 -0.0792
  575TMC3    C6 8528   0.193   1.045  10.604  0.4624 -0.2480  0.0287
  575TMC3     C 8529   0.214   0.945  11.013 -0.2972  0.4418  0.6265
  575TMC3     O 8530   0.272   1.023  11.089  0.0177  0.2543 -0.6105
  575TMC3     H 8531   0.171   0.773  10.793 -0.7394 -0.1333  1.6241
  575TMC3    H1 8532   0.285   1.171  10.904 -1.3567  0.1585  1.3838
  575TMC3    H2 8533   0.183   1.080  10.502  0.3957 -2.1488 -0.6208
  575TMC3    C7 8534   0.297   1.256  10.644 -0.1343 -0.5092  0.0636
  575TMC3    C8 8535   0.117   0.820  10.542  0.2860  0.0917  0.3118
  575TMC3    O1 8536   0.361   1.243  10.536  0.2137  0.3751 -0.1371
  575TMC3    O2 8537   0.065   0.720  10.590 -0.2887  0.4138  0.3151
  576MPD2     C 8538   0.251   1.774  12.608  0.1819  0.3661  0.1109
  576MPD2    C1 8539   0.203   1.884  12.539 -0.0857 -0.6621 -0.5622
  576MPD2    C2 8540   0.088   1.941  12.575 -0.3558  0.6778  0.6844
  576MPD2    C3 8541   0.020   1.886  12.686 -0.4093  0.5072 -1.2871
  576MPD2    C4 8542   0.060   1.763  12.739  0.3683  0.3207  0.0467
  576MPD2    C5 8543   0.175   1.702  12.695 -0.2344 -0.2391 -0.8160
  576MPD2     H 8544   0.054   2.035  12.533 -0.0132  1.6538  2.5698
  576MPD2    H1 8545   0.004   1.713  12.817  0.2246  0.5979  0.1226
  576MPD2    H2 8546   0.342   1.728  12.573  0.1095  2.5145 -2.9489
  576MPD2    H3 8547   0.211   1.611  12.743  0.2420 -0.4273 -1.5261
  576MPD2     N 8548   4.615   1.947  12.717  0.0387 -0.6843 -0.4359
  576MPD2    H5 8549   4.593   2.040  12.683 -1.8822 -0.9345  0.1112
  576MPD2    N1 8550   0.278   1.944  12.439 -0.2389 -0.0793 -0.2308
  576MPD2    H7 8551   0.252   2.039  12.414 -2.0048 -0.4727  0.1238
  577TMC3    C1 8552   0.381   1.945  12.228 -0.1795  1.0849  0.5862
  577TMC3    C2 8553   0.412   1.873  12.123 -0.4136 -0.1911 -0.6316
  577TMC3    C3 8554   0.442   1.937  12.009 -0.1219  0.0218  0.4833
  577TMC3    C4 8555   0.397   2.082  12.234  0.7596  0.0508 -1.1561
  577TMC3    C5 8556   0.428   2.146  12.113  0.1409 -0.3541 -0.6363
  577TMC3    C6 8557   0.439   2.071  12.000  0.0685 -0.1351  0.1588
  577TMC3     C 8558   0.350   1.866  12.351 -0.5901 -0.1359 -0.7038
  577TMC3     O 8559   0.358   1.742  12.348 -0.8701  0.3544  0.0427
  577TMC3     H 8560   0.391   1.767  12.113  0.5283 -0.4127 -0.2845
  577TMC3    H1 8561   0.393   2.139  12.327  2.4523 -0.0314 -1.0366
  577TMC3    H2 8562   0.443   2.121  11.904 -0.2718 -0.8626 -0.2347
  577TMC3    C7 8563   0.428   2.292  12.118 -0.4383  0.2282 -0.2245
  577TMC3    C8 8564   0.494   1.856  11.897  0.6369 -0.5184 -0.1940
  577TMC3    O1 8565   0.489   2.335  12.215 -0.6351 -0.5652 -0.2400
  577TMC3    O2 8566   0.474   1.735  11.907  0.0252  0.3079 -0.1503
  578MPD2     C 8567   2.465   2.495   1.304 -0.3596  0.4266 -0.3940
  578MPD2    C1 8568   2.551   2.452   1.212  0.8497  0.0769 -0.7304
  578MPD2    C2 8569   2.657   2.382   1.254  0.2294 -0.1280  0.2227
  578MPD2    C3 8570   2.685   2.348   1.381  0.5214 -0.2265 -0.2725
  578MPD2    C4 8571   2.592   2.386   1.477 -0.0132 -0.4423  0.0232
  578MPD2    C5 8572   2.481   2.461   1.434  0.3539 -0.3632  0.4157
  578MPD2     H 8573   2.732   2.351   1.182  0.2332 -0.7379  0.4842
  578MPD2    H1 8574   2.607   2.381   1.584  2.8637  0.5650 -0.3439
  578MPD2    H2 8575   2.380   2.555   1.275 -0.7044  0.4534  0.7049
  578MPD2    H3 8576   2.414   2.506   1.506 -2.6622 -1.8622 -1.4281
  578MPD2     N 8577   2.790   2.255   1.407  0.1586 -0.2957  0.3068
  578MPD2    H5 8578   2.855   2.232   1.332  0.8208 -1.1159  1.1375
  578MPD2    N1 8579   2.525   2.495   1.085 -0.0168  0.3413 -0.0042
  578MPD2    H7 8580   2.431   2.523   1.060 -0.5347  0.3704  1.9409
  579TMC3    C1 8581   2.947   2.130   1.513  0.4058 -0.1264  0.6271
  579TMC3    C2 8582   3.048   2.162   1.595  0.3232  0.6547  0.7337
  579TMC3    C3 8583   3.176   2.131   1.560  0.0297  0.2532  0.0455
  579TMC3    C4 8584   2.969   2.069   1.391 -0.3501  0.1719  0.0584
  579TMC3    C5 8585   3.100   2.023   1.374  0.1114 -0.1675 -0.2345
  579TMC3    C6 8586   3.210   2.064   1.446  0.2095  0.2642 -0.4413
  579TMC3     C 8587   2.826   2.208   1.529  0.2067 -0.8118 -0.3086
  579TMC3     O 8588   2.796   2.239   1.644 -0.4582 -0.5346  0.0955
  579TMC3     H 8589   3.022   2.240   1.666  4.9306 -0.2951  3.4665
  579TMC3    H1 8590   2.881   2.046   1.332 -1.9687 -0.6680  2.8387
  579TMC3    H2 8591   3.311   2.034   1.422  0.6031  2.3182 -1.2960
  579TMC3    C7 8592   3.132   1.927   1.273  0.7608  0.9008  0.4189
  579TMC3    C8 8593   3.278   2.155   1.657  0.2431 -0.0007  0.4219
  579TMC3    O1 8594   3.252   1.891   1.266 -0.2627  0.2036 -0.2377
  579TMC3    O2 8595   3.234   2.173   1.774 -0.0734  0.3781 -0.4841
  580TMC3    C1 8596   2.667   1.711  11.938  0.2798 -0.2583  0.5315
  580TMC3    C2 8597   2.723   1.674  11.817 -0.3859 -0.5454  0.5883
  580TMC3    C3 8598   2.853   1.620  11.817 -0.4763  0.7709 -0.6504
  580TMC3    C4 8599   2.705   1.652  12.057 -0.5484 -0.5761  0.7578
  580TMC3    C5 8600   2.812   1.566  12.043 -0.5510  0.1615 -0.7017
  580TMC3    C6 8601   2.890   1.553  11.930 -0.2448 -0.0602 -0.0041
  580TMC3     C 8602   2.612   1.848  11.935  0.1962 -0.0480 -0.2570
  580TMC3     O 8603   2.528   1.884  12.017  0.2152  0.2487 -0.2423
  580TMC3     H 8604   2.678   1.714  11.727 -0.1417 -1.0400  0.2492
  580TMC3    H1 8605   2.654   1.653  12.152 -0.3053  0.3938  0.8749
  580TMC3    H2 8606   2.992   1.525  11.955 -0.5529  0.3843  1.7705
  580TMC3    C7 8607   2.814   1.445  12.124  0.3352 -0.5361  0.9018
  580TMC3    C8 8608   2.947   1.704  11.744 -0.7586 -0.6417  0.3757
  580TMC3    O1 8609   2.777   1.451  12.233 -0.0797  0.0346  0.4658
  580TMC3    O2 8610   2.889   1.799  11.696  0.2825  0.3007  0.1011
  581MPD2     C 8611   0.464   1.371  14.656 -0.6057 -0.3952 -0.8039
  581MPD2    C1 8612   0.354   1.343  14.732 -0.0105 -0.0989  0.1307
  581MPD2    C2 8613   0.230   1.400  14.691 -0.5102 -0.0056  0.1822
  581MPD2    C3 8614   0.217   1.478  14.587  0.2281  0.2385  0.1088
  581MPD2    C4 8615   0.329   1.508  14.509 -0.0004 -0.9334 -0.2831
  581MPD2    C5 8616   0.448   1.445  14.546  0.0956 -0.3556 -0.3184
  581MPD2     H 8617   0.138   1.366  14.738 -1.0492 -0.1909 -1.0021
  581MPD2    H1 8618   0.328   1.560  14.414 -0.0918 -0.8954 -0.2612
  581MPD2    H2 8619   0.560   1.322  14.663  0.4873  1.8122 -0.1843
  581MPD2    H3 8620   0.530   1.449  14.475  2.6894  0.1915  2.7290
  581MPD2     N 8621   0.085   1.529  14.558 -0.4320  0.6603 -0.0273
  581MPD2    H5 8622   0.013   1.508  14.626 -0.3023 -0.2693 -0.1780
  581MPD2    N1 8623   0.378   1.256  14.844  0.5419  0.1978  0.2986
  581MPD2    H7 8624   0.473   1.227  14.865  0.5216  0.9839  1.4698
  582TMC3    C1 8625   0.323   1.082  14.987  0.1875 -0.5072 -0.0877
  582TMC3    C2 8626   0.444   1.088  15.054  0.2375  0.1886  0.6628
  582TMC3    C3 8627   0.459   1.016  15.165  0.7375 -0.0954  0.1750
  582TMC3    C4 8628   0.218   1.021  15.039  0.0914 -0.6071  0.4473
  582TMC3    C5 8629   0.227   0.963  15.163 -0.6496 -0.6451  0.3637
  582TMC3    C6 8630   0.353   0.949  15.216  0.1112 -0.7840 -0.1020
  582TMC3     C 8631   0.286   1.207  14.928  0.2791  0.2013  0.0445
  582TMC3     O 8632   0.166   1.235  14.923 -0.4647 -0.1700  0.6090
  582TMC3     H 8633   0.523   1.159  15.031  1.4102 -1.2501  0.2132
  582TMC3    H1 8634   0.125   1.030  14.984 -2.1934  0.7446  4.4878
  582TMC3    H2 8635   0.359   0.895  15.310 -2.7627  1.5629  1.4162
  582TMC3    C7 8636   0.131   1.017  15.254 -0.8449  0.2886 -0.6697
  582TMC3    C8 8637   0.536   1.079  15.275 -0.3943  0.6637  0.3246
  582TMC3    O1 8638   0.111   0.961  15.360  0.1977  0.6717 -0.2776
  582TMC3    O2 8639   0.584   1.191  15.273 -0.4028  0.1585 -0.1485
  583MPD2     C 8640   0.698   3.017  16.743  0.8976 -0.3173  0.0380
  583MPD2    C1 8641   0.685   3.129  16.664 -0.2013  0.5373  0.0048
  583MPD2    C2 8642   0.622   3.238  16.719 -0.6849  0.0120 -1.3765
  583MPD2    C3 8643   0.567   3.233  16.841 -0.2617 -0.0476 -0.4345
  583MPD2    C4 8644   0.585   3.126  16.923  0.2603 -0.2989  0.0909
  583MPD2    C5 8645   0.648   3.016  16.872  0.3234 -0.1033  0.4863
  583MPD2     H 8646   0.605   3.329  16.662  1.7513  0.2143 -1.7555
  583MPD2    H1 8647   0.539   3.113  17.020 -1.6661  2.5358 -0.4360
  583MPD2    H2 8648   0.749   2.927  16.711  0.1585 -0.0197 -1.9927
  583MPD2    H3 8649   0.661   2.931  16.938  1.2962  1.1493  1.8974
  583MPD2     N 8650   0.504   3.356  16.886  0.0630  0.3542 -0.1139
  583MPD2    H5 8651   0.520   3.439  16.829  0.8000 -0.0516 -0.5024
  583MPD2    N1 8652   0.732   3.142  16.533 -0.0659 -0.3053  0.5502
  583MPD2    H7 8653   0.723   3.234  16.493  0.9400 -0.9892 -1.2234
  584TMC3    C1 8654   0.365   3.506  17.010 -0.3130 -0.1790  0.5279
  584TMC3    C2 8655   0.458   3.609  16.987 -0.1242  0.3479 -0.1546
  584TMC3    C3 8656   0.417   3.730  17.032  0.2629 -0.1332 -0.0914
  584TMC3    C4 8657   0.248   3.517  17.080 -0.2134  0.5435 -0.0235
  584TMC3    C5 8658   0.219   3.646  17.127 -0.2995  0.1930 -0.3269
  584TMC3    C6 8659   0.297   3.758  17.100 -0.5628 -0.1577 -0.2151
  584TMC3     C 8660   0.412   3.374  16.986  0.3446 -0.0211  0.8454
  584TMC3     O 8661   0.357   3.284  17.047  0.3610  0.0112  0.3168
  584TMC3     H 8662   0.557   3.600  16.943  0.6682  1.4765  1.4035
  584TMC3    H1 8663   0.191   3.427  17.102  1.3328 -0.0270  1.5932
  584TMC3    H2 8664   0.262   3.858  17.119 -1.9545 -1.1076  2.1888
  584TMC3    C7 8665   0.107   3.669  17.216  0.8742  0.3041  0.1230
  584TMC3    C8 8666   0.490   3.852  16.990 -0.2287 -0.2407  0.3439
  584TMC3    O1 8667   0.007   3.600  17.199 -0.1520 -0.1515  0.7549
  584TMC3    O2 8668   0.508   3.857  16.869 -0.9299  0.4662  0.4366
  585MPD2     C 8669   4.428   2.190   0.701 -0.5445 -0.5686  0.6018
  585MPD2    C1 8670   4.467   2.247   0.580  0.8041  0.0424 -0.5212
  585MPD2    C2 8671   4.533   2.172   0.487 -0.7176 -0.4724 -0.2217
  585MPD2    C3 8672   4.575   2.048   0.518 -0.7562  0.3730  0.2894
  585MPD2    C4 8673   4.552   1.994   0.644  0.8053  0.1650 -0.3710
  585MPD2    C5 8674   4.476   2.068   0.736 -0.6003  0.6008  0.0821
  585MPD2     H 8675   4.546   2.213   0.387 -0.4447  0.6139  0.2582
  585MPD2    H1 8676   4.584   1.895   0.673 -0.8242  0.4292  2.3211
  585MPD2    H2 8677   4.361   2.243   0.766  0.1049 -0.9007  1.5427
  585MPD2    H3 8678   4.457   2.020   0.831 -0.3631 -0.9352 -0.6416
  585MPD2     N 8679   4.615   1.957   0.415  0.1227 -0.3235 -0.1586
  585MPD2    H5 8680   4.602   1.858   0.433  3.5826 -0.2179  2.7083
  585MPD2    N1 8681   4.420   2.378   0.554 -0.0199 -0.1694  0.0475
  585MPD2    H7 8682   4.340   2.406   0.609 -0.5214  0.0300 -0.7777
  586TMC3    C1 8683   4.660   1.888   0.198 -0.1784  0.1155  0.0861
  586TMC3    C2 8684   0.026   1.892   0.093  0.0632  0.0904 -0.0062
  586TMC3    C3 8685   4.708   1.853  17.652  0.6751 -0.2048  0.1427
  586TMC3    C4 8686   4.527   1.857   0.171 -0.1979 -0.0350 -0.1104
  586TMC3    C5 8687   4.485   1.825   0.043 -0.9161 -0.9718  0.2221
  586TMC3    C6 8688   4.576   1.826  17.625  0.1466 -1.2063 -0.3876
  586TMC3     C 8689   4.677   1.993   0.298 -0.2372 -0.4188  0.7049
  586TMC3     O 8690   4.718   2.100   0.253 -0.0093  0.0638  0.3214
  586TMC3     H 8691   0.127   1.932   0.099 -0.6666  1.6930  1.7768
  586TMC3    H1 8692   4.456   1.864   0.254  0.1674 -1.5630  0.3184
  586TMC3    H2 8693   4.552   1.795  17.524 -1.0937  1.4190 -0.8965
  586TMC3    C7 8694   4.350   1.777   0.005  0.4688  0.3665 -0.5405
  586TMC3    C8 8695   0.086   1.840  17.552  0.1522 -0.1780 -0.1573
  586TMC3    O1 8696   4.335   1.719  17.586  0.2765 -0.3140 -0.1503
  586TMC3    O2 8697   0.205   1.817  17.581 -0.2828  0.4232 -0.2727
  587TMC3    C1 8698   2.157   0.768  16.260 -0.0947  0.8004  0.3880
  587TMC3    C2 8699   2.156   0.910  16.262 -0.4331 -0.0438 -0.1070
  587TMC3    C3 8700   2.277   0.969  16.245 -0.0701 -0.7341 -0.2165
  587TMC3    C4 8701   2.279   0.696  16.253 -0.7954 -0.1073 -0.2159
  587TMC3    C5 8702   2.395   0.765  16.238 -0.1402  0.1387 -0.7050
  587TMC3    C6 8703   2.393   0.900  16.220 -0.0013  0.0873  0.3959
  587TMC3     C 8704   2.037   0.691  16.254  0.1406  0.3964  0.0760
  587TMC3     O 8705   2.048   0.573  16.238  0.8487  0.2998  0.2807
  587TMC3     H 8706   2.060   0.961  16.270 -0.3141  0.6057 -2.7109
  587TMC3    H1 8707   2.275   0.591  16.279 -1.5035  0.1809  0.8526
  587TMC3    H2 8708   2.486   0.956  16.215  0.4976 -0.7248  0.4885
  587TMC3    C7 8709   2.524   0.700  16.199 -0.4693  0.5053 -0.0428
  587TMC3    C8 8710   2.266   1.089  16.161  0.2023 -0.2908  0.4439
  587TMC3    O1 8711   2.621   0.771  16.173  0.3758  0.4229  0.1159
  587TMC3    O2 8712   2.319   1.089  16.051  0.6508 -0.1580 -0.0227
  588TMC3    C1 8713   4.651   3.215   9.406  0.1323 -0.0321 -0.4643
  588TMC3    C2 8714   4.597   3.091   9.410 -0.3667  0.1088  0.5554
  588TMC3    C3 8715   4.666   2.994   9.482 -0.1837  0.5588 -0.3194
  588TMC3    C4 8716   0.046   3.251   9.471 -0.0274  0.1819  0.2627
  588TMC3    C5 8717   0.114   3.151   9.542 -0.4882 -0.8023 -0.6083
  588TMC3    C6 8718   0.059   3.029   9.555  0.8429 -0.0758  0.0371
  588TMC3     C 8719   4.589   3.316   9.320  0.3807 -0.2492 -0.2382
  588TMC3     O 8720   4.476   3.288   9.280  0.5218  0.0543 -0.0890
  588TMC3     H 8721   4.510   3.056   9.357 -0.7779  0.7028  0.8427
  588TMC3    H1 8722   0.080   3.354   9.479 -0.6978  0.2540  2.2272
  588TMC3    H2 8723   0.100   2.958   9.627 -1.2704 -1.2018  0.1269
  588TMC3    C7 8724   0.221   3.190   9.635  0.2966  0.2004 -0.1143
  588TMC3    C8 8725   4.602   2.862   9.507  0.1264  0.6226 -0.6951
  588TMC3    O1 8726   0.250   3.128   9.740  0.1811 -0.2820  0.1873
  588TMC3    O2 8727   4.501   2.837   9.443  0.2425  0.1094 -0.3334
  589TMC3    C1 8728   3.421   0.669   1.183 -0.1123 -0.1408  0.3297
  589TMC3    C2 8729   3.504   0.740   1.265  0.4427 -0.0336 -0.5868
  589TMC3    C3 8730   3.635   0.703   1.281  0.1375  0.0979 -0.1918
  589TMC3    C4 8731   3.463   0.555   1.118 -0.3498  0.2008  0.4643
  589TMC3    C5 8732   3.596   0.529   1.128  0.1354 -0.7747 -0.0155
  589TMC3    C6 8733   3.687   0.595   1.214 -0.6727 -0.2899 -0.8042
  589TMC3     C 8734   3.294   0.723   1.141 -0.6727  0.5719 -0.8115
  589TMC3     O 8735   3.235   0.650   1.065 -0.1540  0.2978 -0.7620
  589TMC3     H 8736   3.474   0.837   1.303 -0.4185  0.4076 -2.4175
  589TMC3    H1 8737   3.399   0.492   1.058  0.0597  0.6579 -0.4507
  589TMC3    H2 8738   3.783   0.545   1.222 -0.3353  0.6631  1.0722
  589TMC3    C7 8739   3.622   0.392   1.078 -0.1034  0.4010  0.2484
  589TMC3    C8 8740   3.716   0.790   1.366 -0.2824 -0.1885 -0.2863
  589TMC3    O1 8741   3.535   0.314   1.086 -0.3079 -0.3738 -0.3031
  589TMC3    O2 8742   3.656   0.864   1.444  0.1102  0.3260 -0.1694
  590MPD2     C 8743   3.039   3.975  16.804  0.1486 -0.4518  0.1392
  590MPD2    C1 8744   3.016   4.057  16.698 -0.2950  0.0172 -1.1114
  590MPD2    C2 8745   3.124   4.110  16.627  0.2403  0.0371 -0.1944
  590MPD2    C3 8746   3.255   4.083  16.655 -0.2644  0.2325  1.1306
  590MPD2    C4 8747   3.274   4.009  16.769  0.7816 -0.6755 -0.0588
  590MPD2    C5 8748   3.169   3.950  16.832  0.0789  0.1514  0.0473
  590MPD2     H 8749   3.108   4.180  16.545  0.8259  2.0726  1.4441
  590MPD2    H1 8750   3.372   3.979  16.804  1.3766  1.3774  0.0481
  590MPD2    H2 8751   2.966   3.931  16.871  0.2832 -1.6330 -0.4890
  590MPD2    H3 8752   3.182   3.881  16.914 -0.9192 -0.9941 -0.7614
  590MPD2     N 8753   3.358   4.152  16.593 -0.5430 -0.2447 -0.7261
  590MPD2    H5 8754   3.329   4.212  16.516 -1.8828  0.0846  0.0516
  590MPD2    N1 8755   2.881   4.084  16.655 -0.2958 -0.1467  0.4395
  590MPD2    H7 8756   2.811   4.061  16.725 -0.4043  1.7978  0.9635
  591TMC3    C1 8757   3.548   4.262  16.538  0.5339  0.7925 -0.1927
  591TMC3    C2 8758   3.629   4.204  16.441 -0.2990  0.3046 -0.4674
  591TMC3    C3 8759   3.603   4.236  16.311 -0.1704 -0.7783  0.6376
  591TMC3    C4 8760   3.451   4.349  16.505 -0.2882 -0.8042  0.4361
  591TMC3    C5 8761   3.436   4.383  16.374  0.0327  0.2892 -0.2733
  591TMC3    C6 8762   3.509   4.333  16.275 -0.2660 -0.2126  0.1881
  591TMC3     C 8763   3.493   4.151  16.613  0.3148  0.4134 -0.4071
  591TMC3     O 8764   3.563   4.097  16.703  0.4620 -0.1732 -0.1533
  591TMC3     H 8765   3.694   4.121  16.465 -1.0795  0.7248  3.1389
  591TMC3    H1 8766   3.390   4.391  16.585 -0.7426  0.4082 -0.5318
  591TMC3    H2 8767   3.481   4.340  16.171  2.2212  0.6304 -0.4292
  591TMC3    C7 8768   3.335   4.479  16.353 -0.3266 -0.0600 -0.7397
  591TMC3    C8 8769   3.629   4.131  16.212  0.1616 -0.4665  0.5549
  591TMC3    O1 8770   3.243   4.488  16.430 -0.2469  0.5747 -0.0451
  591TMC3    O2 8771   3.653   4.011  16.238 -0.2266  0.7123 -0.2518
  592MPD2     C 8772   3.838   1.137  11.367 -0.2109 -0.5459 -0.0852
  592MPD2    C1 8773   3.810   1.201  11.481 -0.3736  0.4625 -0.0425
  592MPD2    C2 8774   3.716   1.145  11.568 -0.0733 -0.2840  0.2562
  592MPD2    C3 8775   3.673   1.013  11.548  0.1644 -0.0861  0.3430
  592MPD2    C4 8776   3.721   0.947  11.434 -0.9694 -0.0975  0.4944
  592MPD2    C5 8777   3.797   1.007  11.343 -0.0488  0.0130 -0.1831
  592MPD2     H 8778   3.685   1.194  11.660 -1.4082  0.4057 -0.5619
  592MPD2    H1 8779   3.701   0.842  11.414 -1.4218  0.1884 -0.5559
  592MPD2    H2 8780   3.898   1.193  11.296  0.5699 -0.9185  0.2798
  592MPD2    H3 8781   3.819   0.950  11.253  3.2932 -1.4653  1.5898
  592MPD2     N 8782   3.602   0.948  11.652 -0.0726 -0.2485 -0.0086
  592MPD2    H5 8783   3.544   1.002  11.716 -1.2836 -1.5802  0.0194
  592MPD2    N1 8784   3.876   1.328  11.499  0.3399  0.3784  0.4715
  592MPD2    H7 8785   3.933   1.365  11.423  0.5862 -1.6188 -0.3258
  593TMC3    C1 8786   3.935   1.527  11.596 -0.0861 -0.3411 -0.9708
  593TMC3    C2 8787   3.978   1.585  11.709  0.2734 -0.1938 -0.2534
  593TMC3    C3 8788   4.029   1.711  11.688 -0.0673 -0.0268 -0.8079
  593TMC3    C4 8789   3.949   1.577  11.469 -0.4732 -0.3092  0.9153
  593TMC3    C5 8790   4.004   1.699  11.463 -0.5887 -0.3455  0.0774
  593TMC3    C6 8791   4.041   1.777  11.571  0.0928 -0.0685  0.0753
  593TMC3     C 8792   3.875   1.398  11.613  0.0762 -0.3838  0.0712
  593TMC3     O 8793   3.824   1.369  11.719 -0.1270  0.1326 -0.1615
  593TMC3     H 8794   3.980   1.534  11.805 -0.2907  0.4956  0.1237
  593TMC3    H1 8795   3.910   1.543  11.374  2.7996 -0.8802 -0.2490
  593TMC3    H2 8796   4.089   1.874  11.573  1.0149 -0.5234 -0.0151
  593TMC3    C7 8797   4.005   1.765  11.339  0.4982 -0.3185  0.0416
  593TMC3    C8 8798   4.095   1.764  11.805  0.0791  0.2781  0.1620
  593TMC3    O1 8799   3.982   1.884  11.344  0.4645  0.1866  0.4290
  593TMC3    O2 8800   4.138   1.674  11.881  0.4174  0.4909  0.1452
  594MPD2     C 8801   2.543   4.666  14.841  0.1911 -0.1795 -0.0765
  594MPD2    C1 8802   2.443   4.710  14.764  0.1178  0.5563 -1.1304
  594MPD2    C2 8803   2.467   0.065  14.646 -0.1126  0.1145 -0.3246
  594MPD2    C3 8804   2.595   0.098  14.605 -0.9216 -0.2045  0.4366
  594MPD2    C4 8805   2.688   0.062  14.697  0.2785 -0.5897 -0.4137
  594MPD2    C5 8806   2.663   4.715  14.812 -0.1535 -0.5270  0.1296
  594MPD2     H 8807   2.395   0.105  14.575 -1.5511 -0.2452  0.9451
  594MPD2    H1 8808   2.793   0.087  14.687  0.4262 -0.7176  0.8365
  594MPD2    H2 8809   2.524   4.614  14.934  2.1067  2.3586  1.7474
  594MPD2    H3 8810   2.748   4.692  14.876 -0.5029 -1.4016  0.2696
  594MPD2     N 8811   2.617   0.177  14.493  0.6838 -0.4521 -0.1500
  594MPD2    H5 8812   2.537   0.198  14.435  0.4594 -0.0656  0.3036
  594MPD2    N1 8813   2.314   4.661  14.788  0.0403  0.0642 -0.2826
  594MPD2    H7 8814   2.311   4.587  14.857  1.1831 -1.4387 -1.8718
  595TMC3    C1 8815   2.837   0.423  14.164 -0.3570  0.6047  0.4360
  595TMC3    C2 8816   2.842   0.317  14.248 -0.1517  0.2511  0.1648
  595TMC3    C3 8817   2.740   0.308  14.339 -0.6422 -0.7461 -0.2605
  595TMC3    C4 8818   2.743   0.520  14.174 -0.1277 -0.2014 -0.3184
  595TMC3    C5 8819   2.661   0.515  14.281  0.2036 -0.4742  0.0880
  595TMC3    C6 8820   2.644   0.401  14.353  0.2505  0.4185  0.0435
  595TMC3     C 8821   2.955   0.455  14.087  0.2112 -0.0046 -0.2359
  595TMC3     O 8822   2.957   0.522  13.986  0.3925 -0.1129  0.3054
  595TMC3     H 8823   2.925   0.249  14.231  1.3326  1.7894  1.2063
  595TMC3    H1 8824   2.750   0.605  14.107  0.7516 -0.3522 -0.4248
  595TMC3    H2 8825   2.568   0.403  14.430  1.1399  2.7747  0.8795
  595TMC3    C7 8826   2.604   0.637  14.344 -0.3870 -0.8591  0.4920
  595TMC3    C8 8827   2.740   0.214  14.445  0.4001 -0.1036 -0.0197
  595TMC3    O1 8828   2.524   0.624  14.436 -0.2546 -0.3991 -0.1404
  595TMC3    O2 8829   2.847   0.159  14.453 -0.1206  0.5840  0.0262
  596MPD2     C 8830   1.486   2.944  16.735 -0.5455  0.7534  0.1774
  596MPD2    C1 8831   1.494   3.063  16.662 -0.6095 -0.1996 -0.3368
  596MPD2    C2 8832   1.519   3.054  16.524  1.1457 -0.0347 -0.6960
  596MPD2    C3 8833   1.534   2.930  16.460  0.9231  0.1248  0.0807
  596MPD2    C4 8834   1.535   2.817  16.544  0.4977  0.2537 -0.7793
  596MPD2    C5 8835   1.502   2.826  16.674  0.4961  0.0362 -0.1147
  596MPD2     H 8836   1.514   3.145  16.466 -0.0396 -0.4208 -1.1926
  596MPD2    H1 8837   1.546   2.715  16.510  1.6831  0.6336 -1.5365
  596MPD2    H2 8838   1.468   2.935  16.841  0.6652 -0.6644  0.2643
  596MPD2    H3 8839   1.490   2.738  16.735 -0.9999  0.8795  0.7882
  596MPD2     N 8840   1.561   2.918  16.322  0.8122  0.2866 -0.2766
  596MPD2    H5 8841   1.582   2.824  16.288  2.6278 -0.0263  1.6404
  596MPD2    N1 8842   1.459   3.189  16.719  0.2760 -0.0984 -0.1724
  596MPD2    H7 8843   1.454   3.269  16.658 -2.4695  0.9162  1.3971
  597TMC3    C1 8844   1.376   3.337  16.894 -0.1476 -0.4404  0.0105
  597TMC3    C2 8845   1.427   3.450  16.828  0.2853  0.3675  0.0549
  597TMC3    C3 8846   1.381   3.577  16.851 -0.4223  0.4184 -0.1319
  597TMC3    C4 8847   1.278   3.351  16.989 -0.4888 -0.0152 -0.1138
  597TMC3    C5 8848   1.227   3.475  17.008 -0.9483  1.6169  0.5511
  597TMC3    C6 8849   1.271   3.588  16.935  0.2172  0.3700 -0.6605
  597TMC3     C 8850   1.414   3.200  16.852  0.0117 -0.2740 -0.6134
  597TMC3     O 8851   1.396   3.123  16.948  0.1744  0.2881 -0.0389
  597TMC3     H 8852   1.490   3.434  16.742  0.5496  0.9433  0.1401
  597TMC3    H1 8853   1.240   3.270  17.050 -0.8127 -1.4347 -2.1939
  597TMC3    H2 8854   1.229   3.685  16.958 -3.9677 -1.7566  0.6409
  597TMC3    C7 8855   1.102   3.481  17.082  0.1021  0.0228 -0.1145
  597TMC3    C8 8856   1.435   3.689  16.782  0.7183 -0.2998  0.2220
  597TMC3    O1 8857   1.033   3.381  17.089 -0.2198  0.1956 -0.6142
  597TMC3    O2 8858   1.358   3.781  16.759  0.1865 -0.4278  0.1697
  598TMC3    C1 8859   4.705   4.614  15.256  0.0319 -0.0676 -0.5222
  598TMC3    C2 8860   4.640   4.488  15.282 -0.0146 -0.2680 -0.1815
  598TMC3    C3 8861   4.528   4.459  15.214  0.0353  0.4434 -0.1801
  598TMC3    C4 8862   4.647   4.704  15.166  0.0564 -0.1698 -0.0121
  598TMC3    C5 8863   4.534   4.672  15.104 -0.0425 -0.2726 -0.1505
  598TMC3    C6 8864   4.478   4.544  15.121  1.4048 -0.0587  0.5180
  598TMC3     C 8865   0.084   4.663  15.350  0.2051 -0.5693 -0.2887
  598TMC3     O 8866   0.092   0.068  15.351  0.4499  0.1647 -0.0633
  598TMC3     H 8867   4.656   4.428  15.371  0.7917  0.3283  0.0747
  598TMC3    H1 8868   4.699   0.073  15.134 -1.4038 -0.4123 -3.0483
  598TMC3    H2 8869   4.386   4.523  15.068 -0.0151  0.7972  2.6805
  598TMC3    C7 8870   4.503   0.005  14.974 -0.2752  1.0975  0.5881
  598TMC3    C8 8871   4.464   4.335  15.239  0.8175  0.0958  0.5480
  598TMC3    O1 8872   4.482   4.640  14.888  0.2269 -0.1848  0.1268
  598TMC3    O2 8873   4.538   4.252  15.294 -0.2466 -0.2149 -0.3633
  599MPD2     C 8874   4.443   2.347  15.908  0.4110 -0.4114 -0.3690
  599MPD2    C1 8875   4.388   2.224  15.926 -0.3163  0.0358 -0.1711
  599MPD2    C2 8876   4.276   2.206  16.000  0.2900 -0.2603 -0.1135
  599MPD2    C3 8877   4.220   2.309  16.071  0.5124  0.9351 -0.0429
  599MPD2    C4 8878   4.280   2.435  16.056 -0.0092 -0.1954  0.8606
  599MPD2    C5 8879   4.382   2.452  15.973 -0.4826 -0.2466 -0.6236
  599MPD2     H 8880   4.229   2.109  16.010 -0.0770 -0.0685  0.0336
  599MPD2    H1 8881   4.238   2.528  16.094 -0.0646 -0.5920  1.7700
  599MPD2    H2 8882   4.532   2.357  15.847  1.6610 -0.8105  1.3800
  599MPD2    H3 8883   4.409   2.556  15.959  1.7433 -0.6272  0.7492
  599MPD2     N 8884   4.112   2.294  16.163  0.1065 -0.0765 -0.2702
  599MPD2    H5 8885   4.073   2.370  16.217 -0.8541 -0.4983 -0.3672
  599MPD2    N1 8886   4.464   2.127  15.856 -0.2548  0.3268 -0.3429
  599MPD2    H7 8887   4.547   2.143  15.801  2.0802  1.7205  3.5802
  600TMC3    C1 8888   3.959   2.183  16.299  0.6474 -0.6003 -0.5078
  600TMC3    C2 8889   3.884   2.069  16.321  0.3930 -0.2021  0.0220
  600TMC3    C3 8890   3.800   2.072  16.424 -0.2693  0.3471 -0.0978
  600TMC3    C4 8891   3.956   2.294  16.377 -0.5436  0.0904 -0.4659
  600TMC3    C5 8892   3.868   2.295  16.473 -0.2838 -0.8376 -0.4987
  600TMC3    C6 8893   3.795   2.188  16.496 -0.1745 -0.0624  0.0011
  600TMC3     C 8894   4.045   2.175  16.188  0.0389 -0.1740 -0.1353
  600TMC3     O 8895   4.052   2.071  16.125 -0.3185 -0.0408  0.0169
  600TMC3     H 8896   3.901   1.973  16.274 -3.4457  0.5602 -2.9161
  600TMC3    H1 8897   4.024   2.378  16.381  2.2373 -2.1907  0.1700
  600TMC3    H2 8898   3.723   2.198  16.577 -0.7943  0.7982 -0.6576
  600TMC3    C7 8899   3.823   2.413  16.538  0.5654 -0.3394 -0.2852
  600TMC3    C8 8900   3.760   1.956  16.506  0.2413  0.0329 -0.5129
  600TMC3    O1 8901   3.778   2.405  16.650  0.2820  0.1492  0.1134
  600TMC3    O2 8902   3.752   1.983  16.623  0.5209  0.1954  0.1894
  601MPD2     C 8903   1.884   0.655  17.022 -0.1565 -0.2924  0.5139
  601MPD2    C1 8904   1.817   0.723  17.120  0.3070 -0.9207  0.2945
  601MPD2    C2 8905   1.769   0.654  17.233  0.1568  0.0640 -0.1694
  601MPD2    C3 8906   1.772   0.519  17.241 -0.1969 -0.0252  0.1317
  601MPD2    C4 8907   1.829   0.447  17.133 -0.2562 -0.4222 -0.3316
  601MPD2    C5 8908   1.888   0.520  17.027  0.6783  0.1932  0.2363
  601MPD2     H 8909   1.714   0.716  17.304 -2.9566 -0.0946 -2.4699
  601MPD2    H1 8910   1.828   0.339  17.130 -0.7720 -0.4477  0.8708
  601MPD2    H2 8911   1.940   0.705  16.944 -1.9558  2.6113  1.0967
  601MPD2    H3 8912   1.941   0.464  16.951  2.7108  1.1980  0.9104
  601MPD2     N 8913   1.712   0.449  17.345  0.2852  0.7206  0.0539
  601MPD2    H5 8914   1.700   0.349  17.329  2.0879  0.5478 -0.2459
  601MPD2    N1 8915   1.789   0.858  17.117  0.8228 -0.4116 -0.4972
  601MPD2    H7 8916   1.746   0.902  17.197  2.7385  0.0521  0.2869
  602TMC3    C1 8917   1.761   1.060  17.003 -0.1648  0.0509  0.2477
  602TMC3    C2 8918   1.815   1.155  16.916 -0.1998 -0.0204 -0.0818
  602TMC3    C3 8919   1.750   1.272  16.897 -0.3823  0.3198 -0.0326
  602TMC3    C4 8920   1.648   1.078  17.066 -0.0851 -0.0160 -0.2076
  602TMC3    C5 8921   1.586   1.194  17.031  0.3699 -0.2139 -0.0577
  602TMC3    C6 8922   1.633   1.292  16.952  0.3471 -0.5194 -0.1345
  602TMC3     C 8923   1.828   0.936  17.011  0.4688 -0.0693  0.2822
  602TMC3     O 8924   1.924   0.920  16.937  0.1781 -0.0399 -0.2591
  602TMC3     H 8925   1.905   1.131  16.860  0.2044 -0.6506  0.8170
  602TMC3    H1 8926   1.596   1.002  17.123 -1.7298  0.5090 -1.0179
  602TMC3    H2 8927   1.588   1.389  16.939  1.9978  0.3737  0.8000
  602TMC3    C7 8928   1.443   1.199  17.052  0.3708 -0.2489 -0.2589
  602TMC3    C8 8929   1.790   1.341  16.778 -0.3217 -0.0938 -0.1846
  602TMC3    O1 8930   1.401   1.136  17.146 -0.1997  0.0561 -0.0162
  602TMC3    O2 8931   1.909   1.344  16.752 -0.7200 -0.0665 -0.4220
  603TMC3    C1 8932   4.353   0.808  11.145  0.5375 -0.6793  0.5999
  603TMC3    C2 8933   4.380   0.801  11.280 -0.0553 -0.5235 -0.0904
  603TMC3    C3 8934   4.472   0.887  11.333  0.5274 -0.0264  0.6037
  603TMC3    C4 8935   4.424   0.894  11.063 -0.0403 -0.8364  0.1773
  603TMC3    C5 8936   4.519   0.970  11.121  0.1086 -0.0104 -1.0487
  603TMC3    C6 8937   4.544   0.974  11.254 -0.4616 -0.5476 -0.4746
  603TMC3     C 8938   4.290   0.695  11.076 -0.1506  0.5325  0.1972
  603TMC3     O 8939   4.337   0.680  10.963 -0.5921 -0.1873 -0.1848
  603TMC3     H 8940   4.323   0.730  11.339 -0.9141  1.0917  1.0287
  603TMC3    H1 8941   4.395   0.907  10.959  1.0820  2.0062  0.2371
  603TMC3    H2 8942   4.634   1.020  11.294 -0.4244 -0.6473 -0.4442
  603TMC3    C7 8943   4.587   1.071  11.036 -0.7702  0.1459 -0.2077
  603TMC3    C8 8944   4.501   0.866  11.473  0.0167 -0.6159 -0.7634
  603TMC3    O1 8945   4.664   1.146  11.086 -0.4697  0.5629  0.1760
  603TMC3    O2 8946   4.460   0.761  11.518  0.3440  0.2637 -0.4210
  604MPD2     C 8947   0.455   3.872  16.243 -0.2568 -0.4322  0.3268
  604MPD2    C1 8948   0.398   3.953  16.148  0.1177 -0.6968 -0.1138
  604MPD2    C2 8949   0.445   3.938  16.021 -0.2257 -0.3942 -0.2543
  604MPD2    C3 8950   0.549   3.859  15.993 -0.3214  0.5154  0.2382
  604MPD2    C4 8951   0.599   3.774  16.089 -0.0493  0.1878 -0.0223
  604MPD2    C5 8952   0.547   3.781  16.211  0.2752 -0.0805  0.3280
  604MPD2     H 8953   0.396   3.997  15.944 -0.3832 -0.7333 -0.4160
  604MPD2    H1 8954   0.679   3.702  16.073  0.1342  0.3283  0.2564
  604MPD2    H2 8955   0.423   3.865  16.346  2.4195  1.7453  1.3008
  604MPD2    H3 8956   0.583   3.699  16.272 -0.5375 -1.7385 -1.4208
  604MPD2     N 8957   0.584   3.846  15.860 -0.2915 -0.1681  0.5823
  604MPD2    H5 8958   0.529   3.893  15.789 -0.0558  2.2480  2.0076
  604MPD2    N1 8959   0.292   4.031  16.186 -0.3398 -0.3868  0.5966
  604MPD2    H7 8960   0.269   4.019  16.285 -0.1601 -1.0027  0.5652
  605TMC3    C1 8961   0.152   4.216  16.194  0.3215  0.1664  0.2159
  605TMC3    C2 8962   0.215   4.277  16.302  0.5385  0.2768 -0.2846
  605TMC3    C3 8963   0.145   4.382  16.358  0.2959 -0.5597  0.1606
  605TMC3    C4 8964   0.037   4.270  16.142 -0.1586 -0.1926  0.0069
  605TMC3    C5 8965   4.703   4.382  16.194  0.2874  0.1325 -0.3361
  605TMC3    C6 8966   0.034   4.441  16.304 -0.8640 -0.7456  0.0967
  605TMC3     C 8967   0.226   4.123  16.115 -0.0145  0.2195 -0.5795
  605TMC3     O 8968   0.221   4.152  15.995  0.7783  0.0338  0.6326
  605TMC3     H 8969   0.287   4.221  16.360 -0.3142 -1.6177 -1.0582
  605TMC3    H1 8970   0.001   4.218  16.054  0.2045  1.5996 -1.1979
  605TMC3    H2 8971   0.003   4.542  16.330 -0.5095 -0.4185 -0.7558
  605TMC3    C7 8972   4.564   4.417  16.148 -0.5392  0.0228 -0.8245
  605TMC3    C8 8973   0.221   4.443  16.472  0.9474  0.1537 -0.6626
  605TMC3    O1 8974   4.528   4.534  16.145 -0.1814  0.0144 -0.5537
  605TMC3    O2 8975   0.291   4.362  16.536 -0.1573 -0.1097  0.7307
  606TMC3    C1 8976   1.437   3.068  17.384 -0.4262  0.1210 -0.6211
  606TMC3    C2 8977   1.456   3.012  17.508  0.5326 -0.1433  0.2244
  606TMC3    C3 8978   1.437   2.876  17.519  0.0751 -0.3201 -0.2370
  606TMC3    C4 8979   1.393   2.988  17.277  0.8567 -0.3024 -0.3001
  606TMC3    C5 8980   1.387   2.850  17.290 -0.2492 -0.6104 -0.4560
  606TMC3    C6 8981   1.408   2.792  17.411 -0.9150 -0.0344 -0.0518
  606TMC3     C 8982   1.516   3.188  17.355 -0.0196  0.2791 -0.4366
  606TMC3     O 8983   1.553   3.249  17.451  0.1879  0.7301  0.4735
  606TMC3     H 8984   1.517   3.072  17.575  1.8388 -3.7251  2.2723
  606TMC3    H1 8985   1.387   3.029  17.176 -1.7576  2.3735  0.9436
  606TMC3    H2 8986   1.397   2.686  17.430  0.0085  0.2508  2.1257
  606TMC3    C7 8987   1.364   2.771  17.169 -0.4962  0.1197  0.0133
  606TMC3    C8 8988   1.529   2.813  17.609  0.1197 -0.6877  0.0864
  606TMC3    O1 8989   1.397   2.801  17.056 -0.0254  0.1018 -0.7302
  606TMC3    O2 8990   1.642   2.868  17.617  0.1224 -0.6845  0.4392
  607MPD2     C 8991   4.016   0.477  11.417 -1.0116  0.5813  1.0119
  607MPD2    C1 8992   3.942   0.544  11.504  0.1118  0.0541  0.4505
  607MPD2    C2 8993   3.883   0.468  11.605  0.1245  0.5060  0.2573
  607MPD2    C3 8994   3.900   0.331  11.617  0.2875  1.1099  0.2640
  607MPD2    C4 8995   3.969   0.267  11.516  0.2460 -0.1230  0.1744
  607MPD2    C5 8996   4.035   0.342  11.424  0.6367 -0.1630 -0.3180
  607MPD2     H 8997   3.825   0.509  11.686  2.1490 -0.7213  2.3391
  607MPD2    H1 8998   3.976   0.159  11.506  0.8240  0.1008 -1.8692
  607MPD2    H2 8999   4.083   0.528  11.348 -1.4136  1.0437  0.9650
  607MPD2    H3 9000   4.093   0.288  11.351  0.9341  0.6324 -0.6638
  607MPD2     N 9001   3.846   0.258  11.726 -0.6364  0.0752  0.6902
  607MPD2    H5 9002   3.806   0.320  11.795  2.2454  2.2628  0.3926
  607MPD2    N1 9003   3.938   0.687  11.520 -0.0496 -0.2059 -0.0938
  607MPD2    H7 9004   3.870   0.721  11.588  0.8225  1.1036  0.1214
  608TMC3    C1 9005   4.034   0.896  11.541  0.1039  0.2111 -0.0774
  608TMC3    C2 9006   3.952   0.917  11.653 -0.2967  0.4866  0.1655
  608TMC3    C3 9007   3.992   1.011  11.748  0.3573 -0.0291  0.6317
  608TMC3    C4 9008   4.138   0.984  11.517  0.3180 -0.5854  0.4248
  608TMC3    C5 9009   4.163   1.090  11.608  0.2263  0.2606 -0.3249
  608TMC3    C6 9010   4.090   1.104  11.723 -0.2872  0.1250  0.5619
  608TMC3     C 9011   4.019   0.775  11.460 -0.0422  0.3364  0.0257
  608TMC3     O 9012   4.080   0.756  11.357  0.2102 -0.2469  0.1751
  608TMC3     H 9013   3.872   0.850  11.680 -0.7240  0.8517 -0.1998
  608TMC3    H1 9014   4.191   0.976  11.423  1.2256  2.5464  0.6648
  608TMC3    H2 9015   4.119   1.169  11.804  2.2195 -0.7418  0.3547
  608TMC3    C7 9016   4.218   1.216  11.546 -0.1737  0.3635  0.5944
  608TMC3    C8 9017   3.950   1.005  11.884 -0.2725 -0.4481 -0.4788
  608TMC3    O1 9018   4.235   1.211  11.421 -0.3810 -0.4056 -0.3097
  608TMC3    O2 9019   3.975   1.097  11.963  0.3850  0.0210  1.0212
  609TMC3    C1 9020   3.136   4.348   9.781 -0.1106 -0.5442 -0.4203
  609TMC3    C2 9021   3.096   4.214   9.777  0.1321  0.3162 -0.1815
  609TMC3    C3 9022   3.194   4.121   9.782  0.2780  0.5524  0.4771
  609TMC3    C4 9023   3.265   4.387   9.807  0.3839  0.1430 -0.4354
  609TMC3    C5 9024   3.357   4.289   9.829  0.6593  0.1377  0.3133
  609TMC3    C6 9025   3.323   4.159   9.809  0.4687 -0.8347  0.2823
  609TMC3     C 9026   3.030   4.440   9.802 -0.7645 -0.2869 -0.2000
  609TMC3     O 9027   2.926   4.392   9.845  0.3571  0.4417 -0.1416
  609TMC3     H 9028   2.990   4.191   9.780  0.1378  0.0844 -1.6666
  609TMC3    H1 9029   3.294   4.486   9.839 -1.8268  0.9385 -0.9223
  609TMC3    H2 9030   3.386   4.076   9.837  0.0127 -0.8663  1.2130
  609TMC3    C7 9031   3.488   4.341   9.859  0.4495 -0.2030  0.3244
  609TMC3    C8 9032   3.157   3.991   9.814 -0.6223 -0.1622  0.0340
  609TMC3    O1 9033   3.502   4.459   9.883  0.2294  0.2262 -0.0336
  609TMC3    O2 9034   3.072   3.975   9.898 -0.5463  0.2940 -0.2277
  610TMC3    C1 9035   4.050   0.660  12.608 -0.3727 -0.1750  0.8985
  610TMC3    C2 9036   4.043   0.687  12.477 -0.3849  0.5563 -0.0966
  610TMC3    C3 9037   4.109   0.605  12.392 -0.1806  0.4814 -0.5056
  610TMC3    C4 9038   4.124   0.557  12.654 -0.3698  0.8025 -0.1923
  610TMC3    C5 9039   4.185   0.472  12.566 -0.1105 -0.0383 -0.3086
  610TMC3    C6 9040   4.180   0.496  12.433 -0.3484  0.4060  0.2870
  610TMC3     C 9041   3.963   0.723  12.713 -0.2570  0.3597  0.1779
  610TMC3     O 9042   3.954   0.657  12.813 -0.6153 -0.4053 -0.1473
  610TMC3     H 9043   4.003   0.782  12.444 -0.9150  0.5330  0.4619
  610TMC3    H1 9044   4.154   0.562  12.758  1.2729 -2.4974 -0.4856
  610TMC3    H2 9045   4.224   0.420  12.370  0.7678  1.4154 -0.1438
  610TMC3    C7 9046   4.257   0.357  12.616  0.1003 -0.5946 -0.0303
  610TMC3    C8 9047   4.135   0.658  12.259  0.1426  0.9467  0.0525
  610TMC3    O1 9048   4.360   0.318  12.562  0.1602 -0.6227  0.2416
  610TMC3    O2 9049   4.123   0.775  12.239  0.3661 -0.3081  0.4716
  611MPD2     C 9050   4.007   0.525  10.449  0.3839 -0.1745  0.5515
  611MPD2    C1 9051   3.951   0.605  10.356 -0.2305 -0.5078  0.1815
  611MPD2    C2 9052   4.030   0.700  10.290  0.1281 -0.6707 -0.7259
  611MPD2    C3 9053   4.164   0.700  10.310 -0.1435  0.4123 -0.8050
  611MPD2    C4 9054   4.225   0.614  10.402 -0.2942  0.8628  0.0432
  611MPD2    C5 9055   4.143   0.529  10.477 -0.0446  0.3386 -0.0194
  611MPD2     H 9056   3.996   0.769  10.214  0.3477 -1.1972 -1.3066
  611MPD2    H1 9057   4.331   0.607  10.425 -0.2506  0.4050 -0.2943
  611MPD2    H2 9058   3.938   0.456  10.498 -1.2079  1.6876  0.9269
  611MPD2    H3 9059   4.178   0.469  10.561  0.4301 -0.2903 -0.6680
  611MPD2     N 9060   4.252   0.795  10.258 -0.1258  0.2979  0.2591
  611MPD2    H5 9061   4.342   0.802  10.305 -1.0104  0.3181  1.9361
  611MPD2    N1 9062   3.814   0.596  10.326  0.0809  0.1072 -0.8632
  611MPD2    H7 9063   3.765   0.519  10.370  1.9651 -0.7302 -0.2329
  612TMC3    C1 9064   4.360   0.964  10.129 -0.1499  0.0107  0.4791
  612TMC3    C2 9065   4.429   1.008  10.238 -0.0610 -0.1990  0.5118
  612TMC3    C3 9066   4.527   1.103  10.211  0.4369 -0.9949  0.3975
  612TMC3    C4 9067   4.383   1.002   9.998  0.0760 -0.3050 -0.9923
  612TMC3    C5 9068   4.486   1.090   9.976  0.2070  0.7237  0.0267
  612TMC3    C6 9069   4.563   1.130  10.082 -0.1386 -0.0594  0.0828
  612TMC3     C 9070   4.237   0.882  10.155  0.4240 -0.5963 -0.8554
  612TMC3     O 9071   4.146   0.888  10.076 -0.4932  0.2397 -0.1280
  612TMC3     H 9072   4.394   0.982  10.337  1.1211  0.1598  1.0198
  612TMC3    H1 9073   4.323   0.950   9.924 -0.3140 -1.7989  0.3550
  612TMC3    H2 9074   4.650   1.191  10.063 -1.2174  0.6856 -2.4914
  612TMC3    C7 9075   4.542   1.109   9.846  0.4308  0.8070  0.0994
  612TMC3    C8 9076   4.594   1.178  10.318  0.0227 -0.2058 -1.0697
  612TMC3    O1 9077   4.663   1.119   9.841  0.7331  0.1099  0.2240
  612TMC3    O2 9078   4.654   1.282  10.289 -0.5728  0.1739 -0.0019
  613MPD2     C 9079   2.736   3.173  16.723  0.7171 -0.6201 -0.4607
  613MPD2    C1 9080   2.694   3.149  16.594 -0.3103 -0.7535 -0.5035
  613MPD2    C2 9081   2.648   3.020  16.561  0.0155 -0.2865  0.1862
  613MPD2    C3 9082   2.638   2.924  16.659 -0.3808  0.4018  0.3977
  613MPD2    C4 9083   2.668   2.956  16.791  0.3106 -0.4335  0.1603
  613MPD2    C5 9084   2.717   3.081  16.821 -0.3437  0.0740 -0.4607
  613MPD2     H 9085   2.642   2.988  16.458 -1.9989  0.1671  0.1586
  613MPD2    H1 9086   2.674   2.881  16.869 -1.1278  0.6593  1.3154
  613MPD2    H2 9087   2.771   3.271  16.753  1.1819 -1.0082  0.2523
  613MPD2    H3 9088   2.733   3.107  16.925 -1.4321  0.4081 -0.3726
  613MPD2     N 9089   2.608   2.791  16.624  0.0291 -0.2121  0.4406
  613MPD2    H5 9090   2.635   2.712  16.681  0.8719 -0.3316 -0.1227
  613MPD2    N1 9091   2.724   3.239  16.487  0.4102 -0.4534 -0.1574
  613MPD2    H7 9092   2.808   3.296  16.480 -0.7502  1.1643 -1.0032
  614TMC3    C1 9093   2.725   3.259  16.246 -0.3554  0.0590 -0.4101
  614TMC3    C2 9094   2.800   3.145  16.249  0.9949 -0.3852 -0.0757
  614TMC3    C3 9095   2.783   3.056  16.148 -0.0659 -0.5119 -0.4062
  614TMC3    C4 9096   2.653   3.292  16.136  0.6974 -0.0943  0.5132
  614TMC3    C5 9097   2.646   3.205  16.032  0.4703  0.5443 -0.5844
  614TMC3    C6 9098   2.705   3.083  16.036 -1.1520  0.1625 -0.7377
  614TMC3     C 9099   2.649   3.235  16.364 -0.2114  0.3497  0.9275
  614TMC3     O 9100   2.532   3.200  16.349 -0.9078  0.3000  0.1512
  614TMC3     H 9101   2.870   3.119  16.327 -1.5650 -1.6436  1.7946
  614TMC3    H1 9102   2.602   3.388  16.134  1.0072  0.0817  0.9977
  614TMC3    H2 9103   2.679   3.004  15.967 -3.4177 -1.1703  1.6661
  614TMC3    C7 9104   2.559   3.249  15.921  0.6300  0.6612 -0.1233
  614TMC3    C8 9105   2.827   2.927  16.177 -0.3285 -1.0564 -0.2591
  614TMC3    O1 9106   2.541   3.372  15.915 -0.1178  0.6846  0.4834
  614TMC3    O2 9107   2.811   2.883  16.292  0.3545 -0.3473 -0.2703
  615MPD2     C 9108   2.329   4.369  16.010  0.0994  0.6884  0.4446
  615MPD2    C1 9109   2.218   4.403  16.087  0.4042  0.2015 -0.4611
  615MPD2    C2 9110   2.087   4.386  16.036  0.3044  0.3072 -0.6854
  615MPD2    C3 9111   2.071   4.323  15.912 -0.3040  0.0563  0.3585
  615MPD2    C4 9112   2.184   4.281  15.840  0.1452  0.4693 -0.1294
  615MPD2    C5 9113   2.310   4.307  15.890  0.5255  0.5018  0.2280
  615MPD2     H 9114   2.003   4.405  16.102  0.5497 -1.7230  0.1990
  615MPD2    H1 9115   2.177   4.253  15.735 -1.5147 -0.6291  0.2798
  615MPD2    H2 9116   2.430   4.391  16.042  0.5838  0.6822 -1.0803
  615MPD2    H3 9117   2.395   4.290  15.824  0.4078 -0.2663  0.2797
  615MPD2     N 9118   1.950   4.287  15.863 -0.2566  0.2122 -0.1297
  615MPD2    H5 9119   1.967   4.238  15.776 -0.7734  0.7530 -0.5373
  615MPD2    N1 9120   2.236   4.453  16.220  0.1593  0.1700 -0.3067
  615MPD2    H7 9121   2.149   4.444  16.273  1.3659 -1.6456  1.3713
  616TMC3    C1 9122   2.328   4.572  16.410  0.1880  0.4913  0.0150
  616TMC3    C2 9123   2.437   4.640  16.459  0.2837 -0.1659 -0.3634
  616TMC3    C3 9124   2.421   0.004  16.566  0.0926  0.7979 -0.1893
  616TMC3    C4 9125   2.212   4.576  16.482 -0.2675  0.2731 -0.3475
  616TMC3    C5 9126   2.200   4.648  16.599 -0.6275  0.2333  0.7668
  616TMC3    C6 9127   2.305   0.009  16.634 -0.3800  0.2367 -0.6144
  616TMC3     C 9128   2.344   4.514  16.275 -0.0566 -0.1842  0.1360
  616TMC3     O 9129   2.454   4.530  16.228  0.0524  0.5789  0.2373
  616TMC3     H 9130   2.525   4.645  16.396  0.8992  0.4252  0.5632
  616TMC3    H1 9131   2.121   4.546  16.432  0.4013 -3.1764  0.5066
  616TMC3    H2 9132   2.298   0.060  16.729  0.5356  0.9483 -0.9237
  616TMC3    C7 9133   2.074   4.674  16.661 -0.7342  0.0799  0.7624
  616TMC3    C8 9134   2.500   0.124  16.577 -0.1433  0.0269 -0.4421
  616TMC3    O1 9135   2.067   0.032  16.751  0.0944  0.2466 -0.1499
  616TMC3    O2 9136   2.463   0.215  16.652 -0.3573  0.0322 -0.5105
  617MPD2     C 9137   4.611   2.345  13.192  1.0328 -0.1943 -0.0839
  617MPD2    C1 9138   4.575   2.379  13.316  0.7896 -0.5959  0.1232
  617MPD2    C2 9139   4.472   2.309  13.382 -0.2738  0.0876  0.0677
  617MPD2    C3 9140   4.406   2.201  13.317 -0.3439 -0.4018 -0.2076
  617MPD2    C4 9141   4.436   2.179  13.188  0.3424 -0.4213 -0.0864
  617MPD2    C5 9142   4.534   2.248  13.127  0.0877 -0.0119 -0.0075
  617MPD2     H 9143   4.447   2.345  13.482  1.7001  1.0706  0.2120
  617MPD2    H1 9144   4.383   2.106  13.129 -0.2893 -0.5445  0.6279
  617MPD2    H2 9145   4.694   2.395  13.143  0.4109 -1.5289 -2.5056
  617MPD2    H3 9146   4.563   2.223  13.025  0.0772  1.0893 -0.2774
  617MPD2     N 9147   4.297   2.127  13.369  0.0910 -0.1445 -0.3756
  617MPD2    H5 9148   4.237   2.081  13.301 -0.5364  0.7989 -0.4616
  617MPD2    N1 9149   4.632   2.485  13.393  0.1965 -0.1977 -0.3837
  617MPD2    H7 9150   4.598   2.501  13.487  0.8337 -0.9561 -0.0265
  618TMC3    C1 9151   0.049   2.677  13.442  0.2511 -0.0251  0.1102
  618TMC3    C2 9152   0.106   2.617  13.549  0.0210  0.0683  0.0757
  618TMC3    C3 9153   0.208   2.681  13.613  0.1093  0.3899  0.0533
  618TMC3    C4 9154   0.097   2.797  13.390  0.4125 -1.1708  0.5843
  618TMC3    C5 9155   0.212   2.846  13.439  0.1128  0.0698  0.3887
  618TMC3    C6 9156   0.270   2.795  13.561 -0.5726 -0.6626  0.5215
  618TMC3     C 9157   4.706   2.592  13.341  0.1145 -0.1222 -1.1029
  618TMC3     O 9158   0.017   2.614  13.221 -0.3022  0.0644  0.8142
  618TMC3     H 9159   0.082   2.514  13.572 -1.3531  0.7240  1.5692
  618TMC3    H1 9160   0.050   2.851  13.309  0.5620 -0.8399  0.7219
  618TMC3    H2 9161   0.362   2.834  13.603 -1.9685  2.2104  0.9377
  618TMC3    C7 9162   0.308   2.852  13.331 -0.1002  0.2136  0.4222
  618TMC3    C8 9163   0.297   2.597  13.690 -0.0878  0.1571 -0.2263
  618TMC3    O1 9164   0.418   2.880  13.369 -0.0408 -0.2181  0.0168
  618TMC3    O2 9165   0.329   2.638  13.800  0.1552  0.4166 -0.2062
  619MPD2     C 9166   1.761   4.045  13.625  0.3952 -0.5325 -0.5844
  619MPD2    C1 9167   1.696   4.146  13.554 -0.1643 -0.4990 -0.0271
  619MPD2    C2 9168   1.559   4.144  13.556  0.5159 -0.6338  0.3461
  619MPD2    C3 9169   1.489   4.054  13.636  0.1706 -0.5692  0.6002
  619MPD2    C4 9170   1.562   3.961  13.716 -0.0551  0.5274  0.3137
  619MPD2    C5 9171   1.700   3.957  13.706 -0.4552  0.0004 -1.3346
  619MPD2     H 9172   1.520   4.227  13.499  0.7450 -1.2007 -0.6546
  619MPD2    H1 9173   1.519   3.886  13.781  0.6799 -2.6067 -2.7946
  619MPD2    H2 9174   1.869   4.039  13.626  0.5928  3.1591  1.6457
  619MPD2    H3 9175   1.760   3.882  13.755 -0.5221  1.2911  0.6991
  619MPD2     N 9176   1.350   4.062  13.657 -0.1158  0.1610  0.1704
  619MPD2    H5 9177   1.311   4.001  13.728  0.5270 -1.1460 -0.5946
  619MPD2    N1 9178   1.755   4.237  13.470 -0.3028  0.7068  0.6125
  619MPD2    H7 9179   1.696   4.312  13.438  0.6618  0.5733 -1.5177
  620TMC3    C1 9180   1.925   4.384  13.413  0.0646  0.5666 -0.2863
  620TMC3    C2 9181   1.844   4.431  13.310  0.2531 -0.1678  0.0182
  620TMC3    C3 9182   1.833   4.564  13.287  0.7035  0.6217  0.0324
  620TMC3    C4 9183   1.965   4.469  13.508  0.6375  0.3143 -0.1739
  620TMC3    C5 9184   1.929   4.599  13.499  0.3502  0.3852 -0.2879
  620TMC3    C6 9185   1.876   4.652  13.380  0.5988  0.1742  0.6258
  620TMC3     C 9186   1.895   4.253  13.461 -0.1964  0.4026 -0.3475
  620TMC3     O 9187   1.984   4.195  13.520  0.1204  0.2603 -0.0894
  620TMC3     H 9188   1.810   4.363  13.232 -2.0667  0.3464  0.5711
  620TMC3    H1 9189   2.002   4.424  13.600 -1.0948  1.7892  1.2529
  620TMC3    H2 9190   1.865   0.039  13.371  0.9209 -0.0035 -1.8608
  620TMC3    C7 9191   1.936   4.682  13.622  0.9612  0.6108  0.3036
  620TMC3    C8 9192   1.818   4.615  13.155  0.5620 -0.2418  0.2874
  620TMC3    O1 9193   2.023   4.649  13.701  0.0948 -0.3153 -0.0522
  620TMC3    O2 9194   1.903   4.692  13.113 -0.0977 -0.4803  0.4554
  621MPD2     C 9195   2.673   3.701  10.314  0.3905 -0.7453 -0.4038
  621MPD2    C1 9196   2.616   3.805  10.249 -0.2549 -0.2083  0.2961
  621MPD2    C2 9197   2.698   3.911  10.218  0.4372  0.4257  0.0245
  621MPD2    C3 9198   2.835   3.895  10.224  0.3842 -0.0938  0.4168
  621MPD2    C4 9199   2.886   3.778  10.268 -0.2778 -0.2656 -0.0907
  621MPD2    C5 9200   2.811   3.683  10.327  0.1342  0.9817  0.0150
  621MPD2     H 9201   2.651   4.006  10.194 -1.5468 -0.3970  0.6676
  621MPD2    H1 9202   2.994   3.783  10.275 -0.0137 -1.5711 -3.2453
  621MPD2    H2 9203   2.611   3.615  10.339  1.3743 -1.4032 -0.2454
  621MPD2    H3 9204   2.855   3.596  10.374 -0.4405 -0.2938 -1.8072
  621MPD2     N 9205   2.910   4.009  10.189  0.3395 -0.4025  0.5545
  621MPD2    H5 9206   2.853   4.074  10.137  1.7779 -1.3118 -2.1454
  621MPD2    N1 9207   2.481   3.831  10.243  0.5965  0.6773  0.5546
  621MPD2    H7 9208   2.458   3.930  10.240  0.4698  0.6702  1.1872
  622TMC3    C1 9209   2.251   3.778  10.267 -0.5388  0.1319 -0.3727
  622TMC3    C2 9210   2.235   3.834  10.381 -0.5377  0.1377  0.1666
  622TMC3    C3 9211   2.102   3.844  10.422  0.3671  0.2266 -0.2472
  622TMC3    C4 9212   2.146   3.738  10.183 -0.4440 -0.1584 -0.1461
  622TMC3    C5 9213   2.017   3.758  10.222 -0.8203  0.0496  0.9068
  622TMC3    C6 9214   1.994   3.813  10.348  0.2448 -0.0259 -0.2044
  622TMC3     C 9215   2.383   3.733  10.236  0.1894  0.6187 -0.3420
  622TMC3     O 9216   2.399   3.613  10.213  0.0742 -0.0604 -0.1249
  622TMC3     H 9217   2.318   3.852  10.449  0.4428  0.2904 -1.0820
  622TMC3    H1 9218   2.172   3.687  10.091  0.4325  1.1242 -0.6099
  622TMC3    H2 9219   1.897   3.805  10.395  0.7609  1.0197  1.0289
  622TMC3    C7 9220   1.926   3.657  10.199 -0.0359  0.1081 -0.2051
  622TMC3    C8 9221   2.085   3.851  10.570 -0.1389  0.5918 -0.2820
  622TMC3    O1 9222   1.969   3.546  10.185  0.1154 -0.0432 -0.0498
  622TMC3    O2 9223   2.144   3.757  10.627  0.5048 -0.2380  0.0604
  623MPD2     C 9224   0.598   4.219  15.995 -0.9238 -0.0799 -0.3717
  623MPD2    C1 9225   0.524   4.305  16.068  0.5783  0.1127 -0.3172
  623MPD2    C2 9226   0.576   4.332  16.199  0.6117 -0.1805 -0.1471
  623MPD2    C3 9227   0.694   4.283  16.251  0.1600 -0.4123 -0.0653
  623MPD2    C4 9228   0.760   4.191  16.173 -0.6786  0.2740  0.0308
  623MPD2    C5 9229   0.709   4.156  16.047 -0.0344  0.9282 -0.2746
  623MPD2     H 9230   0.519   4.406  16.253  0.2734  0.2439 -1.0840
  623MPD2    H1 9231   0.864   4.165  16.191  0.2731  2.5520 -2.1616
  623MPD2    H2 9232   0.573   4.198  15.892 -1.0205  2.2212 -0.8168
  623MPD2    H3 9233   0.759   4.082  15.986 -0.6585 -1.5006  2.1989
  623MPD2     N 9234   0.741   4.329  16.370  0.5243  0.0483 -0.3149
  623MPD2    H5 9235   0.698   4.411  16.412 -1.2796 -2.6034  3.0304
  623MPD2    N1 9236   0.419   4.375  16.009 -0.5545  0.4229  0.1626
  623MPD2    H7 9237   0.400   4.347  15.913 -1.7230  0.6479  0.3293
  624TMC3    C1 9238   0.983   4.446  16.748  0.3935  0.9386 -0.8401
  624TMC3    C2 9239   0.873   4.507  16.803 -0.1066  0.2757 -0.2623
  624TMC3    C3 9240   0.756   4.501  16.736  0.1969 -0.3948  0.1629
  624TMC3    C4 9241   0.982   4.382  16.629  0.2305 -0.0062  0.0994
  624TMC3    C5 9242   0.866   4.382  16.563 -0.2154 -0.5299 -0.1746
  624TMC3    C6 9243   0.749   4.439  16.612  0.2669  0.4959  0.0221
  624TMC3     C 9244   1.101   4.422  16.828 -0.2411 -0.3450  0.2632
  624TMC3     O 9245   1.119   4.504  16.917 -0.6917  0.1352 -0.0558
  624TMC3     H 9246   0.871   4.540  16.906  0.5662  1.8683 -0.7445
  624TMC3    H1 9247   1.071   4.342  16.582 -0.2398 -2.1561  1.0260
  624TMC3    H2 9248   0.654   4.429  16.561 -0.0625 -2.6947  1.2456
  624TMC3    C7 9249   0.857   4.299  16.440 -0.4437 -0.2149  0.0566
  624TMC3    C8 9250   0.624   4.516  16.793 -0.6936  0.6018  0.2424
  624TMC3    O1 9251   0.945   4.218  16.432  0.5139 -0.1409 -0.3460
  624TMC3    O2 9252   0.555   4.414  16.775 -0.3222  0.1812 -0.2812
  625MPD2     C 9253   1.166   0.575   0.489  0.2280 -0.5889 -0.3504
  625MPD2    C1 9254   1.257   0.651   0.418 -0.0332  0.2022  0.5567
  625MPD2    C2 9255   1.382   0.602   0.386  0.5303 -0.2992 -0.5036
  625MPD2    C3 9256   1.416   0.471   0.427 -0.7620 -0.7183  0.2140
  625MPD2    C4 9257   1.327   0.394   0.491  0.0541 -0.1770  0.0846
  625MPD2    C5 9258   1.204   0.445   0.513  0.3169  0.6838  0.1613
  625MPD2     H 9259   1.455   0.667   0.339  0.4368 -2.3036 -3.3953
  625MPD2    H1 9260   1.352   0.290   0.509  0.3260 -0.5014 -2.1764
  625MPD2    H2 9261   1.066   0.601   0.523  1.0048  2.4903 -0.3558
  625MPD2    H3 9262   1.133   0.374   0.552  1.2507 -0.6839 -0.6299
  625MPD2     N 9263   1.548   0.439   0.402  0.3296 -0.7763  0.6814
  625MPD2    H5 9264   1.609   0.508   0.358 -2.1460 -1.0565 -3.1992
  625MPD2    N1 9265   1.233   0.786   0.395  0.5048 -0.3663  0.3177
  625MPD2    H7 9266   1.299   0.828   0.330  0.7766 -0.0900  0.7695
  626TMC3    C1 9267   1.123   0.995   0.410  0.0051 -0.3012  0.2962
  626TMC3    C2 9268   1.110   1.023   0.278 -0.4130  0.3213 -0.4111
  626TMC3    C3 9269   1.077   1.154   0.246  0.4812  0.2871  0.0706
  626TMC3    C4 9270   1.114   1.090   0.507 -0.2204  0.3299 -0.1249
  626TMC3    C5 9271   1.087   1.217   0.471  0.9560 -0.7747 -0.2815
  626TMC3    C6 9272   1.066   1.252   0.344  0.6165  0.7309  0.0870
  626TMC3     C 9273   1.129   0.854   0.446  0.6084 -0.8970 -0.5873
  626TMC3     O 9274   1.064   0.834   0.552  0.2529 -0.4074  0.4456
  626TMC3     H 9275   1.122   0.945   0.204  0.1806  0.9460 -0.9781
  626TMC3    H1 9276   1.143   1.070   0.610  0.4803  3.1780  0.2395
  626TMC3    H2 9277   1.061   1.353   0.305  0.7433  0.2924 -1.0583
  626TMC3    C7 9278   1.103   1.320   0.569  0.0141  0.5642 -0.0666
  626TMC3    C8 9279   1.023   1.193   0.115  0.1023 -0.5082 -0.3878
  626TMC3    O1 9280   1.154   1.285   0.676 -0.1107 -0.2380  0.1658
  626TMC3    O2 9281   0.993   1.310   0.100 -0.0411  0.3076  0.0601
  627MPD2     C 9282   4.173   1.543  14.145  0.1998  0.8723 -0.1538
  627MPD2    C1 9283   4.215   1.487  14.266 -0.0110 -0.2726 -0.6442
  627MPD2    C2 9284   4.174   1.362  14.295 -0.0095  0.4589  0.4751
  627MPD2    C3 9285   4.109   1.276  14.206 -0.7465 -0.1045  0.2333
  627MPD2    C4 9286   4.089   1.323  14.075  0.4208 -0.1462 -0.1683
  627MPD2    C5 9287   4.115   1.457  14.057  0.0666  0.0615 -0.2404
  627MPD2     H 9288   4.192   1.328  14.396  0.1117  0.0092  0.3011
  627MPD2    H1 9289   4.037   1.264  14.000 -0.4610 -0.5240  0.7344
  627MPD2    H2 9290   4.201   1.642  14.110 -2.2932  1.0575 -1.6176
  627MPD2    H3 9291   4.088   1.489  13.957 -1.2250  1.1620  0.4489
  627MPD2     N 9292   4.064   1.148  14.258  0.4028  0.6126 -0.3300
  627MPD2    H5 9293   4.091   1.133  14.354 -1.6782  1.5928  0.4119
  627MPD2    N1 9294   4.289   1.553  14.364  0.5046  0.6999 -0.4363
  627MPD2    H7 9295   4.325   1.496  14.439  0.1908  0.4385 -0.4822
  628TMC3    C1 9296   4.430   1.710  14.455  0.8477  0.1103  0.2755
  628TMC3    C2 9297   4.537   1.631  14.458  0.7293  0.1981  0.4075
  628TMC3    C3 9298   4.649   1.701  14.494 -0.4794 -0.0809 -0.8000
  628TMC3    C4 9299   4.428   1.842  14.479 -0.0165 -0.7458  0.0317
  628TMC3    C5 9300   4.541   1.911  14.505 -0.1608 -0.0061  0.5822
  628TMC3    C6 9301   4.650   1.834  14.523  0.2017 -1.1443 -0.0926
  628TMC3     C 9302   4.324   1.683  14.363 -0.0379  0.1701 -0.0766
  628TMC3     O 9303   4.294   1.772  14.284 -0.3442 -0.0546  0.3864
  628TMC3     H 9304   4.536   1.527  14.427 -1.5917  0.6233 -0.9806
  628TMC3    H1 9305   4.336   1.900  14.474  0.5128  0.2016  1.2974
  628TMC3    H2 9306   0.027   1.879  14.535  1.1937 -3.1759 -0.5132
  628TMC3    C7 9307   4.571   2.002  14.398  0.2352 -0.3100 -0.2002
  628TMC3    C8 9308   0.057   1.636  14.474  0.3997  0.4117 -0.2623
  628TMC3    O1 9309   4.685   2.046  14.400 -0.2904  0.1414  1.0559
  628TMC3    O2 9310   0.141   1.702  14.422 -0.1655  0.4973  0.2133
  629MPD2     C 9311   2.911   0.407  16.455  0.2797  0.5188  0.3352
  629MPD2    C1 9312   2.949   0.274  16.456 -0.1984  0.1165  0.0078
  629MPD2    C2 9313   2.854   0.177  16.489  0.4278  0.1415  0.0566
  629MPD2    C3 9314   2.725   0.215  16.517  0.3124 -0.1685 -0.4581
  629MPD2    C4 9315   2.683   0.353  16.502 -0.4205  0.2014  0.2910
  629MPD2    C5 9316   2.776   0.445  16.470  0.0939  0.1154  0.0888
  629MPD2     H 9317   2.884   0.073  16.495 -1.7042 -0.4900 -0.3066
  629MPD2    H1 9318   2.577   0.377  16.508 -0.2270  1.2191 -0.4677
  629MPD2    H2 9319   2.989   0.480  16.442 -0.0754  1.2472  2.2735
  629MPD2    H3 9320   2.752   0.551  16.468 -0.8019 -0.0721  1.3924
  629MPD2     N 9321   2.627   0.108  16.520  0.3751 -0.3931 -0.5917
  629MPD2    H5 9322   2.659   0.020  16.482  1.3389 -0.2807 -0.0373
  629MPD2    N1 9323   3.093   0.252  16.455  0.5791 -0.2271  0.5743
  629MPD2    H7 9324   3.152   0.327  16.422 -1.5416  0.7013 -1.1320
  630TMC3    C1 9325   3.303   0.152  16.515 -0.4637 -0.3993  0.1625
  630TMC3    C2 9326   3.370   0.222  16.416 -0.5861 -0.3437  0.5233
  630TMC3    C3 9327   3.507   0.229  16.434 -0.2259 -0.1458 -1.0355
  630TMC3    C4 9328   3.363   0.087  16.620 -0.4570  1.2258 -0.6512
  630TMC3    C5 9329   3.497   0.102  16.633 -0.7264  0.6961  0.4871
  630TMC3    C6 9330   3.575   0.168  16.537 -0.0462 -0.6645 -0.5808
  630TMC3     C 9331   3.155   0.143  16.517 -0.1636 -0.5238  0.4808
  630TMC3     O 9332   3.105   0.057  16.585 -0.2853 -0.0080  0.2625
  630TMC3     H 9333   3.323   0.261  16.326  0.3557  0.1948  0.2640
  630TMC3    H1 9334   3.303   0.068  16.708  0.6465  0.2450 -0.1169
  630TMC3    H2 9335   3.682   0.176  16.545 -0.0382 -2.0289  0.5852
  630TMC3    C7 9336   3.550   0.069  16.767  0.1852  0.0763 -0.2400
  630TMC3    C8 9337   3.587   0.321  16.358  0.7315  0.2698 -0.0794
  630TMC3    O1 9338   3.493   4.703  16.832  0.4500  0.1661  0.6508
  630TMC3    O2 9339   3.699   0.341  16.404  0.2209 -0.0848 -0.0600
  631MPD2     C 9340   1.025   0.097  15.776  0.2078 -0.4978  0.6129
  631MPD2    C1 9341   1.066   0.068  15.644  0.1055  0.9600 -0.0862
  631MPD2    C2 9342   1.165   4.691  15.624 -0.2067  0.1594  0.5900
  631MPD2    C3 9343   1.231   4.636  15.733  0.6466 -0.0180  0.4782
  631MPD2    C4 9344   1.188   4.666  15.864 -0.2635  0.2621  0.2828
  631MPD2    C5 9345   1.085   0.035  15.885  0.2533  0.0925  0.1847
  631MPD2     H 9346   1.205   4.668  15.526 -0.0261 -0.1852  0.7472
  631MPD2    H1 9347   1.232   4.628  15.955  0.5323  2.2829  0.7292
  631MPD2    H2 9348   0.963   0.182  15.804 -1.4027 -1.4298 -0.1322
  631MPD2    H3 9349   1.064   0.066  15.987 -0.5641  0.3937 -0.0721
  631MPD2     N 9350   1.343   4.546  15.713  0.1503 -0.0850 -0.1599
  631MPD2    H5 9351   1.375   4.528  15.618 -0.0059 -1.6473  0.0705
  631MPD2    N1 9352   1.007   0.149  15.546 -0.1061 -0.7372 -0.0712
  631MPD2    H7 9353   0.937   0.218  15.573  2.2354  1.0637  1.4675
  632TMC3    C1 9354   0.958   0.251  15.346  0.4399  0.2874  0.7619
  632TMC3    C2 9355   0.833   0.261  15.405  0.1540  0.6045 -0.7055
  632TMC3    C3 9356   0.769   0.380  15.395 -0.0146  0.9294 -0.2079
  632TMC3    C4 9357   1.019   0.357  15.288  0.7889  0.0980 -0.1805
  632TMC3    C5 9358   0.949   0.470  15.265  0.6971  0.2875 -0.2040
  632TMC3    C6 9359   0.826   0.488  15.323 -0.2989 -0.4909 -1.1019
  632TMC3     C 9360   1.049   0.163  15.413  0.4386 -0.0558 -0.0880
  632TMC3     O 9361   1.158   0.142  15.364  0.6005  0.8519 -0.6782
  632TMC3     H 9362   0.788   0.171  15.443 -1.2365  1.1292 -1.1127
  632TMC3    H1 9363   1.114   0.338  15.239  0.0151 -0.1583 -1.5770
  632TMC3    H2 9364   0.793   0.591  15.318  1.0929 -0.0776 -1.6585
  632TMC3    C7 9365   1.001   0.566  15.167 -0.4726 -0.3694  0.2313
  632TMC3    C8 9366   0.690   0.410  15.514  0.2515  0.3521 -0.4865
  632TMC3    O1 9367   0.927   0.616  15.086 -0.0035 -0.2511 -0.0326
  632TMC3    O2 9368   0.716   0.329  15.608 -0.2095  0.3379 -0.0214
  633MPD2     C 9369   1.023   2.826  17.279 -0.0672 -0.4395 -0.2672
  633MPD2    C1 9370   0.985   2.786  17.153 -0.0065  0.1823 -0.0150
  633MPD2    C2 9371   0.919   2.667  17.143  0.1235  0.3400 -0.6972
  633MPD2    C3 9372   0.877   2.585  17.249  0.0697  0.0483 -0.6577
  633MPD2    C4 9373   0.919   2.626  17.372 -0.7297  0.5336 -0.0533
  633MPD2    C5 9374   0.996   2.737  17.381 -0.2283  0.7063 -0.5077
  633MPD2     H 9375   0.884   2.639  17.044  0.4004  1.9533 -1.2421
  633MPD2    H1 9376   0.879   2.591  17.466  2.0033 -0.1144  0.8908
  633MPD2    H2 9377   1.079   2.914  17.308  1.4751 -1.4752 -0.0483
  633MPD2    H3 9378   1.028   2.776  17.478 -0.2877 -0.6068  0.0447
  633MPD2     N 9379   0.798   2.468  17.249 -0.2367 -0.1879 -0.2489
  633MPD2    H5 9380   0.773   2.432  17.341 -1.5971 -2.6225 -1.5952
  633MPD2    N1 9381   1.023   2.860  17.037 -0.3470 -0.0187 -0.1353
  633MPD2    H7 9382   0.993   2.815  16.951 -2.8178  0.5186  0.4361
  634TMC3    C1 9383   1.084   3.029  16.888 -1.0143  0.1859  0.1543
  634TMC3    C2 9384   1.138   2.932  16.802 -0.0747 -0.1217 -0.2850
  634TMC3    C3 9385   1.147   2.962  16.667  0.1877 -0.3612 -0.0079
  634TMC3    C4 9386   1.043   3.149  16.853  0.4072  0.4247  0.1287
  634TMC3    C5 9387   1.041   3.174  16.720  0.6225 -0.1008  0.4467
  634TMC3    C6 9388   1.103   3.086  16.628  0.2065 -0.2319 -0.1463
  634TMC3     C 9389   1.064   2.993  17.029 -0.1721  0.5466  0.4473
  634TMC3     O 9390   1.062   3.087  17.107 -0.0443 -0.1318  0.0536
  634TMC3     H 9391   1.162   2.831  16.833  1.7944 -0.0520 -1.4996
  634TMC3    H1 9392   1.007   3.216  16.930 -3.7726 -0.2940 -1.1572
  634TMC3    H2 9393   1.108   3.107  16.522  3.4707 -0.0241  0.0312
  634TMC3    C7 9394   0.992   3.295  16.668 -0.1929 -0.1830 -0.6430
  634TMC3    C8 9395   1.169   2.852  16.571 -0.1416 -0.3670  0.9896
  634TMC3    O1 9396   1.026   3.330  16.553  0.5177  0.2684 -0.0444
  634TMC3    O2 9397   1.160   2.739  16.612 -0.0802 -0.0045  0.2503
  635TMC3    C1 9398   1.758   4.162  17.389 -0.1959  0.7359 -0.6699
  635TMC3    C2 9399   1.871   4.077  17.382  0.2216  0.3431 -0.1101
  635TMC3    C3 9400   1.864   3.978  17.289 -0.7491 -0.5288 -0.1172
  635TMC3    C4 9401   1.643   4.115  17.341 -0.1355  0.0287 -0.4250
  635TMC3    C5 9402   1.644   3.998  17.264 -0.0769 -0.7614  0.4606
  635TMC3    C6 9403   1.755   3.931  17.236  0.2502 -0.2960  0.0064
  635TMC3     C 9404   1.766   4.285  17.470 -0.2523 -0.2041 -0.1222
  635TMC3     O 9405   1.659   4.338  17.489  0.5707 -0.0058  0.2015
  635TMC3     H 9406   1.966   4.099  17.430  0.6394  0.5927 -1.0436
  635TMC3    H1 9407   1.554   4.177  17.337 -0.6282 -0.5598  1.4261
  635TMC3    H2 9408   1.756   3.852  17.162 -1.3113 -0.6946  0.4119
  635TMC3    C7 9409   1.530   3.975  17.175  0.0608  0.1558 -0.2971
  635TMC3    C8 9410   1.987   3.903  17.259  0.7522  0.0192  0.9172
  635TMC3    O1 9411   1.551   3.910  17.073  0.3586  0.2797  0.2245
  635TMC3    O2 9412   1.974   3.787  17.228  0.5110 -0.1061 -0.0338
  636MPD2     C 9413   2.233   3.052  15.955 -0.0758  0.5915 -0.8935
  636MPD2    C1 9414   2.253   3.063  16.089  0.6643 -0.0025 -0.4369
  636MPD2    C2 9415   2.327   2.970  16.153 -0.1342  0.6478  0.4881
  636MPD2    C3 9416   2.371   2.856  16.087 -0.1635  0.0354  0.4105
  636MPD2    C4 9417   2.357   2.849  15.950  0.0619 -0.3768 -0.1940
  636MPD2    C5 9418   2.278   2.942  15.889 -0.6335  0.3103  0.2840
  636MPD2     H 9419   2.338   2.977  16.260  1.6422 -0.7024  0.4025
  636MPD2    H1 9420   2.393   2.768  15.888 -0.2812 -0.5595 -0.1544
  636MPD2    H2 9421   2.171   3.118  15.895  0.7579  1.2789 -0.9956
  636MPD2    H3 9422   2.248   2.930  15.785  2.0806 -2.0289 -0.2176
  636MPD2     N 9423   2.427   2.758  16.164 -0.1678 -0.2294  0.2277
  636MPD2    H5 9424   2.432   2.782  16.263 -0.9646 -0.9130  0.4267
  636MPD2    N1 9425   2.197   3.167  16.168  0.0579  0.0759  0.1332
  636MPD2    H7 9426   2.213   3.150  16.267  1.1754  2.6031  0.3906
  637TMC3    C1 9427   2.504   2.552  16.246  0.1688 -0.4862  0.0873
  637TMC3    C2 9428   2.453   2.609  16.365 -0.1161 -0.0358  0.0110
  637TMC3    C3 9429   2.540   2.621  16.473  0.0601  0.1027  0.2725
  637TMC3    C4 9430   2.625   2.496  16.237 -0.4159 -0.4954 -0.2814
  637TMC3    C5 9431   2.705   2.511  16.352  0.0480  0.4519 -0.8379
  637TMC3    C6 9432   2.660   2.563  16.472 -0.1222  0.1007  0.4881
  637TMC3     C 9433   2.472   2.630  16.130 -0.4530  0.8031 -0.0003
  637TMC3     O 9434   2.496   2.574  16.025  0.3088  0.2640  0.3821
  637TMC3     H 9435   2.350   2.645  16.369  0.6010  2.0943 -0.3363
  637TMC3    H1 9436   2.676   2.479  16.143  2.1912  2.5978  0.5394
  637TMC3    H2 9437   2.738   2.595  16.541 -1.7343  0.8752  1.9443
  637TMC3    C7 9438   2.823   2.417  16.358  0.2087  0.7234 -0.2257
  637TMC3    C8 9439   2.533   2.755  16.514  0.0973 -0.0014  0.3992
  637TMC3    O1 9440   2.838   2.352  16.464  0.5099 -0.4708 -0.3292
  637TMC3    O2 9441   2.455   2.828  16.450  0.2684  0.3340  0.8355
  638MPD2     C 9442   1.981   2.114  15.034  0.3399  0.5936  0.6686
  638MPD2    C1 9443   2.049   2.020  14.961  0.0064  0.6479  0.1821
  638MPD2    C2 9444   2.057   1.899  15.020  0.0497 -0.5596 -0.1800
  638MPD2    C3 9445   1.997   1.870  15.141  1.0142 -0.1606  0.5581
  638MPD2    C4 9446   1.921   1.963  15.211 -0.9647  0.0891 -0.0937
  638MPD2    C5 9447   1.921   2.087  15.153  0.2374  1.2073 -0.3483
  638MPD2     H 9448   2.116   1.824  14.968  2.4817  0.2526  1.4260
  638MPD2    H1 9449   1.881   1.953  15.311 -1.3460 -1.0637 -0.3646
  638MPD2    H2 9450   1.963   2.214  14.996  4.9405  1.8042  1.7156
  638MPD2    H3 9451   1.864   2.159  15.210 -0.4376  0.4257 -0.0426
  638MPD2     N 9452   2.001   1.739  15.196  0.4146 -0.1621  0.1975
  638MPD2    H5 9453   1.933   1.719  15.268  2.0872 -1.7311  1.3532
  638MPD2    N1 9454   2.108   2.040  14.836 -0.0379  0.0474  0.2387
  638MPD2    H7 9455   2.139   1.957  14.785 -0.4513 -0.0053  0.0718
  639TMC3    C1 9456   2.054   1.508  15.233 -0.3166 -0.3468  0.0104
  639TMC3    C2 9457   1.925   1.477  15.245  0.5078  0.4295  0.4557
  639TMC3    C3 9458   1.878   1.346  15.241 -0.3004 -0.1782 -0.2293
  639TMC3    C4 9459   2.152   1.407  15.234  0.5470  0.3613 -0.2010
  639TMC3    C5 9460   2.105   1.281  15.245 -0.8060 -0.5686 -0.2490
  639TMC3    C6 9461   1.972   1.252  15.249 -0.2971 -0.6283  0.5275
  639TMC3     C 9462   2.088   1.633  15.163 -0.3060  0.3676  0.0464
  639TMC3     O 9463   2.187   1.632  15.089  0.0934 -0.2778  0.0238
  639TMC3     H 9464   1.851   1.552  15.219  0.7385 -0.6832 -3.4841
  639TMC3    H1 9465   2.258   1.421  15.255 -0.0748  3.3786  0.8779
  639TMC3    H2 9466   1.943   1.148  15.249  1.9754 -1.2715 -0.4851
  639TMC3    C7 9467   2.186   1.163  15.197  0.1183 -0.1063 -0.0404
  639TMC3    C8 9468   1.768   1.316  15.154  0.1113  0.1654 -0.5804
  639TMC3    O1 9469   2.135   1.054  15.205 -0.1589  0.4836 -0.3265
  639TMC3    O2 9470   1.751   1.403  15.069  0.1976  0.0867  0.6228
  640MPD2     C 9471   2.844   0.013   9.415  0.9068  0.3425  0.4156
  640MPD2    C1 9472   2.869   0.146   9.409 -1.0434 -0.1727  0.0493
  640MPD2    C2 9473   2.769   0.231   9.457 -0.0315  0.1729  0.6796
  640MPD2    C3 9474   2.652   0.187   9.516  0.0857  0.7162  0.3438
  640MPD2    C4 9475   2.622   0.056   9.510  0.8279 -0.2607  0.0762
  640MPD2    C5 9476   2.719   4.693   9.449  0.5851  0.1278  0.2110
  640MPD2     H 9477   2.784   0.337   9.440 -0.8109  0.2003  0.1572
  640MPD2    H1 9478   2.528   0.005   9.532  0.0873  0.7031 -0.8858
  640MPD2    H2 9479   2.910   4.658   9.374  1.8954  0.1762  2.3048
  640MPD2    H3 9480   2.689   4.589   9.438 -3.0808  1.0486  1.5097
  640MPD2     N 9481   2.550   0.270   9.570 -0.3053 -0.0227 -0.6118
  640MPD2    H5 9482   2.459   0.226   9.580  0.2509 -1.1151 -0.2704
  640MPD2    N1 9483   2.987   0.205   9.347 -0.2095 -0.1684  0.2242
  640MPD2    H7 9484   2.971   0.304   9.328 -0.8650 -0.2257  0.4623
  641TMC3    C1 9485   3.198   0.231   9.248  0.7030 -0.2354 -0.4054
  641TMC3    C2 9486   3.327   0.211   9.287  0.3285 -0.2951  0.2658
  641TMC3    C3 9487   3.420   0.309   9.262  0.0201 -0.2209 -0.2823
  641TMC3    C4 9488   3.152   0.338   9.175 -0.0716  0.5428  0.7698
  641TMC3    C5 9489   3.247   0.438   9.144  0.0422  0.5712  0.0579
  641TMC3    C6 9490   3.379   0.423   9.192 -0.3263 -1.0327  0.3835
  641TMC3     C 9491   3.106   0.135   9.307  0.7174  0.2035 -0.3148
  641TMC3     O 9492   3.133   0.019   9.336  0.3352 -0.3278 -0.2931
  641TMC3     H 9493   3.344   0.127   9.353 -2.1489  0.0114  1.3093
  641TMC3    H1 9494   3.055   0.342   9.126 -0.0781 -0.1508  0.7291
  641TMC3    H2 9495   3.449   0.477   9.129 -0.2959 -1.4410  0.0677
  641TMC3    C7 9496   3.208   0.549   9.057  0.4255 -0.2546 -0.5275
  641TMC3    C8 9497   3.547   0.290   9.330  0.5764  0.5347  0.1574
  641TMC3    O1 9498   3.104   0.526   8.996 -0.2975 -0.0962 -0.1706
  641TMC3    O2 9499   3.576   0.183   9.377 -0.2069 -0.1399  0.2148
  642TMC3    C1 9500   3.377   1.900  11.956  0.2313 -0.3876  0.1021
  642TMC3    C2 9501   3.506   1.949  11.975  0.2431 -0.1674 -0.2516
  642TMC3    C3 9502   3.609   1.862  11.975 -0.0680 -0.4442  1.4272
  642TMC3    C4 9503   3.357   1.760  11.931  0.0285  0.3117 -0.2996
  642TMC3    C5 9504   3.466   1.681  11.921  0.3915 -0.9024 -0.0610
  642TMC3    C6 9505   3.591   1.731  11.944  0.7929  0.0999  0.0137
  642TMC3     C 9506   3.263   1.990  11.977  0.3453  0.1936  0.5115
  642TMC3     O 9507   3.264   2.107  11.937 -0.4153 -0.2611 -0.3223
  642TMC3     H 9508   3.518   2.050  12.013 -0.6030 -1.1949  2.6873
  642TMC3    H1 9509   3.258   1.718  11.920 -0.3128  1.1065 -0.2612
  642TMC3    H2 9510   3.668   1.656  11.953  0.8137  0.1453  0.2178
  642TMC3    C7 9511   3.439   1.536  11.931 -0.3187  0.2650 -0.1915
  642TMC3    C8 9512   3.720   1.879  12.071  0.4851  0.3785  0.6717
  642TMC3    O1 9513   3.527   1.460  11.895 -0.1016 -0.1594 -0.1376
  642TMC3    O2 9514   3.830   1.827  12.047 -0.0643 -0.3485 -0.5071
  643TMC3    C1 9515   2.402   1.053   0.418  0.3751  0.9962 -0.0012
  643TMC3    C2 9516   2.288   1.132   0.387  0.0953  0.9832  0.4560
  643TMC3    C3 9517   2.260   1.146   0.251 -0.4835  0.3389 -0.1373
  643TMC3    C4 9518   2.474   0.988   0.317 -0.0803  0.5339 -0.4229
  643TMC3    C5 9519   2.435   0.997   0.189  0.2342  0.6154  0.2215
  643TMC3    C6 9520   2.334   1.080   0.153  0.3857  0.1957  0.1241
  643TMC3     C 9521   2.454   1.076   0.550 -1.0719 -0.8116 -0.3453
  643TMC3     O 9522   2.381   1.144   0.618 -0.0022 -0.3283 -0.2941
  643TMC3     H 9523   2.233   1.190   0.460 -2.2353 -1.4226  0.6300
  643TMC3    H1 9524   2.564   0.930   0.337 -0.9766 -1.1784 -1.4028
  643TMC3    H2 9525   2.308   1.107   0.051  2.4261 -1.9609 -0.9658
  643TMC3    C7 9526   2.541   0.973   0.091 -0.6396  0.1846  0.1908
  643TMC3    C8 9527   2.220   1.268   0.207  0.2416  0.7186  0.3906
  643TMC3    O1 9528   2.558   1.064   0.014  0.0172 -0.4073 -0.5230
  643TMC3    O2 9529   2.111   1.311   0.240  0.5939  0.2658 -0.2442
  644MPD2     C 9530   3.418   0.400   9.716  0.2676  0.4138  0.3920
  644MPD2    C1 9531   3.504   0.509   9.725 -1.0308 -0.2774 -0.4517
  644MPD2    C2 9532   3.465   0.622   9.659  0.1159  0.0877  0.0457
  644MPD2    C3 9533   3.361   0.628   9.562  0.8064  0.2063 -0.2828
  644MPD2    C4 9534   3.285   0.514   9.543  0.4827  0.2490  1.0181
  644MPD2    C5 9535   3.319   0.404   9.618 -0.4979 -0.3417 -0.3987
  644MPD2     H 9536   3.519   0.716   9.664  2.1004 -0.9961 -0.9978
  644MPD2    H1 9537   3.210   0.512   9.466  0.2577  0.6860  1.2237
  644MPD2    H2 9538   3.446   0.307   9.764 -1.1088 -0.2596 -0.1234
  644MPD2    H3 9539   3.258   0.317   9.596  0.7995 -1.1845 -0.6064
  644MPD2     N 9540   3.339   0.748   9.491  0.1845 -0.1164 -0.7171
  644MPD2    H5 9541   3.409   0.820   9.505  1.1972 -1.6852  2.4580
  644MPD2    N1 9542   3.624   0.501   9.799  0.3791  0.1781 -0.1544
  644MPD2    H7 9543   3.661   0.411   9.824  3.2159  1.1753 -0.8427
  645TMC3    C1 9544   3.224   0.905   9.343  0.1943  0.0393 -0.0562
  645TMC3    C2 9545   3.324   0.994   9.356  0.5539  0.9633  0.5683
  645TMC3    C3 9546   3.310   1.106   9.285  0.7825 -1.1247  0.7211
  645TMC3    C4 9547   3.115   0.927   9.263 -0.2377 -0.2026 -0.0070
  645TMC3    C5 9548   3.107   1.048   9.195  0.2122  0.4866  0.3105
  645TMC3    C6 9549   3.209   1.142   9.209  0.4484  0.5184  0.1736
  645TMC3     C 9550   3.233   0.767   9.402  0.3169 -0.2569  0.0830
  645TMC3     O 9551   3.145   0.687   9.368  0.2573  0.4098  0.2981
  645TMC3     H 9552   3.405   0.974   9.425  0.2249  2.5776  1.4247
  645TMC3    H1 9553   3.029   0.863   9.279  0.7032 -1.7123 -0.8871
  645TMC3    H2 9554   3.190   1.236   9.160  0.6414  0.2936 -0.3370
  645TMC3    C7 9555   2.978   1.092   9.155 -0.1970  0.4529 -0.3427
  645TMC3    C8 9556   3.424   1.193   9.283  0.0448 -0.0056 -0.7404
  645TMC3    O1 9557   2.964   1.215   9.157  0.4218 -0.0132  0.8537
  645TMC3    O2 9558   3.524   1.158   9.344  0.0215  0.2033  0.5365
  646MPD2     C 9559   2.217   0.694  14.486 -0.5030 -1.3581  0.5133
  646MPD2    C1 9560   2.134   0.679  14.588 -0.9780  0.4083 -0.4437
  646MPD2    C2 9561   2.024   0.763  14.592 -0.2884 -0.2248 -0.3330
  646MPD2    C3 9562   2.000   0.855  14.494  0.0189  0.4861 -0.4218
  646MPD2    C4 9563   2.095   0.876  14.395 -0.1177  0.0044  0.0543
  646MPD2    C5 9564   2.200   0.789  14.389 -0.4503 -0.6333  0.3603
  646MPD2     H 9565   1.948   0.755  14.668  0.0529  3.1907  0.3722
  646MPD2    H1 9566   2.077   0.957  14.324 -0.2097  0.8518  1.0482
  646MPD2    H2 9567   2.301   0.632  14.459 -0.5121 -0.3688 -1.8161
  646MPD2    H3 9568   2.266   0.789  14.302 -1.2101 -0.8027 -0.2180
  646MPD2     N 9569   1.880   0.929  14.500  0.3795 -0.3114 -0.0888
  646MPD2    H5 9570   1.828   0.907  14.583  1.6323 -1.5885  0.3614
  646MPD2    N1 9571   2.156   0.566  14.667  0.1025 -0.3547  0.6986
  646MPD2    H7 9572   2.247   0.522  14.652  0.5846  0.9335 -0.1097
  647TMC3    C1 9573   2.150   0.432  14.853 -0.4338 -0.0027  0.4629
  647TMC3    C2 9574   2.083   0.323  14.911 -0.6110 -0.2786  0.5099
  647TMC3    C3 9575   2.150   0.265  15.015 -0.0404  0.2584 -0.1266
  647TMC3    C4 9576   2.279   0.464  14.877  0.1661  0.2965 -0.0489
  647TMC3    C5 9577   2.342   0.398  14.978 -0.3026 -0.7321  0.4399
  647TMC3    C6 9578   2.278   0.298  15.043  0.2126  0.1727 -0.8775
  647TMC3     C 9579   2.073   0.516  14.763  0.2210  0.2100  0.1125
  647TMC3     O 9580   1.950   0.527  14.774 -0.1728 -0.6218 -0.2170
  647TMC3     H 9581   1.977   0.309  14.895 -0.6979 -0.0608  0.9078
  647TMC3    H1 9582   2.333   0.541  14.824  0.3806 -0.4179 -0.8584
  647TMC3    H2 9583   2.329   0.240  15.119 -0.0104  0.3639 -0.5801
  647TMC3    C7 9584   2.486   0.395  14.996  0.4001 -0.6969 -0.0706
  647TMC3    C8 9585   2.108   0.140  15.083  0.2953  0.8461 -0.2485
  647TMC3    O1 9586   2.522   0.349  15.103 -0.2746  0.3408  0.2542
  647TMC3    O2 9587   2.169   0.105  15.184 -0.0291 -0.1527 -0.2417
  648TMC3    C1 9588   1.531   2.978  16.097 -0.4076 -0.2024 -0.0531
  648TMC3    C2 9589   1.584   2.861  16.059 -0.0708 -0.0146  1.1606
  648TMC3    C3 9590   1.560   2.814  15.936  0.6857 -0.0575  0.4465
  648TMC3    C4 9591   1.439   3.044  16.020 -0.1109  0.2292  0.5204
  648TMC3    C5 9592   1.423   2.999  15.888  0.0701  0.4113  0.4525
  648TMC3    C6 9593   1.489   2.881  15.842  0.0859  0.3620 -0.4513
  648TMC3     C 9594   1.546   3.028  16.236  0.0797  0.1437 -1.0363
  648TMC3     O 9595   1.515   3.143  16.246 -0.0329  0.1130 -0.2523
  648TMC3     H 9596   1.658   2.811  16.121  1.4629 -1.7386 -2.0658
  648TMC3    H1 9597   1.396   3.140  16.046 -0.6266  0.0940  0.1674
  648TMC3    H2 9598   1.484   2.846  15.740 -1.6269 -1.2787  0.2110
  648TMC3    C7 9599   1.334   3.064  15.801 -0.6865  0.5116  0.0742
  648TMC3    C8 9600   1.632   2.698  15.887 -0.0526 -0.1614 -0.3689
  648TMC3    O1 9601   1.300   3.000  15.703  0.0135  0.2444 -0.3276
  648TMC3    O2 9602   1.621   2.671  15.771  0.0188  0.0182  0.1855
  649TMC3    C1 9603   0.582   4.056  13.009 -0.0346 -0.1189  0.8889
  649TMC3    C2 9604   0.638   4.182  13.009  0.3141  0.6397  0.4570
  649TMC3    C3 9605   0.598   4.270  13.104  0.7026  0.0149 -0.7704
  649TMC3    C4 9606   0.488   4.019  13.097  0.2225  0.1047  0.3281
  649TMC3    C5 9607   0.448   4.113  13.189 -0.1736 -0.8890  0.4350
  649TMC3    C6 9608   0.504   4.240  13.202 -0.1821  0.0450 -0.0776
  649TMC3     C 9609   0.594   3.976  12.886 -0.1661 -0.7481 -0.0075
  649TMC3     O 9610   0.485   3.941  12.841 -0.4441 -0.1147 -0.2227
  649TMC3     H 9611   0.701   4.220  12.930 -0.7722 -3.3609 -2.3332
  649TMC3    H1 9612   0.432   3.928  13.080  1.1105 -0.1693 -1.0492
  649TMC3    H2 9613   0.478   4.303  13.286 -1.6511  2.1118 -2.0873
  649TMC3    C7 9614   0.373   4.053  13.304  0.3892  0.3480 -0.0208
  649TMC3    C8 9615   0.681   4.389  13.116  0.5298 -0.0736  0.7930
  649TMC3    O1 9616   0.306   4.132  13.364 -0.5756 -0.6790  0.0447
  649TMC3    O2 9617   0.790   4.370  13.058 -0.1679 -0.0288  0.1804
  650TMC3    C1 9618   3.112   0.823  12.738  0.3860  0.0850  0.2661
  650TMC3    C2 9619   3.047   0.918  12.817 -0.6366  0.6199 -0.1370
  650TMC3    C3 9620   2.935   0.976  12.768 -0.8815 -0.1310 -0.2194
  650TMC3    C4 9621   3.070   0.798  12.608 -0.4500  0.6313 -0.5533
  650TMC3    C5 9622   2.956   0.868  12.564  1.2759 -0.1949  0.1485
  650TMC3    C6 9623   2.883   0.944  12.647 -0.6674  0.1558  0.2149
  650TMC3     C 9624   3.218   0.743  12.800  0.0153 -0.5838 -0.0625
  650TMC3     O 9625   3.263   0.772  12.913  0.1515  0.4789 -0.1367
  650TMC3     H 9626   3.088   0.937  12.915 -0.7426  0.6512 -0.0989
  650TMC3    H1 9627   3.129   0.746  12.534  1.8494  0.2869  1.5100
  650TMC3    H2 9628   2.786   0.978  12.613 -0.4697  2.5088  1.9934
  650TMC3    C7 9629   2.947   0.878  12.422  0.0126 -0.4537  0.1368
  650TMC3    C8 9630   2.859   1.079  12.844 -0.1726 -0.1217 -0.1149
  650TMC3    O1 9631   2.949   0.772  12.357 -0.3713  0.2061 -0.1249
  650TMC3    O2 9632   2.767   1.130  12.787  0.3289  0.1622  0.3680
  651MPD2     C 9633   1.851   2.665  10.390  0.2911 -0.2136 -0.1298
  651MPD2    C1 9634   1.861   2.782  10.475  0.4580 -0.4470  0.0831
  651MPD2    C2 9635   1.981   2.828  10.521 -0.3958  0.5531  0.6032
  651MPD2    C3 9636   2.098   2.765  10.494  0.3221  0.3681  0.9606
  651MPD2    C4 9637   2.099   2.657  10.410  0.3504 -0.2723  1.0280
  651MPD2    C5 9638   1.973   2.608  10.361 -0.2683 -0.0877 -0.2120
  651MPD2     H 9639   1.975   2.918  10.582 -0.7090  1.6002 -0.9910
  651MPD2    H1 9640   2.194   2.614  10.383  0.3545 -0.1533  0.8500
  651MPD2    H2 9641   1.763   2.615  10.351  0.0260  0.9460 -1.0263
  651MPD2    H3 9642   1.964   2.524  10.293 -0.5011  1.0346 -1.5722
  651MPD2     N 9643   2.208   2.840  10.530 -0.4347  0.0946 -0.3738
  651MPD2    H5 9644   2.188   2.927  10.579 -2.3776  0.1567 -1.2483
  651MPD2    N1 9645   1.748   2.862  10.512  0.0958  0.2457 -0.0840
  651MPD2    H7 9646   1.779   2.932  10.578  0.5423  1.1471 -1.2374
  652TMC3    C1 9647   2.657   2.967  10.574  0.3125  0.4328  0.0185
  652TMC3    C2 9648   2.562   2.862  10.594  0.2102 -0.8069  0.5689
  652TMC3    C3 9649   2.436   2.899  10.541 -0.3777 -0.6902 -0.0780
  652TMC3    C4 9650   2.619   3.099  10.544  0.1533  0.4574  0.6205
  652TMC3    C5 9651   2.493   3.124  10.492 -0.6038 -0.3482 -0.3645
  652TMC3    C6 9652   2.406   3.018  10.477  0.3021  0.4842 -0.2374
  652TMC3     C 9653   2.791   2.946  10.625  0.0986  0.1450  0.0444
  652TMC3     O 9654   2.804   2.924  10.745  0.5097 -0.1526  0.3119
  652TMC3     H 9655   2.593   2.766  10.633  4.0952 -0.1821 -1.0036
  652TMC3    H1 9656   2.700   3.171  10.547 -1.8897  2.7785 -1.4894
  652TMC3    H2 9657   2.320   3.030  10.412 -0.7380  0.4737  1.1459
  652TMC3    C7 9658   2.441   3.259  10.495  0.0862 -0.0470  0.1129
  652TMC3    C8 9659   2.338   2.794  10.519 -0.1174 -0.2497  0.2750
  652TMC3    O1 9660   2.326   3.253  10.535 -0.5251 -0.2014 -0.6192
  652TMC3    O2 9661   2.380   2.679  10.509  0.3480 -0.7658  0.1278
  653MPD2     C 9662   0.598   2.969  17.240 -0.2192  0.1079 -0.4538
  653MPD2    C1 9663   0.465   3.011  17.248 -0.0928  0.1658  0.0736
  653MPD2    C2 9664   0.363   2.915  17.219  0.0245  0.3233  0.3157
  653MPD2    C3 9665   0.390   2.780  17.196 -1.1616 -0.5649  0.1209
  653MPD2    C4 9666   0.523   2.744  17.195  0.0956 -0.0482 -0.4654
  653MPD2    C5 9667   0.627   2.837  17.206 -0.3467 -0.8404 -0.2418
  653MPD2     H 9668   0.264   2.960  17.213  0.5401  1.4544  0.2558
  653MPD2    H1 9669   0.554   2.640  17.185 -1.9348 -0.5715 -1.1907
  653MPD2    H2 9670   0.688   3.019  17.274 -2.9560  4.8823 -0.1994
  653MPD2    H3 9671   0.729   2.799  17.210 -0.0812 -0.1453 -0.2789
  653MPD2     N 9672   0.283   2.687  17.184  0.1102  0.0538  0.3305
  653MPD2    H5 9673   0.189   2.723  17.196 -0.5643 -1.8157  0.6707
  653MPD2    N1 9674   0.452   3.142  17.298 -0.5044  0.3306 -0.7125
  653MPD2    H7 9675   0.534   3.201  17.291 -0.5728  0.4956 -0.1255
  654TMC3    C1 9676   0.167   2.489  17.121  0.1057  0.2509  0.2956
  654TMC3    C2 9677   0.057   2.555  17.097 -0.8214 -0.0780  0.2751
  654TMC3    C3 9678   4.682   2.506  17.007 -0.6208 -0.3295  0.2815
  654TMC3    C4 9679   0.188   2.361  17.076 -0.0146  0.2033  0.4131
  654TMC3    C5 9680   0.086   2.317  16.997 -0.0313  0.0687 -0.4518
  654TMC3    C6 9681   4.699   2.383  16.952 -0.0740 -0.5311  0.1103
  654TMC3     C 9682   0.295   2.554  17.149 -0.6207  0.0674  0.4128
  654TMC3     O 9683   0.402   2.501  17.126 -0.0427  0.1110  0.7321
  654TMC3     H 9684   0.034   2.649  17.147  0.8210  0.4855 -0.0409
  654TMC3    H1 9685   0.281   2.311  17.100  0.3641  0.8730  0.3529
  654TMC3    H2 9686   4.630   2.341  16.879 -1.9161  0.0413  1.5111
  654TMC3    C7 9687   0.126   2.209  16.906  0.7965  1.0443  0.1325
  654TMC3    C8 9688   4.567   2.586  16.969  0.7849 -0.9278 -0.9529
  654TMC3    O1 9689   0.063   2.198  16.803  0.0252 -0.0212  0.4869
  654TMC3    O2 9690   4.527   2.681  17.038  0.6624 -0.3309 -0.3886
  655MPD2     C 9691   1.962   2.905  15.751  0.1061  0.4701  0.0855
  655MPD2    C1 9692   1.938   3.008  15.664  0.2384  0.2906 -0.1326
  655MPD2    C2 9693   1.959   2.996  15.531 -1.2184 -0.1302  1.0251
  655MPD2    C3 9694   1.994   2.868  15.477 -0.2454  0.8715  0.4364
  655MPD2    C4 9695   2.014   2.764  15.565  0.9371 -0.7508 -0.0131
  655MPD2    C5 9696   2.001   2.782  15.701 -0.8304 -0.1537  0.4523
  655MPD2     H 9697   1.934   3.075  15.460 -1.5905 -1.0618  0.1124
  655MPD2    H1 9698   2.035   2.664  15.530  2.6211 -0.7474  0.9744
  655MPD2    H2 9699   1.951   2.919  15.858  0.0706 -1.3200  0.3216
  655MPD2    H3 9700   2.020   2.704  15.774 -2.3985 -1.3627 -0.4380
  655MPD2     N 9701   2.005   2.843  15.341 -0.4131  0.2603  0.1819
  655MPD2    H5 9702   2.028   2.747  15.317 -0.8990  0.9389 -3.0896
  655MPD2    N1 9703   1.881   3.130  15.717  0.1030 -0.3257 -0.4251
  655MPD2    H7 9704   1.837   3.187  15.645 -0.8867  1.7011  1.7874
  656TMC3    C1 9705   1.794   3.298  15.849 -0.6545 -0.3398  0.0858
  656TMC3    C2 9706   1.747   3.346  15.971 -0.1623 -0.4461 -0.5557
  656TMC3    C3 9707   1.674   3.460  15.991  0.8714 -0.3335 -0.2730
  656TMC3    C4 9708   1.772   3.375  15.737  0.1104 -0.2279  0.1892
  656TMC3    C5 9709   1.707   3.498  15.759 -0.5885  1.2856  0.5081
  656TMC3    C6 9710   1.652   3.536  15.879  0.3476 -0.1169 -0.0940
  656TMC3     C 9711   1.860   3.167  15.849 -0.0506 -1.1784  0.3753
  656TMC3     O 9712   1.868   3.106  15.955 -0.1436 -0.0323  0.7000
  656TMC3     H 9713   1.746   3.275  16.053  1.3817  0.4028  0.1985
  656TMC3    H1 9714   1.797   3.343  15.637 -1.6342 -0.5352 -0.1607
  656TMC3    H2 9715   1.606   3.634  15.892  0.6874  0.0759 -0.3524
  656TMC3    C7 9716   1.650   3.553  15.638  0.4257  0.8239 -0.1791
  656TMC3    C8 9717   1.552   3.435  16.053  0.6981  0.8214  0.1475
  656TMC3    O1 9718   1.719   3.557  15.538  0.1239  0.5972  0.0687
  656TMC3    O2 9719   1.480   3.353  16.002 -0.4707  0.2263  0.7143
  657TMC3    C1 9720   1.047   1.912  14.530 -0.0239 -0.3631 -0.0878
  657TMC3    C2 9721   1.096   1.936  14.656  0.2322 -0.4425 -0.4970
  657TMC3    C3 9722   1.079   2.059  14.712  0.3987  0.4584 -0.4763
  657TMC3    C4 9723   1.011   2.014  14.448  0.2719  0.2642 -0.1515
  657TMC3    C5 9724   1.017   2.141  14.500 -0.0091 -0.1278  0.6618
  657TMC3    C6 9725   1.057   2.165  14.629  0.6542  0.0638  0.3378
  657TMC3     C 9726   0.991   1.779  14.507 -0.0626  0.2900  0.4255
  657TMC3     O 9727   0.920   1.772  14.408  0.9784 -0.0915 -0.3158
  657TMC3     H 9728   1.144   1.865  14.722  0.2271 -0.8733 -0.9558
  657TMC3    H1 9729   0.960   1.994  14.354 -3.7806  0.4162  2.0185
  657TMC3    H2 9730   1.064   2.267  14.665 -0.6546  0.5694 -0.8391
  657TMC3    C7 9731   0.960   2.249  14.423 -0.6264 -0.5273 -0.0667
  657TMC3    C8 9732   1.015   2.073  14.844 -0.1154  0.4164 -0.2126
  657TMC3    O1 9733   0.921   2.342  14.488  0.3949 -0.4214 -0.1886
  657TMC3    O2 9734   0.970   2.187  14.860  0.1692 -0.3052 -0.1541
  658MPD2     C 9735   2.264   2.786  14.489 -0.7085  0.0508 -0.3618
  658MPD2    C1 9736   2.206   2.886  14.570 -0.2343 -0.3664  0.4920
  658MPD2    C2 9737   2.167   3.004  14.515 -0.2792 -0.6477  0.4970
  658MPD2    C3 9738   2.196   3.027  14.382 -0.7205 -0.0451  0.4927
  658MPD2    C4 9739   2.245   2.926  14.301  0.0406 -0.6971 -0.5863
  658MPD2    C5 9740   2.287   2.804  14.357 -0.1514 -0.8002  0.5889
  658MPD2     H 9741   2.121   3.087  14.567 -0.6986 -0.5019 -0.1060
  658MPD2    H1 9742   2.266   2.936  14.195  1.2628 -1.1392 -0.3823
  658MPD2    H2 9743   2.292   2.696  14.544  0.6217 -0.0093 -1.1237
  658MPD2    H3 9744   2.343   2.725  14.308 -0.5170 -1.4579  1.2205
  658MPD2     N 9745   2.157   3.157  14.332  0.2448 -0.1708 -0.0677
  658MPD2    H5 9746   2.110   3.215  14.401  3.7893  1.9554  0.6096
  658MPD2    N1 9747   2.176   2.852  14.706  0.0611  0.1253  0.2866
  658MPD2    H7 9748   2.168   2.754  14.729  1.1713  0.2309  1.0957
  659TMC3    C1 9749   2.038   2.876  14.896  0.3045  0.4134 -0.0968
  659TMC3    C2 9750   2.027   2.948  15.010 -0.5854  0.0085  0.3613
  659TMC3    C3 9751   1.976   2.882  15.112 -0.3562  0.4603 -0.0999
  659TMC3    C4 9752   1.965   2.762  14.869 -0.5577 -0.0777 -0.8253
  659TMC3    C5 9753   1.895   2.714  14.972  0.3817  0.1678 -0.2003
  659TMC3    C6 9754   1.912   2.766  15.096  0.2408  0.2960  0.2346
  659TMC3     C 9755   2.112   2.938  14.791 -0.1340  0.5492 -0.4115
  659TMC3     O 9756   2.142   3.058  14.807  0.2529  0.1208  0.0253
  659TMC3     H 9757   2.073   3.046  15.019 -0.6031 -0.0201  0.7599
  659TMC3    H1 9758   1.952   2.719  14.771  2.1650 -0.7789 -0.8687
  659TMC3    H2 9759   1.849   2.725  15.173  0.6261 -2.3775 -0.8669
  659TMC3    C7 9760   1.769   2.649  14.947 -0.6592  0.3963  0.5484
  659TMC3    C8 9761   1.998   2.935  15.241  0.4871 -0.8416 -0.3368
  659TMC3    O1 9762   1.729   2.567  15.031  0.1409 -0.2580 -0.1079
  659TMC3    O2 9763   2.005   3.058  15.250  0.5167  0.2051 -0.3272
  660MPD2     C 9764   0.156   1.327  12.556  0.0394  0.4132  0.2316
  660MPD2    C1 9765   0.030   1.387  12.542 -0.1016 -0.4954 -0.6851
  660MPD2    C2 9766   4.642   1.318  12.589  0.0303 -0.2062 -0.1725
  660MPD2    C3 9767   4.653   1.200  12.664  0.6098  0.1499 -0.1571
  660MPD2    C4 9768   0.060   1.156  12.690  0.7165  0.7853  0.3261
  660MPD2    C5 9769   0.165   1.216  12.637 -0.4311 -0.2767 -0.0559
  660MPD2     H 9770   4.546   1.360  12.560  1.0885 -0.2334 -3.7393
  660MPD2    H1 9771   0.077   1.070  12.753  0.6139 -0.1142 -0.8736
  660MPD2    H2 9772   0.247   1.374  12.519  0.4134 -0.0170  0.6082
  660MPD2    H3 9773   0.264   1.180  12.659  0.9450  1.4466 -3.4222
  660MPD2     N 9774   4.544   1.117  12.699 -0.6620  0.3009 -0.4305
  660MPD2    H5 9775   4.571   1.028  12.740  0.2003 -0.0518 -1.7478
  660MPD2    N1 9776   0.024   1.507  12.468 -0.6142  0.1643  0.0811
  660MPD2    H7 9777   0.114   1.552  12.455 -0.1268 -1.2732 -1.6700
  661TMC3    C1 9778   4.637   1.692  12.374 -0.4531 -0.3581  0.7118
  661TMC3    C2 9779   0.019   1.729  12.295 -0.3305  0.2891  0.1125
  661TMC3    C3 9780   0.015   1.855  12.239 -0.0919 -0.1272 -0.1676
  661TMC3    C4 9781   4.532   1.769  12.403 -0.5299  0.5358  0.0081
  661TMC3    C5 9782   4.537   1.899  12.361 -0.0942  0.3939 -0.2186
  661TMC3    C6 9783   4.641   1.946  12.283  0.4271 -0.4392 -0.0292
  661TMC3     C 9784   4.627   1.558  12.417 -0.1978 -1.0093  0.2504
  661TMC3     O 9785   4.513   1.517  12.432  0.0402 -0.0021  0.6206
  661TMC3     H 9786   0.105   1.667  12.273  0.0642  0.3271  1.5540
  661TMC3    H1 9787   4.446   1.733  12.456  0.3328  0.5712  1.4252
  661TMC3    H2 9788   4.636   2.046  12.240  0.8468 -0.7373 -0.7710
  661TMC3    C7 9789   4.404   1.952  12.339  0.3356  0.0140 -0.0242
  661TMC3    C8 9790   0.074   1.885  12.108  0.0623  0.6233 -0.3797
  661TMC3    O1 9791   4.350   2.013  12.431 -0.3254 -0.3127  0.1602
  661TMC3    O2 9792   0.114   1.784  12.051  0.5347  0.6808 -0.2275
  662MPD2     C 9793   0.218   1.672  17.096  0.4224  0.2705  0.4422
  662MPD2    C1 9794   0.229   1.609  17.222 -0.7114  0.0866  0.8937
  662MPD2    C2 9795   0.178   1.684  17.333 -0.1209 -0.0046  0.1604
  662MPD2    C3 9796   0.115   1.805  17.315  0.0141 -0.1587  0.2595
  662MPD2    C4 9797   0.102   1.860  17.190  0.9814 -0.1379 -0.5923
  662MPD2    C5 9798   0.153   1.792  17.086  0.1882 -0.2794 -0.6580
  662MPD2     H 9799   0.176   1.626  17.424 -1.3278  1.2581  0.9285
  662MPD2    H1 9800   0.054   1.954  17.165 -1.8417 -1.1160  1.2787
  662MPD2    H2 9801   0.239   1.618  17.004  1.0892  0.6015  0.3990
  662MPD2    H3 9802   0.134   1.841  16.991  1.0563  2.8279  0.7654
  662MPD2     N 9803   0.050   1.864  17.422 -0.8315 -0.1287 -0.0924
  662MPD2    H5 9804   4.694   1.928  17.404 -0.3088  0.2867 -0.8585
  662MPD2    N1 9805   0.274   1.474  17.239 -0.7962  0.5345 -0.0428
  662MPD2    H7 9806   0.268   1.431  17.331 -1.4119  0.1897 -0.2480
  663TMC3    C1 9807   0.331   1.258  17.173 -0.2172 -0.3344 -0.6156
  663TMC3    C2 9808   0.327   1.227  17.302 -0.6026  0.2785  0.0241
  663TMC3    C3 9809   0.304   1.099  17.352  0.1211 -0.9026  0.4281
  663TMC3    C4 9810   0.309   1.170  17.078 -0.3893  0.0135 -0.5580
  663TMC3    C5 9811   0.288   1.037  17.125  0.8747  0.4588 -0.0800
  663TMC3    C6 9812   0.275   1.004  17.256 -0.4620  0.1568  0.2966
  663TMC3     C 9813   0.324   1.396  17.135 -0.3804  0.2147  0.4174
  663TMC3     O 9814   0.343   1.422  17.017 -0.0912  0.1093 -0.5038
  663TMC3     H 9815   0.377   1.296  17.369 -1.0805 -1.1652  1.8530
  663TMC3    H1 9816   0.312   1.196  16.973 -1.6752  0.1550 -0.5701
  663TMC3    H2 9817   0.281   0.899  17.280  3.4613 -0.0169 -1.3951
  663TMC3    C7 9818   0.278   0.939  17.018  0.0236  0.4618  0.0919
  663TMC3    C8 9819   0.372   1.058  17.476  0.0267  0.2337 -0.0556
  663TMC3    O1 9820   0.292   0.977  16.906  0.1167  0.6176 -0.0836
  663TMC3    O2 9821   0.404   0.939  17.477  0.4177  0.7701  0.4696
  664MPD2     C 9822   3.002   4.337  17.349 -0.8397  0.6851  0.6182
  664MPD2    C1 9823   3.118   4.396  17.403 -0.8500  0.1874  0.3353
  664MPD2    C2 9824   3.133   4.392  17.543 -1.0134 -0.7069  0.5669
  664MPD2    C3 9825   3.038   4.335  17.619  0.4589  0.9250  0.0571
  664MPD2    C4 9826   2.935   4.268  17.562 -0.1717 -0.1171  1.0505
  664MPD2    C5 9827   2.912   4.272  17.428  0.0602  1.2521  0.2264
  664MPD2     H 9828   3.220   4.441  17.585  0.0779 -1.7120 -0.4912
  664MPD2    H1 9829   2.855   4.210  17.608  1.9337 -2.6635  1.4709
  664MPD2    H2 9830   2.991   4.357  17.243 -2.8919 -0.9656  0.5164
  664MPD2    H3 9831   2.823   4.225  17.387  0.4265  0.0196  0.8553
  664MPD2     N 9832   3.048   4.357   0.076  0.0521  0.2069 -0.4634
  664MPD2    H5 9833   3.105   4.430   0.118 -0.0943  0.7730 -1.2563
  664MPD2    N1 9834   3.215   4.465  17.326 -0.1811 -0.4708  0.7281
  664MPD2    H7 9835   3.305   4.483  17.370  0.4944 -0.1441 -0.7976
  665TMC3    C1 9836   2.984   4.354   0.308 -0.0076 -0.1037  0.5957
  665TMC3    C2 9837   2.923   4.291   0.410 -0.2275 -0.4676 -0.5217
  665TMC3    C3 9838   2.958   4.318   0.544  0.4630 -0.4607  0.2973
  665TMC3    C4 9839   3.092   4.441   0.337  0.3433 -0.1694 -0.3575
  665TMC3    C5 9840   3.119   4.468   0.470 -0.8778 -0.5985 -0.3624
  665TMC3    C6 9841   3.052   4.407   0.573  1.0903 -0.1836  0.5764
  665TMC3     C 9842   2.963   4.303   0.172  0.3256  0.2424  0.1964
  665TMC3     O 9843   2.869   4.226   0.158  0.3479 -0.2676  0.6052
  665TMC3     H 9844   2.857   4.206   0.392 -1.2940  0.5911 -1.6722
  665TMC3    H1 9845   3.136   4.510   0.265  0.7797  0.1749  0.2407
  665TMC3    H2 9846   3.080   4.413   0.677  0.1148  0.7190  0.7891
  665TMC3    C7 9847   3.227   4.554   0.507 -0.2515 -0.4783 -0.2469
  665TMC3    C8 9848   2.862   4.312   0.653  0.0724 -0.2177 -0.1391
  665TMC3    O1 9849   3.322   4.555   0.431  0.2457 -0.0956 -0.7848
  665TMC3    O2 9850   2.914   4.310   0.765 -0.4633  0.0807  0.1029
  666TMC3    C1 9851   3.109   4.139  10.158  0.4605  0.0273  0.7932
  666TMC3    C2 9852   3.243   4.126  10.169  0.7642  0.3451  0.1920
  666TMC3    C3 9853   3.319   4.243  10.195  0.2373 -0.0176  0.2170
  666TMC3    C4 9854   3.046   4.260  10.154  0.5578  0.3427 -0.4934
  666TMC3    C5 9855   3.121   4.380  10.163 -0.1948 -0.2209 -0.1859
  666TMC3    C6 9856   3.251   4.365  10.201 -0.0417  0.6774 -0.1875
  666TMC3     C 9857   3.044   4.030  10.221  0.0549 -0.0931 -0.5025
  666TMC3     O 9858   3.120   3.966  10.292 -0.0746  0.2997  0.3224
  666TMC3     H 9859   3.291   4.029  10.160 -0.5602  0.0065 -3.1345
  666TMC3    H1 9860   2.938   4.268  10.147  0.4525  0.0402  0.6844
  666TMC3    H2 9861   3.305   4.447  10.247  1.2041 -0.5212  0.4967
  666TMC3    C7 9862   3.045   4.501  10.177  0.0032  0.5487  0.2396
  666TMC3    C8 9863   3.416   4.226  10.304 -0.5266  0.2690 -0.0497
  666TMC3    O1 9864   2.929   4.493  10.209  0.5875 -0.0649  0.2913
  666TMC3    O2 9865   3.497   4.318  10.332 -0.4714 -0.0667 -0.2222
  667MPD2     C 9866   3.428   4.289  14.696  0.0669  0.2467  0.8055
  667MPD2    C1 9867   3.360   4.342  14.811  0.3018 -0.6802 -0.6457
  667MPD2    C2 9868   3.219   4.361  14.797  0.1564  0.0043 -0.1267
  667MPD2    C3 9869   3.148   4.332  14.683  0.1957  0.3669 -0.8543
  667MPD2    C4 9870   3.223   4.283  14.578 -0.4631 -0.0516  0.5670
  667MPD2    C5 9871   3.361   4.272  14.582 -0.4443 -0.2128 -0.0566
  667MPD2     H 9872   3.173   4.405  14.885  0.4342  1.0900 -0.5336
  667MPD2    H1 9873   3.178   4.277  14.480 -1.0995  1.9518  0.7296
  667MPD2    H2 9874   3.536   4.281  14.703  0.0874  2.3609  2.7653
  667MPD2    H3 9875   3.421   4.245  14.497  0.9467  2.4083  0.0936
  667MPD2     N 9876   3.011   4.323  14.668  0.6787  0.1084  0.0083
  667MPD2    H5 9877   2.973   4.287  14.581  1.4156 -1.6210  0.3947
  667MPD2    N1 9878   3.420   4.361  14.941 -0.5117  0.0794  0.1611
  667MPD2    H7 9879   3.361   4.387  15.019 -1.0576  2.4678 -1.0506
  668TMC3    C1 9880   3.593   4.399  15.097 -0.1137 -0.0292  0.5489
  668TMC3    C2 9881   3.703   4.483  15.110  0.4317 -0.3248 -0.3432
  668TMC3    C3 9882   3.742   4.527  15.234  0.6802 -0.1637 -0.2534
  668TMC3    C4 9883   3.512   4.361  15.201 -0.1957 -0.0499  0.0778
  668TMC3    C5 9884   3.553   4.414  15.323 -0.1290 -0.4193 -0.7395
  668TMC3    C6 9885   3.666   4.492  15.341 -0.0129  0.6103  0.3026
  668TMC3     C 9886   3.557   4.355  14.961  0.4240  0.8074 -0.4520
  668TMC3     O 9887   3.654   4.353  14.883  0.1132  0.1837  0.3422
  668TMC3     H 9888   3.767   4.490  15.022  1.6791 -0.6165  0.5429
  668TMC3    H1 9889   3.422   4.301  15.188  0.4696 -0.9703 -0.2591
  668TMC3    H2 9890   3.693   4.514  15.443  1.0365  1.9640 -0.2754
  668TMC3    C7 9891   3.464   4.401  15.439 -0.1697  0.3750 -0.8086
  668TMC3    C8 9892   3.869   4.598  15.247  0.0310  0.0799  0.7001
  668TMC3    O1 9893   3.494   4.458  15.545 -1.1158  0.5030  0.5251
  668TMC3    O2 9894   3.938   4.568  15.344 -0.2367 -0.2576 -0.1316
  669TMC3    C1 9895   1.982   4.429  14.762  0.3768  0.0884  0.3644
  669TMC3    C2 9896   1.876   4.470  14.685  0.0477 -0.3443 -0.1317
  669TMC3    C3 9897   1.884   4.597  14.637  0.0225 -0.3474 -0.5105
  669TMC3    C4 9898   2.093   4.506  14.785 -0.0003 -0.0681 -0.3577
  669TMC3    C5 9899   2.086   4.633  14.736 -0.1436  0.7355 -0.0978
  669TMC3    C6 9900   1.981   4.685  14.670 -0.0205 -0.1331  0.3045
  669TMC3     C 9901   1.957   4.299  14.819  0.5686  0.0087  0.1031
  669TMC3     O 9902   1.846   4.258  14.831  0.5339 -0.3341 -0.7048
  669TMC3     H 9903   1.801   4.403  14.643 -1.1564 -0.1943  1.7937
  669TMC3    H1 9904   2.179   4.458  14.832 -1.9268 -0.4079  2.8251
  669TMC3    H2 9905   1.989   0.069  14.643 -0.6982 -0.7914 -2.3944
  669TMC3    C7 9906   2.202   4.716  14.740  0.1798 -0.3098 -0.7825
  669TMC3    C8 9907   1.812   4.619  14.503  0.5299  0.3689 -0.4730
  669TMC3    O1 9908   2.195   0.112  14.697 -0.8435  0.1947  0.0310
  669TMC3    O2 9909   1.784   4.516  14.443 -0.6760  0.1045  0.3553
  670MPD2     C 9910   4.668   1.694  13.217 -0.1670 -0.1428  0.2708
  670MPD2    C1 9911   0.010   1.801  13.271  0.4127  0.0803  1.0614
  670MPD2    C2 9912   4.683   1.854  13.388  0.0678  0.5749  0.6403
  670MPD2    C3 9913   4.577   1.797  13.457  0.7397  0.6206 -0.3916
  670MPD2    C4 9914   4.524   1.678  13.409 -0.2570 -0.4369 -0.9410
  670MPD2    C5 9915   4.558   1.640  13.284 -0.5613  0.2417  0.6591
  670MPD2     H 9916   0.004   1.944  13.433  0.7984  0.7929 -0.4872
  670MPD2    H1 9917   4.435   1.631  13.450 -0.3769  0.4540 -0.1783
  670MPD2    H2 9918   4.694   1.653  13.120  0.2011  0.0029  0.3097
  670MPD2    H3 9919   4.501   1.560  13.239 -0.0644  0.9490 -1.2346
  670MPD2     N 9920   4.549   1.835  13.589  0.2479 -0.3836 -0.0389
  670MPD2    H5 9921   4.578   1.929  13.613 -0.5344 -0.4555  1.2036
  670MPD2    N1 9922   0.118   1.875  13.208 -0.6845  0.4164 -0.8248
  670MPD2    H7 9923   0.153   1.959  13.252  1.7128 -0.2221 -1.4893
  671TMC3    C1 9924   4.542   1.795  13.821  0.5166 -0.4693 -0.6852
  671TMC3    C2 9925   4.660   1.841  13.849  0.7146 -0.7942 -0.1606
  671TMC3    C3 9926   0.003   1.802  13.960 -0.1997  0.7510 -0.0967
  671TMC3    C4 9927   4.471   1.728  13.915  0.4013 -0.1939 -0.3436
  671TMC3    C5 9928   4.534   1.693  14.035 -0.8550 -0.7575  0.9995
  671TMC3    C6 9929   4.657   1.743  14.061 -0.3171 -0.1322  0.2516
  671TMC3     C 9930   4.515   1.746  13.688  0.7055 -0.1552  0.7390
  671TMC3     O 9931   4.480   1.633  13.683 -0.0662  0.2121  0.0163
  671TMC3     H 9932   0.000   1.872  13.765  0.2223 -1.5730 -0.8112
  671TMC3    H1 9933   4.370   1.693  13.895  0.5067 -0.5673 -0.2156
  671TMC3    H2 9934   4.708   1.700  14.147  0.1490  0.1261  0.1049
  671TMC3    C7 9935   4.524   1.547  14.059 -0.1305 -0.3901  0.0381
  671TMC3    C8 9936   0.127   1.735  13.937 -0.4069 -0.3506  0.1348
  671TMC3    O1 9937   4.568   1.506  14.164 -0.0976  0.0907  0.0291
  671TMC3    O2 9938   0.157   1.693  13.827  0.7715  0.0058 -0.2346
  672MPD2     C 9939   4.639   2.677   1.142  0.4554 -0.3205  0.3126
  672MPD2    C1 9940   4.666   2.784   1.052  0.0525 -0.7254 -0.0604
  672MPD2    C2 9941   0.038   2.884   1.083  0.4232 -0.1797 -0.1846
  672MPD2    C3 9942   0.110   2.867   1.202 -0.1320  0.2251 -0.3796
  672MPD2    C4 9943   0.082   2.757   1.288 -1.1120 -0.5201  0.4321
  672MPD2    C5 9944   4.698   2.676   1.258 -0.2082 -0.2067 -0.7709
  672MPD2     H 9945   0.064   2.969   1.021 -0.7750  0.9407  0.8648
  672MPD2    H1 9946   0.139   2.734   1.377 -0.7718 -0.3930  0.2457
  672MPD2    H2 9947   4.555   2.610   1.127 -0.0472  0.3369  0.1944
  672MPD2    H3 9948   4.678   2.604   1.337 -0.5772 -1.6246 -2.1802
  672MPD2     N 9949   0.215   2.955   1.248 -0.1043  0.0240  0.4575
  672MPD2    H5 9950   0.264   2.922   1.331  1.6535 -1.6370 -1.2626
  672MPD2    N1 9951   4.610   2.795   0.928  0.4175  0.1603 -0.2706
  672MPD2    H7 9952   4.657   2.866   0.873 -1.8500  1.4463 -0.5347
  673TMC3    C1 9953   4.467   2.756   0.747  0.1586 -0.0661  0.0334
  673TMC3    C2 9954   4.570   2.756   0.656  0.4103 -1.0345 -0.0128
  673TMC3    C3 9955   4.556   2.826   0.538 -0.3324 -0.3048 -0.4104
  673TMC3    C4 9956   4.349   2.815   0.717 -0.5784  0.3474  0.1124
  673TMC3    C5 9957   4.341   2.895   0.602  0.9532  0.6272  0.4760
  673TMC3    C6 9958   4.443   2.907   0.512 -0.5586  0.2649 -0.0604
  673TMC3     C 9959   4.491   2.731   0.889  0.0509  0.1230 -0.1170
  673TMC3     O 9960   4.399   2.685   0.957 -0.1202 -0.0215 -0.6447
  673TMC3     H 9961   4.660   2.702   0.681  1.8842  1.8787  0.9294
  673TMC3    H1 9962   4.264   2.814   0.784  0.2598 -0.0897  1.1768
  673TMC3    H2 9963   4.445   2.970   0.423  0.7125  1.1019  0.5522
  673TMC3    C7 9964   4.229   2.994   0.601  0.4137  0.7485 -0.1805
  673TMC3    C8 9965   4.667   2.823   0.440 -0.5432  0.2432 -0.5709
  673TMC3    O1 9966   4.179   3.029   0.708  0.5285  0.3320 -0.1229
  673TMC3    O2 9967   4.634   2.870   0.330 -0.1188 -0.1411  0.1138
  674MPD2     C 9968   4.675   2.989  17.487  0.7403  0.0173 -0.6860
  674MPD2    C1 9969   0.001   2.870  17.519  0.5010  0.6850  0.5425
  674MPD2    C2 9970   4.643   2.796  17.605 -0.4795  0.4664  0.5241
  674MPD2    C3 9971   4.532   2.856  17.667  0.3577  0.8357 -0.1078
  674MPD2    C4 9972   4.498   2.990  17.643  0.7475 -0.2303  0.3796
  674MPD2    C5 9973   4.570   3.058  17.550  0.1862 -0.6916  0.1491
  674MPD2     H 9974   4.671   2.694  17.629  3.3577  0.9676 -1.8506
  674MPD2    H1 9975   4.422   3.049   0.006 -0.4202 -0.6790 -0.8913
  674MPD2    H2 9976   0.007   3.057  17.420  2.0945  0.5171  0.8832
  674MPD2    H3 9977   4.541   3.155  17.512 -1.0720 -1.5499 -1.1173
  674MPD2     N 9978   4.456   2.777   0.077 -0.4913  0.2051 -0.0912
  674MPD2    H5 9979   4.477   2.678   0.069  1.2781  0.6139 -0.5579
  674MPD2    N1 9980   0.117   2.826  17.465  0.3481 -0.2560 -0.0824
  674MPD2    H7 9981   0.178   2.894  17.420  2.6012 -1.8923  0.4691
  675TMC3    C1 9982   0.322   2.712  17.516 -0.2353  0.4212  0.3748
  675TMC3    C2 9983   0.382   2.591  17.530 -0.0063  0.2807 -0.1524
  675TMC3    C3 9984   0.516   2.581  17.555 -0.0198  0.0526  0.3292
  675TMC3    C4 9985   0.387   2.828  17.539  0.4860 -0.3426 -0.3179
  675TMC3    C5 9986   0.521   2.809  17.577 -0.2914  0.2823 -0.1391
  675TMC3    C6 9987   0.590   2.697  17.573 -0.2137  0.2084  0.3025
  675TMC3     C 9988   0.176   2.709  17.506  0.2934  0.4740  0.3368
  675TMC3     O 9989   0.130   2.599  17.524  0.2826  0.3363 -0.2446
  675TMC3     H 9990   0.317   2.506  17.517 -1.1873  1.3034 -0.9143
  675TMC3    H1 9991   0.333   2.922  17.532  2.0790  0.4328 -1.9927
  675TMC3    H2 9992   0.697   2.687  17.559 -0.3368  0.7892 -1.0140
  675TMC3    C7 9993   0.612   2.930  17.583  0.3383  0.7410  0.4491
  675TMC3    C8 9994   0.581   2.448  17.568  0.3033 -0.5599  0.3375
  675TMC3    O1 9995   0.726   2.912  17.543 -0.1543 -0.2814  0.0632
  675TMC3    O2 9996   0.696   2.430  17.530  0.1231  0.0150  0.1516
  676MPD2     C 9997   2.933   0.725  10.875 -0.7615  0.3112  0.0754
  676MPD2    C1 9998   2.862   0.664  10.976  0.0415  1.1622  0.4222
  676MPD2    C2 9999   2.893   0.528  11.003  0.1506  0.2153  0.3819
  676MPD2    C310000   2.975   0.456  10.913  0.2671 -0.4822  0.6023
  676MPD2    C410001   3.029   0.523  10.812 -0.1059  0.4205  0.0818
  676MPD2    C510002   3.006   0.653  10.791 -0.6919  0.0446 -0.7016
  676MPD2     H10003   2.852   0.487  11.095  1.6369  0.8004  1.2964
  676MPD2    H110004   3.100   0.470  10.748 -2.5249 -0.2817 -1.9976
  676MPD2    H210005   2.934   0.831  10.853 -1.0730  0.7834  2.3845
  676MPD2    H310006   3.052   0.702  10.706  0.9511 -0.0108  0.1603
  676MPD2     N10007   3.012   0.317  10.931  0.1250  0.0272 -0.1735
  676MPD2    H510008   3.068   0.274  10.858 -0.5196 -2.6190  0.8599
  676MPD2    N110009   2.768   0.728  11.058 -0.0701 -0.3874  0.4118
  676MPD2    H710010   2.729   0.682  11.139 -1.2134  1.9248  1.1551
  677TMC3    C110011   2.679   0.913  11.166  0.4714  0.5596 -0.5253
  677TMC3    C210012   2.651   0.828  11.269  0.0831 -0.2991 -0.4148
  677TMC3    C310013   2.635   0.878  11.396 -0.4970  0.3115  0.6060
  677TMC3    C410014   2.668   1.047  11.180 -0.2536  0.7707  0.3976
  677TMC3    C510015   2.638   1.098  11.306 -0.1236  0.2158  0.3641
  677TMC3    C610016   2.621   1.015  11.412  0.0951 -0.8913 -0.3989
  677TMC3     C10017   2.731   0.859  11.042  0.3584 -0.2712 -1.0602
  677TMC3     O10018   2.754   0.937  10.949 -0.6581 -0.0794 -0.5096
  677TMC3     H10019   2.665   0.722  11.254  2.3732 -0.2725  1.5136
  677TMC3    H110020   2.718   1.104  11.103  0.7913 -0.0878  0.4440
  677TMC3    H210021   2.610   1.048  11.515  0.9744  0.6053 -0.7906
  677TMC3    C710022   2.696   1.220  11.352 -0.0860  0.0453 -0.2158
  677TMC3    C810023   2.717   0.804  11.489 -0.0336 -0.5932 -0.6168
  677TMC3    O110024   2.639   1.285  11.442  0.0303  0.1550 -0.1184
  677TMC3    O210025   2.798   0.730  11.442  0.2959 -0.1877  0.1997
  678MPD2     C10026   4.165   0.986   1.526  0.4490 -0.1895  0.6444
  678MPD2    C110027   4.193   0.886   1.430  0.2247  0.0522 -0.2918
  678MPD2    C210028   4.084   0.824   1.369  0.5568  0.4298  0.7472
  678MPD2    C310029   3.952   0.850   1.403  0.2535  0.3867 -0.5943
  678MPD2    C410030   3.927   0.942   1.502 -0.1665  0.2143 -0.3270
  678MPD2    C510031   4.035   1.016   1.555  0.7077 -0.9112  0.4643
  678MPD2     H10032   4.110   0.755   1.289  0.6379  2.1637 -0.7056
  678MPD2    H110033   3.829   0.956   1.545 -0.6529 -1.8838 -0.7559
  678MPD2    H210034   4.237   1.033   1.593  0.5559  0.7868 -0.1676
  678MPD2    H310035   4.009   1.088   1.631 -0.9660  0.2671 -1.2257
  678MPD2     N10036   3.851   0.782   1.331 -0.5048 -0.3860 -0.4980
  678MPD2    H510037   3.871   0.717   1.256 -1.1014  0.8672 -1.7486
  678MPD2    N110038   4.326   0.832   1.415  0.3339 -0.2336 -0.5430
  678MPD2    H710039   4.337   0.746   1.362 -1.3972 -1.1763  0.6585
  679TMC3    C110040   4.703   0.678   1.343 -0.1795  0.1648 -0.0477
  679TMC3    C210041   4.581   0.717   1.384 -1.2916 -0.4014 -0.5664
  679TMC3    C310042   4.559   0.855   1.384 -0.2839 -0.4637  0.1459
  679TMC3    C410043   0.085   0.763   1.306  0.8356  0.1156  0.5945
  679TMC3    C510044   0.058   0.897   1.323  0.4099  0.3892  0.2938
  679TMC3    C610045   4.656   0.943   1.359  0.4395  0.2393 -0.0004
  679TMC3     C10046   0.007   0.534   1.344  0.5831 -0.0805  0.1106
  679TMC3     O10047   0.101   0.495   1.277  0.4216  0.1353  0.1240
  679TMC3     H10048   4.494   0.656   1.407 -1.3045 -0.0711  0.2882
  679TMC3    H110049   0.186   0.730   1.285 -0.4778 -2.7733 -1.2522
  679TMC3    H210050   4.628   1.046   1.340  0.1842  0.2721  0.5275
  679TMC3    C710051   0.107   0.966   1.208 -0.4953  0.6451 -0.3663
  679TMC3    C810052   4.439   0.907   1.443 -0.3467  0.5859  0.2396
  679TMC3    O110053   0.027   1.027   1.138  0.9044 -0.6771 -0.3972
  679TMC3    O210054   4.443   1.023   1.481 -0.4675 -0.1305 -0.2130
  680MPD2     C10055   4.239   4.403  13.859  0.6131  0.8872  0.2901
  680MPD2    C110056   4.364   4.355  13.876 -0.1481  0.1727  0.0350
  680MPD2    C210057   4.473   4.437  13.901  0.0278 -0.2311  0.8716
  680MPD2    C310058   4.453   4.575  13.897  1.0735  0.2932 -0.1019
  680MPD2    C410059   4.325   4.621  13.883 -0.4411 -0.2573 -0.0191
  680MPD2    C510060   4.223   4.538  13.860  0.0137  0.4663 -0.1075
  680MPD2     H10061   4.572   4.398  13.920 -0.3314 -2.0825 -1.0991
  680MPD2    H110062   4.309   0.007  13.874  0.8834 -0.1598 -1.2876
  680MPD2    H210063   4.150   4.342  13.848  0.1606  1.3880  1.2244
  680MPD2    H310064   4.123   4.577  13.845 -0.7136 -0.7414  1.6476
  680MPD2     N10065   4.559   4.660  13.924 -0.1182  0.0437  0.1629
  680MPD2    H510066   4.529   0.035  13.939 -0.8657 -0.2436  0.4854
  680MPD2    N110067   4.377   4.214  13.874 -0.2729  0.0847 -0.3919
  680MPD2    H710068   4.300   4.149  13.859 -1.0015  0.5506  1.3030
  681TMC3    C110069   4.485   4.016  13.841 -0.2613 -0.9255 -0.0748
  681TMC3    C210070   4.402   3.949  13.928 -0.3143 -0.2135 -0.3708
  681TMC3    C310071   4.445   3.829  13.982 -0.0768 -0.1617  0.6072
  681TMC3    C410072   4.590   3.958  13.775  0.1509 -0.1789 -0.1242
  681TMC3    C510073   4.612   3.835  13.817 -0.3713 -1.1923  0.4703
  681TMC3    C610074   4.551   3.768  13.924  0.3108  0.8109 -0.3080
  681TMC3     C10075   4.500   4.158  13.861  0.2872 -0.1729  0.3696
  681TMC3     O10076   4.611   4.205  13.839 -0.2531 -0.2416  0.1118
  681TMC3     H10077   4.331   4.004  13.989  0.1719 -0.2533  0.2417
  681TMC3    H110078   4.637   4.010  13.693 -0.0299  0.4258  0.1555
  681TMC3    H210079   4.577   3.669  13.959 -0.8314  0.5099 -0.3124
  681TMC3    C710080   4.717   3.759  13.748  0.0622 -0.7253  0.8257
  681TMC3    C810081   4.434   3.825  14.128  0.1441  0.1241 -0.3394
  681TMC3    O110082   4.719   3.637  13.756 -0.5861  0.9008  0.4506
  681TMC3    O210083   4.332   3.864  14.182  0.5145  0.3580  0.1976
  682MPD2     C10084   2.201   0.881  10.524 -0.4422 -0.8702 -0.0764
  682MPD2    C110085   2.201   0.759  10.595  0.1983 -0.3662  0.4159
  682MPD2    C210086   2.123   0.758  10.713  0.0974  0.5740 -0.6573
  682MPD2    C310087   2.063   0.874  10.753  0.5935  0.5193  0.3979
  682MPD2    C410088   2.069   0.985  10.690 -0.9781 -1.0718  0.1878
  682MPD2    C510089   2.142   0.990  10.577  0.4233 -0.4720  0.3478
  682MPD2     H10090   2.136   0.666  10.768 -1.4993  0.5295 -0.3539
  682MPD2    H110091   2.021   1.077  10.723 -1.1286 -0.7636 -0.8935
  682MPD2    H210092   2.265   0.890  10.437 -0.8285  0.0187 -0.2667
  682MPD2    H310093   2.152   1.084  10.525 -1.2203 -0.3889  0.1724
  682MPD2     N10094   1.980   0.871  10.862 -0.0408  0.2843  0.3123
  682MPD2    H510095   1.944   0.961  10.894 -0.8767  0.2119 -0.4015
  682MPD2    N110096   2.268   0.637  10.562 -0.5065  0.1490 -0.6986
  682MPD2    H710097   2.245   0.559  10.622 -0.6414  0.6287 -0.1181
  683TMC3    C110098   1.788   0.898  11.224  0.0134 -0.2892  0.8832
  683TMC3    C210099   1.677   0.817  11.249 -0.0907 -0.6578 -0.6517
  683TMC3    C310100   1.664   0.706  11.162 -0.5005 -0.7071  0.5731
  683TMC3    C410101   1.872   0.888  11.117 -0.3275 -0.5418  0.1206
  683TMC3    C510102   1.843   0.777  11.034 -0.0612 -0.4318  0.0197
  683TMC3    C610103   1.744   0.689  11.063  0.5276  0.1669  0.4524
  683TMC3     C10104   1.854   0.964  11.338 -0.1906  0.4543 -0.2148
  683TMC3     O10105   1.938   1.053  11.311  0.4004 -0.0811 -0.2271
  683TMC3     H10106   1.622   0.812  11.342 -0.2895 -0.5149 -0.7631
  683TMC3    H110107   1.964   0.942  11.099 -0.8121 -0.1744 -1.2556
  683TMC3    H210108   1.702   0.617  10.993 -0.0092 -0.3298  1.2819
  683TMC3    C710109   1.929   0.752  10.920 -0.6065  0.0858 -0.1519
  683TMC3    C810110   1.575   0.602  11.192 -0.3081 -0.1059 -0.6689
  683TMC3    O110111   1.930   0.644  10.865 -0.2069 -0.5626  0.5982
  683TMC3    O210112   1.457   0.631  11.185 -0.2275 -0.3187 -0.0725
  684MPD2     C10113   4.492   0.348  15.906 -0.0736 -0.8301  0.1791
  684MPD2    C110114   4.619   0.321  15.945  0.9566 -0.5122 -0.0253
  684MPD2    C210115   4.684   0.429  16.013 -0.9772  0.8895  0.1147
  684MPD2    C310116   4.620   0.547  16.042  0.0242 -0.5808 -0.2218
  684MPD2    C410117   4.495   0.575  15.994 -0.1032 -0.1527 -0.0790
  684MPD2    C510118   4.434   0.470  15.936 -0.8423 -0.4878  0.7883
  684MPD2     H10119   0.061   0.399  16.048  0.0813  1.3857 -2.4279
  684MPD2    H110120   4.442   0.666  16.020  1.0602  0.7103 -0.7210
  684MPD2    H210121   4.434   0.273  15.853  1.2810 -1.1068 -0.9250
  684MPD2    H310122   4.336   0.491  15.895 -0.7251  2.0254  1.8177
  684MPD2     N10123   4.686   0.653  16.118 -0.0360 -0.2308 -0.6177
  684MPD2    H510124   4.619   0.717  16.160 -0.8873 -2.3669  1.2761
  684MPD2    N110125   4.671   0.187  15.923  0.0434 -0.1726  0.7727
  684MPD2    H710126   4.607   0.128  15.870 -1.1010  2.3968 -0.7397
  685TMC3    C110127   0.115   0.007  15.935  0.3943 -0.5097  0.1576
  685TMC3    C210128   0.037   4.654  15.850  0.8471 -0.9170 -0.3171
  685TMC3    C310129   0.067   4.518  15.847 -0.4395  0.2392 -0.7488
  685TMC3    C410130   0.229   4.680  15.988  0.3820  0.5782 -0.4554
  685TMC3    C510131   0.263   4.547  15.965  0.3663 -0.1882 -0.4901
  685TMC3    C610132   0.180   4.460  15.899  0.1122  0.1091 -0.2990
  685TMC3     C10133   0.068   0.138  15.974 -0.3369 -0.2634 -0.2660
  685TMC3     O10134   0.133   0.178  16.071  0.5134  0.3079  0.8820
  685TMC3     H10135   4.678   4.707  15.799  1.5942 -0.5431 -1.0928
  685TMC3    H110136   0.294   0.031  16.036  0.6602 -0.8732  1.3403
  685TMC3    H210137   0.189   4.352  15.899  0.6697  0.1582 -1.8273
  685TMC3    C710138   0.360   4.492  16.056  0.4251 -0.0156 -0.1653
  685TMC3    C810139   4.705   4.436  15.755  0.1187 -0.3310 -0.2777
  685TMC3    O110140   0.411   4.560  16.144  0.2368  0.5475  0.3937
  685TMC3    O210141   0.019   4.318  15.750  0.1630 -0.0802  0.2214
  686MPD2     C10142   2.007   4.634  15.763  0.0765 -0.1477  0.4081
  686MPD2    C110143   1.873   4.648  15.740  0.2628  0.3099  0.7649
  686MPD2    C210144   1.819   4.574  15.641  0.3092  0.4264  0.1510
  686MPD2    C310145   1.901   4.492  15.561 -0.1343 -0.2664 -0.1455
  686MPD2    C410146   2.032   4.484  15.574 -0.4103  0.3669 -0.4452
  686MPD2    C510147   2.083   4.558  15.680 -0.4798  0.8912  0.2835
  686MPD2     H10148   1.711   4.581  15.633  0.3606 -0.7020 -1.4528
  686MPD2    H110149   2.101   4.422  15.519  1.0295 -0.9951  2.8792
  686MPD2    H210150   2.057   4.682  15.847  1.8811 -0.0291 -0.7438
  686MPD2    H310151   2.190   4.559  15.700 -0.2122  3.1233 -1.3120
  686MPD2     N10152   1.845   4.409  15.467  0.2645 -0.2934  0.2457
  686MPD2    H510153   1.902   4.374  15.390  0.8817  3.6359 -1.0811
  686MPD2    N110154   1.791   4.712  15.832  0.2931  0.0004  0.0081
  686MPD2    H710155   1.819   0.014  15.927 -2.3608 -1.1692  1.0552
  687TMC3    C110156   1.660   4.317  15.592 -0.1480 -0.2807 -0.7157
  687TMC3    C210157   1.535   4.359  15.622  0.0318 -0.1938 -0.1751
  687TMC3    C310158   1.509   4.382  15.755  0.0061  0.8666  0.2078
  687TMC3    C410159   1.747   4.282  15.694 -0.2810 -0.0554  0.2247
  687TMC3    C510160   1.711   4.290  15.818  0.2054  0.7500 -0.3815
  687TMC3    C610161   1.588   4.340  15.860  0.6282 -0.1922  0.4752
  687TMC3     C10162   1.715   4.364  15.469  0.1357 -0.2473 -0.0950
  687TMC3     O10163   1.638   4.333  15.379 -0.4554  0.5486 -0.0492
  687TMC3     H10164   1.459   4.385  15.549 -0.6477  0.3894  0.7399
  687TMC3    H110165   1.842   4.241  15.661  0.1506  0.7382  0.5058
  687TMC3    H210166   1.572   4.339  15.967 -0.1726  0.5660  0.3658
  687TMC3    C710167   1.824   4.323  15.911  0.8286  0.1801  0.4044
  687TMC3    C810168   1.404   4.467  15.809 -0.2195  0.1192  0.9028
  687TMC3    O110169   1.793   4.387  16.012 -0.4420 -0.0564 -0.2667
  687TMC3    O210170   1.403   4.487  15.928  0.2008 -0.5585  0.3355
  688MPD2     C10171   0.779   3.797  17.321  0.1456 -0.3855  0.0723
  688MPD2    C110172   0.777   3.659  17.322 -0.2368 -0.2036  1.1006
  688MPD2    C210173   0.880   3.596  17.256  0.1451 -0.1400 -0.4077
  688MPD2    C310174   0.985   3.668  17.201  0.5007 -0.1976  0.1302
  688MPD2    C410175   0.993   3.799  17.225  0.6137  1.0971 -0.5333
  688MPD2    C510176   0.888   3.862  17.286  0.5862 -0.1871  0.3918
  688MPD2     H10177   0.885   3.487  17.259 -1.0583 -0.1574  1.0906
  688MPD2    H110178   1.081   3.860  17.203  1.1772  0.4517 -0.0658
  688MPD2    H210179   0.691   3.849  17.358 -1.1621 -2.2806 -0.3428
  688MPD2    H310180   0.896   3.968  17.306 -1.1301  0.3248 -1.6889
  688MPD2     N10181   1.090   3.610  17.134  0.4909  0.2071 -0.2144
  688MPD2    H510182   1.160   3.682  17.119  0.6766  0.1127  0.1954
  688MPD2    N110183   0.667   3.578  17.364 -0.0907 -0.0612  0.2541
  688MPD2    H710184   0.676   3.479  17.344 -2.7067 -0.3703  0.6068
  689TMC3    C110185   0.445   3.528  17.432 -0.1370 -0.3249 -0.2798
  689TMC3    C210186   0.340   3.563  17.513 -0.3269  0.4682  0.9829
  689TMC3    C310187   0.244   3.480  17.540  0.1926  0.5138 -0.3396
  689TMC3    C410188   0.442   3.400  17.380 -0.3071  0.3499 -0.1131
  689TMC3    C510189   0.342   3.319  17.403  0.0787  0.1347  0.0996
  689TMC3    C610190   0.235   3.355  17.482 -0.2329 -0.0548 -0.2768
  689TMC3     C10191   0.554   3.627  17.413 -0.0300  0.5103 -0.7260
  689TMC3     O10192   0.533   3.732  17.469  0.3699  0.0481  0.0161
  689TMC3     H10193   0.332   3.654  17.571 -1.1295  0.1771  1.3363
  689TMC3    H110194   0.523   3.363  17.318  1.9434 -0.7044  3.4597
  689TMC3    H210195   0.157   3.284  17.506  0.9813 -0.6697  1.8640
  689TMC3    C710196   0.342   3.186  17.355 -0.1038  0.0507 -0.0611
  689TMC3    C810197   0.179   3.498  17.668  0.0413  0.2878  0.0078
  689TMC3    O110198   0.240   3.119  17.381 -0.4869 -0.3249 -0.0048
  689TMC3    O210199   0.219   3.573   0.072  0.7093 -0.5739  0.1904
  690MPD2     C10200   2.639   0.893  15.417 -0.5399 -0.3966 -0.2700
  690MPD2    C110201   2.738   0.804  15.466 -0.2498  0.7204  0.1431
  690MPD2    C210202   2.859   0.809  15.406 -0.8710  0.2153 -0.0159
  690MPD2    C310203   2.883   0.892  15.294  0.0634 -0.2610  0.2253
  690MPD2    C410204   2.786   0.965  15.240  1.0117  0.0559  0.5505
  690MPD2    C510205   2.666   0.973  15.308  0.0725 -0.4490  0.0766
  690MPD2     H10206   2.943   0.754  15.447 -1.9714 -1.3252  0.1705
  690MPD2    H110207   2.807   1.043  15.167  1.2293  0.3156  0.8903
  690MPD2    H210208   2.540   0.900  15.460 -0.3326  2.9782 -0.3248
  690MPD2    H310209   2.600   1.055  15.280  0.5096 -0.0590  0.1941
  690MPD2     N10210   3.015   0.881  15.247 -0.0126 -0.5343  0.3744
  690MPD2    H510211   3.082   0.827  15.300  0.9065  1.2898  1.0615
  690MPD2    N110212   2.731   0.713  15.578  0.1977 -0.4573 -1.2240
  690MPD2    H710213   2.812   0.658  15.605  1.1643  0.7883 -1.5562
  691TMC3    C110214   2.615   0.566  15.709 -0.6345  0.3697  0.5427
  691TMC3    C210215   2.501   0.542  15.781 -0.2802  0.2878  0.3116
  691TMC3    C310216   2.479   0.412  15.826 -0.0148  0.2801  0.5377
  691TMC3    C410217   2.710   0.474  15.686 -0.6040 -0.0503 -0.0355
  691TMC3    C510218   2.681   0.347  15.722 -0.3462  1.1021 -0.6593
  691TMC3    C610219   2.568   0.320  15.793 -0.4845  0.4310 -0.4047
  691TMC3     C10220   2.608   0.685  15.627 -0.2582  0.2771  0.5352
  691TMC3     O10221   2.501   0.747  15.626  0.0409  0.7348 -0.2733
  691TMC3     H10222   2.439   0.627  15.808  0.6878  1.1892 -0.3358
  691TMC3    H110223   2.797   0.491  15.623  0.9541 -1.9859  1.5962
  691TMC3    H210224   2.558   0.219  15.831 -1.3269  0.6848  0.0569
  691TMC3    C710225   2.762   0.240  15.666  0.3637  0.2319 -0.5053
  691TMC3    C810226   2.349   0.374  15.872  0.0082  0.1027 -0.1395
  691TMC3    O110227   2.876   0.278  15.641  0.1503 -0.1562 -0.3461
  691TMC3    O210228   2.336   0.255  15.901 -0.4500  0.2091 -0.3880
  692TMC3    C110229   4.514   1.922  15.750  0.1430  0.0152 -0.3246
  692TMC3    C210230   4.650   1.941  15.769  0.3019  0.4532 -0.2229
  692TMC3    C310231   0.023   1.836  15.770 -0.5304 -0.7588 -0.5923
  692TMC3    C410232   4.472   1.798  15.733 -0.4040  0.6756 -0.4236
  692TMC3    C510233   4.559   1.697  15.755 -0.0999 -0.4272 -0.4771
  692TMC3    C610234   4.692   1.715  15.790 -0.8493 -0.1077  0.9135
  692TMC3     C10235   4.424   1.996  15.835  0.3495 -1.0411 -0.0798
  692TMC3     O10236   4.326   1.934  15.873  0.4107 -0.1224 -0.0100
  692TMC3     H10237   4.677   2.036  15.813  0.1968 -0.0077  0.8584
  692TMC3    H110238   4.365   1.779  15.723 -0.1970 -0.8646  0.2034
  692TMC3    H210239   0.037   1.628  15.791 -0.5439  0.1040 -0.3405
  692TMC3    C710240   4.496   1.569  15.760  0.3491 -0.1084  0.4524
  692TMC3    C810241   0.130   1.884  15.863  0.2927  0.4850  0.0265
  692TMC3    O110242   4.391   1.553  15.696 -0.1623 -0.1184  0.2493
  692TMC3    O210243   0.181   1.994  15.831  0.7242 -0.4117 -0.5474
  693MPD2     C10244   4.149   4.524  10.732  0.1633  0.0255  0.4835
  693MPD2    C110245   4.173   4.411  10.811  0.5395  0.2597  1.2010
  693MPD2    C210246   4.301   4.359  10.815  0.1398 -0.0841 -0.0622
  693MPD2    C310247   4.398   4.397  10.725 -0.0362 -0.3221  0.1384
  693MPD2    C410248   4.380   4.496  10.637  0.5409  0.3424 -0.4551
  693MPD2    C510249   4.252   4.560  10.644 -0.4144 -0.6213  0.7141
  693MPD2     H10250   4.323   4.278  10.882 -2.0788 -0.2477  0.4701
  693MPD2    H110251   4.452   4.529  10.562 -0.5177 -0.6686 -1.8996
  693MPD2    H210252   4.054   4.574  10.721 -0.0522 -0.0556  1.9392
  693MPD2    H310253   4.234   4.651  10.589  0.2625  0.1895  1.8335
  693MPD2     N10254   4.531   4.335  10.718 -0.2879  0.3617 -0.0270
  693MPD2    H510255   4.590   4.352  10.637 -0.0505  0.2431  0.1213
  693MPD2    N110256   4.067   4.355  10.889  0.6773  0.1562  0.0173
  693MPD2    H710257   3.972   4.369  10.855  1.3914 -0.8860 -2.3420
  694TMC3    C110258   3.979   4.192  11.044 -0.9051 -0.9751  0.2321
  694TMC3    C210259   3.960   4.091  10.952  0.3742 -0.4025  0.6804
  694TMC3    C310260   3.908   3.969  10.998  0.4219 -0.0252  0.2348
  694TMC3    C410261   3.986   4.161  11.179 -0.6068 -0.5649  0.5164
  694TMC3    C510262   3.942   4.037  11.221  0.3824 -0.1439  0.5267
  694TMC3    C610263   3.901   3.944  11.132  0.6428  0.2878  0.6855
  694TMC3     C10264   4.086   4.282  11.007  0.7454 -0.0292 -0.0757
  694TMC3     O10265   4.178   4.297  11.090 -1.2335 -0.5982 -0.1873
  694TMC3     H10266   3.966   4.112  10.846 -1.4795 -2.9229  0.0764
  694TMC3    H110267   4.006   4.245  11.245 -1.4360  0.3347 -0.3588
  694TMC3    H210268   3.864   3.848  11.166  2.6880 -0.2458  1.4417
  694TMC3    C710269   3.913   4.011  11.361 -0.4709 -0.4551  0.3091
  694TMC3    C810270   3.876   3.862  10.900  0.3874 -0.1688  0.2539
  694TMC3    O110271   4.002   4.042  11.439 -0.2581  0.1553 -0.0041
  694TMC3    O210272   3.815   3.772  10.951  1.1016  0.2965  0.0243
  695MPD2     C10273   0.493   0.913  13.282  0.4878  0.3728  0.4977
  695MPD2    C110274   0.441   0.965  13.394  0.1354  0.0244  0.1379
  695MPD2    C210275   0.308   0.965  13.401 -0.7575 -0.4232  0.4615
  695MPD2    C310276   0.223   0.909  13.308  0.2234  0.1941 -0.1213
  695MPD2    C410277   0.280   0.860  13.197 -0.6343 -0.1104  0.8999
  695MPD2    C510278   0.413   0.862  13.186 -0.0591  0.4916  0.0341
  695MPD2     H10279   0.269   1.017  13.488 -2.0716 -0.9891  0.2160
  695MPD2    H110280   0.228   0.816  13.113 -0.0194  1.6330 -0.3817
  695MPD2    H210281   0.599   0.901  13.259 -0.4470 -1.0979 -3.0372
  695MPD2    H310282   0.463   0.819  13.101  3.5481  1.0687  1.8349
  695MPD2     N10283   0.082   0.913  13.329 -0.3776 -0.6561 -0.5466
  695MPD2    H510284   0.039   0.949  13.413 -2.3660 -0.3091 -1.7119
  695MPD2    N110285   0.510   1.017  13.509  0.2572  0.4583 -0.1365
  695MPD2    H710286   0.465   1.056  13.592 -0.5789  0.3190 -0.5244
  696TMC3    C110287   4.576   0.901  13.283 -0.2635  0.1084  0.4320
  696TMC3    C210288   4.565   0.900  13.417 -0.4549  0.8096 -0.1897
  696TMC3    C310289   4.460   0.967  13.467 -0.7171  1.0822 -1.3343
  696TMC3    C410290   4.495   0.973  13.203 -0.1297 -0.0382 -0.0907
  696TMC3    C510291   4.396   1.046  13.259  0.2900  0.9305  0.6393
  696TMC3    C610292   4.370   1.043  13.394 -0.4877  0.2161 -0.7468
  696TMC3     C10293   4.711   0.879  13.231 -0.3246 -0.0499  0.1376
  696TMC3     O10294   0.005   0.859  13.111 -0.4248 -0.8931 -0.1648
  696TMC3     H10295   4.628   0.834  13.476 -0.6104 -1.5243 -2.6498
  696TMC3    H110296   4.526   0.974  13.099 -1.9168  2.3899 -0.5789
  696TMC3    H210297   4.286   1.098  13.435  0.4337  1.0471  0.0198
  696TMC3    C710298   4.343   1.145  13.178  0.1050  0.3661  0.1601
  696TMC3    C810299   4.437   0.983  13.609 -0.2889 -0.1622 -0.0342
  696TMC3    O110300   4.343   1.125  13.060  0.9571 -0.5976 -0.0698
  696TMC3    O210301   4.437   0.879  13.671  0.1814 -0.5513 -0.0195
  697MPD2     C10302   4.251   3.448  15.650 -0.2302  0.2751 -0.3584
  697MPD2    C110303   4.318   3.377  15.552 -0.8860  0.0708  0.3239
  697MPD2    C210304   4.404   3.446  15.465 -0.0798 -0.5095 -1.2677
  697MPD2    C310305   4.448   3.573  15.493  1.3736 -0.1517  0.4689
  697MPD2    C410306   4.394   3.642  15.605  0.3410 -0.2551 -1.0108
  697MPD2    C510307   4.294   3.579  15.679  0.0880 -0.0012  0.1244
  697MPD2     H10308   4.454   3.393  15.385  0.5607 -0.6240 -0.7891
  697MPD2    H110309   4.421   3.742  15.636  1.7064 -0.6258 -0.9796
  697MPD2    H210310   4.195   3.394  15.726 -0.3957  0.5199 -0.3062
  697MPD2    H310311   4.267   3.642  15.764 -1.1290  1.6039 -1.4549
  697MPD2     N10312   4.543   3.638  15.410  0.1393 -0.0997 -0.9019
  697MPD2    H510313   4.572   3.591  15.325 -0.1339 -2.0556  0.0908
  697MPD2    N110314   4.312   3.238  15.541  0.1998  0.1226  0.5397
  697MPD2    H710315   4.342   3.196  15.453 -0.0704  1.4138 -0.1731
  698TMC3    C110316   4.703   3.784  15.328 -0.4702 -1.0589 -0.1904
  698TMC3    C210317   0.092   3.849  15.364 -0.1126  0.5654 -0.8476
  698TMC3    C310318   0.181   3.883  15.267 -0.0838 -0.6093 -0.0906
  698TMC3    C410319   4.671   3.746  15.203  0.1646  0.6541 -0.6483
  698TMC3    C510320   0.046   3.776  15.108  0.0710  1.0233  0.1526
  698TMC3    C610321   0.159   3.840  15.145 -0.2851  0.0582 -0.2710
  698TMC3     C10322   4.621   3.750  15.442 -0.1734  0.2850 -0.3264
  698TMC3     O10323   4.624   3.818  15.544  0.0357  0.0152  0.5512
  698TMC3     H10324   0.119   3.873  15.466  0.0946 -1.0469 -0.5121
  698TMC3    H110325   4.575   3.711  15.167 -0.9357  2.1176  0.8508
  698TMC3    H210326   0.244   3.852  15.079 -0.0383 -3.5051 -0.6174
  698TMC3    C710327   0.043   3.707  14.979  0.2826  0.1828  0.4179
  698TMC3    C810328   0.301   3.951  15.309  0.6393 -0.3057 -0.0661
  698TMC3    O110329   4.652   3.668  14.956  0.1039 -0.7715 -0.1830
  698TMC3    O210330   0.346   3.920  15.420 -0.0172  0.0724  0.1647
  699TMC3    C110331   4.327   1.075  12.758 -0.3279 -0.4697  0.0121
  699TMC3    C210332   4.351   0.953  12.803  1.0911  0.1538  0.5751
  699TMC3    C310333   4.260   0.894  12.879 -0.2242  0.1920 -0.4416
  699TMC3    C410334   4.201   1.133  12.773 -0.0511  0.2254  0.3755
  699TMC3    C510335   4.111   1.072  12.858 -0.0480  0.0567 -0.2944
  699TMC3    C610336   4.137   0.950  12.916  0.1038  0.3832 -0.1425
  699TMC3     C10337   4.422   1.163  12.706  0.4510  0.3275  0.0066
  699TMC3     O10338   4.382   1.268  12.659  0.0034 -0.1564  0.6817
  699TMC3     H10339   4.443   0.903  12.775  0.1603 -0.2415 -1.7546
  699TMC3    H110340   4.187   1.235  12.740 -0.7335  0.0007 -0.0160
  699TMC3    H210341   4.077   0.886  12.979  1.1100 -0.0847  0.3365
  699TMC3    C710342   3.990   1.143  12.898  0.8205  0.5745  0.4589
  699TMC3    C810343   4.302   0.791  12.976 -1.0268  0.3126 -0.5623
  699TMC3    O110344   3.943   1.118  13.012  0.5921  0.3449 -0.1484
  699TMC3    O210345   4.230   0.767  13.068 -0.4198  0.1799  0.0169
  700TMC3    C110346   3.239   3.924  17.292  0.1792  0.0078  0.4078
  700TMC3    C210347   3.273   3.796  17.260  0.9453  0.7056  0.7536
  700TMC3    C310348   3.362   3.729  17.341  0.1852 -0.3958  0.1715
  700TMC3    C410349   3.299   3.984  17.396  0.1246  0.2006 -0.1370
  700TMC3    C510350   3.376   3.909  17.480  0.5164 -0.4854  0.3515
  700TMC3    C610351   3.422   3.788  17.447  0.3251 -0.4231  0.0295
  700TMC3     C10352   3.189   4.014  17.186  0.6040 -0.8933 -0.3076
  700TMC3     O10353   3.078   3.998  17.142  0.2686  0.3551 -0.5271
  700TMC3     H10354   3.240   3.757  17.164 -1.3247 -1.0909  2.2838
  700TMC3    H110355   3.281   4.089  17.414  2.3958  0.9239 -2.1380
  700TMC3    H210356   3.496   3.731  17.502  0.1858 -0.2792  0.3698
  700TMC3    C710357   3.461   3.989  17.566  0.3778  0.3965 -0.7384
  700TMC3    C810358   3.439   3.626  17.283 -0.2145 -0.2750  0.6355
  700TMC3    O110359   3.469   4.108  17.550 -0.2399  0.2980  0.3366
  700TMC3    O210360   3.557   3.615  17.314  0.3580  0.6210 -0.3288
  701TMC3    C110361   3.720   2.575  15.577 -0.7967 -0.0316  0.2683
  701TMC3    C210362   3.762   2.609  15.452  0.1370 -0.4347  0.0896
  701TMC3    C310363   3.808   2.738  15.440 -0.0717  0.8038  0.9966
  701TMC3    C410364   3.718   2.653  15.689 -0.1517 -0.2540 -0.2585
  701TMC3    C510365   3.768   2.782  15.675  0.2151 -0.6517 -0.4585
  701TMC3    C610366   3.819   2.815  15.549 -0.3243 -0.1713  0.0359
  701TMC3     C10367   3.669   2.437  15.591 -0.5819  0.7795 -0.2771
  701TMC3     O10368   3.581   2.412  15.668  0.1346  0.2146  0.0516
  701TMC3     H10369   3.748   2.541  15.370 -0.3560  0.5156 -0.6151
  701TMC3    H110370   3.661   2.627  15.777  0.4155 -0.6844 -0.0140
  701TMC3    H210371   3.866   2.912  15.536 -1.2051  0.8796  4.8320
  701TMC3    C710372   3.746   2.895  15.772  0.9812  1.1475 -0.0412
  701TMC3    C810373   3.824   2.788  15.301 -0.3646 -0.6437  0.1598
  701TMC3    O110374   3.766   3.006  15.733 -0.0836 -1.0872  0.1596
  701TMC3    O210375   3.933   2.815  15.263 -0.4730  0.7390  0.8693
  702MPD2     C10376   3.342   4.642  10.504 -0.2239 -0.5552 -0.6569
  702MPD2    C110377   3.270   0.023  10.538  0.4025  0.1076  0.3219
  702MPD2    C210378   3.277   0.145  10.479 -0.8915 -0.1780 -0.4416
  702MPD2    C310379   3.392   0.171  10.401 -0.5689 -0.4508 -0.1943
  702MPD2    C410380   3.457   0.064  10.355  0.0045  0.6773 -0.2139
  702MPD2    C510381   3.425   4.657  10.397 -0.1609  0.0807 -0.5467
  702MPD2     H10382   3.207   0.223  10.506  0.2767  0.2965  1.1667
  702MPD2    H110383   3.526   0.077  10.272 -0.0465  0.5707 -0.2723
  702MPD2    H210384   3.314   4.544  10.541  0.7835 -0.3943  0.5430
  702MPD2    H310385   3.477   4.570  10.358 -0.1222 -0.9752  1.8831
  702MPD2     N10386   3.439   0.299  10.367 -0.3435 -0.1810  0.0945
  702MPD2    H510387   3.510   0.305  10.294  0.6820 -2.6030  0.8936
  702MPD2    N110388   3.168   0.014  10.636 -0.0365  0.0940 -0.2551
  702MPD2    H710389   3.111   0.096  10.655  0.4900  0.6834 -1.2306
  703TMC3    C110390   3.441   0.531  10.376 -0.8190 -0.8167  0.2972
  703TMC3    C210391   3.386   0.646  10.422  0.1752 -0.5536 -0.4154
  703TMC3    C310392   3.435   0.763  10.368 -0.1871  0.2443  0.2637
  703TMC3    C410393   3.554   0.538  10.292 -0.3340  0.1030  0.4836
  703TMC3    C510394   3.603   0.657  10.249 -0.2665  0.1292 -0.8271
  703TMC3    C610395   3.542   0.774  10.282  0.1330  0.3184  0.2162
  703TMC3     C10396   3.390   0.410  10.430  0.5379 -0.2471 -0.4487
  703TMC3     O10397   3.315   0.422  10.527  0.3354  0.0461  0.3507
  703TMC3     H10398   3.309   0.647  10.498 -0.7529 -2.9360 -1.3107
  703TMC3    H110399   3.599   0.445  10.257 -2.3317 -1.3645  1.8019
  703TMC3    H210400   3.573   0.871  10.245  0.7429 -0.5488 -1.5057
  703TMC3    C710401   3.746   0.677  10.241  0.0791  0.3763  0.4586
  703TMC3    C810402   3.346   0.876  10.370 -0.1008  0.3210 -0.7283
  703TMC3    O110403   3.779   0.776  10.182  0.2821  0.2713 -1.0161
  703TMC3    O210404   3.396   0.981  10.340 -0.5372  0.2432  0.8331
  704TMC3    C110405   0.510   3.130  11.805 -0.1274  0.2627 -0.0914
  704TMC3    C210406   0.602   3.213  11.858 -0.3667 -0.2761 -0.0436
  704TMC3    C310407   0.641   3.177  11.978 -0.2690 -0.1800 -0.2066
  704TMC3    C410408   0.468   3.014  11.865  0.8417  0.6434 -0.0017
  704TMC3    C510409   0.525   2.974  11.983 -0.4245 -0.4139  0.3252
  704TMC3    C610410   0.617   3.057  12.036 -1.0280 -0.5768  0.8618
  704TMC3     C10411   0.438   3.163  11.680  0.1175  0.3521 -0.3158
  704TMC3     O10412   0.330   3.113  11.660  0.5976 -0.2236  0.0776
  704TMC3     H10413   0.628   3.312  11.822 -1.7614 -0.1213 -0.6520
  704TMC3    H110414   0.387   2.960  11.819  0.2277 -0.8123  2.7838
  704TMC3    H210415   0.657   3.031  12.133 -0.3483 -0.9919  0.4697
  704TMC3    C710416   0.578   2.838  11.978  0.7693 -0.7224  0.1364
  704TMC3    C810417   0.766   3.243  12.014  0.2046  0.7374  0.4902
  704TMC3    O110418   0.657   2.794  12.061  0.7467 -0.0347  0.5148
  704TMC3    O210419   0.827   3.299  11.926 -0.5640 -0.1231  0.4290
  705MPD2     C10420   0.272   1.439  16.578 -0.0250 -0.3600  0.2590
  705MPD2    C110421   0.192   1.413  16.464  0.0194 -0.1314  0.1889
  705MPD2    C210422   0.058   1.398  16.499  0.3728  0.5773 -0.0657
  705MPD2    C310423   4.719   1.413  16.626  0.2288  0.8498  0.0931
  705MPD2    C410424   0.090   1.437  16.723  0.4102 -0.9232 -0.0472
  705MPD2    C510425   0.224   1.444  16.702  0.1713 -0.4266  0.0549
  705MPD2     H10426   4.714   1.359  16.422  1.1617 -1.7329  0.4472
  705MPD2    H110427   0.049   1.447  16.823 -0.9489 -3.3611 -0.3534
  705MPD2    H210428   0.377   1.466  16.566 -0.7653  2.1505 -0.6433
  705MPD2    H310429   0.289   1.485  16.778  0.6443  1.4413 -1.3643
  705MPD2     N10430   4.577   1.408  16.651  0.1701  0.7492  0.3371
  705MPD2    H510431   4.546   1.415  16.748 -0.5786  3.1387 -0.0696
  705MPD2    N110432   0.238   1.403  16.336 -0.3918  0.3749 -0.0552
  705MPD2    H710433   0.164   1.387  16.269 -2.3966  0.4398  2.1609
  706TMC3    C110434   0.426   1.329  15.961  0.5580  0.4156 -0.1447
  706TMC3    C210435   0.441   1.447  15.889 -0.4745  0.2523  0.5104
  706TMC3    C310436   0.435   1.557  15.960 -0.2867  0.1821  0.5924
  706TMC3    C410437   0.396   1.336  16.092  0.2844 -0.8943  0.0162
  706TMC3    C510438   0.385   1.453  16.157 -0.4459 -0.7237  0.4376
  706TMC3    C610439   0.426   1.568  16.092 -0.6068 -0.0676 -0.4452
  706TMC3     C10440   0.450   1.199  15.902 -0.0281 -0.0549 -0.3157
  706TMC3     O10441   0.425   1.104  15.971  0.0651 -0.3084 -0.2563
  706TMC3     H10442   0.466   1.458  15.784 -0.4014 -1.9760  0.2969
  706TMC3    H110443   0.374   1.242  16.142 -1.4803 -0.0362  0.8539
  706TMC3    H210444   0.398   1.664  16.135  1.4996 -1.0026  3.0007
  706TMC3    C710445   0.366   1.444  16.300  0.1555 -0.3594  0.1310
  706TMC3    C810446   0.470   1.679  15.884  0.4023  0.3350 -0.3132
  706TMC3    O110447   0.440   1.518  16.363  0.1038 -0.0062  0.2057
  706TMC3    O210448   0.441   1.687  15.765 -0.0372  0.4894  0.1987
  707TMC3    C110449   1.828   0.546   0.932 -0.8852 -0.3563  0.0399
  707TMC3    C210450   1.914   0.631   0.987  0.7100  0.9350  0.2944
  707TMC3    C310451   1.928   0.762   0.945 -0.0063  0.7198 -0.4659
  707TMC3    C410452   1.741   0.601   0.836  0.3144  0.6475 -0.1318
  707TMC3    C510453   1.745   0.732   0.805  0.3765 -0.8432  0.0693
  707TMC3    C610454   1.841   0.818   0.855 -0.5789 -0.1633 -0.7258
  707TMC3     C10455   1.871   0.414   0.921  0.3562  0.2922  0.1788
  707TMC3     O10456   1.986   0.394   0.956 -0.7765 -0.0942 -1.2831
  707TMC3     H10457   1.960   0.588   1.075  0.4297 -2.8754 -1.3732
  707TMC3    H110458   1.676   0.536   0.779 -2.4491  1.6950  1.8402
  707TMC3    H210459   1.852   0.920   0.819 -1.5147 -0.1149 -0.8699
  707TMC3    C710460   1.672   0.784   0.693  0.2971 -0.2733  0.2550
  707TMC3    C810461   2.068   0.811   0.946 -0.5260 -0.3319 -0.1101
  707TMC3    O110462   1.596   0.704   0.639 -0.2544 -0.8010  0.1192
  707TMC3    O210463   2.105   0.919   0.905 -0.0725  0.1583  0.1919
  708MPD2     C10464   3.966   4.020  13.832 -0.6409  0.1676 -0.0549
  708MPD2    C110465   3.907   4.131  13.771 -0.0092 -0.4855 -0.1858
  708MPD2    C210466   3.780   4.173  13.818  0.2847  0.8778 -0.2114
  708MPD2    C310467   3.720   4.107  13.925  0.0684  0.5235 -0.3176
  708MPD2    C410468   3.771   3.985  13.971  0.1977  0.1391 -0.7207
  708MPD2    C510469   3.896   3.946  13.925  0.2952  1.0468 -0.0712
  708MPD2     H10470   3.737   4.267  13.786  0.9449  1.2079 -0.1384
  708MPD2    H110471   3.732   3.935  14.059 -1.1708 -0.1072 -1.4791
  708MPD2    H210472   4.062   3.977  13.805 -0.5187 -0.0003  0.6500
  708MPD2    H310473   3.943   3.860  13.971  0.6739  0.3429 -1.7575
  708MPD2     N10474   3.593   4.162  13.965  0.0047  0.5786  0.4041
  708MPD2    H510475   3.573   4.256  13.932  0.1242 -0.0269 -1.4215
  708MPD2    N110476   3.982   4.201  13.666 -0.2113  0.0484  0.4867
  708MPD2    H710477   4.066   4.153  13.634  0.3066  1.8985 -0.8651
  709TMC3    C110478   4.038   4.376  13.511  0.4172  0.3421  0.1840
  709TMC3    C210479   4.042   4.303  13.403 -0.1092  0.5290  0.4283
  709TMC3    C310480   4.007   4.364  13.290 -0.2365 -0.2092 -0.4627
  709TMC3    C410481   4.013   4.508  13.505 -0.3650 -1.1230  0.4327
  709TMC3    C510482   3.978   4.570  13.388 -0.1206 -0.4094  0.5040
  709TMC3    C610483   3.980   4.503  13.273  0.0709  0.4075  0.2542
  709TMC3     C10484   3.952   4.324  13.622  1.0364  0.0137 -0.0197
  709TMC3     O10485   3.880   4.409  13.675  0.1047  0.0130  0.4051
  709TMC3     H10486   4.050   4.195  13.409  1.8675  0.5238 -2.5380
  709TMC3    H110487   4.024   4.569  13.594  0.2105  1.1754 -1.2006
  709TMC3    H210488   3.964   4.544  13.174  1.6464 -0.5062 -0.3889
  709TMC3    C710489   3.871   4.662  13.400  0.0540 -0.2428 -0.0543
  709TMC3    C810490   3.974   4.272  13.186 -0.4187  0.2634  0.1077
  709TMC3    O110491   3.825   4.686  13.289  0.1835 -0.3346 -0.2330
  709TMC3    O210492   4.039   4.168  13.178  0.2199 -0.8890  0.8112
  710TMC3    C110493   0.042   1.556   0.576  0.3087 -0.3149  0.1200
  710TMC3    C210494   0.136   1.567   0.472 -1.3746  0.3483  0.0297
  710TMC3    C310495   0.246   1.489   0.483  0.6238  0.0504  0.1210
  710TMC3    C410496   0.073   1.491   0.692 -0.0215 -0.0031  0.0617
  710TMC3    C510497   0.200   1.438   0.712 -0.6202  0.1577 -0.7860
  710TMC3    C610498   0.284   1.431   0.605  0.4369  0.1972 -0.4297
  710TMC3     C10499   4.632   1.603   0.543 -0.7405  0.1093 -0.0022
  710TMC3     O10500   4.608   1.637   0.428 -0.1685  0.3622 -0.0552
  710TMC3     H10501   0.108   1.617   0.380  0.2295  0.6848 -0.2792
  710TMC3    H110502   4.716   1.483   0.768 -0.0274  0.9673  0.1579
  710TMC3    H210503   0.363   1.357   0.610  1.0167  0.9961  2.0996
  710TMC3    C710504   0.203   1.338   0.816 -0.2570  0.3363 -0.6921
  710TMC3    C810505   0.282   1.437   0.351 -0.2581 -0.4964 -0.1586
  710TMC3    O110506   0.100   1.289   0.854  0.6045 -0.5596 -0.6355
  710TMC3    O210507   0.228   1.495   0.257  0.6575  0.7057  0.6127
  711TMC3    C110508   3.881   2.392  14.931  0.4819  0.0087  0.2695
  711TMC3    C210509   3.889   2.389  15.070  0.2514 -0.5081 -0.6374
  711TMC3    C310510   3.980   2.472  15.128  0.1809 -0.4296  0.1614
  711TMC3    C410511   3.983   2.452  14.858 -0.3406  0.8126  0.2408
  711TMC3    C510512   4.089   2.509  14.926 -1.1745 -0.3068 -0.2169
  711TMC3    C610513   4.077   2.538  15.058  0.4590  0.0969  0.2441
  711TMC3     C10514   3.815   2.283  14.860  0.0915  0.0682  0.4730
  711TMC3     O10515   3.874   2.241  14.760 -0.0796 -0.0495  0.0055
  711TMC3     H10516   3.822   2.333  15.135  0.7139  1.7876  1.8305
  711TMC3    H110517   3.972   2.455  14.750 -1.8235  0.6962  0.3883
  711TMC3    H210518   4.155   2.601  15.099  0.9105 -0.1445 -0.2483
  711TMC3    C710519   4.217   2.448  14.898  0.7509  0.2790 -0.1514
  711TMC3    C810520   4.031   2.417  15.249  0.5191 -0.0083 -0.3616
  711TMC3    O110521   4.300   2.474  14.986  0.2624  0.2219 -0.0605
  711TMC3    O210522   3.958   2.375  15.336 -0.1745  0.1691 -0.3144
  712MPD2     C10523   0.848   3.594  14.208  0.0126  0.1994  0.5680
  712MPD2    C110524   0.757   3.623  14.107  0.5164 -0.0787 -0.5140
  712MPD2    C210525   0.800   3.706  14.006  0.1956  0.9605  0.1916
  712MPD2    C310526   0.923   3.766  14.005  0.2753  0.7003  0.7469
  712MPD2    C410527   1.018   3.731  14.099 -0.6957  0.0732  0.1181
  712MPD2    C510528   0.980   3.649  14.201  0.0330 -0.2809 -0.2322
  712MPD2     H10529   0.729   3.731  13.928 -1.0051  2.9608  1.9169
  712MPD2    H110530   1.119   3.770  14.108 -0.7682  0.0534  0.9658
  712MPD2    H210531   0.816   3.542  14.298 -1.1945  1.8179  1.1005
  712MPD2    H310532   1.054   3.618  14.274 -1.7603 -2.8575  0.4865
  712MPD2     N10533   0.966   3.840  13.892 -0.0717  0.6922 -0.4175
  712MPD2    H510534   1.065   3.861  13.881  0.2173 -0.9378 -0.9576
  712MPD2    N110535   0.624   3.578  14.100  0.0253 -0.4042 -0.5944
  712MPD2    H710536   0.560   3.611  14.029  0.1794 -1.0348 -1.0222
  713TMC3    C110537   0.952   4.027  13.752  0.0815  0.1832  0.0328
  713TMC3    C210538   1.077   4.024  13.699  0.5737  0.1824 -0.2602
  713TMC3    C310539   1.122   4.131  13.628 -0.2997  0.2327  0.3170
  713TMC3    C410540   0.871   4.136  13.735 -0.0301 -0.0225 -0.2066
  713TMC3    C510541   0.920   4.242  13.665  0.0654 -0.0785  0.4155
  713TMC3    C610542   1.047   4.243  13.621 -0.0768 -0.0424 -0.2504
  713TMC3     C10543   0.889   3.906  13.800 -0.3791  0.4724 -0.3986
  713TMC3     O10544   0.768   3.895  13.776 -0.5889 -0.2392  0.7120
  713TMC3     H10545   1.130   3.929  13.701  0.7618  0.2951  0.1547
  713TMC3    H110546   0.772   4.139  13.780  0.3002 -0.3456  0.5433
  713TMC3    H210547   1.089   4.330  13.572  0.7140 -1.1504 -1.5614
  713TMC3    C710548   0.842   4.363  13.651 -0.0783 -0.5903  0.6551
  713TMC3    C810549   1.260   4.152  13.600  0.2613  0.2238  0.3916
  713TMC3    O110550   0.901   4.470  13.635 -0.7729 -0.0553  0.5059
  713TMC3    O210551   1.288   4.237  13.516  0.0381  0.2928 -0.4259
  714MPD2     C10552   2.637   1.978   1.773 -0.2550 -0.1869  0.0124
  714MPD2    C110553   2.691   1.921   1.660  0.5708  0.2047  0.2762
  714MPD2    C210554   2.632   1.957   1.538 -0.8868 -0.6219  0.4085
  714MPD2    C310555   2.518   2.038   1.533  0.2661 -0.5623 -0.3675
  714MPD2    C410556   2.456   2.075   1.645  0.7353 -0.6573  0.6332
  714MPD2    C510557   2.511   2.045   1.766  0.2764 -0.3006 -0.4368
  714MPD2     H10558   2.673   1.928   1.442  1.5457  0.1510  1.2261
  714MPD2    H110559   2.363   2.131   1.640 -0.0139 -1.8427  1.0128
  714MPD2    H210560   2.682   1.967   1.871  1.2278 -2.2335 -0.8956
  714MPD2    H310561   2.467   2.075   1.860  1.4505 -1.3025  0.4131
  714MPD2     N10562   2.466   2.076   1.406  0.2996 -0.4171  0.1457
  714MPD2    H510563   2.529   2.062   1.328 -1.4469  0.4451 -1.4172
  714MPD2    N110564   2.816   1.855   1.673 -0.4261  0.2718 -0.7139
  714MPD2    H710565   2.855   1.850   1.767 -1.9010  0.9752 -0.0765
  715TMC3    C110566   3.012   1.746   1.578 -0.9304 -0.3294 -0.5785
  715TMC3    C210567   3.067   1.668   1.482  0.7664 -0.4624 -1.1990
  715TMC3    C310568   3.201   1.632   1.485  0.5026 -0.2309 -0.2544
  715TMC3    C410569   3.084   1.795   1.679  0.4218 -0.0840  0.0749
  715TMC3    C510570   3.214   1.752   1.683  0.0486 -0.4193 -0.2367
  715TMC3    C610571   3.275   1.668   1.589 -0.2659  0.0291 -0.5154
  715TMC3     C10572   2.877   1.788   1.564  0.6306 -0.5441 -0.9316
  715TMC3     O10573   2.835   1.765   1.450 -0.6842 -0.6807  0.2867
  715TMC3     H10574   3.015   1.638   1.391  1.1525 -1.7918 -0.9690
  715TMC3    H110575   3.053   1.876   1.744 -1.4776  1.2155 -2.4111
  715TMC3    H210576   3.380   1.643   1.590  0.3161  2.4352 -0.7142
  715TMC3    C710577   3.306   1.782   1.785 -0.1629 -0.4360 -0.9447
  715TMC3    C810578   3.240   1.521   1.400 -0.2619 -0.3483 -0.7180
  715TMC3    O110579   3.428   1.764   1.771  0.8435 -0.3752 -0.0707
  715TMC3    O210580   3.177   1.503   1.297  0.0097  0.0916 -0.2359
  716MPD2     C10581   3.762   0.576   9.439 -0.7750 -0.0675 -0.4296
  716MPD2    C110582   3.722   0.448   9.429 -0.3276  1.1762 -0.4138
  716MPD2    C210583   3.787   0.348   9.500 -0.3913  0.0174  0.3132
  716MPD2    C310584   3.909   0.379   9.555 -0.1376  0.2186  0.1394
  716MPD2    C410585   3.956   0.510   9.560  0.0901 -0.3489 -0.0434
  716MPD2    C510586   3.875   0.607   9.501  0.7119 -0.4695  0.4660
  716MPD2     H10587   3.749   0.246   9.494 -3.0423  1.0860 -1.3033
  716MPD2    H110588   4.044   0.547   9.611  0.4523  0.3210 -1.1348
  716MPD2    H210589   3.709   0.663   9.403 -1.4248  0.9135  2.9132
  716MPD2    H310590   3.909   0.709   9.518 -1.7392  0.4505 -0.1854
  716MPD2     N10591   3.970   0.274   9.623 -0.0271  0.2214  0.1150
  716MPD2    H510592   3.917   0.187   9.619  0.1524  0.0802  0.9986
  716MPD2    N110593   3.603   0.421   9.350 -0.8340  0.0893 -0.2667
  716MPD2    H710594   3.562   0.505   9.310 -1.2414 -0.1027 -0.2514
  717TMC3    C110595   4.113   0.181   9.776  0.2061 -0.3167 -0.2937
  717TMC3    C210596   4.016   0.102   9.822 -0.6081 -0.2407 -0.3842
  717TMC3    C310597   4.046   4.702   9.881 -0.4497  0.1560 -0.3748
  717TMC3    C410598   4.243   0.158   9.796 -0.1477  1.0324 -0.2229
  717TMC3    C510599   4.270   0.047   9.874  0.5253 -1.0437 -0.2886
  717TMC3    C610600   4.180   4.677   9.916  1.0089  0.0714  0.1278
  717TMC3     C10601   4.085   0.288   9.683 -0.3343  0.2938 -0.8215
  717TMC3     O10602   4.183   0.356   9.642  0.0671  0.4742  0.2303
  717TMC3     H10603   3.914   0.130   9.799 -1.2448 -1.4335  1.0449
  717TMC3    H110604   4.319   0.228   9.761 -0.5740  0.2309 -2.7202
  717TMC3    H210605   4.204   4.600   9.988 -0.4017 -1.1039 -0.6498
  717TMC3    C710606   4.408   0.045   9.909 -0.2472  0.1946 -0.2270
  717TMC3    C810607   3.945   4.602   9.895  0.8393  0.2541  0.5419
  717TMC3    O110608   4.477   0.146   9.899 -0.4270  0.0168 -0.6816
  717TMC3    O210609   3.831   4.645   9.878 -0.4562 -0.2882 -0.1575
  718MPD2     C10610   2.733   3.703  13.444 -0.5770  0.2986  0.1267
  718MPD2    C110611   2.714   3.700  13.307  0.7758 -0.5473  0.0231
  718MPD2    C210612   2.619   3.620  13.257 -0.0008 -0.0993 -0.0961
  718MPD2    C310613   2.520   3.563  13.336 -0.5692 -0.0584 -0.4809
  718MPD2    C410614   2.548   3.564  13.472  0.5562 -0.2125  0.1966
  718MPD2    C510615   2.654   3.625  13.527  0.4456 -0.1112 -0.8723
  718MPD2     H10616   2.608   3.618  13.150 -0.3585 -1.3935 -0.0298
  718MPD2    H110617   2.482   3.522  13.547 -1.0915  1.2541 -0.4033
  718MPD2    H210618   2.819   3.753  13.487 -0.3042 -0.9453  1.0262
  718MPD2    H310619   2.655   3.641  13.634 -0.3667  3.1568 -1.3449
  718MPD2     N10620   2.403   3.510  13.272 -0.7830 -0.2709 -0.3386
  718MPD2    H510621   2.383   3.530  13.175  0.4054 -1.6706 -0.8835
  718MPD2    N110622   2.785   3.790  13.225 -0.1957  0.6513  0.3177
  718MPD2    H710623   2.825   3.871  13.271  0.9978 -0.4175  1.1994
  719TMC3    C110624   2.776   3.913  13.030 -0.4395  0.1901 -0.9292
  719TMC3    C210625   2.678   3.990  13.081  0.2157  1.1251  0.1614
  719TMC3    C310626   2.613   4.081  13.001  0.8231  0.9458  0.0416
  719TMC3    C410627   2.824   3.917  12.900 -0.5340  0.0330  0.0511
  719TMC3    C510628   2.764   4.025  12.828 -0.7193 -0.1961 -0.5316
  719TMC3    C610629   2.659   4.107  12.874  0.0181  0.2860  0.3540
  719TMC3     C10630   2.788   3.781  13.089  0.0268 -0.1781  0.0584
  719TMC3     O10631   2.791   3.684  13.014  0.2557  0.1541  0.6398
  719TMC3     H10632   2.640   3.968  13.180 -1.0829 -1.0817 -0.8129
  719TMC3    H110633   2.903   3.853  12.863 -2.0435 -0.9597 -1.4417
  719TMC3    H210634   2.602   4.174  12.811  0.1173 -1.6367 -1.8244
  719TMC3    C710635   2.843   4.072  12.714  0.8240  0.2692  0.1752
  719TMC3    C810636   2.469   4.070  13.022 -0.6928 -0.1558  0.1848
  719TMC3    O110637   2.961   4.037  12.712  0.3657 -0.2824  0.0417
  719TMC3    O210638   2.434   4.050  13.139  0.0338 -0.5069 -0.4467
  720MPD2     C10639   0.877   0.465  13.863  0.2747  1.0021 -0.2260
  720MPD2    C110640   0.933   0.585  13.818  0.1320 -0.0394 -1.2080
  720MPD2    C210641   1.018   0.658  13.904 -1.5157 -0.0281  0.5912
  720MPD2    C310642   1.044   0.610  14.034 -0.0521 -0.2459  0.7422
  720MPD2    C410643   0.970   0.498  14.077 -0.6012  0.6433  0.3185
  720MPD2    C510644   0.894   0.427  13.990  0.1835 -0.3629  0.1920
  720MPD2     H10645   1.070   0.747  13.871 -1.8942  0.6419  1.7821
  720MPD2    H110646   0.984   0.449  14.173  0.9202  1.1476  0.3517
  720MPD2    H210647   0.796   0.418  13.808  1.6488 -0.2416 -1.1828
  720MPD2    H310648   0.849   0.341  14.037  1.1973 -0.6891  0.5683
  720MPD2     N10649   1.137   0.677  14.120 -0.1490 -0.2140 -0.4631
  720MPD2    H510650   1.206   0.743  14.086 -0.7243  1.1414  1.0177
  720MPD2    N110651   0.909   0.623  13.688 -0.7484  0.1381  0.1759
  720MPD2    H710652   0.880   0.550  13.624  1.8705 -1.3506  0.6744
  721TMC3    C110653   1.264   0.712  14.311 -0.3286  0.3172  0.5861
  721TMC3    C210654   1.271   0.694  14.449  0.1570 -0.2625 -0.0083
  721TMC3    C310655   1.389   0.731  14.507  0.5571  0.0166 -0.1109
  721TMC3    C410656   1.379   0.733  14.231  0.0177  0.2220 -0.0146
  721TMC3    C510657   1.499   0.735  14.297  0.3690 -0.8146  0.1665
  721TMC3    C610658   1.503   0.730  14.434  0.2670 -0.6715 -0.2367
  721TMC3     C10659   1.143   0.653  14.255 -0.1912 -0.3661  0.4109
  721TMC3     O10660   1.061   0.610  14.335  0.0008  0.1699  0.2977
  721TMC3     H10661   1.177   0.698  14.503 -0.5322 -1.7010 -1.0802
  721TMC3    H110662   1.382   0.747  14.123 -0.2835  1.4526  0.1374
  721TMC3    H210663   1.597   0.740  14.488  0.2493 -1.4154 -0.0581
  721TMC3    C710664   1.621   0.732  14.224  0.3120  0.1784 -0.0168
  721TMC3    C810665   1.407   0.733  14.649  0.1736 -0.5951 -0.0679
  721TMC3    O110666   1.616   0.796  14.119  0.4478 -0.4250  0.2531
  721TMC3    O210667   1.526   0.748  14.680 -0.0071 -0.3978 -0.4241
  722MPD2     C10668   4.512   3.777  13.377  0.1777 -0.0263  0.5798
  722MPD2    C110669   4.497   3.857  13.267  0.1389  0.1223 -0.7099
  722MPD2    C210670   4.391   3.826  13.175  0.4670  0.3172  0.5717
  722MPD2    C310671   4.302   3.723  13.201 -0.0537 -0.2788  0.6805
  722MPD2    C410672   4.307   3.662  13.321  0.6969 -0.1629 -0.0006
  722MPD2    C510673   4.410   3.691  13.410  0.4098 -0.2772 -0.3360
  722MPD2     H10674   4.379   3.883  13.083 -0.2042 -0.9064 -0.0983
  722MPD2    H110675   4.237   3.590  13.360  0.3394  0.2350  0.0927
  722MPD2    H210676   4.598   3.791  13.442 -0.6845  1.6726  1.3619
  722MPD2    H310677   4.423   3.624  13.494 -0.0262  0.7307  0.5319
  722MPD2     N10678   4.203   3.704  13.103  0.4599  0.3721  0.0475
  722MPD2    H510679   4.189   3.770  13.027  0.8819 -1.0035 -1.2018
  722MPD2    N110680   4.587   3.969  13.238 -0.4277  0.0771 -0.0914
  722MPD2    H710681   4.585   4.002  13.142 -0.6283  1.8721  0.5347
  723TMC3    C110682   4.033   3.595  12.982 -0.4792  0.2828  0.4111
  723TMC3    C210683   3.975   3.474  12.953  1.0269  0.2879 -0.4258
  723TMC3    C310684   3.899   3.470  12.835  0.0581  0.2259 -0.1192
  723TMC3    C410685   4.023   3.698  12.896 -0.0390  0.0273 -0.0855
  723TMC3    C510686   3.943   3.685  12.786 -0.0859  0.0135 -0.1130
  723TMC3    C610687   3.888   3.571  12.750  0.6547 -0.2085  0.6927
  723TMC3     C10688   4.122   3.594  13.095 -0.7044 -0.0696 -0.5215
  723TMC3     O10689   4.124   3.490  13.163  0.8031  0.1653  0.1859
  723TMC3     H10690   3.983   3.383  13.011 -3.3649 -0.3184 -0.7501
  723TMC3    H110691   4.062   3.795  12.923 -0.6128 -0.0047  0.8776
  723TMC3    H210692   3.843   3.555  12.654  0.9365  0.7525  0.4002
  723TMC3    C710693   3.973   3.787  12.689 -0.0698  0.2213 -0.3492
  723TMC3    C810694   3.826   3.349  12.812 -0.1558 -0.9193 -0.1323
  723TMC3    O110695   4.065   3.862  12.707  0.6766 -0.3420  0.0916
  723TMC3    O210696   3.820   3.303  12.699 -0.0908  0.1350  0.2071
  724TMC3    C110697   0.255   2.120   9.968  0.0477  0.2850  0.0526
  724TMC3    C210698   0.279   2.169  10.094 -0.1162 -0.9704  0.2465
  724TMC3    C310699   0.300   2.303  10.103  0.1283 -0.2609 -0.2593
  724TMC3    C410700   0.242   2.204   9.859  0.6395  0.7116  0.5447
  724TMC3    C510701   0.247   2.335   9.878  0.4574 -0.5016  0.2158
  724TMC3    C610702   0.275   2.393  10.000 -0.8217 -0.0845  0.0991
  724TMC3     C10703   0.298   1.984   9.935 -0.6892  0.4925  0.0911
  724TMC3     O10704   0.348   1.956   9.824 -0.3379  0.8290 -0.2284
  724TMC3     H10705   0.315   2.108  10.175  1.5460 -0.2685  0.0217
  724TMC3    H110706   0.246   2.162   9.759  0.1034  0.4803  0.6211
  724TMC3    H210707   0.273   2.500  10.018 -2.0673 -0.5116  2.5533
  724TMC3    C710708   0.205   2.415   9.764  0.0035  0.8308  0.0910
  724TMC3    C810709   0.343   2.352  10.230  0.2615  0.4576 -0.2070
  724TMC3    O110710   0.250   2.530   9.754  0.3413 -0.2163  0.3732
  724TMC3    O210711   0.298   2.297  10.326  0.2937  0.0762 -0.9385
  725TMC3    C110712   1.831   0.823  12.505 -0.2973  0.4135 -0.0606
  725TMC3    C210713   1.803   0.874  12.381  0.2207  0.4198  0.4258
  725TMC3    C310714   1.801   0.790  12.272  0.3126  0.5891  0.4043
  725TMC3    C410715   1.865   0.690  12.521  0.0301 -0.6991  0.4318
  725TMC3    C510716   1.865   0.607  12.416  0.3619 -0.1388 -0.4934
  725TMC3    C610717   1.835   0.654  12.292 -0.1141  0.3636 -0.5086
  725TMC3     C10718   1.858   0.919  12.616  0.3395  0.0103  0.3494
  725TMC3     O10719   1.845   1.038  12.594  0.0245  0.5493 -0.8967
  725TMC3     H10720   1.772   0.977  12.365 -1.8855 -0.4046 -0.7631
  725TMC3    H110721   1.920   0.654  12.606 -1.3395 -0.5981  1.3644
  725TMC3    H210722   1.827   0.582  12.211  1.5919 -0.1786 -0.2019
  725TMC3    C710723   1.895   0.464  12.435  0.2132 -0.5767  0.3818
  725TMC3    C810724   1.703   0.806  12.173  0.4334  0.2900  0.3613
  725TMC3    O110725   1.903   0.398  12.334  0.4853  0.2997  0.1036
  725TMC3    O210726   1.640   0.703  12.138 -0.1202  0.0610 -0.1567
  726MPD2     C10727   4.039   2.690  10.305  0.3807 -0.6995  0.1088
  726MPD2    C110728   4.061   2.615  10.187 -0.4268  0.6486  0.2176
  726MPD2    C210729   4.005   2.492  10.177 -0.4067  0.1673 -0.1863
  726MPD2    C310730   3.940   2.440  10.285  0.1853  1.0428 -0.6816
  726MPD2    C410731   3.917   2.513  10.398 -0.0753  0.2741  0.4484
  726MPD2    C510732   3.959   2.641  10.403  0.0055 -0.0754  0.4288
  726MPD2     H10733   4.011   2.433  10.085 -0.0063 -0.3785  0.1885
  726MPD2    H110734   3.870   2.462  10.481 -1.1366  0.5791  0.0242
  726MPD2    H210735   4.084   2.788  10.313 -1.0897 -0.0601  0.4432
  726MPD2    H310736   3.944   2.701  10.492  3.3778  1.3284  0.0203
  726MPD2     N10737   3.895   2.303  10.292 -0.8740 -0.1357  0.2614
  726MPD2    H510738   3.850   2.280  10.380 -1.5936  1.9361  0.4405
  726MPD2    N110739   4.138   2.658  10.076 -0.0296  0.1559 -0.1412
  726MPD2    H710740   4.128   2.604   9.990 -0.4557  0.9028 -0.5599
  727TMC3    C110741   4.235   2.833   9.951 -0.9086  0.2995 -0.3976
  727TMC3    C210742   4.342   2.919   9.948 -1.0359  0.0870 -0.0314
  727TMC3    C310743   4.375   2.984   9.834  0.3031 -0.0193  0.9540
  727TMC3    C410744   4.162   2.806   9.839 -0.2006 -0.5325  0.3229
  727TMC3    C510745   4.207   2.862   9.723 -0.7340  0.0230 -0.2353
  727TMC3    C610746   4.306   2.950   9.721  0.0537  0.0766 -0.2288
  727TMC3     C10747   4.216   2.773  10.082 -0.0025 -0.2440  0.5964
  727TMC3     O10748   4.257   2.824  10.187 -0.0230 -0.3532 -0.2072
  727TMC3     H10749   4.401   2.932  10.038 -1.0472 -2.7994  0.3854
  727TMC3    H110750   4.072   2.745   9.838 -1.6168  1.6093 -1.8721
  727TMC3    H210751   4.349   2.989   9.629  1.7088  1.6428  1.1933
  727TMC3    C710752   4.151   2.824   9.591 -0.3299  0.8256 -0.0618
  727TMC3    C810753   4.490   3.071   9.831  0.4485 -0.4728 -0.4967
  727TMC3    O110754   4.173   2.899   9.499 -0.2290 -0.6808 -0.3072
  727TMC3    O210755   4.581   3.039   9.908  0.5923  0.1595  0.6277
  728TMC3    C110756   3.200   0.919  15.101  0.3614  0.3619  0.4928
  728TMC3    C210757   3.289   0.904  15.205  0.4528 -0.8639  0.0498
  728TMC3    C310758   3.419   0.915  15.171  0.0096 -0.4476  0.1759
  728TMC3    C410759   3.241   0.932  14.972 -0.7844  0.3153 -0.0439
  728TMC3    C510760   3.376   0.946  14.944  0.2004 -0.5489  0.3470
  728TMC3    C610761   3.471   0.943  15.045  0.9422 -0.1013  0.4146
  728TMC3     C10762   3.059   0.939  15.130 -0.2740  0.2405  0.4172
  728TMC3     O10763   2.990   0.987  15.044 -0.0468 -0.2183 -0.0447
  728TMC3     H10764   3.253   0.901  15.307 -0.6796  1.1435 -0.2862
  728TMC3    H110765   3.169   0.936  14.891 -1.9911 -2.7340  0.8930
  728TMC3    H210766   3.573   0.957  15.012  0.9372 -1.6689 -0.2775
  728TMC3    C710767   3.407   0.913  14.810  0.3884 -0.0089 -0.2894
  728TMC3    C810768   3.501   0.894  15.287  0.4419 -0.5317  0.1965
  728TMC3    O110769   3.324   0.847  14.752 -0.4192  0.4272  0.2364
  728TMC3    O210770   3.453   0.912  15.401  0.1299 -0.5992 -0.2062
  729MPD2     C10771   0.646   2.290  16.354  0.1743  0.6761  0.0724
  729MPD2    C110772   0.740   2.209  16.402 -0.7957  0.4380  0.0226
  729MPD2    C210773   0.724   2.170  16.536 -0.5609 -1.5458 -0.2896
  729MPD2    C310774   0.620   2.211  16.624 -0.7688  0.2631  0.5945
  729MPD2    C410775   0.514   2.270  16.559 -0.0229 -0.2301  0.5423
  729MPD2    C510776   0.531   2.311  16.430 -0.7216 -0.3337 -0.3126
  729MPD2     H10777   0.808   2.119  16.583 -2.1344 -2.3505  1.6409
  729MPD2    H110778   0.419   2.290  16.607  0.3572  0.8877  0.8394
  729MPD2    H210779   0.657   2.340  16.259 -0.4653  0.5014 -0.0939
  729MPD2    H310780   0.457   2.367  16.375 -2.9572 -0.3256  2.6975
  729MPD2     N10781   0.600   2.181  16.760 -0.4841 -0.1444  0.4087
  729MPD2    H510782   0.540   2.245  16.813 -0.9431 -0.0420 -0.2384
  729MPD2    N110783   0.853   2.174  16.326 -0.2276  0.0386  0.1175
  729MPD2    H710784   0.862   2.233  16.243  1.3524  1.0441  0.9881
  730TMC3    C110785   0.693   2.109  16.975  0.7760 -0.9306 -0.5355
  730TMC3    C210786   0.804   2.052  17.026  0.4594  0.5297  0.4760
  730TMC3    C310787   0.865   2.097  17.139  0.3873  0.9853 -0.1656
  730TMC3    C410788   0.644   2.221  17.033 -0.0277  0.1682  0.4502
  730TMC3    C510789   0.712   2.272  17.143 -0.6707  0.2106  0.1152
  730TMC3    C610790   0.799   2.197  17.211 -0.4905  0.4905 -0.6671
  730TMC3     C10791   0.676   2.090  16.829 -0.3687  0.3754 -0.0176
  730TMC3     O10792   0.749   2.008  16.774 -0.1339 -0.2691  0.1805
  730TMC3     H10793   0.852   1.983  16.957  2.2040 -0.0632  2.2681
  730TMC3    H110794   0.557   2.277  17.003  0.8449  0.8705 -0.7589
  730TMC3    H210795   0.849   2.227  17.302  0.3167 -1.0125 -0.6068
  730TMC3    C710796   0.752   2.407  17.137 -1.1314  0.2666 -0.4555
  730TMC3    C810797   1.000   2.131  17.109 -0.0078 -0.7930  0.1039
  730TMC3    O110798   0.744   2.461  17.025 -0.5671  0.4624 -0.5064
  730TMC3    O210799   1.049   2.052  17.028 -0.0721  0.2536  1.7445
  731MPD2     C10800   1.118   0.199  12.210 -0.4300  0.4775 -0.2289
  731MPD2    C110801   1.257   0.206  12.198  0.1844 -1.1712  0.4858
  731MPD2    C210802   1.334   0.204  12.314 -0.8168  0.0127  0.1799
  731MPD2    C310803   1.276   0.178  12.435 -0.0953  0.1978  0.3902
  731MPD2    C410804   1.136   0.170  12.442  0.4674  0.3619 -0.3876
  731MPD2    C510805   1.057   0.179  12.331  0.4888  0.5820  0.0185
  731MPD2     H10806   1.442   0.207  12.312 -0.8507  0.5496 -0.5783
  731MPD2    H110807   1.090   0.150  12.538  1.6361 -0.9153 -0.0834
  731MPD2    H210808   1.054   0.188  12.123 -0.0896  3.6961 -0.9074
  731MPD2    H310809   0.951   0.158  12.341  0.6111 -0.8977 -1.7666
  731MPD2     N10810   1.369   0.164  12.546 -0.2261  0.1183 -0.7118
  731MPD2    H510811   1.467   0.186  12.532 -0.1325  0.1475  0.0137
  731MPD2    N110812   1.317   0.214  12.062 -0.0860  0.1835 -0.3078
  731MPD2    H710813   1.255   0.216  11.983  0.6930  0.8599 -0.9058
  732TMC3    C110814   1.471   0.184  11.885  0.5897 -0.4215  0.3012
  732TMC3    C210815   1.388   0.092  11.825  0.1122  0.5443  0.2731
  732TMC3    C310816   1.412   0.053  11.700 -0.5566 -0.1539  0.7265
  732TMC3    C410817   1.592   0.216  11.834 -0.0274 -0.2633 -0.0986
  732TMC3    C510818   1.613   0.167  11.709 -0.5817  0.0006  0.2211
  732TMC3    C610819   1.529   0.089  11.635 -0.7804 -0.2537 -0.5192
  732TMC3     C10820   1.449   0.226  12.025  0.3363  0.1041 -0.3017
  732TMC3     O10821   1.544   0.269  12.095  0.4121 -0.5846 -0.3745
  732TMC3     H10822   1.297   0.062  11.875 -0.1938  0.6657 -0.2168
  732TMC3    H110823   1.659   0.285  11.883 -3.2617  2.2478  0.7985
  732TMC3    H210824   1.562   0.048  11.540 -1.1956  0.8753 -1.1531
  732TMC3    C710825   1.748   0.190  11.663 -0.0345  0.6854 -0.4694
  732TMC3    C810826   1.309   4.705  11.620 -0.1404 -0.4131 -0.5235
  732TMC3    O110827   1.757   0.237  11.554 -0.2652  0.2755  0.5128
  732TMC3    O210828   1.345   4.661  11.511 -0.4346  0.5222 -0.1644
  733TMC3    C110829   1.950   3.438  13.311 -0.1933 -0.3560  0.4485
  733TMC3    C210830   2.073   3.412  13.363 -0.0754 -0.0328  0.1977
  733TMC3    C310831   2.181   3.420  13.277 -1.0757  0.0432  0.4712
  733TMC3    C410832   1.930   3.470  13.180 -0.1800  0.1493 -0.0440
  733TMC3    C510833   2.040   3.490  13.098 -0.1362 -0.4552 -0.5521
  733TMC3    C610834   2.168   3.467  13.147  0.3607 -0.1930 -0.1649
  733TMC3     C10835   1.829   3.440  13.396 -0.2658 -0.3907 -0.0054
  733TMC3     O10836   1.740   3.509  13.351 -0.1805 -0.6625 -1.2468
  733TMC3     H10837   2.095   3.398  13.468  0.5813 -2.7413 -0.2970
  733TMC3    H110838   1.830   3.487  13.142 -0.3803 -2.0120 -0.4908
  733TMC3    H210839   2.254   3.473  13.081  1.2704  0.7795  1.1109
  733TMC3    C710840   2.020   3.602  13.005  0.0652 -0.6079  0.3184
  733TMC3    C810841   2.308   3.448  13.351 -0.0772  0.0630  0.0095
  733TMC3    O110842   1.915   3.600  12.940 -0.0639 -0.5287  0.5169
  733TMC3    O210843   2.314   3.388  13.458 -0.3333  0.1966 -0.3785
  734MPD2     C10844   3.698   0.713  12.222 -0.5137 -0.2217 -0.0226
  734MPD2    C110845   3.747   0.635  12.123  0.7117 -0.0300 -0.0555
  734MPD2    C210846   3.820   0.685  12.018 -0.0160 -0.0375  0.0907
  734MPD2    C310847   3.862   0.820  12.027  0.2823 -0.2180 -0.4582
  734MPD2    C410848   3.813   0.906  12.127 -0.3084  0.1292 -0.1429
  734MPD2    C510849   3.727   0.846  12.219  0.6093 -0.5996 -0.2922
  734MPD2     H10850   3.874   0.626  11.944  0.1914 -1.6989  1.5671
  734MPD2    H110851   3.854   1.005  12.147  0.4967 -0.2713  0.1767
  734MPD2    H210852   3.627   0.676  12.296 -1.4844  0.2486 -0.7169
  734MPD2    H310853   3.687   0.906  12.300  1.3402  1.5110 -1.4804
  734MPD2     N10854   3.936   0.868  11.914 -0.2751 -0.0314  0.4683
  734MPD2    H510855   3.955   0.799  11.842  0.8902 -2.1616  2.7891
  734MPD2    N110856   3.703   0.497  12.126 -0.0152 -0.2471 -0.1133
  734MPD2    H710857   3.658   0.456  12.207 -0.7783 -1.3663 -1.0913
  735TMC3    C110858   3.706   0.279  12.040  0.1713 -0.0567  0.7456
  735TMC3    C210859   3.714   0.213  11.922 -0.4207  0.2289 -0.2136
  735TMC3    C310860   3.804   0.122  11.900  0.3754  0.1589 -0.1599
  735TMC3    C410861   3.780   0.242  12.148  0.1254  0.2924  0.5669
  735TMC3    C510862   3.872   0.148  12.119 -0.1485 -0.3710 -0.1175
  735TMC3    C610863   3.884   0.090  12.001 -0.3999  0.1980 -0.2617
  735TMC3     C10864   3.708   0.419  12.014 -0.1478  0.7348 -0.5247
  735TMC3     O10865   3.710   0.441  11.893 -0.2849  0.9578  0.5691
  735TMC3     H10866   3.635   0.237  11.851  1.2476  2.2440 -1.3962
  735TMC3    H110867   3.795   0.312  12.230 -0.7016  1.1646 -0.0248
  735TMC3    H210868   3.974   0.038  11.972  0.5192  1.2344  0.7395
  735TMC3    C710869   3.997   0.170  12.184  0.0210 -1.1587  0.7333
  735TMC3    C810870   3.854   0.129  11.765 -0.5682  0.1566  0.3258
  735TMC3    O110871   4.028   0.281  12.221 -0.3190 -0.1430 -0.6545
  735TMC3    O210872   3.943   0.054  11.723  0.4050  0.5463  0.2393
  736MPD2     C10873   4.229   4.605  12.254 -0.0265  0.2689  0.6026
  736MPD2    C110874   4.194   0.022  12.235 -0.2279 -0.1832 -0.1620
  736MPD2    C210875   4.293   0.124  12.225 -0.1107  0.5428  0.4778
  736MPD2    C310876   4.419   0.084  12.245  0.3829  0.3316  1.2202
  736MPD2    C410877   4.453   4.673  12.272 -0.2250 -0.1016 -0.2168
  736MPD2    C510878   4.361   4.580  12.276  1.1240 -0.1978 -0.5618
  736MPD2     H10879   4.256   0.225  12.208  0.6854  0.6494 -0.5724
  736MPD2    H110880   4.551   4.640  12.303 -1.0440 -0.6045  1.8266
  736MPD2    H210881   4.158   4.524  12.254  2.0515 -1.5428  2.7801
  736MPD2    H310882   4.391   4.481  12.310 -1.0399 -0.4960  0.4517
  736MPD2     N10883   4.521   0.182  12.244  0.3057 -0.6525  0.4094
  736MPD2    H510884   4.611   0.143  12.272 -0.4632 -0.8890  2.5582
  736MPD2    N110885   4.060   0.048  12.205  0.1615 -1.2359  0.0266
  736MPD2    H710886   4.004   4.685  12.188 -2.5656  0.8053 -1.0412
  737TMC3    C110887   4.637   0.393  12.230  0.1308  0.5068 -0.5592
  737TMC3    C210888   4.600   0.525  12.204 -0.1739 -0.1143 -0.3065
  737TMC3    C310889   4.669   0.596  12.117  0.8946 -0.1855  0.3838
  737TMC3    C410890   0.031   0.344  12.172  0.7060  0.4709  0.2304
  737TMC3    C510891   0.097   0.415  12.078  0.1065  0.3779  0.2195
  737TMC3    C610892   0.058   0.543  12.057 -0.3169  0.3284 -0.0469
  737TMC3     C10893   4.507   0.319  12.217  0.0074  0.3216  0.8396
  737TMC3     O10894   4.415   0.385  12.176  0.5239  0.3652  0.0262
  737TMC3     H10895   4.519   0.566  12.265  0.4754  2.1082 -0.9388
  737TMC3    H110896   0.066   0.242  12.186 -0.5750 -0.3007 -2.1088
  737TMC3    H210897   0.121   0.616  12.008 -1.0664 -0.4047 -2.0989
  737TMC3    C710898   0.192   0.348  12.000 -0.5535 -0.3483 -0.0176
  737TMC3    C810899   4.636   0.730  12.084  0.4764  0.5922  0.5872
  737TMC3    O110900   0.265   0.257  12.038  0.0662  0.0747 -0.1441
  737TMC3    O210901   4.638   0.813  12.176 -0.2491 -0.0902  0.1008
  738MPD2     C10902   0.516   4.142  15.360  0.6835  0.4958  0.4859
  738MPD2    C110903   0.446   4.133  15.245  0.1449  0.0909 -0.1491
  738MPD2    C210904   0.492   4.219  15.142  0.2473 -0.0652 -0.2585
  738MPD2    C310905   0.587   4.319  15.165 -0.1164 -0.3432  0.2712
  738MPD2    C410906   0.643   4.332  15.288 -1.0765 -0.5212 -0.2804
  738MPD2    C510907   0.605   4.242  15.386  0.6183  0.8619 -0.5905
  738MPD2     H10908   0.449   4.196  15.045 -1.2500 -0.9545  0.6041
  738MPD2    H110909   0.716   4.411  15.303 -0.3814 -0.8375 -2.0969
  738MPD2    H210910   0.492   4.087  15.450 -2.1089 -1.1679 -1.2804
  738MPD2    H310911   0.654   4.242  15.482  0.2342 -1.9765 -0.3967
  738MPD2     N10912   0.629   4.414  15.076 -0.0037 -0.1053  0.0619
  738MPD2    H510913   0.693   4.487  15.106  0.1838  0.4870 -1.7835
  738MPD2    N110914   0.332   4.048  15.220 -0.2102  0.4419 -0.1773
  738MPD2    H710915   0.279   4.064  15.136  0.4680 -0.5019 -0.7865
  739TMC3    C110916   0.677   4.520  14.872 -0.3760  0.6791 -0.6710
  739TMC3    C210917   0.596   4.585  14.773 -0.2752 -0.4973 -0.3522
  739TMC3    C310918   0.654   4.694  14.719 -0.4418  0.5526  0.3293
  739TMC3    C410919   0.795   4.559  14.919 -0.8064  0.1878 -0.3578
  739TMC3    C510920   0.840   4.687  14.871  0.2381  0.9450 -0.0531
  739TMC3    C610921   0.767   0.040  14.780  0.1832 -0.6255 -0.2702
  739TMC3     C10922   0.615   4.402  14.937 -0.9836  0.2207  0.3994
  739TMC3     O10923   0.532   4.333  14.872 -0.1942 -0.7293  0.0424
  739TMC3     H10924   0.523   4.527  14.718  0.7810  0.9310 -3.2578
  739TMC3    H110925   0.847   4.493  14.988  0.7486  0.9009 -0.8466
  739TMC3    H210926   0.805   0.140  14.761 -0.7215 -0.2718 -0.2143
  739TMC3    C710927   0.963   0.012  14.921  0.3263 -0.4871 -0.3938
  739TMC3    C810928   0.570   0.061  14.631 -0.3511  0.5252  0.4753
  739TMC3    O110929   1.018   4.657  14.999  0.5787 -0.1460 -1.1374
  739TMC3    O210930   0.455   0.020  14.617 -0.0172 -0.1097 -0.2133
  740TMC3    C110931   0.751   1.015  14.293 -0.4313 -0.3973 -1.3779
  740TMC3    C210932   0.736   0.939  14.401  0.7020 -1.2014 -0.2947
  740TMC3    C310933   0.851   0.895  14.461  0.4243 -0.4524  0.1211
  740TMC3    C410934   0.875   1.037  14.234 -0.0141 -0.2779  0.2338
  740TMC3    C510935   0.985   0.987  14.297  0.0063 -0.1513  0.3390
  740TMC3    C610936   0.979   0.931  14.428  0.3763 -0.5565 -0.2309
  740TMC3     C10937   0.647   1.104  14.254 -0.0313  0.2406 -0.0959
  740TMC3     O10938   0.644   1.150  14.140 -0.0491 -0.3183 -0.4706
  740TMC3     H10939   0.638   0.918  14.444  2.1581 -3.1471  2.0834
  740TMC3    H110940   0.880   1.084  14.137 -1.7889 -4.1314 -1.7343
  740TMC3    H210941   1.068   0.901  14.480  1.2741 -0.3495 -1.6409
  740TMC3    C710942   1.118   1.017  14.234 -0.2829 -1.3770  0.2058
  740TMC3    C810943   0.847   0.785  14.557 -0.9006 -0.2056  0.1348
  740TMC3    O110944   1.219   1.006  14.304  0.1893 -0.4216 -0.7143
  740TMC3    O210945   0.955   0.756  14.618  0.1380 -0.4360  0.5497
  741TMC3    C110946   0.099   0.401  14.491  0.6129 -0.0570 -0.0434
  741TMC3    C210947   0.032   0.299  14.429 -0.4616  0.4042  0.0031
  741TMC3    C310948   0.015   0.180  14.500  0.3458  0.2063  0.1815
  741TMC3    C410949   0.178   0.375  14.602  0.2477 -0.2947  0.3983
  741TMC3    C510950   0.159   0.252  14.660 -0.0494 -0.3708 -1.4948
  741TMC3    C610951   0.080   0.151  14.616  0.4625 -0.6146 -0.6268
  741TMC3     C10952   0.103   0.533  14.441 -0.3233  0.5300  0.3811
  741TMC3     O10953   0.198   0.600  14.471 -0.6736 -0.6522  0.0778
  741TMC3     H10954   4.683   0.316  14.348  0.4880 -1.5323 -1.2272
  741TMC3    H110955   0.236   0.454  14.647 -0.9354  1.3696 -1.0102
  741TMC3    H210956   0.059   0.060  14.670 -0.7354 -0.6407 -1.1416
  741TMC3    C710957   0.206   0.248  14.798 -0.7589  0.6873  1.1892
  741TMC3    C810958   4.648   0.074  14.440 -0.1230  0.3365  0.1710
  741TMC3    O110959   0.205   0.356  14.854  0.0648 -0.1440  0.2476
  741TMC3    O210960   4.576   0.116  14.345 -0.3441 -0.3266 -0.0783
  742TMC3    C110961   0.343   3.039  15.230 -0.2069 -0.2787  0.1828
  742TMC3    C210962   0.301   3.065  15.097 -0.1330 -0.6257 -0.0616
  742TMC3    C310963   0.376   3.018  14.994 -0.8062  0.1918  0.4752
  742TMC3    C410964   0.467   2.990  15.257 -0.1106  0.3213  0.5077
  742TMC3    C510965   0.546   2.952  15.150  0.2707 -0.2308 -0.1996
  742TMC3    C610966   0.500   2.964  15.017 -0.9909  0.0340 -0.7961
  742TMC3     C10967   0.249   3.064  15.331 -0.1360 -0.4799 -0.1204
  742TMC3     O10968   0.141   3.013  15.310 -0.0797  0.1387 -0.6785
  742TMC3     H10969   0.198   3.095  15.078  0.7584  1.4034 -1.6752
  742TMC3    H110970   0.491   2.960  15.358  1.0463 -0.2770  0.0594
  742TMC3    H210971   0.562   2.939  14.931  1.3603  1.1077  0.5808
  742TMC3    C710972   0.676   2.897  15.166  0.8171 -0.7381 -0.7027
  742TMC3    C810973   0.326   3.024  14.857 -0.1977 -0.2639 -0.1296
  742TMC3    O110974   0.714   2.834  15.070  0.2407 -0.3404  0.7056
  742TMC3    O210975   0.367   2.951  14.767 -0.2489 -0.2743  0.2276
  743MPD2     C10976   2.862   0.407   1.659  0.6855  0.9309 -0.7748
  743MPD2    C110977   2.915   0.320   1.568  0.1811  0.5339 -0.5529
  743MPD2    C210978   3.036   0.258   1.600 -0.0395 -0.8540 -0.2175
  743MPD2    C310979   3.110   0.306   1.702 -0.5509 -0.0023  0.9118
  743MPD2    C410980   3.062   0.401   1.789  0.2625 -0.2262  0.7187
  743MPD2    C510981   2.937   0.455   1.764 -0.4804 -0.9038 -0.5932
  743MPD2     H10982   3.077   0.173   1.549  1.1897 -1.0942  1.1910
  743MPD2    H110983   3.113   0.442   1.875  1.9135 -1.8941  0.5449
  743MPD2    H210984   2.764   0.450   1.641 -1.4754 -3.6237  0.3571
  743MPD2    H310985   2.898   0.526   1.835  0.2265 -2.1572  1.0417
  743MPD2     N10986   3.242   0.251   1.702 -0.0086 -0.3954  0.4613
  743MPD2    H510987   3.268   0.175   1.640 -1.4947 -0.3687 -0.2090
  743MPD2    N110988   2.833   0.290   1.456  0.2797 -0.0566  0.2151
  743MPD2    H710989   2.747   0.340   1.439 -0.8656 -1.9249  0.5647
  744TMC3    C110990   2.765   0.173   1.260  0.2350  0.0113  0.0365
  744TMC3    C210991   2.702   0.291   1.218 -0.0681  0.3029 -0.1024
  744TMC3    C310992   2.615   0.272   1.115  0.4535 -0.1027  0.3523
  744TMC3    C410993   2.756   0.055   1.197  0.3412  0.8068 -0.1910
  744TMC3    C510994   2.661   0.040   1.096  0.4699  0.0416 -0.1218
  744TMC3    C610995   2.597   0.153   1.055  0.0802  0.1935  0.0377
  744TMC3     C10996   2.853   0.183   1.377 -0.9155 -1.1479  0.0597
  744TMC3     O10997   2.930   0.088   1.391  0.0733 -0.3701 -0.4338
  744TMC3     H10998   2.710   0.381   1.278  0.3626 -0.1646  0.5396
  744TMC3    H110999   2.810   4.688   1.231 -0.4832 -0.3269 -1.7990
  744TMC3    H211000   2.525   0.151   0.974 -0.3873  2.2009  0.4105
  744TMC3    C711001   2.670   4.644   1.019  0.8272 -0.1094 -0.2970
  744TMC3    C811002   2.525   0.376   1.072 -0.8582  0.0858  0.5183
  744TMC3    O111003   2.776   4.581   1.022 -0.5329  0.1377  0.3016
  744TMC3    O211004   2.421   0.350   1.014 -0.0637  0.4056 -0.3154
  745TMC3    C111005   0.431   3.486  14.171  0.2317 -0.4455 -0.1749
  745TMC3    C211006   0.367   3.598  14.200 -0.3383 -0.1867 -0.6339
  745TMC3    C311007   0.253   3.622  14.133 -0.2268  0.1848 -0.0897
  745TMC3    C411008   0.397   3.395  14.076  0.2340 -0.3503 -0.6857
  745TMC3    C511009   0.277   3.411  14.013 -0.0413 -0.7193 -0.1722
  745TMC3    C611010   0.210   3.531  14.031 -1.0612 -0.5450  0.0793
  745TMC3     C11011   0.567   3.494  14.193 -0.1421 -0.7369 -0.0232
  745TMC3     O11012   0.618   3.409  14.267  0.0900  0.1321 -0.1403
  745TMC3     H11013   0.405   3.650  14.288  1.5197 -2.1802 -0.2485
  745TMC3    H111014   0.462   3.308  14.071 -0.8922 -1.3241  1.4842
  745TMC3    H211015   0.130   3.559  13.963 -0.4757 -0.6130 -0.6346
  745TMC3    C711016   0.274   3.361  13.880  0.1246  0.0258 -0.0277
  745TMC3    C811017   0.222   3.758  14.104 -1.5021  0.3835  0.1093
  745TMC3    O111018   0.168   3.375  13.821 -0.0722 -0.1739  0.2621
  745TMC3    O211019   0.108   3.792  14.069 -0.0662 -0.1945 -0.3878
  746TMC3    C111020   2.993   0.089  10.996 -0.9231 -0.4743 -0.3203
  746TMC3    C211021   3.072   0.060  10.887 -0.4092 -0.7099  0.1983
  746TMC3    C311022   3.055   4.661  10.832  0.3155  0.5070  0.0443
  746TMC3    C411023   2.895   0.004  11.043 -0.0340  0.4188 -0.3580
  746TMC3    C511024   2.898   4.603  10.989  1.0412  0.0061 -0.6125
  746TMC3    C611025   2.967   4.578  10.879  0.7222  0.2758  0.1407
  746TMC3     C11026   2.959   0.233  11.019  0.2484 -0.0756 -0.3258
  746TMC3     O11027   2.868   0.243  11.100  0.2931 -0.1585  0.2121
  746TMC3     H11028   3.135   0.133  10.838 -2.9725  1.7204  0.4708
  746TMC3    H111029   2.840   0.029  11.133 -0.6126 -0.3202 -0.5038
  746TMC3    H211030   2.955   4.484  10.825 -2.3951 -0.0175  1.3522
  746TMC3    C711031   2.794   4.512  11.022  0.2112  0.3865  0.5602
  746TMC3    C811032   3.137   4.628  10.715  0.5743 -0.3923  0.0417
  746TMC3    O111033   2.757   4.434  10.936 -0.2346 -0.8037  0.1975
  746TMC3    O211034   3.177   4.512  10.714  0.1806  0.3332 -0.4492
  747TMC3    C111035   0.539   0.796  11.090  0.0348  0.9476  0.3189
  747TMC3    C211036   0.483   0.694  11.152 -0.0012  0.0629 -0.1093
  747TMC3    C311037   0.470   0.697  11.288  0.4928 -0.4596 -0.1777
  747TMC3    C411038   0.595   0.902  11.156  1.1004 -0.0108  0.1985
  747TMC3    C511039   0.590   0.892  11.297  0.5075 -0.4231 -0.0061
  747TMC3    C611040   0.524   0.791  11.363 -0.3627  0.2942  0.3610
  747TMC3     C11041   0.525   0.813  10.947 -0.0131 -0.3803  0.5288
  747TMC3     O11042   0.544   0.929  10.909 -0.3003  0.5180 -0.1959
  747TMC3     H11043   0.471   0.600  11.099 -0.9576  1.1960 -1.8881
  747TMC3    H111044   0.633   0.987  11.101 -3.7679  0.9675 -1.6781
  747TMC3    H211045   0.527   0.779  11.470 -0.4002  0.1984  0.3509
  747TMC3    C711046   0.648   0.994  11.385 -0.0825 -0.3466  1.1211
  747TMC3    C811047   0.469   0.569  11.362 -0.2957  0.4576 -0.2361
  747TMC3    O111048   0.623   0.979  11.506 -0.4618  0.2528  0.2578
  747TMC3    O211049   0.541   0.483  11.311 -0.0222 -0.1678 -0.2769
  748MPD2     C11050   1.577   0.447   1.245 -0.2820  0.4772  0.1711
  748MPD2    C111051   1.701   0.391   1.268  0.0372 -0.0266 -0.0336
  748MPD2    C211052   1.806   0.474   1.290  0.0976  0.4300 -0.2742
  748MPD2    C311053   1.789   0.611   1.292 -0.3544  0.0884  0.0988
  748MPD2    C411054   1.664   0.669   1.261  1.0926 -0.5659 -0.0746
  748MPD2    C511055   1.555   0.585   1.236  0.3051 -0.0190  0.7863
  748MPD2     H11056   1.904   0.432   1.309  0.1717  0.2926 -0.9336
  748MPD2    H111057   1.656   0.776   1.254 -1.6901 -0.8003 -0.5823
  748MPD2    H211058   1.491   0.382   1.238  1.6269 -1.9870 -0.8666
  748MPD2    H311059   1.461   0.636   1.217 -0.8585 -2.2276  0.6002
  748MPD2     N11060   1.906   0.700   1.315  0.2481 -0.1128 -0.6106
  748MPD2    H511061   1.893   0.801   1.307 -0.8516 -0.3770 -2.0390
  748MPD2    N111062   1.711   0.252   1.278  0.2876 -0.2357  0.4233
  748MPD2    H711063   1.621   0.206   1.277 -1.0564  2.3843 -1.1594
  749TMC3    C111064   2.120   0.773   1.386  0.4236 -0.1261 -0.3085
  749TMC3    C211065   2.244   0.739   1.424 -0.0056 -0.5351 -0.0167
  749TMC3    C311066   2.347   0.831   1.411  0.2108  1.0042 -0.0039
  749TMC3    C411067   2.090   0.900   1.336 -0.3459  0.5315  0.3045
  749TMC3    C511068   2.198   0.986   1.317 -0.4738  0.1492  0.3406
  749TMC3    C611069   2.326   0.951   1.347  0.6509  0.3896 -0.1987
  749TMC3     C11070   2.029   0.663   1.366  0.0495 -0.3914  0.0520
  749TMC3     O11071   2.059   0.548   1.400 -0.3749 -0.3509  0.7386
  749TMC3     H11072   2.263   0.640   1.464  1.4574  0.3076  1.3820
  749TMC3    H111073   1.988   0.934   1.325 -0.4785 -0.6664 -2.1544
  749TMC3    H211074   2.402   1.018   1.310  0.8615 -0.8605 -2.0455
  749TMC3    C711075   2.171   1.123   1.262  0.5290 -0.5124 -0.4152
  749TMC3    C811076   2.478   0.780   1.425  0.7499  0.3326  0.5116
  749TMC3    O111077   2.263   1.203   1.268  0.3670 -0.6481 -0.4036
  749TMC3    O211078   2.497   0.661   1.455 -0.0169 -0.7865 -0.2810
  750MPD2     C11079   3.550   2.121  11.280 -0.6239 -0.0120  0.5218
  750MPD2    C111080   3.413   2.130  11.256 -1.1669  0.4304 -0.0582
  750MPD2    C211081   3.362   2.032  11.170 -0.1808  0.5453 -0.3279
  750MPD2    C311082   3.447   1.926  11.128 -0.3198 -0.1068 -0.6506
  750MPD2    C411083   3.582   1.928  11.148  0.1757 -0.2778  0.4971
  750MPD2    C511084   3.630   2.032  11.224 -0.4747 -0.1221 -0.2569
  750MPD2     H11085   3.261   2.042  11.133 -0.4003  1.5027  0.5265
  750MPD2    H111086   3.651   1.862  11.097 -0.6001 -0.8288  0.1466
  750MPD2    H211087   3.606   2.197  11.334 -3.5494  1.3251  1.7119
  750MPD2    H311088   3.734   2.038  11.253 -0.7924  0.0472  0.8307
  750MPD2     N11089   3.391   1.820  11.053  0.2681  1.1752 -0.2454
  750MPD2    H511090   3.453   1.759  11.001 -1.0423  0.0271 -0.4609
  750MPD2    N111091   3.333   2.246  11.299 -0.0394  0.5030 -0.1577
  750MPD2    H711092   3.393   2.323  11.328  0.8928  0.5249 -2.1427
  751TMC3    C111093   3.215   1.689  10.956 -0.3946  0.0223 -0.2244
  751TMC3    C211094   3.083   1.637  10.971  0.0489  0.2621 -0.0813
  751TMC3    C311095   3.043   1.523  10.903  0.5768 -0.4072 -0.1767
  751TMC3    C411096   3.304   1.626  10.877  0.2148  0.0555 -0.3582
  751TMC3    C511097   3.256   1.515  10.812  0.5434  0.1431 -0.2252
  751TMC3    C611098   3.132   1.459  10.830  0.0660  0.1249  0.5347
  751TMC3     C11099   3.256   1.790  11.053  0.8671 -0.1590 -0.7461
  751TMC3     O11100   3.169   1.823  11.129  0.2402 -0.4496 -0.1207
  751TMC3     H11101   3.014   1.685  11.039 -0.6788 -0.4062 -0.3463
  751TMC3    H111102   3.408   1.655  10.864 -0.0070  1.3603  0.8020
  751TMC3    H211103   3.101   1.385  10.758  2.8039  0.3616 -0.9124
  751TMC3    C711104   3.352   1.430  10.748 -0.9502 -0.5332  0.8318
  751TMC3    C811105   2.926   1.443  10.937 -0.2811 -0.2930  0.1922
  751TMC3    O111106   3.454   1.475  10.696 -0.2978 -0.2469  0.3614
  751TMC3    O211107   2.934   1.326  10.906 -0.3691  0.7168  0.3704
  752TMC3    C111108   1.295   1.964  17.315 -0.5529  0.0510 -0.0161
  752TMC3    C211109   1.170   1.909  17.303 -0.5800 -0.3071 -0.1342
  752TMC3    C311110   1.114   1.859  17.415  0.2827  0.2231  0.7290
  752TMC3    C411111   1.353   1.979  17.432 -0.2653  0.0789  0.6925
  752TMC3    C511112   1.292   1.931  17.547  0.3129 -0.2908  0.4995
  752TMC3    C611113   1.170   1.879  17.541  0.0552  0.2195 -0.4013
  752TMC3     C11114   1.390   1.980  17.199  0.2413 -0.1214 -0.7325
  752TMC3     O11115   1.510   1.963  17.224 -0.2327  0.2280 -0.0372
  752TMC3     H11116   1.136   1.894  17.201  0.2773 -4.1287  0.1257
  752TMC3    H111117   1.450   2.028  17.423 -0.2770 -0.3074 -1.4369
  752TMC3    H211118   1.116   1.840  17.626 -0.1853  0.1054 -0.6071
  752TMC3    C711119   1.356   1.950  17.673  0.2575 -0.3874  0.3464
  752TMC3    C811120   0.976   1.816  17.410  0.1689 -0.2522  0.3959
  752TMC3    O111121   1.283   1.972   0.084 -0.0105 -0.6493 -0.0468
  752TMC3    O211122   0.898   1.870  17.334 -0.4633  0.1159  0.3897
  753TMC3    C111123   3.893   3.249  13.356  0.5268 -0.1276 -0.8719
  753TMC3    C211124   3.946   3.200  13.473  0.0270  0.4108  0.0397
  753TMC3    C311125   3.999   3.077  13.470 -0.3642  0.5608 -0.0294
  753TMC3    C411126   3.882   3.175  13.241  0.8013 -0.2289  0.2429
  753TMC3    C511127   3.925   3.046  13.247 -0.5982  0.4018 -0.5132
  753TMC3    C611128   3.981   2.996  13.363  0.7682  0.2880  0.1447
  753TMC3     C11129   3.846   3.390  13.346  0.4430  0.9078 -0.7327
  753TMC3     O11130   3.767   3.413  13.257  0.6308  0.8094 -0.4594
  753TMC3     H11131   3.948   3.261  13.563  0.8607  1.2122 -0.5220
  753TMC3    H111132   3.815   3.207  13.162  1.1534  1.1425  0.4957
  753TMC3    H211133   4.039   2.905  13.350  0.9779  0.4484 -0.0472
  753TMC3    C711134   3.953   2.986  13.116  0.5349 -0.2838  0.1908
  753TMC3    C811135   4.080   3.014  13.574 -0.1182  0.6433 -0.4768
  753TMC3    O111136   4.002   3.065  13.034  0.0027 -0.1451  0.0328
  753TMC3    O211137   4.097   2.891  13.566  0.0219  0.0248 -0.2657
  754MPD2     C11138   2.475   1.491  13.626  0.7350 -0.1072 -0.1190
  754MPD2    C111139   2.407   1.614  13.606 -0.2283  0.1995 -0.7743
  754MPD2    C211140   2.304   1.630  13.511  0.6351  0.3071 -0.3610
  754MPD2    C311141   2.260   1.517  13.437 -0.6822 -0.4798  0.1884
  754MPD2    C411142   2.322   1.391  13.459 -0.1665  0.5186 -0.0018
  754MPD2    C511143   2.429   1.384  13.546  0.3855 -0.2606  0.4825
  754MPD2     H11144   2.270   1.729  13.485  1.6222  0.6002 -0.5285
  754MPD2    H111145   2.282   1.301  13.413 -3.7123  1.6081  0.9806
  754MPD2    H211146   2.555   1.474  13.697 -0.4841  0.1261  1.2959
  754MPD2    H311147   2.471   1.285  13.557 -0.9022 -0.6965  1.4945
  754MPD2     N11148   2.154   1.516  13.347  0.4813 -0.4350  0.0703
  754MPD2    H511149   2.123   1.423  13.322 -1.0347 -0.1038  0.7485
  754MPD2    N111150   2.467   1.719  13.682 -0.2430  0.0793  0.0376
  754MPD2    H711151   2.560   1.702  13.719 -0.5233 -2.4185 -0.4488
  755MPD2     C11152   1.365   2.117  13.292 -0.4984 -0.5256  0.1669
  755MPD2    C111153   1.317   1.990  13.268 -0.1028 -0.0308  0.7009
  755MPD2    C211154   1.409   1.895  13.236  0.6778  0.5497 -0.7596
  755MPD2    C311155   1.541   1.931  13.223 -0.1601  0.1050  0.0550
  755MPD2    C411156   1.588   2.059  13.247  0.1901  0.8434  0.5735
  755MPD2    C511157   1.494   2.150  13.281  0.4164 -0.4523  0.6610
  755MPD2     H11158   1.375   1.792  13.229 -0.1663  0.8234 -0.7055
  755MPD2    H111159   1.694   2.078  13.234 -0.0008  2.1793  0.9292
  755MPD2    H211160   1.311   2.204  13.327  0.0998  0.1032 -0.4647
  755MPD2    H311161   1.531   2.250  13.301 -1.6937 -0.1725  3.1140
  755MPD2     N11162   1.639   1.839  13.186  0.1541 -0.7087 -0.1138
  755MPD2    H511163   1.731   1.881  13.175 -1.2250  2.7538  1.4452
  755MPD2    N111164   1.183   1.948  13.273  0.0780  0.1543 -0.4854
  755MPD2    H711165   1.161   1.853  13.244  0.7553 -0.6612  1.7171
  756MPD2     C11166   2.915   1.877   9.113  0.1269  0.7795  0.0523
  756MPD2    C111167   2.819   1.892   9.208  0.1809  0.3770  0.8233
  756MPD2    C211168   2.688   1.904   9.171 -0.1219 -0.1855  0.2203
  756MPD2    C311169   2.641   1.883   9.047  0.1905 -0.4448 -0.4974
  756MPD2    C411170   2.731   1.869   8.945  0.6414 -0.3893 -0.0862
  756MPD2    C511171   2.865   1.864   8.984  0.3129 -0.1099 -0.3746
  756MPD2     H11172   2.613   1.914   9.249  1.2634  0.6531  1.4451
  756MPD2    H111173   2.710   1.876   8.839  1.9417  0.6778 -0.2699
  756MPD2    H211174   3.023   1.876   9.126  0.2528 -1.1176 -1.1567
  756MPD2    H311175   2.942   1.857   8.908  1.1384 -1.0916  0.5532
  756MPD2     N11176   2.501   1.896   9.020 -0.6924  0.5414 -0.0263
  756MPD2    H511177   2.448   1.901   9.106 -1.1451  1.1377 -0.3461
  756MPD2    N111178   2.851   1.902   9.350 -0.2748 -0.1942  0.0867
  756MPD2    H711179   2.769   1.912   9.409 -1.5318  1.0679 -1.8881
  757MPD2     C11180   2.063   1.276   9.367 -0.5830 -0.4041  0.5923
  757MPD2    C111181   2.193   1.305   9.331 -0.3211 -0.5037 -0.2658
  757MPD2    C211182   2.219   1.415   9.256  0.0644 -0.0350  0.3288
  757MPD2    C311183   2.119   1.500   9.211 -0.6316  0.5987  0.2629
  757MPD2    C411184   1.993   1.468   9.257  0.6741 -0.0609  0.2927
  757MPD2    C511185   1.964   1.360   9.329  0.3992  0.4963  0.5322
  757MPD2     H11186   2.322   1.446   9.242 -0.1217 -0.5753 -2.2061
  757MPD2    H111187   1.909   1.530   9.230  0.4213 -0.6769 -0.3430
  757MPD2    H211188   2.029   1.185   9.415 -1.9209 -0.7434 -0.9692
  757MPD2    H311189   1.862   1.330   9.350  0.8452 -0.5262  1.2427
  757MPD2     N11190   2.152   1.617   9.127 -1.0732  0.3079  0.0837
  757MPD2    H511191   2.246   1.630   9.091 -0.3109 -1.4304  1.4449
  757MPD2    N111192   2.287   1.210   9.369  0.1954 -0.3502 -0.0078
  757MPD2    H711193   2.245   1.125   9.407  2.5367 -2.0458 -1.2046
  758MPD2     C11194   2.748   1.119  15.625 -0.4589  0.0282  0.7912
  758MPD2    C111195   2.835   1.124  15.734  0.6705  0.0230  0.6471
  758MPD2    C211196   2.786   1.136  15.861  0.7238 -0.1289 -0.1200
  758MPD2    C311197   2.642   1.138  15.885  0.0692 -0.2059  0.0075
  758MPD2    C411198   2.555   1.137  15.771 -0.2959  0.2706 -0.2586
  758MPD2    C511199   2.613   1.129  15.643  0.1984  0.9343  0.5937
  758MPD2     H11200   2.856   1.157  15.941  1.1217 -2.4196  0.1417
  758MPD2    H111201   2.447   1.147  15.779 -0.2422  1.4731 -0.9416
  758MPD2    H211202   2.788   1.099  15.526 -0.6841  1.5560  0.4003
  758MPD2    H311203   2.546   1.127  15.557 -0.0789  1.3957  0.8006
  758MPD2     N11204   2.586   1.171  16.008 -0.0403 -0.2795  0.4133
  758MPD2    H511205   2.485   1.178  16.018 -0.0663  0.2483 -0.2428
  758MPD2    N111206   2.969   1.121  15.701  0.4804  0.2202  0.2072
  758MPD2    H711207   2.979   1.119  15.600 -1.3244  0.1099  0.0297
  759MPD2     C11208   1.891   0.286  10.618  0.1357  0.3846  0.3099
  759MPD2    C111209   1.909   0.150  10.600  0.2145  0.6323  0.5520
  759MPD2    C211210   2.008   0.120  10.502 -0.1886  0.1851  0.0818
  759MPD2    C311211   2.061   0.211  10.411  0.4448  0.2599 -0.0564
  759MPD2    C411212   2.024   0.344  10.427  0.3270 -0.3164 -0.3389
  759MPD2    C511213   1.938   0.377  10.526  0.1497 -0.3704 -0.5462
  759MPD2     H11214   2.020   0.012  10.492 -0.2578 -0.0535  2.6567
  759MPD2    H111215   2.052   0.426  10.361 -0.4162  1.2037  1.2494
  759MPD2    H211216   1.832   0.318  10.703 -1.0644  0.4616 -0.5491
  759MPD2    H311217   1.916   0.483  10.531 -0.1609 -0.4738  0.2569
  759MPD2     N11218   2.135   0.161  10.302  0.0404  0.0058  0.3137
  759MPD2    H511219   2.143   0.061  10.287  1.0094  0.0081  0.7838
  759MPD2    N111220   1.853   0.044  10.678 -0.2141 -0.3072 -0.4770
  759MPD2    H711221   1.887   4.670  10.665  0.1038 -0.5591  2.1839
  760MPD2     C11222   1.247   2.065  11.684  0.2164 -0.0056 -0.1509
  760MPD2    C111223   1.385   2.080  11.684  0.1100 -0.0029  0.3881
  760MPD2    C211224   1.465   1.968  11.646 -0.3294 -0.5006  0.3252
  760MPD2    C311225   1.413   1.844  11.615  0.1884  0.5900  0.3035
  760MPD2    C411226   1.277   1.828  11.626 -0.1988  0.1420  0.2611
  760MPD2    C511227   1.197   1.938  11.649  0.0425  0.8245  0.2579
  760MPD2     H11228   1.572   1.977  11.641 -0.4336  1.1604  1.2262
  760MPD2    H111229   1.233   1.735  11.591 -1.2910  0.7831 -0.0740
  760MPD2    H211230   1.177   2.142  11.713 -1.3249 -1.6662  0.4968
  760MPD2    H311231   1.091   1.933  11.627 -0.2296  0.3303  1.7128
  760MPD2     N11232   1.482   1.728  11.575 -0.4472 -0.0617 -0.0129
  760MPD2    H511233   1.433   1.640  11.566 -2.0521  0.5766  2.3207
  760MPD2    N111234   1.452   2.198  11.728  0.4230  0.2060  0.0252
  760MPD2    H711235   1.554   2.199  11.735  0.3201  0.1991  1.6201
  761MPD2     C11236   2.433   1.369  11.059 -0.2085  0.6606  0.0177
  761MPD2    C111237   2.506   1.308  10.963  0.9432  0.5619 -0.2640
  761MPD2    C211238   2.636   1.351  10.942 -1.2921 -0.3748 -0.0252
  761MPD2    C311239   2.694   1.461  11.008 -0.2249  0.0957 -0.0019
  761MPD2    C411240   2.615   1.534  11.098  0.2829  0.3868 -0.2531
  761MPD2    C511241   2.491   1.478  11.127 -0.3621  0.2501  0.2940
  761MPD2     H11242   2.712   1.290  10.893  0.3071  1.9065 -0.3618
  761MPD2    H111243   2.645   1.624  11.151 -1.1978 -0.0174  1.2965
  761MPD2    H211244   2.329   1.339  11.066  0.4179 -1.5100  0.1961
  761MPD2    H311245   2.419   1.530  11.188  0.6853 -0.0388  1.7706
  761MPD2     N11246   2.820   1.513  10.987  0.0068 -0.2660 -0.0633
  761MPD2    H511247   2.837   1.606  11.022  0.3994 -0.1681 -0.5168
  761MPD2    N111248   2.452   1.199  10.887  0.0705  0.1224 -0.2821
  761MPD2    H711249   2.366   1.158  10.924  0.3612 -1.9253 -1.8100
  762MPD2     C11250   2.939   1.121  10.581 -0.2870  0.8077 -0.1090
  762MPD2    C111251   2.896   0.993  10.556 -0.5498  0.2239  0.3281
  762MPD2    C211252   2.990   0.901  10.504 -0.4386  0.4398  0.1904
  762MPD2    C311253   3.121   0.946  10.474 -0.0882 -0.0620  0.2336
  762MPD2    C411254   3.156   1.078  10.494  0.3966  0.3121  1.0056
  762MPD2    C511255   3.063   1.167  10.546  0.6019 -0.3819 -0.0559
  762MPD2     H11256   2.972   0.794  10.504  0.9407  0.1976 -3.4289
  762MPD2    H111257   3.254   1.122  10.475 -0.7247  2.8953  1.2125
  762MPD2    H211258   2.863   1.190  10.617 -0.9377 -0.1375  0.3168
  762MPD2    H311259   3.092   1.271  10.558  0.5580 -0.3531 -0.2069
  762MPD2     N11260   3.217   0.851  10.427 -0.0241  0.9953 -0.2253
  762MPD2    H511261   3.184   0.755  10.439 -2.0209  1.5533 -1.3487
  762MPD2    N111262   2.762   0.968  10.590  0.1978 -0.0484  0.8511
  762MPD2    H711263   2.712   1.041  10.640 -0.8786 -1.0754  1.2657
  763MPD2     C11264   3.881   1.580  16.083  0.4819 -0.0652 -0.4764
  763MPD2    C111265   4.009   1.579  16.033  0.9050  0.3203  1.1238
  763MPD2    C211266   4.111   1.619  16.116 -0.2785  0.6478 -0.3499
  763MPD2    C311267   4.090   1.652  16.247 -0.6274  0.4965  0.6275
  763MPD2    C411268   3.961   1.647  16.298 -0.2529  0.4922  0.5088
  763MPD2    C511269   3.861   1.612  16.215  0.0041 -0.0334 -0.6179
  763MPD2     H11270   4.215   1.625  16.084 -0.2600  1.2919 -0.1642
  763MPD2    H111271   3.945   1.674  16.402 -0.5751 -3.7258  1.5651
  763MPD2    H211272   3.799   1.544  16.023 -1.5973 -0.1023  2.3817
  763MPD2    H311273   3.759   1.609  16.252  0.7732 -1.4219  1.4115
  763MPD2     N11274   4.197   1.686  16.333  0.6525  0.0410  0.0866
  763MPD2    H511275   4.289   1.693  16.291  0.0618 -0.3154 -1.2687
  763MPD2    N111276   4.042   1.554  15.899  0.3433 -0.5116  0.3739
  763MPD2    H711277   4.138   1.530  15.876  0.1089 -0.3520 -0.8000
  764MPD2     C11278   2.595   3.096  17.460 -0.5847  0.2991  1.4302
  764MPD2    C111279   2.480   3.039  17.404  0.1521 -0.4789 -0.3157
  764MPD2    C211280   2.425   2.933  17.468 -0.4125  0.2603  0.5120
  764MPD2    C311281   2.482   2.880  17.581  0.4388 -0.6959 -0.1934
  764MPD2    C411282   2.594   2.933  17.626  0.7873  0.5339  0.0897
  764MPD2    C511283   2.651   3.038  17.568  0.1404 -0.8268  0.6977
  764MPD2     H11284   2.336   2.883  17.430  0.6383 -2.1833  1.2410
  764MPD2    H111285   2.637   2.882   0.026  1.2415 -0.5226 -0.7799
  764MPD2    H211286   2.638   3.183  17.412  1.5564 -0.3738  2.1436
  764MPD2    H311287   2.747   3.070  17.607 -0.1918 -1.3888  1.9692
  764MPD2     N11288   2.411   2.777  17.650 -0.2039 -0.0864  0.2153
  764MPD2    H511289   2.332   2.739  17.600 -0.5932  2.0641 -0.7946
  764MPD2    N111290   2.424   3.064  17.275 -0.3890 -0.2853 -0.0618
  764MPD2    H711291   2.354   3.000  17.241 -0.0143 -1.3450  1.1645
  765MPD2     C11292   1.842   0.462  15.915  0.1146  0.4436 -0.8699
  765MPD2    C111293   1.906   0.586  15.907 -0.6626 -0.6223 -0.4366
  765MPD2    C211294   2.040   0.591  15.891  0.1266  0.3048  0.1130
  765MPD2    C311295   2.113   0.479  15.905  0.0202  0.2462  0.2303
  765MPD2    C411296   2.052   0.353  15.931 -0.1254  0.8777 -0.3344
  765MPD2    C511297   1.916   0.341  15.933  0.4319  0.2135 -0.5164
  765MPD2     H11298   2.092   0.685  15.876 -2.0698  1.0538 -2.7733
  765MPD2    H111299   2.116   0.265  15.925 -1.3649 -0.0820  0.6154
  765MPD2    H211300   1.733   0.462  15.912  0.1352 -0.2819 -1.6159
  765MPD2    H311301   1.862   0.248  15.943  0.0682  0.4689 -0.1309
  765MPD2     N11302   2.255   0.476  15.872  0.3294  0.5048  0.6071
  765MPD2    H511303   2.296   0.559  15.830  0.8297 -0.2367 -0.3631
  765MPD2    N111304   1.825   0.695  15.889  0.5434  0.5614 -0.1372
  765MPD2    H711305   1.725   0.680  15.887  0.6284  0.0356 -0.4485
  766MPD2     C11306   1.751   0.634  15.301  0.3263  0.0347  0.3505
  766MPD2    C111307   1.741   0.771  15.324  0.2766 -0.2536  0.0693
  766MPD2    C211308   1.794   0.863  15.231  0.0935 -0.2202  0.5243
  766MPD2    C311309   1.853   0.816  15.115 -0.0498  0.6212  0.5602
  766MPD2    C411310   1.872   0.681  15.099 -0.2142 -0.1720 -0.1531
  766MPD2    C511311   1.821   0.591  15.192 -0.2157 -0.0631 -0.5973
  766MPD2     H11312   1.799   0.970  15.250 -2.5533  0.0783 -0.4233
  766MPD2    H111313   1.928   0.648  15.012 -1.1905 -0.9023 -0.5092
  766MPD2    H211314   1.709   0.562  15.370  0.4526 -1.6064 -1.2926
  766MPD2    H311315   1.832   0.486  15.170  0.4380 -0.2520  0.6467
  766MPD2     N11316   1.913   0.912  15.023  0.2856  0.5225  0.3773
  766MPD2    H511317   1.884   1.009  15.032  1.9529  1.1032 -0.5113
  766MPD2    N111318   1.682   0.822  15.445  0.5163 -0.0691  0.1449
  766MPD2    H711319   1.643   0.760  15.515 -1.0488  0.1925 -0.4956
  767MPD2     C11320   1.477   1.098  15.151 -0.1177  0.0806  0.2224
  767MPD2    C111321   1.581   1.173  15.097  0.1886  0.0498  0.8913
  767MPD2    C211322   1.588   1.188  14.959 -0.3159 -0.7520 -0.1135
  767MPD2    C311323   1.492   1.138  14.878  0.6205 -0.9158 -0.5255
  767MPD2    C411324   1.380   1.074  14.928 -0.7324  0.5019 -0.6989
  767MPD2    C511325   1.375   1.065  15.067  0.5676  0.1308  0.6093
  767MPD2     H11326   1.659   1.253  14.908  1.8329 -1.3974  2.0423
  767MPD2    H111327   1.301   1.029  14.868 -0.8032 -0.8430  0.4247
  767MPD2    H211328   1.468   1.070  15.255 -0.9772  0.3486  0.2194
  767MPD2    H311329   1.292   1.009  15.108 -0.5700  0.4301 -1.2545
  767MPD2     N11330   1.519   1.146  14.737 -0.4886 -0.2312  0.1993
  767MPD2    H511331   1.607   1.185  14.706 -1.3528 -0.1124 -2.1162
  767MPD2    N111332   1.682   1.217  15.179  0.5868  0.0617  0.2073
  767MPD2    H711333   1.674   1.199  15.278 -1.8142  0.5004  0.0890
  768MPD2     C11334   2.764   4.022  10.599  0.4336 -0.0663 -0.4732
  768MPD2    C111335   2.709   4.078  10.712  1.1717  0.7974  0.2183
  768MPD2    C211336   2.790   4.131  10.809  0.5840 -1.2723  0.7088
  768MPD2    C311337   2.932   4.119  10.800 -0.1704  1.2199  0.4241
  768MPD2    C411338   2.980   4.070  10.683 -0.0454  0.3037  0.2298
  768MPD2    C511339   2.899   4.017  10.586 -0.0601  0.6093 -1.1169
  768MPD2     H11340   2.741   4.186  10.889  1.2000 -1.7714  1.4326
  768MPD2    H111341   3.087   4.070  10.662  0.0977 -0.5490  0.9425
  768MPD2    H211342   2.702   3.982  10.519 -1.5106  2.2246 -0.1342
  768MPD2    H311343   2.940   3.989  10.490  1.2026 -1.9702  0.1652
  768MPD2     N11344   3.026   4.168  10.889 -0.4841 -0.4318  0.4218
  768MPD2    H511345   3.124   4.151  10.869  0.1608  2.1162  1.3883
  768MPD2    N111346   2.572   4.107  10.729  0.2973  0.7699  0.2221
  768MPD2    H711347   2.535   4.128  10.821  2.0125 -0.6258  1.2318
  769MPD2     C11348   3.675   2.632  14.836 -0.2749  0.2836  0.1631
  769MPD2    C111349   3.579   2.609  14.928  0.5506 -0.0097  0.0806
  769MPD2    C211350   3.596   2.650  15.061  0.6992  0.5271  0.1406
  769MPD2    C311351   3.709   2.720  15.099 -0.4558  0.4516  0.1768
  769MPD2    C411352   3.806   2.746  15.000  0.3086 -0.0489 -0.3978
  769MPD2    C511353   3.784   2.712  14.868 -0.1219  0.4073 -0.0684
  769MPD2     H11354   3.527   2.624  15.141  0.7478 -2.1582 -0.6988
  769MPD2    H111355   3.895   2.806  15.015  0.5064  0.1788 -2.3996
  769MPD2    H211356   3.658   2.587  14.738 -1.3645 -0.3670  0.6470
  769MPD2    H311357   3.857   2.747  14.797  1.1253 -0.5792  0.7361
  769MPD2     N11358   3.718   2.733  15.233  0.7497  0.4587  0.2227
  769MPD2    H511359   3.632   2.704  15.279  0.9376  0.8495  0.8196
  769MPD2    N111360   3.473   2.531  14.877 -0.5549 -0.9239 -0.2877
  769MPD2    H711361   3.469   2.506  14.779 -1.0680 -0.7070 -0.3196
  770MPD2     C11362   3.015   1.603  15.120 -0.1213  0.1808  0.6434
  770MPD2    C111363   2.969   1.633  14.994 -0.3815  0.0921 -0.2436
  770MPD2    C211364   2.968   1.760  14.949  0.2051 -0.1127 -0.4297
  770MPD2    C311365   3.018   1.861  15.035 -0.1281 -0.7183  0.1664
  770MPD2    C411366   3.063   1.831  15.159 -0.1094 -0.3150  0.8810
  770MPD2    C511367   3.048   1.710  15.211 -0.2017 -0.5507 -0.1676
  770MPD2     H11368   2.925   1.781  14.852  0.7887  0.8321 -0.4834
  770MPD2    H111369   3.103   1.905  15.228  0.7039 -1.3025  1.4594
  770MPD2    H211370   3.021   1.500  15.154 -1.2935  0.1762  0.8151
  770MPD2    H311371   3.068   1.692  15.316  0.6385  0.3889 -0.1577
  770MPD2     N11372   3.030   1.989  14.983 -0.1396  0.2901  0.4741
  770MPD2    H511373   2.979   2.005  14.897 -2.4739 -1.4253  1.5203
  770MPD2    N111374   2.936   1.522  14.911 -0.4002 -0.0830 -0.1583
  770MPD2    H711375   2.964   1.435  14.956 -2.3042 -0.9527 -0.6381
  771MPD2     C11376   4.401   4.475  13.310  0.5149  0.4181 -0.5289
  771MPD2    C111377   4.330   4.594  13.303  0.3590 -0.1150 -0.0435
  771MPD2    C211378   4.242   4.615  13.192 -0.5719  0.3937  0.0256
  771MPD2    C311379   4.244   4.528  13.083  0.2467  0.2391 -0.0889
  771MPD2    C411380   4.318   4.415  13.085 -1.1719 -0.0301  0.7060
  771MPD2    C511381   4.397   4.390  13.199  0.0224  0.7244 -1.2221
  771MPD2     H11382   4.168   4.693  13.182 -1.2336 -0.0605  1.3461
  771MPD2    H111383   4.326   4.343  13.004  0.4551  0.4032  0.4854
  771MPD2    H211384   4.445   4.445  13.404  0.9056 -0.0568 -0.8638
  771MPD2    H311385   4.458   4.300  13.200 -0.9713  0.0745  1.1622
  771MPD2     N11386   4.152   4.553  12.977  0.1356  0.5763  0.4106
  771MPD2    H511387   4.107   4.643  12.977 -0.5347  0.2414 -0.4877
  771MPD2    N111388   4.323   4.681  13.412 -0.2473 -0.3140 -0.0531
  771MPD2    H711389   4.256   0.036  13.413  0.9545  0.7426 -0.3081
  772MPD2     C11390   3.846   0.282  13.279  0.1934 -0.1426 -0.0132
  772MPD2    C111391   3.875   0.343  13.397 -0.6858  0.3613  0.8347
  772MPD2    C211392   3.787   0.432  13.445  0.0464  0.2163 -0.6285
  772MPD2    C311393   3.669   0.461  13.375 -0.7827 -0.6566  0.2724
  772MPD2    C411394   3.637   0.397  13.255 -0.1589  0.3001  0.2865
  772MPD2    C511395   3.727   0.303  13.211 -0.1430  0.6466 -0.3358
  772MPD2     H11396   3.813   0.484  13.537  2.4887  1.9452 -2.2897
  772MPD2    H111397   3.550   0.432  13.201  1.4640  0.2743 -2.3516
  772MPD2    H211398   3.916   0.212  13.236 -1.4057 -0.8269 -1.5062
  772MPD2    H311399   3.711   0.245  13.121 -1.2893 -1.4775  1.2338
  772MPD2     N11400   3.576   0.554  13.428 -0.3123  0.7252  0.7724
  772MPD2    H511401   3.501   0.577  13.365  1.3721 -2.2269 -2.3204
  772MPD2    N111402   3.994   0.324  13.469  1.0422  0.1551 -0.7120
  772MPD2    H711403   4.022   0.384  13.546  0.7062  0.0098 -0.4777
  773MPD2     C11404   3.148   1.684   0.370  0.4131 -0.7357  0.1939
  773MPD2    C111405   3.043   1.630   0.300  0.3013 -0.9012 -0.0372
  773MPD2    C211406   3.005   1.505   0.344  0.7557  0.2736 -0.4633
  773MPD2    C311407   3.073   1.436   0.446 -0.0453 -0.1471  0.3609
  773MPD2    C411408   3.178   1.497   0.514  0.9455  0.0816  0.2807
  773MPD2    C511409   3.205   1.624   0.481  0.6445 -0.4077  0.5110
  773MPD2     H11410   2.936   1.453   0.278 -0.1298 -0.8059  1.2958
  773MPD2    H111411   3.238   1.446   0.590  0.6256 -0.8086 -0.0607
  773MPD2    H211412   3.166   1.790   0.357  0.3204 -0.7560 -0.0889
  773MPD2    H311413   3.285   1.676   0.531  2.6133  0.1794 -3.2523
  773MPD2     N11414   3.050   1.298   0.467 -0.5091 -0.0019 -0.4823
  773MPD2    H511415   3.115   1.254   0.531  0.6711  0.0052 -1.6609
  773MPD2    N111416   2.979   1.691   0.186  0.3537  0.3825  0.1544
  773MPD2    H711417   2.899   1.642   0.147  1.2570 -0.4979 -0.5936
  774MPD2     C11418   1.807   1.209  13.788 -0.6427 -0.3730  0.8951
  774MPD2    C111419   1.932   1.212  13.727 -0.2445  0.3212  0.7868
  774MPD2    C211420   1.984   1.330  13.684  0.7956 -0.8166  0.4844
  774MPD2    C311421   1.919   1.445  13.704  0.0265 -0.9539  0.7653
  774MPD2    C411422   1.788   1.446  13.759  1.1690  0.1219 -0.2516
  774MPD2    C511423   1.736   1.328  13.806  0.0714  0.5701  0.0778
  774MPD2     H11424   2.080   1.333  13.634  1.3397 -1.6923  1.4559
  774MPD2    H111425   1.727   1.533  13.781  1.8034  0.6086 -0.4046
  774MPD2    H211426   1.770   1.120  13.839  0.2949 -2.3951 -1.9672
  774MPD2    H311427   1.640   1.330  13.858  0.2625 -1.6586  0.5143
  774MPD2     N11428   1.999   1.559  13.684  0.3769  0.1286 -0.0815
  774MPD2    H511429   2.092   1.552  13.645  0.6002 -0.4359  0.5739
  774MPD2    N111430   2.000   1.093  13.710 -0.1933 -0.6900  0.0687
  774MPD2    H711431   1.963   1.013  13.762 -0.3167 -0.8228 -0.2243
  775MPD2     C11432   3.948   2.245  15.829 -0.1059 -0.0228 -0.0308
  775MPD2    C111433   3.897   2.368  15.867 -0.6396  0.0589 -0.4644
  775MPD2    C211434   3.961   2.482  15.822  0.6564  0.2873  0.4245
  775MPD2    C311435   4.077   2.466  15.745  0.4836  0.0098 -0.2538
  775MPD2    C411436   4.130   2.349  15.714  0.6005  0.2978 -0.1068
  775MPD2    C511437   4.065   2.236  15.755 -0.0110 -0.1931 -0.0230
  775MPD2     H11438   3.923   2.583  15.833 -0.6384 -0.1414 -0.0680
  775MPD2    H111439   4.220   2.342  15.653 -1.0554 -1.0278 -2.3681
  775MPD2    H211440   3.889   2.158  15.858 -0.1884  1.1417  3.3484
  775MPD2    H311441   4.102   2.137  15.733  0.7105 -0.1821  1.1280
  775MPD2     N11442   4.146   2.573  15.690  0.2758  0.4251 -0.1260
  775MPD2    H511443   4.230   2.552  15.637 -0.1563  1.2327 -1.1244
  775MPD2    N111444   3.783   2.364  15.950  0.2821 -0.5718  0.9739
  775MPD2    H711445   3.744   2.272  15.966  0.7082 -0.1459  4.4129
  776MPD2     C11446   3.008   2.942  11.167 -0.5174  0.0164 -0.1068
  776MPD2    C111447   3.088   2.914  11.270 -0.2696  0.2899 -0.1509
  776MPD2    C211448   3.183   3.002  11.315 -0.4328 -0.3918 -0.0178
  776MPD2    C311449   3.203   3.127  11.252  0.2517 -0.2240 -0.2292
  776MPD2    C411450   3.122   3.151  11.143  0.4576  0.4142  0.2968
  776MPD2    C511451   3.029   3.058  11.100  0.1815  0.5996  0.0516
  776MPD2     H11452   3.255   2.973  11.391  2.9816 -0.6914 -3.3076
  776MPD2    H111453   3.132   3.241  11.084  0.9231 -0.8355 -1.5283
  776MPD2    H211454   2.930   2.874  11.136  0.5617 -0.5830 -1.5424
  776MPD2    H311455   2.985   3.068  11.001 -2.3372 -3.0568  0.7898
  776MPD2     N11456   3.294   3.225  11.300  0.6010 -0.0644 -0.6805
  776MPD2    H511457   3.287   3.316  11.256 -0.5126  0.5102  0.6984
  776MPD2    N111458   3.079   2.781  11.322 -0.5741 -0.2729  0.0422
  776MPD2    H711459   2.996   2.726  11.304  0.9326 -2.0890 -1.2716
  777MPD2     C11460   3.443   0.180   0.801 -0.1099 -0.1547  0.1540
  777MPD2    C111461   3.325   0.151   0.859  0.7681  0.7858  0.0081
  777MPD2    C211462   3.236   0.068   0.785  0.4861  0.0515 -0.7841
  777MPD2    C311463   3.287   0.003   0.677  0.5119  0.1570 -0.2825
  777MPD2    C411464   3.418   0.017   0.635  0.5019 -0.7764 -0.0114
  777MPD2    C511465   3.491   0.108   0.702  0.4022 -0.7821 -0.3022
  777MPD2     H11466   3.140   0.048   0.829  0.4099 -2.6654 -2.1905
  777MPD2    H111467   3.465   4.682   0.556 -0.1600 -0.4008 -0.6676
  777MPD2    H211468   3.499   0.268   0.830  0.6382 -0.5481 -0.0854
  777MPD2    H311469   3.588   0.141   0.666 -0.2381  0.0333 -1.3017
  777MPD2     N11470   3.205   4.627   0.622  0.0334  0.3542 -0.4416
  777MPD2    H511471   3.113   4.621   0.665 -0.1893  0.4724 -0.8995
  777MPD2    N111472   3.301   0.208   0.987 -0.1094 -0.0755  0.8523
  777MPD2    H711473   3.376   0.267   1.022  3.3202 -2.9977 -1.5429
  778MPD2     C11474   4.119   0.023  15.199  0.1980  0.0119 -0.7186
  778MPD2    C111475   4.011   0.028  15.112  0.5088  0.7054  0.2838
  778MPD2    C211476   4.013   0.122  15.012 -0.1186  0.1381 -0.2375
  778MPD2    C311477   4.120   0.206  15.002 -0.5181  0.0102  0.1755
  778MPD2    C411478   4.227   0.212  15.094  0.0119 -0.2307  0.2611
  778MPD2    C511479   4.220   0.117  15.193 -0.2305 -0.2205 -0.8743
  778MPD2     H11480   3.933   0.123  14.939  0.9912  3.2326 -1.4304
  778MPD2    H111481   4.308   0.283  15.088 -0.7538  0.5601 -0.6055
  778MPD2    H211482   4.125   4.663  15.271 -1.8683 -1.9022 -2.6831
  778MPD2    H311483   4.306   0.104  15.257  0.5249 -0.2880 -1.8978
  778MPD2     N11484   4.111   0.295  14.888 -0.1814 -0.0076 -0.5058
  778MPD2    H511485   4.047   0.257  14.820  1.1549 -1.9044 -0.7077
  778MPD2    N111486   3.896   4.665  15.131  0.6218  0.2098 -0.6042
  778MPD2    H711487   3.823   4.661  15.061 -0.8570  2.3072  0.8133
  779MPD2     C11488   3.932   3.848  14.483  0.0995  0.4064  0.0054
  779MPD2    C111489   4.006   3.841  14.364  0.2869 -0.0805 -0.3656
  779MPD2    C211490   3.995   3.929  14.263 -0.4228  0.4221 -0.7567
  779MPD2    C311491   3.916   4.041  14.278  0.6613  0.1037 -0.2739
  779MPD2    C411492   3.827   4.038  14.385 -0.1513  0.2056  0.0184
  779MPD2    C511493   3.825   3.936  14.484  0.7094  0.6614  0.9349
  779MPD2     H11494   4.071   3.914  14.187  0.1903  4.0527 -0.8731
  779MPD2    H111495   3.767   4.124  14.408  0.0031  0.0720  0.9111
  779MPD2    H211496   3.946   3.785  14.570 -0.2809 -1.3162 -1.1856
  779MPD2    H311497   3.762   3.941  14.572 -0.1223 -0.8637  0.4309
  779MPD2     N11498   3.940   4.148  14.189 -0.4285  0.5156  0.1489
  779MPD2    H511499   4.023   4.138  14.131  1.8624  0.9489  3.3094
  779MPD2    N111500   4.113   3.750  14.337  0.5870  0.5500  0.1114
  779MPD2    H711501   4.145   3.745  14.241 -0.0326  0.4741 -0.0876
  780MPD2     C11502   2.466   3.822   0.744  0.2132  0.4164  0.6303
  780MPD2    C111503   2.541   3.736   0.822  0.1965 -0.5114  0.2599
  780MPD2    C211504   2.680   3.734   0.818  0.1431  0.0901  1.0658
  780MPD2    C311505   2.740   3.811   0.724 -0.0562  0.2805  0.1791
  780MPD2    C411506   2.667   3.898   0.645  0.2175 -0.5604 -0.3460
  780MPD2    C511507   2.531   3.907   0.662 -0.2473 -0.0927  0.5890
  780MPD2     H11508   2.736   3.668   0.883 -0.9338 -1.6095  0.2857
  780MPD2    H111509   2.713   3.971   0.580  1.4377 -0.3643  0.7375
  780MPD2    H211510   2.358   3.824   0.735  0.0124 -0.0497  3.0893
  780MPD2    H311511   2.475   3.980   0.605  0.0908 -0.9391 -0.8389
  780MPD2     N11512   2.883   3.802   0.721 -0.2436  0.1376  0.4078
  780MPD2    H511513   2.924   3.730   0.779 -1.5048 -0.5044  0.4969
  780MPD2    N111514   2.466   3.652   0.911  0.0436 -0.1164  0.2838
  780MPD2    H711515   2.368   3.666   0.889  0.7979  2.5413 -1.2362
  781MPD2     C11516   0.674   0.813  12.220 -0.0291  0.4326  0.1656
  781MPD2    C111517   0.797   0.830  12.280  0.3502  0.2101  0.2191
  781MPD2    C211518   0.903   0.886  12.209  0.0812 -0.0608 -0.3170
  781MPD2    C311519   0.873   0.950  12.090  0.3469 -0.1824 -0.0940
  781MPD2    C411520   0.755   0.931  12.027 -0.4251  0.3096  0.5421
  781MPD2    C511521   0.655   0.866  12.093 -0.1802  0.0065 -0.3106
  781MPD2     H11522   0.996   0.906  12.260  0.5172  1.0812 -1.5435
  781MPD2    H111523   0.732   0.962  11.925 -0.5110  2.2592  1.1445
  781MPD2    H211524   0.601   0.754  12.274 -0.4339  1.1667  0.4247
  781MPD2    H311525   0.566   0.844  12.036  0.1104  0.9097 -1.1007
  781MPD2     N11526   0.960   1.038  12.019  0.3459 -0.4271 -0.2345
  781MPD2    H511527   0.919   1.079  11.935  0.0584  0.5222  0.3671
  781MPD2    N111528   0.819   0.778  12.409 -0.1451  0.2132  0.1360
  781MPD2    H711529   0.919   0.772  12.429 -0.0103  0.5323 -0.4412
  782MPD2     C11530   3.632   1.313   9.915 -0.2657 -0.1872 -0.3210
  782MPD2    C111531   3.738   1.336  10.010 -0.1942  0.5267 -0.5347
  782MPD2    C211532   3.764   1.466  10.046  0.4263  0.2528 -1.1807
  782MPD2    C311533   3.711   1.574   9.983  0.4649 -0.3973  0.3350
  782MPD2    C411534   3.630   1.559   9.871 -0.3899  0.6417 -0.1672
  782MPD2    C511535   3.578   1.427   9.857 -0.4566  0.0528 -0.2617
  782MPD2     H11536   3.840   1.490  10.120  0.3834  0.7168 -1.2915
  782MPD2    H111537   3.585   1.640   9.815  3.3353  3.5188  1.0373
  782MPD2    H211538   3.597   1.213   9.890  0.4568  0.2947 -3.1763
  782MPD2    H311539   3.504   1.414   9.779  1.3162 -0.9374 -1.8009
  782MPD2     N11540   3.745   1.696  10.039  0.5056 -0.3377  0.4886
  782MPD2    H511541   3.816   1.690  10.112  1.9773 -2.3020 -1.1059
  782MPD2    N111542   3.794   1.228  10.083  0.2767 -0.0608 -0.2125
  782MPD2    H711543   3.751   1.137  10.068 -1.1390  0.2379  2.0907
  783MPD2     C11544   3.346   1.062  10.795 -0.2405  0.5349  0.2849
  783MPD2    C111545   3.385   1.182  10.734 -0.3207  0.6620  0.5135
  783MPD2    C211546   3.496   1.183  10.648 -0.6473  0.1517  0.8025
  783MPD2    C311547   3.557   1.065  10.619 -0.2616 -0.1227  1.0003
  783MPD2    C411548   3.502   0.946  10.664 -0.4553  0.0144  0.0569
  783MPD2    C511549   3.405   0.941  10.758 -0.8061 -0.4183  0.9123
  783MPD2     H11550   3.516   1.282  10.608  0.6163  0.9349  3.3712
  783MPD2    H111551   3.540   0.848  10.635  1.9058  0.1294  2.7049
  783MPD2    H211552   3.262   1.066  10.863  1.8508 -0.1185  2.9136
  783MPD2    H311553   3.370   0.849  10.804  0.5892  0.1126  3.0419
  783MPD2     N11554   3.664   1.070  10.530  0.4943  0.0226  0.4460
  783MPD2    H511555   3.674   1.158  10.482  0.0024  0.0500  0.4000
  783MPD2    N111556   3.314   1.299  10.777  0.0003  0.2823 -0.3101
  783MPD2    H711557   3.229   1.284  10.830  0.6833  2.4807  1.3950
  784MPD2     C11558   0.383   2.630   0.251  0.4978  0.8048 -0.2110
  784MPD2    C111559   0.390   2.636   0.393 -0.3236 -0.2838  0.2153
  784MPD2    C211560   0.289   2.696   0.462 -0.3093 -0.0628  0.5591
  784MPD2    C311561   0.171   2.727   0.399  0.2820  0.0390  0.0325
  784MPD2    C411562   0.160   2.718   0.262 -0.0663 -0.1471 -0.0059
  784MPD2    C511563   0.266   2.667   0.192 -0.0573 -0.0363 -0.1450
  784MPD2     H11564   0.292   2.700   0.571  1.1389 -1.0747  0.5569
  784MPD2    H111565   0.081   2.757   0.200 -1.3998  0.9211  2.3542
  784MPD2    H211566   0.469   2.600   0.193  0.3692  0.5451 -0.2669
  784MPD2    H311567   0.263   2.669   0.083  1.6102  1.2581 -0.1655
  784MPD2     N11568   0.069   2.773   0.485  0.1831  0.4735  0.4692
  784MPD2    H511569   0.086   2.752   0.583  0.1935 -0.7502  0.2079
  784MPD2    N111570   0.508   2.577   0.464  0.2383 -0.3809  0.1682
  784MPD2    H711571   0.499   2.584   0.565  0.0607  0.5248  0.0929
  785MPD2     C11572   1.349   0.059  10.593 -0.2999  0.3291 -0.3077
  785MPD2    C111573   1.308   0.183  10.640  0.6700  0.0308  0.1430
  785MPD2    C211574   1.176   0.215  10.628 -0.7158 -0.5265 -0.6399
  785MPD2    C311575   1.086   0.130  10.565  0.1182  0.1250 -0.3322
  785MPD2    C411576   1.133   0.001  10.525 -0.4265 -0.0549  0.0840
  785MPD2    C511577   1.265   4.686  10.543 -0.1427  0.4268 -0.0555
  785MPD2     H11578   1.141   0.316  10.648  1.4183  0.2723 -1.0000
  785MPD2    H111579   1.055   4.655  10.491  0.9260 -1.6432  0.0854
  785MPD2    H211580   1.454   0.031  10.585 -0.1809  0.4752  0.7587
  785MPD2    H311581   1.286   4.584  10.515  1.6580  0.4248  1.2257
  785MPD2     N11582   0.959   0.183  10.527  0.4762 -0.0626  0.1339
  785MPD2    H511583   0.935   0.279  10.549  1.1900  0.0694  0.3349
  785MPD2    N111584   1.410   0.271  10.682  0.0168 -0.2839  0.9423
  785MPD2    H711585   1.508   0.250  10.664 -0.3982 -1.3867  0.0285
  786MPD2     C11586   4.693   3.190  14.543  0.0340  0.3865  0.2849
  786MPD2    C111587   0.061   3.087  14.533 -0.5251  1.4579 -0.2981
  786MPD2    C211588   0.148   3.067  14.633 -0.2994  0.4371 -0.3385
  786MPD2    C311589   0.160   3.155  14.742 -0.2494 -0.2718 -0.2435
  786MPD2    C411590   0.075   3.263  14.744 -0.8421  0.5084 -0.1702
  786MPD2    C511591   4.700   3.280  14.652  0.2298 -0.3269  0.2715
  786MPD2     H11592   0.204   2.974  14.620  0.8218  1.3311 -1.9398
  786MPD2    H111593   0.063   3.319  14.836 -0.4210  2.1529 -1.1182
  786MPD2    H211594   4.616   3.212  14.470  0.1449  0.0768  0.0772
  786MPD2    H311595   4.630   3.362  14.664  0.9914  0.2174  0.9771
  786MPD2     N11596   0.251   3.136  14.842  0.5140 -0.5595 -0.2734
  786MPD2    H511597   0.255   3.208  14.914 -0.8239 -0.5106 -0.2340
  786MPD2    N111598   0.039   2.992  14.430  0.4357  0.1217  0.1310
  786MPD2    H711599   0.104   2.915  14.438 -0.5092 -0.5865  0.9326
  787MPD2     C11600   4.570   2.490  14.708  0.1639 -0.7897 -0.0967
  787MPD2    C111601   4.621   2.442  14.593 -0.3932  0.1757 -0.1387
  787MPD2    C211602   4.691   2.327  14.576  0.3925 -0.3140  0.6747
  787MPD2    C311603   0.003   2.253  14.691  0.1469  0.1292 -0.3331
  787MPD2    C411604   4.669   2.299  14.814 -0.7921 -0.2553 -0.7310
  787MPD2    C511605   4.596   2.416  14.822 -0.9008  0.0747  0.0847
  787MPD2     H11606   0.015   2.298  14.482 -0.3804 -1.1749  0.5823
  787MPD2    H111607   4.702   2.249  14.905 -1.3122 -0.3420 -0.5936
  787MPD2    H211608   4.516   2.584  14.714  0.4603 -0.5568 -1.0474
  787MPD2    H311609   4.569   2.448  14.922  0.6292  1.4868  0.0413
  787MPD2     N11610   0.093   2.146  14.679  0.2232 -0.7981 -0.2367
  787MPD2    H511611   0.122   2.126  14.584  0.2350 -1.1842 -0.1509
  787MPD2    N111612   4.610   2.537  14.482 -0.0343  0.0935  0.2682
  787MPD2    H711613   4.567   2.628  14.496  0.0217  0.4209 -1.6142
  788MPD2     C11614   2.001   0.907   0.574 -0.4088 -0.5017  0.0597
  788MPD2    C111615   1.934   0.848   0.466 -0.5989 -0.3088 -0.2928
  788MPD2    C211616   1.883   0.922   0.365  0.0688 -0.1580 -0.0098
  788MPD2    C311617   1.873   1.058   0.381  0.1645 -0.5437 -0.5882
  788MPD2    C411618   1.923   1.120   0.491  0.3358 -0.4760  0.3182
  788MPD2    C511619   1.982   1.042   0.590 -0.4878  1.0363  0.1305
  788MPD2     H11620   1.848   0.869   0.277  1.2564 -0.8881 -0.0444
  788MPD2    H111621   1.914   1.228   0.500 -0.0899 -0.5496  0.7771
  788MPD2    H211622   2.061   0.854   0.647  0.0361 -4.4904 -3.1815
  788MPD2    H311623   2.014   1.084   0.684  1.1845 -3.0971  1.4092
  788MPD2     N11624   1.822   1.139   0.281 -0.0820 -0.1373 -0.1832
  788MPD2    H511625   1.857   1.235   0.278  0.7010 -0.4740 -1.7444
  788MPD2    N111626   1.924   0.704   0.457 -0.1087  0.1451  0.3660
  788MPD2    H711627   1.879   0.674   0.371 -1.5118  2.7806  0.2100
  789MPD2     C11628   2.168   1.340  16.014 -0.6047  0.6677 -0.2199
  789MPD2    C111629   2.148   1.307  16.151  0.1734  0.4632  0.3969
  789MPD2    C211630   2.069   1.394  16.220 -0.2332  0.9371  0.1370
  789MPD2    C311631   2.034   1.519  16.171 -0.0270 -0.2870 -0.5576
  789MPD2    C411632   2.050   1.544  16.041  0.7467 -0.1870 -0.3368
  789MPD2    C511633   2.115   1.453  15.964  1.1655 -0.4354 -1.3028
  789MPD2     H11634   2.040   1.366  16.321  0.0427 -2.3854 -0.7093
  789MPD2    H111635   2.026   1.643  16.001 -1.6098 -0.0897  1.3230
  789MPD2    H211636   2.221   1.283  15.939 -1.2205  1.7891 -1.5175
  789MPD2    H311637   2.126   1.468  15.857  2.7286  2.0507 -0.7963
  789MPD2     N11638   1.974   1.618  16.249 -0.3508  0.3645  0.3734
  789MPD2    H511639   1.939   1.702  16.203 -1.1621  0.0642  0.4434
  789MPD2    N111640   2.180   1.186  16.214  0.9299  0.3557  0.4867
  789MPD2    H711641   2.154   1.170  16.310 -0.7272  1.8870  0.2731
  790MPD2     C11642   2.736   2.961  13.907  0.2656  0.1517 -0.1022
  790MPD2    C111643   2.866   2.963  13.864  0.1552 -0.9029  0.4929
  790MPD2    C211644   2.898   2.934  13.732  0.0743  0.0966 -0.8875
  790MPD2    C311645   2.792   2.903  13.644 -0.1994  0.1361  0.6782
  790MPD2    C411646   2.664   2.892  13.693 -0.3621 -0.2102 -0.1779
  790MPD2    C511647   2.639   2.930  13.825  0.1841  0.1418 -0.0209
  790MPD2     H11648   2.999   2.911  13.699  0.1796 -0.6694 -0.0322
  790MPD2    H111649   2.579   2.853  13.638 -1.1140  1.5800 -0.2826
  790MPD2    H211650   2.709   2.977  14.011  0.4879 -0.3320  0.0338
  790MPD2    H311651   2.536   2.933  13.858  0.5057 -0.8680  1.0478
  790MPD2     N11652   2.813   2.861  13.517 -0.4957 -0.4186 -0.1371
  790MPD2    H511653   2.910   2.842  13.495  0.2005  2.5608  0.4034
  790MPD2    N111654   2.960   2.977  13.961  0.0321 -0.2039 -0.9950
  790MPD2    H711655   2.927   2.971  14.057 -1.3131 -2.7430 -1.6155
  791MPD2     C11656   2.436   2.920  12.818 -0.3123  0.0064 -0.1926
  791MPD2    C111657   2.472   2.795  12.846  0.0250  0.0140 -0.3592
  791MPD2    C211658   2.396   2.688  12.805 -0.6161 -0.2076  0.2915
  791MPD2    C311659   2.275   2.702  12.745  0.2049  0.2677 -0.2309
  791MPD2    C411660   2.234   2.831  12.721  0.9374  0.1229 -0.1925
  791MPD2    C511661   2.303   2.937  12.774 -0.5532  0.1431 -0.3601
  791MPD2     H11662   2.434   2.586  12.805 -0.6601 -0.2237  0.5858
  791MPD2    H111663   2.150   2.865  12.661 -1.5862 -1.9658  2.1544
  791MPD2    H211664   2.494   3.005  12.854 -2.1408  1.5239 -0.8242
  791MPD2    H311665   2.269   3.039  12.755  0.5347  0.2011 -2.0312
  791MPD2     N11666   2.217   2.587  12.694  0.0953  0.1741  0.0858
  791MPD2    H511667   2.257   2.494  12.707 -2.6475 -1.2946 -1.8918
  791MPD2    N111668   2.590   2.777  12.918 -0.1101 -0.1882 -0.2263
  791MPD2    H711669   2.633   2.862  12.953 -0.3871 -0.1701  0.0627
  792MPD2     C11670   3.705   2.454  11.136  1.0527  0.1957 -0.9674
  792MPD2    C111671   3.577   2.496  11.103 -0.4362 -0.2235 -0.1607
  792MPD2    C211672   3.497   2.412  11.024 -0.8211 -0.1622  0.1947
  792MPD2    C311673   3.544   2.290  10.970  0.1057  0.3186 -0.6095
  792MPD2    C411674   3.676   2.252  11.006  0.0295 -0.2774 -0.1062
  792MPD2    C511675   3.748   2.332  11.093 -0.2941  0.4607  0.1424
  792MPD2     H11676   3.396   2.444  11.000 -1.0373 -1.0542 -0.1003
  792MPD2    H111677   3.723   2.160  10.971 -3.1564 -2.2415  0.6993
  792MPD2    H211678   3.765   2.514  11.203 -1.0847  0.3743  0.7858
  792MPD2    H311679   3.838   2.287  11.133 -0.4403  1.0489  1.1410
  792MPD2     N11680   3.477   2.214  10.872  0.2461  0.6039 -0.4916
  792MPD2    H511681   3.537   2.140  10.837 -0.2416 -0.6353  1.2965
  792MPD2    N111682   3.544   2.629  11.142 -0.6560 -0.3478 -0.2375
  792MPD2    H711683   3.612   2.689  11.188  2.1133 -2.7800 -1.1042
  793MPD2     C11684   2.800   1.860  10.141 -0.4888 -0.0721  0.5217
  793MPD2    C111685   2.926   1.899  10.112 -0.4673 -0.2391 -0.5833
  793MPD2    C211686   3.009   1.923  10.224  0.4729  0.4076  0.2160
  793MPD2    C311687   2.973   1.899  10.361 -1.2442  0.6151 -0.0446
  793MPD2    C411688   2.845   1.851  10.386  0.0876  0.1240 -0.5202
  793MPD2    C511689   2.759   1.831  10.273 -0.1775 -0.0610 -0.6012
  793MPD2     H11690   3.104   1.972  10.209 -0.8359  2.3371 -1.7992
  793MPD2    H111691   2.795   1.857  10.482  1.2798 -1.5054  0.2078
  793MPD2    H211692   2.733   1.833  10.060  1.0900 -2.3289 -0.0432
  793MPD2    H311693   2.654   1.806  10.285  0.3253 -1.3367  1.0559
  793MPD2     N11694   3.072   1.935  10.455 -0.3027 -0.1161 -0.5268
  793MPD2    H511695   3.162   1.965  10.421  1.2987 -3.0558  1.0349
  793MPD2    N111696   2.966   1.931   9.981  0.1691  0.4298  0.2376
  793MPD2    H711697   3.061   1.966   9.977 -0.0273  0.7061 -1.7239
  794MPD2     C11698   2.995   2.061  17.091  0.7414 -0.0363 -0.5903
  794MPD2    C111699   2.867   2.022  17.141  0.7771  0.3580  0.2562
  794MPD2    C211700   2.758   2.013  17.049  0.3441  0.5222 -0.5851
  794MPD2    C311701   2.772   2.030  16.914  0.2068  0.4570 -0.3489
  794MPD2    C411702   2.898   2.049  16.864  1.0119 -0.2311  0.7502
  794MPD2    C511703   3.010   2.069  16.952  0.4646 -0.0365  0.2985
  794MPD2     H11704   2.663   1.985  17.093  1.4334 -0.2128  1.2908
  794MPD2    H111705   2.922   2.074  16.761  0.2307  0.9886  0.8588
  794MPD2    H211706   3.080   2.084  17.154  0.8543  0.4397 -0.9200
  794MPD2    H311707   3.108   2.085  16.909  0.1191 -1.3089 -0.9687
  794MPD2     N11708   2.660   2.038  16.823  0.2329 -0.3937  0.0090
  794MPD2    H511709   2.678   2.034  16.723 -0.9326  1.6585 -0.2827
  794MPD2    N111710   2.844   2.002  17.283 -0.5380  0.0208 -0.2299
  794MPD2    H711711   2.748   1.983  17.308 -0.4316 -0.5798 -0.2876
  795MPD2     C11712   0.392   4.597  13.521  0.2897  0.0984 -0.3879
  795MPD2    C111713   0.373   4.466  13.492  0.6248  0.7573  0.1303
  795MPD2    C211714   0.477   4.374  13.538  0.2521  0.2832 -0.5134
  795MPD2    C311715   0.600   4.417  13.590  0.4598  0.2119  0.1041
  795MPD2    C411716   0.616   4.551  13.604  0.4230 -0.4727 -0.5417
  795MPD2    C511717   0.512   4.637  13.573  0.0627  0.0516  0.8231
  795MPD2     H11718   0.464   4.267  13.525  0.2727  0.4001 -1.5016
  795MPD2    H111719   0.705   4.596  13.645  0.3194 -0.7338 -0.0316
  795MPD2    H211720   0.322   4.676  13.494  0.0704  0.8394  2.2958
  795MPD2    H311721   0.521   0.020  13.602  1.9260 -0.4665  2.0626
  795MPD2     N11722   0.706   4.328  13.628 -0.0810 -0.3113  0.1752
  795MPD2    H511723   0.687   4.229  13.623 -1.3067 -0.0084 -0.9235
  795MPD2    N111724   0.264   4.406  13.424  0.2080 -0.0585  0.1838
  795MPD2    H711725   0.272   4.307  13.403 -1.4556 -0.1435 -0.0652
  796MPD2     C11726   4.437   1.099  15.943 -0.0936  0.3407 -0.5590
  796MPD2    C111727   4.525   1.166  16.024  0.2658 -0.1712  0.3664
  796MPD2    C211728   4.557   1.295  15.989 -0.4280 -0.3888  0.5367
  796MPD2    C311729   4.509   1.350  15.875  0.1481 -0.3176 -0.8162
  796MPD2    C411730   4.433   1.278  15.792 -0.2216  0.4788  0.4276
  796MPD2    C511731   4.401   1.149  15.824  0.3155  0.4992 -0.1060
  796MPD2     H11732   4.621   1.359  16.048 -0.8370 -0.3846  0.9753
  796MPD2    H111733   4.395   1.321  15.700  1.2896 -0.2369 -0.5303
  796MPD2    H211734   4.404   1.003  15.980  0.6110  0.6579  0.8665
  796MPD2    H311735   4.330   1.090  15.768 -0.9860  0.2378  1.8244
  796MPD2     N11736   4.556   1.484  15.850 -0.1877 -1.0391 -0.1514
  796MPD2    H511737   4.621   1.523  15.918 -0.9008  0.5197 -0.3606
  796MPD2    N111738   4.588   1.092  16.125  0.4422  0.0809  0.0592
  796MPD2    H711739   4.557   0.995  16.128  1.2195 -0.2026 -0.9854
  797MPD2     C11740   1.138   1.236  17.011  0.0255 -0.2781  0.5314
  797MPD2    C111741   1.239   1.292  16.938 -0.6359 -0.0891 -0.1709
  797MPD2    C211742   1.206   1.373  16.829 -0.2452 -0.2460  0.1808
  797MPD2    C311743   1.073   1.386  16.785  0.5159 -0.1197  0.1792
  797MPD2    C411744   0.970   1.322  16.854  0.2198  0.0015  0.0255
  797MPD2    C511745   1.009   1.261  16.966 -0.2425  0.6175  0.4856
  797MPD2     H11746   1.294   1.418  16.786  0.0158 -1.2463 -0.3323
  797MPD2    H111747   0.866   1.328  16.825 -0.1714  0.4048  1.5008
  797MPD2    H211748   1.145   1.188  17.108 -2.4357  0.5161  1.1079
  797MPD2    H311749   0.923   1.212  17.009  0.3702 -3.0095 -2.3795
  797MPD2     N11750   1.034   1.461  16.670  0.0339 -0.0827 -0.7700
  797MPD2    H511751   0.937   1.463  16.641 -0.0397 -0.6213 -0.5584
  797MPD2    N111752   1.378   1.270  16.954  0.1133 -0.5138 -0.0038
  797MPD2    H711753   1.436   1.315  16.885 -0.4184  0.4811  0.1985
  798MPD2     C11754   1.604   1.412  16.308 -0.1876 -0.1228  0.0590
  798MPD2    C111755   1.510   1.442  16.394 -0.2695  0.1012 -0.3166
  798MPD2    C211756   1.541   1.436  16.527  0.1225 -1.1718 -0.2971
  798MPD2    C311757   1.654   1.384  16.575  0.6182  1.1941 -0.7432
  798MPD2    C411758   1.752   1.363  16.485 -0.0103 -0.3572  0.4412
  798MPD2    C511759   1.722   1.357  16.347  0.0970 -0.6297  0.4328
  798MPD2     H11760   1.464   1.467  16.597 -1.8842 -1.3501 -2.4027
  798MPD2    H111761   1.853   1.333  16.508  0.3256  1.1872  1.0130
  798MPD2    H211762   1.597   1.423  16.201  0.2484  1.0520  0.1481
  798MPD2    H311763   1.803   1.337  16.278 -0.0139 -2.4718  0.8317
  798MPD2     N11764   1.673   1.378  16.715  0.4793  0.4009  0.3190
  798MPD2    H511765   1.589   1.406  16.763  1.9346  0.8125  2.6357
  798MPD2    N111766   1.386   1.503  16.366 -0.2586  0.8049 -0.4266
  798MPD2    H711767   1.328   1.527  16.446  0.2503  0.8393 -0.0720
  799MPD2     C11768   4.581   2.149  14.137 -0.1161  0.9373  0.0414
  799MPD2    C111769   4.491   2.053  14.170  0.1105  0.0258 -0.2494
  799MPD2    C211770   4.385   2.033  14.081 -0.4980  0.4048  0.3952
  799MPD2    C311771   4.376   2.102  13.957 -0.9863 -0.2575 -0.3021
  799MPD2    C411772   4.471   2.195  13.931  0.1038 -0.8758  0.1712
  799MPD2    C511773   4.573   2.216  14.019  0.0375  0.1489 -0.1263
  799MPD2     H11774   4.305   1.970  14.117 -1.2101  1.7586  1.1696
  799MPD2    H111775   4.471   2.266  13.849 -1.6340 -1.2025 -0.1077
  799MPD2    H211776   4.666   2.175  14.199  0.7386 -0.3748 -0.5928
  799MPD2    H311777   4.641   2.300  14.004  0.1177  0.1312  0.1407
  799MPD2     N11778   4.277   2.069  13.860 -0.3401  0.3548  0.7905
  799MPD2    H511779   4.286   2.129  13.779  3.2476 -1.4064 -0.1223
  799MPD2    N111780   4.485   1.987  14.292  0.7686 -0.1296 -0.0999
  799MPD2    H711781   4.404   1.930  14.313  0.4056  0.6608  0.6579
  800MPD2     C11782   0.429   4.229  14.030  0.0193 -0.1286  0.4752
  800MPD2    C111783   0.525   4.151  14.085 -0.4373 -0.3096 -0.1425
  800MPD2    C211784   0.482   4.020  14.121 -0.3896  0.2663  0.3493
  800MPD2    C311785   0.354   3.977  14.103  0.2399 -0.6684  0.2320
  800MPD2    C411786   0.260   4.063  14.040 -0.1484  0.5432  0.3372
  800MPD2    C511787   0.304   4.188  14.010  0.2888  0.8519 -0.8388
  800MPD2     H11788   0.547   3.949  14.169  1.0836  1.0448 -0.4967
  800MPD2    H111789   0.159   4.034  14.012  0.2684  1.6068 -2.2110
  800MPD2    H211790   0.454   4.331  14.003 -1.4933 -0.0205 -0.5541
  800MPD2    H311791   0.242   4.254  13.951 -0.1563  1.4975  0.3412
  800MPD2     N11792   0.336   3.839  14.132 -0.7282  0.1688 -0.1283
  800MPD2    H511793   0.417   3.791  14.170 -0.8424  0.2573  0.2252
  800MPD2    N111794   0.661   4.196  14.090  0.2845  0.1103  0.4207
  800MPD2    H711795   0.676   4.294  14.067 -1.7263  0.1985 -0.5497
  801MPD2     C11796   0.685   4.648  14.207  0.4633  0.2161 -0.2730
  801MPD2    C111797   0.782   4.562  14.247  0.4160  0.2904 -0.0750
  801MPD2    C211798   0.743   4.453  14.331 -0.1870 -0.0409 -0.0919
  801MPD2    C311799   0.611   4.432  14.363  0.2333  0.8128 -0.5823
  801MPD2    C411800   0.514   4.522  14.322 -0.5551  0.7852 -0.3957
  801MPD2    C511801   0.557   4.623  14.240 -0.2326 -0.3441 -0.0357
  801MPD2     H11802   0.828   4.397  14.368  1.1341  1.2935 -1.0968
  801MPD2    H111803   0.411   4.511  14.352 -0.2700  1.8579  0.9692
  801MPD2    H211804   0.714   0.008  14.141  0.3772 -0.1011 -0.6983
  801MPD2    H311805   0.476   4.689  14.209 -0.7101 -1.1913 -0.6114
  801MPD2     N11806   0.564   4.316  14.430  0.3116  0.3191 -0.3501
  801MPD2    H511807   0.466   4.314  14.456  0.2783  1.7598 -0.3633
  801MPD2    N111808   0.917   4.589  14.223 -1.0824 -0.1254 -0.0366
  801MPD2    H711809   0.941   4.684  14.196 -0.1273 -0.5006 -0.5008
  802MPD2     C11810   4.678   4.096   0.498  0.3523  0.8251 -0.4588
  802MPD2    C111811   4.557   4.163   0.475  0.8191  0.2696 -0.4892
  802MPD2    C211812   4.521   4.187   0.345 -0.3027  0.1144  0.3062
  802MPD2    C311813   4.593   4.156   0.237 -0.1108 -0.8174 -1.1138
  802MPD2    C411814   4.716   4.104   0.260  0.1013 -0.4490  0.1538
  802MPD2    C511815   0.031   4.065   0.387  0.4292 -0.0359  0.2826
  802MPD2     H11816   4.426   4.237   0.329  0.0659  0.9237  0.6392
  802MPD2    H111817   0.062   4.063   0.185 -0.0263  0.1295 -0.2730
  802MPD2    H211818   4.705   4.062   0.598 -0.2034 -2.3299 -1.3868
  802MPD2    H311819   0.125   4.014   0.404  0.3851 -0.6361 -1.3294
  802MPD2     N11820   4.537   4.177   0.111 -0.3544  0.1197  0.2833
  802MPD2    H511821   4.449   4.226   0.103 -1.8698 -2.5767  0.6150
  802MPD2    N111822   4.475   4.191   0.588  0.1699 -0.1035  0.2676
  802MPD2    H711823   4.517   4.178   0.679 -0.6614  0.9747  0.8006
  803MPD2     C11824   1.418   2.918  11.589 -0.3819  0.4651  0.2356
  803MPD2    C111825   1.425   2.914  11.728  1.4649  0.0461  0.0054
  803MPD2    C211826   1.369   2.803  11.791 -0.0719  0.1044 -0.1752
  803MPD2    C311827   1.295   2.710  11.718  0.4907 -0.2140 -0.0969
  803MPD2    C411828   1.281   2.723  11.583 -0.4377  0.4869 -0.4753
  803MPD2    C511829   1.351   2.823  11.516 -1.2969  1.2870 -0.0324
  803MPD2     H11830   1.369   2.795  11.899  1.2809 -1.1475 -0.2827
  803MPD2    H111831   1.221   2.653  11.526  0.1701 -0.2142 -0.2515
  803MPD2    H211832   1.439   3.005  11.528 -2.0108  0.6537 -0.0697
  803MPD2    H311833   1.334   2.835  11.410  1.2777 -0.2619 -0.6367
  803MPD2     N11834   1.223   2.603  11.781 -0.0206  0.3277  0.5563
  803MPD2    H511835   1.164   2.557  11.712  2.0553  0.1926 -1.1238
  803MPD2    N111836   1.485   3.013  11.801  0.2133 -0.5213 -0.6614
  803MPD2    H711837   1.453   3.022  11.897  0.3508 -0.5277 -0.6146
  804MPD2     C11838   0.647   4.096  16.944  0.1248 -0.2410  0.1017
  804MPD2    C111839   0.586   4.062  17.068 -0.0201 -0.3033  0.1706
  804MPD2    C211840   0.602   4.152  17.169 -0.1438 -0.3996  0.1385
  804MPD2    C311841   0.674   4.267  17.160 -0.2570 -0.2894 -0.0244
  804MPD2    C411842   0.738   4.300  17.046  0.7008 -0.1610  0.1117
  804MPD2    C511843   0.719   4.217  16.937 -0.5603  0.0017 -0.5550
  804MPD2     H11844   0.551   4.126  17.261  1.4719 -0.0480  1.1196
  804MPD2    H111845   0.802   4.386  17.033  1.1097 -0.1723  1.9463
  804MPD2    H211846   0.640   4.035  16.855  0.7576  0.6244 -0.5440
  804MPD2    H311847   0.770   4.237  16.843 -0.5010  2.2422 -0.0457
  804MPD2     N11848   0.697   4.346  17.277 -0.7442 -0.4928  0.8179
  804MPD2    H511849   0.677   4.292  17.361 -1.7730 -0.9845  0.2638
  804MPD2    N111850   0.517   3.944  17.087 -0.0686 -0.3102  0.1268
  804MPD2    H711851   0.460   3.938  17.170 -1.4552  0.1109 -0.8067
  805MPD2     C11852   4.197   2.224  15.397  0.3625  0.3758  0.0427
  805MPD2    C111853   4.248   2.331  15.324 -0.1842 -0.5990 -0.6166
  805MPD2    C211854   4.385   2.354  15.341  0.0636 -0.8574  0.5026
  805MPD2    C311855   4.465   2.282  15.429 -0.1074  0.7188 -0.3235
  805MPD2    C411856   4.401   2.176  15.492 -0.3183  0.3062 -0.3568
  805MPD2    C511857   4.270   2.150  15.477 -0.4166  0.3640  0.0120
  805MPD2     H11858   4.431   2.436  15.288 -0.7349 -0.0577  1.0454
  805MPD2    H111859   4.451   2.112  15.564 -0.5164 -0.5449 -0.9871
  805MPD2    H211860   4.092   2.197  15.391  0.3619  0.5853 -0.8999
  805MPD2    H311861   4.222   2.067  15.528 -1.4002  0.6786 -0.4005
  805MPD2     N11862   4.597   2.316  15.447 -0.9025  0.7005  0.5388
  805MPD2    H511863   4.621   2.388  15.380  0.2545 -0.7931 -0.6531
  805MPD2    N111864   4.172   2.422  15.254  0.4924  0.7056  0.1232
  805MPD2    H711865   4.214   2.481  15.183  0.0614  2.3532  1.2215
  806MPD2     C11866   0.598   1.958   0.022  0.4037 -0.1996  0.2188
  806MPD2    C111867   0.504   2.021   0.108  0.6687  0.2028 -0.1198
  806MPD2    C211868   0.463   2.146   0.063 -0.5566 -0.3853 -0.0457
  806MPD2    C311869   0.532   2.217  17.652 -0.5007 -0.2802  0.8438
  806MPD2    C411870   0.621   2.150  17.572  0.3084  0.3363  0.1603
  806MPD2    C511871   0.655   2.019  17.597  0.1269 -0.6419 -0.0165
  806MPD2     H11872   0.388   2.200   0.119  0.3348  0.1045  0.6711
  806MPD2    H111873   0.661   2.201  17.485  1.8747 -1.3949 -0.1374
  806MPD2    H211874   0.634   1.856   0.030 -1.5907 -1.1180 -2.6509
  806MPD2    H311875   0.729   1.975  17.532  1.2798  3.4791 -1.4672
  806MPD2     N11876   0.508   2.356  17.641 -0.2767  0.0638 -0.9985
  806MPD2    H511877   0.425   2.380   0.009  0.8604 -1.0873  1.2936
  806MPD2    N111878   0.466   1.964   0.224  0.9404 -0.4227 -0.8580
  806MPD2    H711879   0.515   1.877   0.240  0.1262 -0.4500  1.4795
  807MPD2     C11880   0.006   1.746   0.935 -0.2215 -0.4934  0.0154
  807MPD2    C111881   0.140   1.722   0.921 -0.6118 -0.2735 -0.5665
  807MPD2    C211882   0.203   1.635   1.009  0.1760  0.4281  0.4061
  807MPD2    C311883   0.133   1.567   1.104 -0.3471  0.0381  0.5043
  807MPD2    C411884   4.721   1.587   1.114  0.0471  0.2954 -0.4710
  807MPD2    C511885   4.660   1.677   1.030  0.3497  0.9420 -0.2934
  807MPD2     H11886   0.310   1.631   1.026  0.0669 -2.4579  0.4699
  807MPD2    H111887   4.654   1.549   1.191  0.1016 -0.4567 -0.7926
  807MPD2    H211888   4.688   1.820   0.866  2.9876  1.4887  0.3316
  807MPD2    H311889   4.554   1.693   1.043  0.3835  0.2751  0.7969
  807MPD2     N11890   0.204   1.480   1.193 -0.2096 -0.0906  0.1637
  807MPD2    H511891   0.301   1.476   1.164 -0.1369  1.2909  0.1970
  807MPD2    N111892   0.228   1.793   0.835  0.0152 -0.1061 -0.2275
  807MPD2    H711893   0.327   1.774   0.841  0.2745  1.4853  0.6241
  808MPD2     C11894   0.693   3.548  10.794  0.1419  0.0651 -0.4059
  808MPD2    C111895   0.689   3.585  10.661  0.5172 -0.4383  0.2418
  808MPD2    C211896   0.679   3.715  10.620 -0.4630  0.4717  0.1099
  808MPD2    C311897   0.658   3.811  10.708  1.2381 -0.0088  0.9471
  808MPD2    C411898   0.657   3.777  10.845  1.3580  0.7508  0.0500
  808MPD2    C511899   0.677   3.650  10.880 -0.6865 -0.0047  0.2996
  808MPD2     H11900   0.683   3.733  10.513  0.8740  0.0097  0.0909
  808MPD2    H111901   0.639   3.854  10.919 -0.6914  1.2678 -0.9798
  808MPD2    H211902   0.693   3.452  10.843  0.2055  0.6137  0.6709
  808MPD2    H311903   0.663   3.614  10.981  0.0566  0.6406  0.6356
  808MPD2     N11904   0.674   3.946  10.676 -1.0341  0.1421 -0.0738
  808MPD2    H511905   0.672   4.008  10.757 -0.7905  1.6822 -1.2577
  808MPD2    N111906   0.688   3.492  10.557  0.3627 -0.3229 -0.0241
  808MPD2    H711907   0.678   3.515  10.458 -1.5274  0.6208  0.3972
  809MPD2     C11908   1.101   4.503   9.950  0.1535  0.0345  0.0315
  809MPD2    C111909   1.029   4.388   9.970  1.1694 -1.1868  0.4071
  809MPD2    C211910   0.948   4.384  10.078  0.0047 -0.5479  0.2139
  809MPD2    C311911   0.931   4.489  10.170 -0.1837  0.3851  0.3112
  809MPD2    C411912   1.007   4.606  10.150  0.1877 -0.4475 -0.3747
  809MPD2    C511913   1.093   4.609  10.044  0.0019  0.2350 -0.0252
  809MPD2     H11914   0.888   4.294  10.074 -0.5371 -0.2007  0.4477
  809MPD2    H111915   0.991   4.700  10.200  0.4006 -0.2328 -0.7088
  809MPD2    H211916   1.168   4.509   9.865  1.0801  0.0713  0.7685
  809MPD2    H311917   1.148   4.697  10.014 -0.7065  0.5179 -0.5050
  809MPD2     N11918   0.849   4.477  10.282  0.2036 -0.5999  0.1848
  809MPD2    H511919   0.861   4.546  10.356  1.0445  0.1926 -0.6862
  809MPD2    N111920   1.038   4.270   9.894 -0.0035 -0.1328 -0.7320
  809MPD2    H711921   0.971   4.196   9.915 -0.2735 -0.5157 -2.9288
  810MPD2     C11922   0.326   2.949  10.740  0.0121  0.3768  0.1700
  810MPD2    C111923   0.267   2.933  10.617  0.4559  0.4839 -0.8766
  810MPD2    C211924   0.255   3.052  10.544  0.9202  0.7256  0.3727
  810MPD2    C311925   0.308   3.175  10.581  0.1850  0.4900  0.4438
  810MPD2    C411926   0.377   3.181  10.700 -0.0793  0.4455 -0.1598
  810MPD2    C511927   0.384   3.069  10.777  0.3374  0.0005  0.0270
  810MPD2     H11928   0.204   3.055  10.449 -1.0617 -2.3306  1.3340
  810MPD2    H111929   0.412   3.281  10.724 -0.4924  0.7994 -1.0272
  810MPD2    H211930   0.327   2.873  10.818 -0.6226  1.3364  1.1099
  810MPD2    H311931   0.430   3.078  10.874  0.0449 -2.5115  0.3879
  810MPD2     N11932   0.319   3.291  10.496  0.2991 -0.4063 -0.2542
  810MPD2    H511933   0.356   3.377  10.538  1.1503 -0.2656 -1.3071
  810MPD2    N111934   0.200   2.820  10.581  0.6579  0.2244  0.1558
  810MPD2    H711935   0.181   2.750  10.652 -1.3092  0.9880  0.3637
  811MPD2     C11936   4.444   2.507   9.843  0.7592  0.0891 -0.1964
  811MPD2    C111937   4.547   2.577   9.907  0.3645  0.4311  0.4284
  811MPD2    C211938   4.607   2.678   9.829 -0.8485  0.4913  0.2402
  811MPD2    C311939   4.569   2.710   9.699 -0.0268 -1.2947  0.1557
  811MPD2    C411940   4.470   2.637   9.644  0.1166 -0.5100 -0.6546
  811MPD2    C511941   4.408   2.543   9.718  0.2134  0.1057  0.3616
  811MPD2     H11942   4.679   2.743   9.876  0.1083  1.1631 -2.1352
  811MPD2    H111943   4.427   2.646   9.545 -1.0045  2.0948  0.0786
  811MPD2    H211944   4.390   2.428   9.893  0.4629  0.6994  0.4540
  811MPD2    H311945   4.335   2.486   9.662  1.1243 -1.1642  0.4727
  811MPD2     N11946   4.643   2.811   9.626 -0.1975  0.2543  0.0881
  811MPD2    H511947   0.011   2.843   9.663 -0.2546 -0.3721  0.7842
  811MPD2    N111948   4.567   2.559  10.042 -0.2419  0.5016 -0.0069
  811MPD2    H711949   4.503   2.494  10.086 -1.0153  0.9688 -0.4363
  812MPD2     C11950   3.035   2.307  12.471 -0.1523  0.0747  0.1986
  812MPD2    C111951   3.166   2.337  12.467 -0.2280 -0.0297  0.0643
  812MPD2    C211952   3.265   2.268  12.535 -0.3255 -0.0549  0.1925
  812MPD2    C311953   3.234   2.160  12.615  0.4442 -0.5148 -1.4260
  812MPD2    C411954   3.097   2.124  12.619  0.9560  0.8796  0.6707
  812MPD2    C511955   3.005   2.189  12.543  0.1016 -0.1384  0.0449
  812MPD2     H11956   3.368   2.301  12.529 -0.4984  0.8838  2.4888
  812MPD2    H111957   3.056   2.039  12.672 -0.2181 -0.0690 -1.7501
  812MPD2    H211958   2.954   2.355  12.418 -2.0425 -2.2651  0.9226
  812MPD2    H311959   2.902   2.153  12.541  0.2972 -0.6056 -2.0101
  812MPD2     N11960   3.332   2.087  12.683 -0.6623 -0.0627  0.8219
  812MPD2    H511961   3.427   2.120  12.674 -0.5821 -0.7262 -0.7702
  812MPD2    N111962   3.203   2.450  12.390 -0.2513  0.0064  0.7365
  812MPD2    H711963   3.121   2.505  12.365 -0.1708 -0.3022 -0.1755
  813MPD2     C11964   3.034   4.283  12.998 -0.0118  0.3749 -0.0262
  813MPD2    C111965   3.040   4.413  12.953 -0.1129 -0.4599 -0.2943
  813MPD2    C211966   2.979   4.514  13.026  0.1785 -0.6231 -0.3170
  813MPD2    C311967   2.926   4.480  13.149 -0.8603  0.5568  0.0793
  813MPD2    C411968   2.937   4.349  13.194  0.4412 -0.4841 -0.2498
  813MPD2    C511969   3.002   4.253  13.126 -0.5814  0.4324  0.1549
  813MPD2     H11970   2.977   4.614  12.985  0.5667  0.0918  1.4506
  813MPD2    H111971   2.899   4.319  13.290 -1.9993  1.1284 -0.7352
  813MPD2    H211972   3.078   4.201  12.941 -0.6538 -1.3757  2.0321
  813MPD2    H311973   3.013   4.155  13.172 -0.2567  0.0159 -0.8111
  813MPD2     N11974   2.868   4.583  13.222  0.8671  0.0024 -0.2876
  813MPD2    H511975   2.882   4.678  13.190 -0.8492  0.1035 -0.7479
  813MPD2    N111976   3.095   4.424  12.825  0.2930  0.1711  0.2646
  813MPD2    H711977   3.145   4.342  12.793  1.3626  0.3998  1.3204
  814MPD2     C11978   3.276   1.148  12.218 -0.1881 -0.5643 -0.2454
  814MPD2    C111979   3.337   1.148  12.095  0.1255 -0.1821 -0.9038
  814MPD2    C211980   3.352   1.265  12.026 -0.1326 -0.6610 -0.0129
  814MPD2    C311981   3.324   1.384  12.086  0.2752  0.3827  0.2553
  814MPD2    C411982   3.251   1.380  12.202 -0.3324 -0.1330 -0.5717
  814MPD2    C511983   3.218   1.265  12.271  0.1904  0.0997 -0.1136
  814MPD2     H11984   3.391   1.263  11.924 -0.3685 -1.0449 -0.0962
  814MPD2    H111985   3.225   1.480  12.235  0.9147  0.8975 -2.6988
  814MPD2    H211986   3.279   1.056  12.274 -0.6632 -1.0139 -0.9498
  814MPD2    H311987   3.172   1.265  12.369 -1.0899  0.6863 -0.7075
  814MPD2     N11988   3.343   1.510  12.024  0.1288  0.1441  0.6144
  814MPD2    H511989   3.307   1.591  12.073  2.3606  0.8955  1.0486
  814MPD2    N111990   3.384   1.029  12.040 -0.4334  0.2150  0.0163
  814MPD2    H711991   3.456   1.030  11.968 -0.8271  0.3823 -0.3724
  815MPD2     C11992   4.087   4.319  11.789 -0.3374 -0.2464  0.2791
  815MPD2    C111993   4.064   4.187  11.814 -0.3245  0.0236  0.0073
  815MPD2    C211994   3.955   4.151  11.885  0.4069  0.6719  0.1461
  815MPD2    C311995   3.862   4.245  11.925 -0.0575 -0.3306 -0.4412
  815MPD2    C411996   3.880   4.378  11.893  0.0044 -0.2070  0.5352
  815MPD2    C511997   4.000   4.417  11.837  0.8475  0.2779  0.2893
  815MPD2     H11998   3.938   4.048  11.915 -3.2653  0.7698 -1.5726
  815MPD2    H111999   3.806   4.452  11.919  0.8522  1.3382 -1.4368
  815MPD2    H212000   4.178   4.342  11.733 -1.0826  0.2389 -0.7395
  815MPD2    H312001   4.015   4.521  11.812 -0.9738  0.7210  1.0732
  815MPD2     N12002   3.751   4.209  12.009  0.7926 -0.0081 -0.3057
  815MPD2    H512003   3.746   4.110  12.032  0.9817 -0.3368 -1.6206
  815MPD2    N112004   4.161   4.097  11.764  0.3206 -0.3074 -0.1929
  815MPD2    H712005   4.248   4.139  11.732  0.1764 -0.1113 -0.3326
  816MPD2     C12006   3.313   3.297  17.227  0.3060 -0.5395 -0.0940
  816MPD2    C112007   3.402   3.398  17.207 -0.3448  0.2507  0.5939
  816MPD2    C212008   3.526   3.375  17.149 -0.5790  0.0956  0.2678
  816MPD2    C312009   3.570   3.247  17.128 -0.6765 -0.1683 -0.4813
  816MPD2    C412010   3.494   3.140  17.154 -0.5420  0.1793  0.2251
  816MPD2    C512011   3.367   3.171  17.202 -1.4534 -0.3190 -0.7339
  816MPD2     H12012   3.593   3.460  17.134 -0.4047 -0.1032 -0.0872
  816MPD2    H112013   3.528   3.037  17.151  0.4593  0.4887  0.9565
  816MPD2    H212014   3.217   3.307  17.277 -0.3233 -0.4839 -1.3113
  816MPD2    H312015   3.307   3.086  17.232 -1.2485  0.1283  0.8919
  816MPD2     N12016   3.705   3.237  17.086  0.4731  0.4217  0.9166
  816MPD2    H512017   3.748   3.322  17.050  1.0817 -0.6652 -0.9400
  816MPD2    N112018   3.358   3.531  17.238 -0.9235  0.0788 -0.7143
  816MPD2    H712019   3.258   3.548  17.247 -0.9866  0.4220 -2.0566
  817MPD2     C12020   4.250   4.651  10.299  0.3664  0.0105 -0.0871
  817MPD2    C112021   4.329   0.040  10.295 -0.1831  0.0233  0.0092
  817MPD2    C212022   4.286   0.166  10.247  0.1973  0.0934  0.0873
  817MPD2    C312023   4.152   0.164  10.195  0.7165  0.0512  0.3678
  817MPD2    C412024   4.070   0.055  10.212  0.3634  0.0119  1.0044
  817MPD2    C512025   4.122   4.662  10.262  0.3614  0.2037  1.3598
  817MPD2     H12026   4.352   0.251  10.237 -0.0450  0.2361 -0.3018
  817MPD2    H112027   3.964   0.048  10.188  1.0606  0.9963 -2.4411
  817MPD2    H212028   4.272   4.551  10.334  3.3299 -0.2793 -2.7374
  817MPD2    H312029   4.058   4.579  10.288 -0.2199  0.0832 -0.4617
  817MPD2     N12030   4.113   0.280  10.125  0.1976 -0.8018 -0.0181
  817MPD2    H512031   4.185   0.350  10.110 -0.0824 -0.3632  0.6749
  817MPD2    N112032   4.459   0.014  10.338 -0.3867  0.0255 -0.0400
  817MPD2    H712033   4.481   4.638  10.359  0.6056 -0.0052 -1.2202
  818MPD2     C12034   3.002   0.288  10.214  0.9805  0.1884  0.7031
  818MPD2    C112035   2.907   0.193  10.230  0.1881 -0.0267  0.3438
  818MPD2    C212036   2.943   0.060  10.213 -0.1956 -0.6716  0.2977
  818MPD2    C312037   3.068   0.023  10.177 -0.2409  0.0674 -0.2604
  818MPD2    C412038   3.155   0.127  10.159  0.4940  0.5167 -0.0196
  818MPD2    C512039   3.131   0.261  10.176  0.6488 -0.0782  0.2583
  818MPD2     H12040   2.862   4.712  10.232 -0.4207 -0.6839 -0.6822
  818MPD2    H112041   3.256   0.114  10.121  0.3393  0.4546 -0.4145
  818MPD2    H212042   2.988   0.393  10.236  2.2888  0.2008  1.4845
  818MPD2    H312043   3.207   0.335  10.154 -0.4083  0.9922  0.2455
  818MPD2     N12044   3.119   4.611  10.162  0.7806  0.3528  0.1533
  818MPD2    H512045   3.215   4.594  10.133  1.3271  0.2255  2.0485
  818MPD2    N112046   2.775   0.224  10.286  0.0076 -0.1607  0.3463
  818MPD2    H712047   2.729   0.143  10.324 -0.7470  0.5299  0.9017
  819MPD2     C12048   0.491   2.284  15.299 -0.1373  0.4466 -0.7633
  819MPD2    C112049   0.438   2.183  15.369  0.1759 -1.6520  0.3861
  819MPD2    C212050   0.518   2.129  15.468 -0.4386 -0.5437 -0.4082
  819MPD2    C312051   0.642   2.175  15.504 -0.9070 -0.0634  0.5889
  819MPD2    C412052   0.691   2.284  15.432 -0.4475  0.9046  0.2915
  819MPD2    C512053   0.616   2.328  15.327 -0.0570  0.0371  0.8147
  819MPD2     H12054   0.497   2.040  15.525 -1.1243 -1.3899 -1.9762
  819MPD2    H112055   0.787   2.324  15.463  0.0123  0.8847 -1.1078
  819MPD2    H212056   0.441   2.334  15.216 -0.5353  1.1301 -0.1152
  819MPD2    H312057   0.646   2.415  15.270  0.9641 -0.8873 -0.0662
  819MPD2     N12058   0.700   2.115  15.611 -0.0956  0.2746  0.5567
  819MPD2    H512059   0.645   2.038  15.648  0.4670 -0.2455  0.3350
  819MPD2    N112060   0.307   2.129  15.330 -0.0098  0.0210 -0.4316
  819MPD2    H712061   0.259   2.174  15.253  2.2688  0.8127 -1.3993
  820MPD2     C12062   4.213   2.113  14.752 -0.0490  0.0668  0.0814
  820MPD2    C112063   4.254   2.209  14.841 -0.6458  0.1076  0.1218
  820MPD2    C212064   4.361   2.188  14.921 -0.1796 -0.7565 -0.5833
  820MPD2    C312065   4.409   2.057  14.929 -0.1360  0.2363  0.2281
  820MPD2    C412066   4.367   1.964  14.842 -0.0734 -0.1520 -0.1298
  820MPD2    C512067   4.265   1.986  14.760 -0.3350 -0.1971 -0.3087
  820MPD2     H12068   4.410   2.267  14.977 -0.4679 -1.3639  0.5312
  820MPD2    H112069   4.398   1.860  14.850  2.1391  0.3413 -2.4150
  820MPD2    H212070   4.132   2.139  14.684  0.2041 -2.5852 -1.2157
  820MPD2    H312071   4.237   1.914  14.684 -1.2185  0.5413 -0.6788
  820MPD2     N12072   4.510   2.020  15.021 -0.4048  0.1551  0.2363
  820MPD2    H512073   4.541   1.924  15.013 -0.7618  0.1051 -0.5090
  820MPD2    N112074   4.190   2.335  14.830  0.3506 -0.2749 -0.7396
  820MPD2    H712075   4.102   2.334  14.779  0.7159 -1.3279 -1.3673
  821MPD2     C12076   0.326   3.233  13.613 -0.2185 -0.2907 -0.3953
  821MPD2    C112077   0.422   3.264  13.705  0.3622  0.7942  0.2654
  821MPD2    C212078   0.554   3.266  13.675  0.4624 -0.1303  0.2821
  821MPD2    C312079   0.595   3.238  13.544 -0.6080  0.0234  0.2020
  821MPD2    C412080   0.498   3.191  13.450  0.4036  0.1378  0.4002
  821MPD2    C512081   0.367   3.192  13.489  0.4069 -0.2712  0.2715
  821MPD2     H12082   0.630   3.301  13.743 -0.3051 -1.2816  1.7181
  821MPD2    H112083   0.528   3.172  13.348 -0.2513 -2.3436  0.6795
  821MPD2    H212084   0.221   3.245  13.639  0.4800  3.3532  0.7095
  821MPD2    H312085   0.295   3.176  13.410  0.0779 -0.9274  0.7085
  821MPD2     N12086   0.736   3.260  13.516  0.3913  0.2495  0.1636
  821MPD2    H512087   0.792   3.304  13.589  0.3097  0.6850 -0.0341
  821MPD2    N112088   0.392   3.308  13.842 -0.6374 -0.0880 -0.3495
  821MPD2    H712089   0.474   3.316  13.901 -1.9722 -0.2573  1.5230
  822MPD2     C12090   1.102   3.228  15.694  0.0540 -0.2925  0.0576
  822MPD2    C112091   1.194   3.270  15.790  0.4344  0.3823 -0.4814
  822MPD2    C212092   1.171   3.395  15.853  0.3507  0.6823 -0.0472
  822MPD2    C312093   1.058   3.467  15.830 -0.6597 -0.9110  0.1387
  822MPD2    C412094   0.973   3.427  15.731 -0.1346  0.6182  0.6647
  822MPD2    C512095   0.993   3.311  15.666  0.2860  0.5155  0.1135
  822MPD2     H12096   1.234   3.424  15.936 -1.2051 -1.9604  2.0431
  822MPD2    H112097   0.877   3.477  15.718 -1.1276 -1.1773  1.1010
  822MPD2    H212098   1.090   3.129  15.652  2.4045  0.5887 -2.7218
  822MPD2    H312099   0.919   3.272  15.597  0.2600  1.0099 -0.1329
  822MPD2     N12100   1.031   3.586  15.904  0.2414  0.0448 -0.0374
  822MPD2    H512101   0.933   3.612  15.910 -0.0484 -1.2334  0.7076
  822MPD2    N112102   1.300   3.193  15.843  0.4205  0.4735 -0.3463
  822MPD2    H712103   1.358   3.240  15.911  2.0305 -0.1967 -1.2619
  823MPD2     C12104   0.808   3.774  16.693 -0.1300 -0.4044 -0.6233
  823MPD2    C112105   0.841   3.700  16.582 -0.1183  0.1818  0.2937
  823MPD2    C212106   0.878   3.568  16.603  1.1600  0.0345  0.2317
  823MPD2    C312107   0.890   3.513  16.734 -0.7579 -0.3650  0.2236
  823MPD2    C412108   0.845   3.591  16.840 -0.0340  0.3132 -0.2136
  823MPD2    C512109   0.799   3.722  16.823 -0.2403  0.0585 -0.9361
  823MPD2     H12110   0.882   3.503  16.516 -0.0788  0.6986 -0.3231
  823MPD2    H112111   0.840   3.561  16.944  2.3964  2.2797  0.4566
  823MPD2    H212112   0.783   3.878  16.680 -0.9753 -1.0436 -4.0740
  823MPD2    H312113   0.757   3.780  16.904 -2.7197  0.8691 -2.8181
  823MPD2     N12114   0.934   3.375  16.767 -0.0895 -0.3095 -0.2934
  823MPD2    H512115   0.955   3.343  16.861 -2.0770  0.8775  0.5510
  823MPD2    N112116   0.842   3.775  16.465  0.1716 -0.7248  0.4795
  823MPD2    H712117   0.840   3.877  16.465 -0.9531 -0.7506 -1.7545
  824MPD2     C12118   1.783   2.436  16.106 -0.2128  0.3934 -0.5927
  824MPD2    C112119   1.758   2.499  15.979 -0.0682  0.0112 -0.2828
  824MPD2    C212120   1.813   2.439  15.867  0.3025 -0.1247 -0.0109
  824MPD2    C312121   1.878   2.319  15.867  0.2394 -0.0694 -0.0157
  824MPD2    C412122   1.895   2.257  15.986 -0.5056 -0.0823  0.9212
  824MPD2    C512123   1.850   2.318  16.100 -0.7959  0.1677  0.2448
  824MPD2     H12124   1.805   2.493  15.773  0.5311  1.1136  0.6847
  824MPD2    H112125   1.952   2.166  15.999  1.1761  0.6986 -1.0042
  824MPD2    H212126   1.764   2.484  16.201  1.6899 -2.4939  1.2187
  824MPD2    H312127   1.884   2.282  16.196  0.7007 -0.6830 -0.6002
  824MPD2     N12128   1.917   2.258  15.745  0.6597 -0.4061 -0.0224
  824MPD2    H512129   1.902   2.314  15.662 -1.6250 -0.4569  0.3381
  824MPD2    N112130   1.684   2.622  15.990  0.1754  0.7188 -0.2970
  824MPD2    H712131   1.661   2.656  16.083 -0.6403  2.5699 -1.1863
  825MPD2     C12132   2.440   2.176  15.051  0.4922 -0.0082  0.1240
  825MPD2    C112133   2.364   2.246  15.136  0.2316 -0.1439  0.1239
  825MPD2    C212134   2.367   2.381  15.127 -0.0796 -0.0392  0.2260
  825MPD2    C312135   2.451   2.440  15.034  0.4219  0.0650  0.5916
  825MPD2    C412136   2.530   2.368  14.949  0.0891 -1.0570 -0.4121
  825MPD2    C512137   2.520   2.235  14.955 -0.4076 -0.2566 -0.1143
  825MPD2     H12138   2.311   2.436  15.202 -1.8076 -1.5253  0.0181
  825MPD2    H112139   2.601   2.412  14.880  1.5595 -1.0567  1.0742
  825MPD2    H212140   2.426   2.069  15.045  0.4018  0.0347 -0.4873
  825MPD2    H312141   2.582   2.179  14.887 -2.5132 -1.8360 -0.7423
  825MPD2     N12142   2.467   2.578  15.020  0.0034 -0.7254 -0.0598
  825MPD2    H512143   2.523   2.606  14.940 -1.5161  0.8159 -0.6017
  825MPD2    N112144   2.286   2.166  15.228  0.2187  0.4539  0.0087
  825MPD2    H712145   2.292   2.065  15.223 -1.2345  0.3139  1.2272
  826MPD2     C12146   0.694   2.766  13.706 -0.2557 -0.4969 -0.5468
  826MPD2    C112147   0.833   2.782  13.728 -0.4369  0.7983  0.1834
  826MPD2    C212148   0.872   2.876  13.823 -0.0822  0.4005 -0.0848
  826MPD2    C312149   0.788   2.977  13.863 -0.1454 -0.1307 -0.6171
  826MPD2    C412150   0.651   2.972  13.833  0.3137  0.1884 -0.0952
  826MPD2    C512151   0.608   2.859  13.766  0.2745  0.6486 -0.1051
  826MPD2     H12152   0.971   2.880  13.868 -0.3628  1.6638  0.4274
  826MPD2    H112153   0.573   3.038  13.870 -0.9834 -1.5205  0.2303
  826MPD2    H212154   0.659   2.686  13.642 -0.3345  0.8450 -2.1678
  826MPD2    H312155   0.500   2.854  13.752  0.5944  0.7156 -2.6117
  826MPD2     N12156   0.848   3.085  13.932 -0.0605 -0.4411  0.5403
  826MPD2    H512157   0.949   3.083  13.932 -0.0189  1.2753 -1.3351
  826MPD2    N112158   0.924   2.685  13.677 -0.1869 -0.6088  0.6099
  826MPD2    H712159   0.882   2.609  13.624 -2.6648  1.0213  0.2361
  827MPD2     C12160   3.632   3.283   9.971  0.1188  0.2241 -0.2692
  827MPD2    C112161   3.523   3.241  10.037 -0.0485  0.4608 -0.5903
  827MPD2    C212162   3.447   3.135   9.991  0.0244  0.1978 -0.0547
  827MPD2    C312163   3.498   3.075   9.878 -0.0670  0.1704  0.5268
  827MPD2    C412164   3.606   3.111   9.798 -0.1760  0.0486  0.0186
  827MPD2    C512165   3.672   3.221   9.852 -0.2071  0.5027 -0.3739
  827MPD2     H12166   3.362   3.097  10.046 -0.5232  2.1277  0.4577
  827MPD2    H112167   3.641   3.056   9.712  2.5392  0.3198  0.9173
  827MPD2    H212168   3.687   3.370  10.005  3.8107 -0.7926 -3.6658
  827MPD2    H312169   3.761   3.262   9.805  0.4898 -1.1119 -0.4651
  827MPD2     N12170   3.426   2.949   9.856  0.7219 -0.8321  0.0451
  827MPD2    H512171   3.353   2.931   9.924 -0.8059 -2.2809 -2.0217
  827MPD2    N112172   3.484   3.307  10.156 -0.0555  0.6015  0.5725
  827MPD2    H712173   3.544   3.381  10.192  0.7688  0.0104  0.4155
  828MPD2     C12174   1.310   3.652  12.572  0.3118  0.0927  0.4205
  828MPD2    C112175   1.235   3.652  12.452 -0.1581  0.7159  0.0894
  828MPD2    C212176   1.302   3.678  12.337  0.5677  0.3144 -0.2647
  828MPD2    C312177   1.439   3.707  12.336  0.4380  0.0662 -0.2633
  828MPD2    C412178   1.511   3.723  12.454 -0.2739  1.0525  0.2385
  828MPD2    C512179   1.441   3.699  12.570  0.1490  0.0031  0.2528
  828MPD2     H12180   1.250   3.659  12.244 -0.0568 -0.1619  0.1833
  828MPD2    H112181   1.617   3.742  12.464 -0.4443  0.9879  2.2955
  828MPD2    H212182   1.263   3.625  12.666 -1.6964  2.7017  0.1467
  828MPD2    H312183   1.501   3.693  12.660  0.5772  0.6412  0.0073
  828MPD2     N12184   1.518   3.721  12.220 -0.0312 -0.0669  0.5744
  828MPD2    H512185   1.611   3.760  12.233 -0.7039  1.6792  0.1070
  828MPD2    N112186   1.098   3.622  12.444  0.2325 -0.8078  0.1422
  828MPD2    H712187   1.048   3.646  12.359 -2.2646  2.4499  2.5334
  829MPD2     C12188   0.560   3.675  11.787  0.0660 -0.0753  0.0687
  829MPD2    C112189   0.494   3.580  11.862 -0.0787  0.8335  0.0304
  829MPD2    C212190   0.538   3.542  11.987  0.6064 -0.8511 -0.8488
  829MPD2    C312191   0.659   3.588  12.039 -0.3620 -0.3619  0.1284
  829MPD2    C412192   0.732   3.673  11.955  0.1995 -0.0333 -0.3524
  829MPD2    C512193   0.684   3.716  11.830 -0.8908 -0.2247 -0.0676
  829MPD2     H12194   0.469   3.472  12.033 -0.3143  0.9795  0.5447
  829MPD2    H112195   0.830   3.713  11.981 -0.3634  1.0816  0.0683
  829MPD2    H212196   0.510   3.708  11.696  0.0419 -1.3225 -0.3767
  829MPD2    H312197   0.753   3.778  11.774 -2.2943  1.4517  0.0469
  829MPD2     N12198   0.712   3.559  12.170 -0.0184 -0.7058 -0.2963
  829MPD2    H512199   0.798   3.612  12.177 -0.6939  0.2062  1.1612
  829MPD2    N112200   0.368   3.546  11.812 -0.2585  0.5144  0.0255
  829MPD2    H712201   0.350   3.579  11.718  1.2097 -0.0110 -0.4314
  830MPD2     C12202   0.816   1.332  15.894  0.6324 -0.4255  0.6870
  830MPD2    C112203   0.796   1.419  15.795  0.0634  0.1363  0.4415
  830MPD2    C212204   0.812   1.372  15.666 -0.3931  0.0368  0.1557
  830MPD2    C312205   0.851   1.245  15.645 -0.7710 -0.8901  0.3233
  830MPD2    C412206   0.865   1.160  15.751  0.3161 -0.1735 -0.0198
  830MPD2    C512207   0.850   1.206  15.876  0.2953 -0.0812  0.2436
  830MPD2     H12208   0.804   1.439  15.581 -0.6010 -0.3393 -0.1212
  830MPD2    H112209   0.913   1.064  15.738 -0.8547 -0.8159  0.3926
  830MPD2    H212210   0.815   1.364  15.998 -1.8727 -2.1703  1.1931
  830MPD2    H312211   0.869   1.139  15.959  3.7745  0.1522 -0.3806
  830MPD2     N12212   0.890   1.196  15.521  0.5633  0.1867 -0.1526
  830MPD2    H512213   0.910   1.097  15.514  1.1086  0.2418  0.6321
  830MPD2    N112214   0.805   1.560  15.820  0.3195  0.1810 -0.6170
  830MPD2    H712215   0.805   1.584  15.919 -1.6266  1.9239 -1.0550
  831MPD2     C12216   1.410   3.649  16.314  0.0276  0.9080  0.1755
  831MPD2    C112217   1.422   3.537  16.233  0.2447  0.3215  0.7166
  831MPD2    C212218   1.311   3.461  16.218  0.5378  0.0488  0.2292
  831MPD2    C312219   1.192   3.492  16.272  0.0290  0.3767 -0.4755
  831MPD2    C412220   1.187   3.588  16.369  0.6415  0.3974  0.4336
  831MPD2    C512221   1.292   3.663  16.382 -0.0990  0.4617  0.4085
  831MPD2     H12222   1.315   3.382  16.144  2.8672 -0.8026  1.2668
  831MPD2    H112223   1.102   3.606  16.434 -1.6735 -0.8344 -2.2054
  831MPD2    H212224   1.488   3.723  16.329 -1.2446  2.5914 -1.5665
  831MPD2    H312225   1.280   3.742  16.455 -0.0087  1.2277 -0.4062
  831MPD2     N12226   1.074   3.412  16.254 -0.4380 -0.1337  0.0511
  831MPD2    H512227   0.986   3.441  16.296 -0.5853 -0.9678  0.3328
  831MPD2    N112228   1.536   3.520  16.160  0.0313  0.4060 -0.0426
  831MPD2    H712229   1.615   3.581  16.181 -0.2914  0.5271  0.8083
  832MPD2     C12230   4.410   4.447  17.299  1.0644  0.5480 -0.4289
  832MPD2    C112231   4.434   4.503  17.177 -0.0952 -0.0386 -0.1409
  832MPD2    C212232   4.351   4.483  17.075 -0.4211 -0.0482  0.1637
  832MPD2    C312233   4.224   4.433  17.100  0.5084 -0.7001 -0.6091
  832MPD2    C412234   4.191   4.393  17.227  0.4357  0.5766  0.1973
  832MPD2    C512235   4.286   4.396  17.325 -0.0737  0.0734 -0.3583
  832MPD2     H12236   4.372   4.512  16.972  3.3711  0.2513  1.0163
  832MPD2    H112237   4.098   4.348  17.261 -0.1207  1.4211 -0.2128
  832MPD2    H212238   4.485   4.459  17.377  1.5848  0.8608 -0.9790
  832MPD2    H312239   4.262   4.362  17.425 -0.0695  0.5263 -0.2023
  832MPD2     N12240   4.121   4.422  17.005 -0.5791 -0.2521  0.9561
  832MPD2    H512241   4.036   4.381  17.043 -0.7636 -1.4652 -0.7660
  832MPD2    N112242   4.557   4.562  17.167 -0.0936  0.0658  0.7468
  832MPD2    H712243   4.618   4.559  17.249  0.3763  3.6234  0.5246
  833MPD2     C12244   1.872   1.442  12.431  0.0769 -0.0721 -0.0340
  833MPD2    C112245   1.901   1.539  12.339  0.1878  0.9935 -0.0211
  833MPD2    C212246   2.020   1.522  12.268  0.6030 -0.0840  0.4773
  833MPD2    C312247   2.099   1.412  12.288  1.3378 -0.3789 -0.4380
  833MPD2    C412248   2.067   1.322  12.384 -0.1097 -0.0218  0.5217
  833MPD2    C512249   1.952   1.332  12.454  0.3353 -0.7328 -0.2992
  833MPD2     H12250   2.029   1.574  12.173 -0.7705 -2.1884 -0.7996
  833MPD2    H112251   2.134   1.238  12.400  0.2261  0.3887  1.2420
  833MPD2    H212252   1.778   1.434  12.484 -1.0155 -4.3892 -2.6315
  833MPD2    H312253   1.926   1.250  12.519  2.4473  0.5135  2.0967
  833MPD2     N12254   2.219   1.385  12.217  0.7561  0.0465  0.7605
  833MPD2    H512255   2.268   1.296  12.223 -0.6082 -0.7467  0.2691
  833MPD2    N112256   1.800   1.634  12.299  0.4678 -0.0367 -0.1889
  833MPD2    H712257   1.715   1.644  12.354  0.8612  1.6403  0.1319
  834MPD2     C12258   1.881   0.822  11.669  0.2811 -0.0256 -0.3154
  834MPD2    C112259   1.903   0.912  11.573  0.2472  0.9988 -0.4024
  834MPD2    C212260   1.983   1.022  11.602  0.0414  0.1275  0.1730
  834MPD2    C312261   2.034   1.041  11.731 -0.7092 -0.1953  0.1601
  834MPD2    C412262   2.010   0.942  11.825  0.0197 -0.3440 -0.2477
  834MPD2    C512263   1.930   0.835  11.794 -0.5932 -0.1783 -0.4233
  834MPD2     H12264   2.001   1.096  11.526  1.9998 -0.1222  0.4019
  834MPD2    H112265   2.046   0.944  11.927 -0.5352 -0.3776 -0.0496
  834MPD2    H212266   1.810   0.742  11.651 -1.3002  1.0224  1.3232
  834MPD2    H312267   1.891   0.771  11.873  1.8972 -0.5602  0.5037
  834MPD2     N12268   2.126   1.147  11.749 -0.3173 -0.1036  0.2957
  834MPD2    H512269   2.159   1.204  11.673  1.7815  0.1481  1.3916
  834MPD2    N112270   1.836   0.891  11.450  0.4789 -0.0119 -0.5305
  834MPD2    H712271   1.787   0.802  11.438 -0.4030  0.0359  2.8098
  835MPD2     C12272   2.082   3.683  11.430 -0.3609  0.1081 -0.1324
  835MPD2    C112273   2.015   3.798  11.448  0.6659  0.2385  0.3220
  835MPD2    C212274   2.051   3.896  11.536  0.1228 -0.8391  0.8105
  835MPD2    C312275   2.163   3.877  11.616  0.0212 -0.7736  0.2938
  835MPD2    C412276   2.231   3.760  11.607 -0.6267 -0.6174  0.0773
  835MPD2    C512277   2.189   3.665  11.514  0.4748 -0.7005  0.3100
  835MPD2     H12278   1.998   3.990  11.544  0.4617 -0.5040 -0.8528
  835MPD2    H112279   2.313   3.730  11.671  1.3595  1.7529 -1.3590
  835MPD2    H212280   2.056   3.600  11.365  1.1012 -0.1615 -0.3735
  835MPD2    H312281   2.244   3.571  11.513 -2.1032 -2.1987 -0.9027
  835MPD2     N12282   2.207   3.968  11.716  0.3376 -0.1502  0.0888
  835MPD2    H512283   2.251   3.920  11.794 -0.0163  0.3479  0.5972
  835MPD2    N112284   1.902   3.822  11.369 -0.2089  0.5481  0.3359
  835MPD2    H712285   1.857   3.911  11.390  2.8075  2.1195  0.0886
  836MPD2     C12286   1.576   4.062  11.933 -0.6828  0.1730  0.0765
  836MPD2    C112287   1.645   4.076  12.049  0.2344  0.5650 -0.3174
  836MPD2    C212288   1.581   4.085  12.168  0.0985  0.4600 -0.3443
  836MPD2    C312289   1.442   4.086  12.169  0.0181  0.3863 -0.1400
  836MPD2    C412290   1.375   4.082  12.048 -0.3864 -0.0723 -0.2396
  836MPD2    C512291   1.436   4.065  11.928  0.7681  0.6114 -0.2072
  836MPD2     H12292   1.641   4.098  12.258  2.1038 -2.1553 -1.2899
  836MPD2    H112293   1.268   4.087  12.065 -0.5685 -2.8082 -0.5310
  836MPD2    H212294   1.640   4.064  11.845 -0.6708 -0.4812  0.0736
  836MPD2    H312295   1.371   4.073  11.841  1.0350  0.6834 -0.4014
  836MPD2     N12296   1.370   4.098  12.291  0.0947 -0.2522  0.3939
  836MPD2    H512297   1.269   4.105  12.286 -0.0182 -0.0199  2.9837
  836MPD2    N112298   1.786   4.077  12.031 -0.1757  0.2106  0.6621
  836MPD2    H712299   1.823   4.066  11.937 -0.8016 -0.2372  0.4647
  837MPD2     C12300   0.416   3.360   9.793  0.2479 -0.4297  0.1591
  837MPD2    C112301   0.355   3.393   9.673  0.2465  0.6383  0.0128
  837MPD2    C212302   0.362   3.527   9.628 -0.4462  0.6862 -0.2741
  837MPD2    C312303   0.409   3.618   9.714 -0.5830  0.0025  0.8588
  837MPD2    C412304   0.481   3.583   9.829 -0.5599 -0.4274  0.0375
  837MPD2    C512305   0.491   3.455   9.863  0.0583  0.6656  0.4765
  837MPD2     H12306   0.316   3.555   9.534 -0.9578  1.0514  0.0869
  837MPD2    H112307   0.507   3.651   9.909  1.8048 -1.0543 -0.2028
  837MPD2    H212308   0.424   3.256   9.821 -0.5825 -0.5608 -0.0819
  837MPD2    H312309   0.541   3.422   9.953  2.0464 -0.9207 -1.2180
  837MPD2     N12310   0.367   3.754   9.679  0.1379 -0.6049  0.3711
  837MPD2    H512311   0.318   3.757   9.590 -1.1077  0.9234  1.0929
  837MPD2    N112312   0.272   3.311   9.595  0.4385  0.3500  0.4622
  837MPD2    H712313   0.246   3.346   9.504  1.6335 -1.7191 -0.6991
  838MPD2     C12314   3.397   1.832  11.526 -0.2898 -0.0066  0.2185
  838MPD2    C112315   3.387   1.696  11.540  0.3593 -0.0400 -0.5645
  838MPD2    C212316   3.277   1.637  11.600  0.3798  0.1929  0.3266
  838MPD2    C312317   3.173   1.719  11.649  0.3996 -0.4814  0.4801
  838MPD2    C412318   3.179   1.856  11.633 -0.2356 -0.4282 -0.0382
  838MPD2    C512319   3.290   1.908  11.571 -0.5116 -0.3806  0.1245
  838MPD2     H12320   3.276   1.530  11.612 -0.6516 -0.2647 -3.9027
  838MPD2    H112321   3.102   1.921  11.672 -1.7156 -1.4494 -1.2949
  838MPD2    H212322   3.486   1.876  11.482  0.9507 -1.9357  0.7824
  838MPD2    H312323   3.289   2.016  11.560 -2.4939 -0.3913  0.3088
  838MPD2     N12324   3.069   1.647  11.718  0.0941  0.2844 -0.6875
  838MPD2    H512325   3.083   1.548  11.735 -4.8272  0.0484  1.8347
  838MPD2    N112326   3.482   1.603  11.488  0.4611  0.3008 -0.3130
  838MPD2    H712327   3.462   1.506  11.510 -1.1423  1.0596  1.5787
  839MPD2     C12328   2.857   1.458  11.365  0.1534 -0.8400  0.2678
  839MPD2    C112329   2.904   1.343  11.312 -0.3188  0.1963  0.2359
  839MPD2    C212330   3.030   1.333  11.263 -0.0896  0.0973  0.6141
  839MPD2    C312331   3.114   1.443  11.268  0.7131  0.1315 -0.1628
  839MPD2    C412332   3.061   1.563  11.320 -0.4650  0.3262  0.7415
  839MPD2    C512333   2.936   1.570  11.375  0.2332 -0.0414  0.4613
  839MPD2     H12334   3.053   1.242  11.209 -0.4160  0.0969  0.4822
  839MPD2    H112335   3.125   1.649  11.335 -0.3955  0.5760 -0.9834
  839MPD2    H212336   2.755   1.470  11.397  0.1730  4.0866 -1.4787
  839MPD2    H312337   2.913   1.659  11.433 -0.5130  0.6699 -0.9047
  839MPD2     N12338   3.248   1.433  11.237 -0.0840 -0.2375 -0.1461
  839MPD2    H512339   3.305   1.513  11.263 -2.4541  0.6557  2.3036
  839MPD2    N112340   2.823   1.228  11.303 -0.0699 -0.5718 -0.2876
  839MPD2    H712341   2.861   1.143  11.264 -0.6767 -0.3240 -1.4222
  840MPD2     C12342   3.891   3.608  10.461 -0.8139  0.2685 -0.1788
  840MPD2    C112343   3.789   3.612  10.551 -0.7287 -0.3138 -0.0712
  840MPD2    C212344   3.809   3.687  10.662  0.2879 -0.0010 -0.1106
  840MPD2    C312345   3.913   3.784  10.664 -0.0746  0.6064 -0.5825
  840MPD2    C412346   4.002   3.793  10.559 -0.1190 -0.6901  0.1699
  840MPD2    C512347   3.988   3.697  10.464  0.7896  0.0941  0.0872
  840MPD2     H12348   3.738   3.688  10.744 -0.9532 -1.3713 -1.1640
  840MPD2    H112349   4.087   3.860  10.560 -2.1354  1.8811 -0.7513
  840MPD2    H212350   3.881   3.546  10.372 -3.3004  0.1407  0.1700
  840MPD2    H312351   4.059   3.687  10.383  1.8018 -1.6581  1.2129
  840MPD2     N12352   3.932   3.879  10.776 -0.5674  0.0440  0.2744
  840MPD2    H512353   4.002   3.948  10.751 -0.4066 -0.1570  0.1668
  840MPD2    N112354   3.672   3.539  10.522  0.0308 -0.2808 -0.3155
  840MPD2    H712355   3.669   3.513  10.423  1.0050  0.8289 -0.6382
  841MPD2     C12356   2.642   3.682  15.053 -0.0072 -0.7083  0.2419
  841MPD2    C112357   2.680   3.687  14.920 -0.0206  0.1472  0.0651
  841MPD2    C212358   2.658   3.799  14.846 -0.2994 -0.2011 -0.0653
  841MPD2    C312359   2.616   3.915  14.909 -0.1552 -0.2704  0.1617
  841MPD2    C412360   2.584   3.907  15.040 -0.3212  0.3315  0.2729
  841MPD2    C512361   2.591   3.791  15.112  0.4811  0.4271  0.3575
  841MPD2     H12362   2.667   3.816  14.739  2.5444 -0.1710  0.1759
  841MPD2    H112363   2.552   3.993  15.099 -0.9953 -0.1360  0.6044
  841MPD2    H212364   2.646   3.589  15.109 -0.3849 -1.4151 -0.8860
  841MPD2    H312365   2.564   3.782  15.216 -0.1379 -0.7478  0.0952
  841MPD2     N12366   2.607   4.041  14.834 -0.3169  0.1710  0.4085
  841MPD2    H512367   2.631   4.026  14.736  0.2175 -0.3542  0.6198
  841MPD2    N112368   2.733   3.574  14.853 -0.7291  0.4857  0.0012
  841MPD2    H712369   2.725   3.579  14.752 -0.6022 -0.5623 -0.0577
  842MPD2     C12370   3.864   0.202  16.917 -0.3509  0.8535  0.3002
  842MPD2    C112371   3.749   0.125  16.912 -0.3883 -0.5772  0.4087
  842MPD2    C212372   3.726   0.025  17.006  0.1962  0.1169 -0.4867
  842MPD2    C312373   3.807   0.023  17.121 -0.1170  0.2464 -0.2989
  842MPD2    C412374   3.925   0.096  17.120  0.6712 -0.1543 -0.2700
  842MPD2    C512375   3.952   0.184  17.019  0.0438  0.0883  0.6464
  842MPD2     H12376   3.644   4.674  17.004 -0.4472  0.8576 -0.6554
  842MPD2    H112377   3.998   0.089  17.200 -1.4291 -0.7686  1.6036
  842MPD2    H212378   3.875   0.278  16.840 -2.3398 -1.6706 -2.4467
  842MPD2    H312379   4.035   0.253  17.025 -0.7043  1.4310 -3.9920
  842MPD2     N12380   3.780   4.654  17.236  0.5444 -0.1156  0.7482
  842MPD2    H512381   3.846   4.660  17.313  0.2195  0.0786  1.0116
  842MPD2    N112382   3.661   0.150  16.801  0.0485  0.2656 -0.6595
  842MPD2    H712383   3.675   0.229  16.740 -0.0481  0.0665 -0.9365
  843MPD2     C12384   0.452   4.637  17.367  0.6390  0.0298  0.0783
  843MPD2    C112385   0.492   4.648  17.499  0.1438  0.3609 -0.8667
  843MPD2    C212386   0.562   0.046  17.536  0.9244  0.6054 -0.2344
  843MPD2    C312387   0.595   0.145  17.445  0.0666 -0.9993  0.8091
  843MPD2    C412388   0.535   0.142  17.316  0.4009 -0.4186  0.1988
  843MPD2    C512389   0.464   0.022  17.286 -0.2596  0.3950  0.5672
  843MPD2     H12390   0.606   0.045  17.635 -0.7870 -3.8555  0.5033
  843MPD2    H112391   0.552   0.210  17.233  0.8491  0.1035  0.7217
  843MPD2    H212392   0.406   4.552  17.318  2.2864  0.2290 -1.8114
  843MPD2    H312393   0.418   0.017  17.188 -1.6025 -0.7103  1.2555
  843MPD2     N12394   0.668   0.262  17.483  0.1140  0.5255  0.0723
  843MPD2    H512395   0.691   0.326  17.409 -1.3237  0.2268 -0.6515
  843MPD2    N112396   0.453   4.544  17.588  0.4824 -0.1552 -0.1085
  843MPD2    H712397   0.399   4.468  17.548  0.3964  0.1507 -0.5735
  844MPD2     C12398   3.959   4.283  16.215  0.3608  0.6550  0.2287
  844MPD2    C112399   4.061   4.191  16.242 -0.4072  0.6665  0.2780
  844MPD2    C212400   4.172   4.232  16.307 -0.3164 -0.6042 -0.2197
  844MPD2    C312401   4.183   4.367  16.347 -0.6371 -0.0634  0.5076
  844MPD2    C412402   4.074   4.454  16.328  0.1872  0.1773  0.4095
  844MPD2    C512403   3.960   4.409  16.269  0.3329  0.0393 -0.0037
  844MPD2     H12404   4.259   4.171  16.328 -1.4902 -2.3390 -0.4251
  844MPD2    H112405   4.076   4.561  16.345  1.1982  0.3849 -1.0607
  844MPD2    H212406   3.871   4.257  16.156  0.9779 -1.9918  0.4453
  844MPD2    H312407   3.877   4.476  16.252 -0.6662 -1.4297 -0.9483
  844MPD2     N12408   4.309   4.415  16.389  0.3139 -0.0556  0.0088
  844MPD2    H512409   4.377   4.342  16.402 -0.8524 -1.0170  0.6850
  844MPD2    N112410   4.051   4.056  16.204 -0.1896 -0.1124 -0.0029
  844MPD2    H712411   4.108   3.981  16.242  2.3211  1.4178 -0.6823
  845MPD2     C12412   4.609   0.629  16.629 -0.1798  0.8679  0.4057
  845MPD2    C112413   4.580   0.554  16.737 -0.5420 -0.2868 -0.1260
  845MPD2    C212414   4.573   0.418  16.714 -0.2615 -0.5821  0.5866
  845MPD2    C312415   4.578   0.364  16.586 -0.3066 -0.3887 -0.1004
  845MPD2    C412416   4.578   0.447  16.479  0.5800 -0.7352  0.3537
  845MPD2    C512417   4.585   0.582  16.499  0.6245  0.1988  0.2280
  845MPD2     H12418   4.563   0.351  16.798  0.5689 -0.4216  0.8147
  845MPD2    H112419   4.573   0.415  16.375  0.2246  0.3050  0.0514
  845MPD2    H212420   4.620   0.737  16.631 -0.8731  0.9829 -1.3666
  845MPD2    H312421   4.596   0.649  16.414  2.2670  0.2381  0.4777
  845MPD2     N12422   4.581   0.230  16.557 -0.2370 -0.5201  0.4374
  845MPD2    H512423   4.568   0.204  16.460  0.1432 -1.4187  0.6270
  845MPD2    N112424   4.570   0.612  16.867  0.0037 -0.0564 -0.3246
  845MPD2    H712425   4.562   0.712  16.881 -0.2477  0.0996 -1.6648
  846MPD2     C12426   1.436   1.022  13.837 -0.1046  0.3697 -0.6115
  846MPD2    C112427   1.309   1.032  13.793 -0.0149 -0.4112  0.3635
  846MPD2    C212428   1.207   1.029  13.880  0.0390  0.0008  0.2749
  846MPD2    C312429   1.230   1.019  14.016  0.6105  0.1150  0.5649
  846MPD2    C412430   1.359   1.013  14.061  0.2278 -0.5119 -0.0132
  846MPD2    C512431   1.461   1.022  13.968  0.2767 -0.0310  0.5971
  846MPD2     H12432   1.106   1.043  13.844  0.2650  1.3730  0.1578
  846MPD2    H112433   1.391   1.001  14.164 -1.0915 -0.9080  0.3552
  846MPD2    H212434   1.525   1.024  13.776  0.4565  0.2914  0.2097
  846MPD2    H312435   1.562   1.015  14.006  0.6298  2.4501  0.0781
  846MPD2     N12436   1.113   1.019  14.095 -0.3895  0.1462  0.0508
  846MPD2    H512437   1.022   1.017  14.049  0.1353 -0.1537 -0.9765
  846MPD2    N112438   1.279   1.069  13.660  0.3561  0.1255  0.4856
  846MPD2    H712439   1.193   1.120  13.643  0.6255  0.7451  0.9757
  847MPD2     C12440   1.275   1.486  14.552 -0.0342 -0.4326 -0.8374
  847MPD2    C112441   1.333   1.606  14.514  0.4185 -0.6066 -0.0780
  847MPD2    C212442   1.433   1.662  14.586  0.9631  0.1964  0.3395
  847MPD2    C312443   1.461   1.606  14.707  1.0616 -0.1920  0.6329
  847MPD2    C412444   1.410   1.487  14.749 -1.0028  0.8908 -0.0587
  847MPD2    C512445   1.313   1.430  14.669 -0.8034  0.3820 -0.8806
  847MPD2     H12446   1.492   1.747  14.557 -0.3940  0.6611 -1.0136
  847MPD2    H112447   1.432   1.440  14.844 -1.6507  1.0066  0.1441
  847MPD2    H212448   1.194   1.433  14.504  0.5177 -0.4857 -1.7123
  847MPD2    H312449   1.260   1.337  14.686 -0.3264  0.0268 -1.3464
  847MPD2     N12450   1.553   1.675  14.788  0.7791  0.3294 -0.5838
  847MPD2    H512451   1.592   1.760  14.747 -1.5105  0.9938 -1.4136
  847MPD2    N112452   1.302   1.671  14.391  0.3665 -0.2087 -0.5462
  847MPD2    H712453   1.346   1.761  14.373  0.1011 -0.4165 -2.2095
  848MPD2     C12454   3.778   0.014  16.277 -0.5309  0.7547 -0.3101
  848MPD2    C112455   3.885   0.042  16.364  0.6868  0.0360  0.4415
  848MPD2    C212456   3.986   0.137  16.345 -0.0210 -0.5259 -0.1514
  848MPD2    C312457   3.967   0.215  16.236 -0.6770  0.0279 -0.7093
  848MPD2    C412458   3.851   0.209  16.160  0.8418 -0.6445  0.0623
  848MPD2    C512459   3.768   0.105  16.171  0.0399 -0.0558 -0.9434
  848MPD2     H12460   4.067   0.154  16.415  0.4983 -0.2266 -0.8171
  848MPD2    H112461   3.822   0.283  16.087 -0.5503 -0.2692  0.9964
  848MPD2    H212462   3.702   4.659  16.291 -0.3798  0.7051  0.2644
  848MPD2    H312463   3.682   0.090  16.107 -0.4312 -2.2514  0.2004
  848MPD2     N12464   4.044   0.330  16.199  0.2259 -0.3618  0.4664
  848MPD2    H512465   4.023   0.383  16.115 -2.9751 -0.5532  1.1634
  848MPD2    N112466   3.887   4.698  16.488 -0.1269 -0.9838 -0.4375
  848MPD2    H712467   3.964   4.716  16.552 -0.8177 -1.4125  0.5164
  849MPD2     C12468   3.615   0.084  13.504 -0.2345  0.2137  0.4246
  849MPD2    C112469   3.678   4.684  13.555 -0.3137 -0.8334  0.3343
  849MPD2    C212470   3.603   4.617  13.653  0.0882  0.0822 -0.7264
  849MPD2    C312471   3.487   4.662  13.707  0.2804 -0.3259  0.4959
  849MPD2    C412472   3.436   0.061  13.663  0.2862 -0.6402  0.7237
  849MPD2    C512473   3.493   0.122  13.551  0.2494  0.1902 -0.5517
  849MPD2     H12474   3.641   4.531  13.707 -0.4157  0.0106 -0.4917
  849MPD2    H112475   3.342   0.089  13.708 -1.2570 -0.0909 -2.8355
  849MPD2    H212476   3.658   0.129  13.415  1.4909 -3.3411 -0.5029
  849MPD2    H312477   3.451   0.215  13.514 -0.2265 -0.8267 -2.5592
  849MPD2     N12478   3.411   4.592  13.807  0.3860  0.4943 -0.4748
  849MPD2    H512479   3.324   4.628  13.845 -0.6673 -0.0686 -2.3466
  849MPD2    N112480   3.802   4.630  13.513  0.4146 -0.0650  0.4799
  849MPD2    H712481   3.845   4.564  13.578  0.1012 -0.2150  0.5318
  850MPD2     C12482   1.295   2.650  14.735 -0.3604  1.0126  0.0777
  850MPD2    C112483   1.354   2.560  14.823 -0.2691  0.5018  0.1730
  850MPD2    C212484   1.490   2.574  14.848  0.1405 -0.0836 -0.0079
  850MPD2    C312485   1.568   2.678  14.795  0.0637 -0.5539  0.0705
  850MPD2    C412486   1.506   2.756  14.700  0.1726  0.3323  0.1249
  850MPD2    C512487   1.376   2.738  14.677 -0.0360  0.3195  0.4454
  850MPD2     H12488   1.539   2.502  14.913 -2.8306 -2.5396 -0.4555
  850MPD2    H112489   1.548   2.843  14.651 -1.0444  0.4392 -0.7395
  850MPD2    H212490   1.187   2.661  14.730 -0.7904 -2.4277  1.3989
  850MPD2    H312491   1.318   2.810  14.622 -0.6276 -0.0195  0.6244
  850MPD2     N12492   1.708   2.699  14.834  0.1094  0.1927 -0.7069
  850MPD2    H512493   1.747   2.781  14.789  0.2641 -0.4369 -1.7161
  850MPD2    N112494   1.271   2.469  14.889  0.5830  0.7766  0.0602
  850MPD2    H712495   1.170   2.481  14.887  0.2180 -2.1745  1.2621
  851MPD2     C12496   1.230   1.815  15.538  0.1058  0.0401 -0.1094
  851MPD2    C112497   1.240   1.818  15.401  0.4462 -0.1873 -0.1955
  851MPD2    C212498   1.249   1.699  15.328 -0.2743 -0.4746 -0.0075
  851MPD2    C312499   1.267   1.582  15.402  0.2287 -0.2506 -0.5117
  851MPD2    C412500   1.247   1.583  15.538  0.5474  0.2984 -0.2103
  851MPD2    C512501   1.226   1.699  15.606  0.6501 -0.5086 -0.5683
  851MPD2     H12502   1.267   1.700  15.222  1.7126  3.3438  0.3527
  851MPD2    H112503   1.248   1.487  15.589  0.2555  1.0222  1.1659
  851MPD2    H212504   1.212   1.904  15.597  0.1363 -1.0977  1.6263
  851MPD2    H312505   1.232   1.701  15.714  1.5545  3.0837 -0.7100
  851MPD2     N12506   1.265   1.459  15.331 -0.2516  0.5582  0.0848
  851MPD2    H512507   1.234   1.465  15.234 -0.1523  1.6488  0.1194
  851MPD2    N112508   1.231   1.947  15.341  0.1534  0.2356  0.0595
  851MPD2    H712509   1.222   2.026  15.404  0.4005  0.3650 -0.0685
  852MPD2     C12510   0.877   0.279   9.788  0.2244 -0.4304  0.0292
  852MPD2    C112511   0.943   0.327   9.898 -0.6200  0.2993  0.1860
  852MPD2    C212512   1.076   0.352   9.885  0.2047  1.0107 -0.6098
  852MPD2    C312513   1.133   0.351   9.761  0.2525  0.1591  0.9940
  852MPD2    C412514   1.063   0.304   9.652 -0.1270 -0.0844  0.1280
  852MPD2    C512515   0.934   0.267   9.668  0.3887 -0.4131  0.2988
  852MPD2     H12516   1.138   0.398   9.962  1.9959 -2.1882 -0.1571
  852MPD2    H112517   1.109   0.305   9.554  3.0755 -0.7700  1.6312
  852MPD2    H212518   0.771   0.256   9.788  0.3263 -0.8976 -0.0487
  852MPD2    H312519   0.875   0.218   9.592  0.4369 -2.3249  1.4960
  852MPD2     N12520   1.263   0.398   9.757  0.3128  0.1610 -0.0713
  852MPD2    H512521   1.304   0.402   9.850 -0.3364 -1.6986  0.2926
  852MPD2    N112522   0.869   0.333  10.022  0.5282 -0.4220 -0.0704
  852MPD2    H712523   0.771   0.304  10.024  1.3281 -3.1129 -0.7782
  853MPD2     C12524   2.846   0.198  12.320 -0.5035  0.2931  0.0380
  853MPD2    C112525   2.761   0.298  12.271  0.2837  0.6702  0.0473
  853MPD2    C212526   2.744   0.308  12.133 -0.1822 -0.1433 -0.9217
  853MPD2    C312527   2.798   0.218  12.043 -0.0111 -0.2996 -0.0512
  853MPD2    C412528   2.879   0.122  12.093  0.0285 -0.5928 -0.0994
  853MPD2    C512529   2.909   0.115  12.226 -0.0506  0.1896  0.1445
  853MPD2     H12530   2.680   0.383  12.088  1.5389  2.5055  1.0160
  853MPD2    H112531   2.932   0.062  12.020  1.5213 -1.3497  1.6002
  853MPD2    H212532   2.862   0.185  12.427  2.0531  0.4582 -0.3393
  853MPD2    H312533   2.972   0.034  12.261 -1.3036 -1.0862 -0.5516
  853MPD2     N12534   2.788   0.241  11.906  0.8142  0.1600  0.3327
  853MPD2    H512535   2.839   0.177  11.847 -0.0674 -0.2205 -0.0119
  853MPD2    N112536   2.709   0.396  12.355 -0.0944 -0.5080  0.6145
  853MPD2    H712537   2.741   0.391  12.451 -0.0221  0.1877  0.6289
  854MPD2     C12538   4.189   0.238  12.962  0.5830  0.6628  0.1583
  854MPD2    C112539   4.262   0.270  12.849 -0.2107 -1.1080 -0.1712
  854MPD2    C212540   4.397   0.231  12.838  0.4215  0.7582  0.3583
  854MPD2    C312541   4.455   0.178  12.956 -0.4996  0.1412  0.1740
  854MPD2    C412542   4.384   0.173  13.075  0.0971  0.6273 -0.3173
  854MPD2    C512543   4.253   0.198  13.075  0.4551  0.0099  0.6886
  854MPD2     H12544   4.460   0.246  12.751 -0.4994  0.5986 -0.3398
  854MPD2    H112545   4.430   0.154  13.171  0.4779 -0.8271 -0.7946
  854MPD2    H212546   4.086   0.266  12.980  0.3632  0.8144 -1.3574
  854MPD2    H312547   4.194   0.191  13.165 -1.5554  0.6397 -0.5869
  854MPD2     N12548   4.591   0.138  12.971  1.2266 -0.2018  0.7439
  854MPD2    H512549   4.619   0.122  13.068 -1.1966 -0.8775  1.3319
  854MPD2    N112550   4.193   0.321  12.732  0.9478 -0.3795 -0.1394
  854MPD2    H712551   4.101   0.359  12.754 -0.0742 -1.8262 -1.9417
  855MPD2     C12552   0.199   0.524  13.566 -0.6304 -0.2858  0.5111
  855MPD2    C112553   0.166   0.389  13.566 -0.1070  0.6433 -0.4991
  855MPD2    C212554   0.193   0.327  13.450  0.0043  0.1314 -0.1972
  855MPD2    C312555   0.252   0.385  13.337  0.0012  0.6078 -0.3171
  855MPD2    C412556   0.285   0.517  13.343  0.1985 -0.6097  0.2292
  855MPD2    C512557   0.257   0.582  13.457  0.0403 -0.4190 -0.6460
  855MPD2     H12558   0.151   0.227  13.443 -0.4042  0.2923 -0.0495
  855MPD2    H112559   0.322   0.579  13.262 -0.4623  1.7471  1.7336
  855MPD2    H212560   0.171   0.590  13.646  0.4643 -0.3112  0.9149
  855MPD2    H312561   0.282   0.687  13.468  1.9237 -0.8070 -1.3010
  855MPD2     N12562   0.264   0.312  13.221  0.2244  0.4474 -0.2101
  855MPD2    H512563   0.277   0.365  13.135  0.7027 -0.0458 -0.4401
  855MPD2    N112564   0.107   0.320  13.665 -0.7055 -0.2255  0.3156
  855MPD2    H712565   0.106   0.220  13.649  0.6267  0.0790 -1.6052
  856MPD2     C12566   2.176   1.374  14.258 -0.8860 -0.1542  0.9855
  856MPD2    C112567   2.222   1.503  14.266  1.0656  0.1630  0.2259
  856MPD2    C212568   2.166   1.608  14.199 -0.0201  0.1204 -0.3753
  856MPD2    C312569   2.061   1.583  14.117  0.7391  0.2896 -0.0349
  856MPD2    C412570   2.015   1.452  14.104  0.1130  0.4077 -0.0926
  856MPD2    C512571   2.074   1.346  14.170  0.7895 -0.0063  0.4737
  856MPD2     H12572   2.212   1.705  14.205 -0.8888  0.4282  1.2907
  856MPD2    H112573   1.940   1.428  14.029  0.8217 -0.4863 -0.5115
  856MPD2    H212574   2.220   1.289  14.308  1.6422  1.5273  1.6441
  856MPD2    H312575   2.035   1.246  14.164 -1.5362  0.7940  2.3763
  856MPD2     N12576   1.994   1.684  14.040 -0.0827  0.0379  0.1258
  856MPD2    H512577   1.915   1.647  13.988 -0.7694  2.1815 -0.3711
  856MPD2    N112578   2.318   1.546  14.360 -0.3506 -0.7288 -0.6070
  856MPD2    H712579   2.317   1.646  14.373 -2.2058 -0.7514 -0.5507
  857MPD2     C12580   3.505   2.983  12.989  0.2499  0.2625 -0.1323
  857MPD2    C112581   3.597   2.971  12.880 -0.4929  0.2620  0.4519
  857MPD2    C212582   3.681   3.086  12.864 -0.2707  0.1545  0.1697
  857MPD2    C312583   3.666   3.202  12.937 -0.8405 -0.0076 -0.3276
  857MPD2    C412584   3.579   3.205  13.043  0.0472  0.5457  0.2539
  857MPD2    C512585   3.505   3.097  13.066  0.6294 -0.3627 -0.3620
  857MPD2     H12586   3.762   3.070  12.793  0.6662  0.4124  1.1804
  857MPD2    H112587   3.566   3.288  13.111 -0.6951 -0.0684  0.8610
  857MPD2    H212588   3.441   2.901  13.017 -1.2618  0.6972 -2.3138
  857MPD2    H312589   3.442   3.102  13.154  0.2043  0.1970 -0.6945
  857MPD2     N12590   3.747   3.322  12.920 -0.3669  0.0908 -0.8234
  857MPD2    H512591   3.736   3.389  12.996  0.1909  1.4989 -1.9661
  857MPD2    N112592   3.616   2.847  12.814 -0.1280  0.2040  0.4694
  857MPD2    H712593   3.568   2.764  12.847  2.0318 -0.1429  2.7441
  858MPD2     C12594   4.230   2.334  16.673  0.1341 -0.3370  0.0451
  858MPD2    C112595   4.309   2.250  16.753 -0.8371 -0.5957 -0.6932
  858MPD2    C212596   4.338   2.282  16.884 -0.3753 -0.0279 -0.1471
  858MPD2    C312597   4.275   2.386  16.940 -0.3530 -0.8282 -0.2995
  858MPD2    C412598   4.194   2.470  16.865 -0.2070 -0.1024  0.1759
  858MPD2    C512599   4.170   2.444  16.732  0.3106 -0.0569  0.2399
  858MPD2     H12600   4.394   2.211  16.944 -1.9557 -2.4575 -1.5707
  858MPD2    H112601   4.140   2.555  16.904  0.0071  0.0561  0.1317
  858MPD2    H212602   4.217   2.306  16.569 -1.2194 -1.7276  0.5913
  858MPD2    H312603   4.098   2.504  16.678 -1.6218 -1.4106  1.3053
  858MPD2     N12604   4.279   2.408  17.081  0.1420 -0.2286 -0.4498
  858MPD2    H512605   4.210   2.475  17.113  0.2852 -0.7048  0.8600
  858MPD2    N112606   4.359   2.129  16.692  0.5438 -0.1360  0.3057
  858MPD2    H712607   4.315   2.131  16.600  0.2719 -0.7180  0.4239
  859MPD2     C12608   2.854   4.279  15.154 -0.0795 -0.3525 -0.3616
  859MPD2    C112609   2.979   4.335  15.128  0.0647  0.0103  0.5304
  859MPD2    C212610   3.074   4.247  15.069  0.1611  0.5691  0.2333
  859MPD2    C312611   3.048   4.120  15.029  0.7273 -0.0026  0.3854
  859MPD2    C412612   2.918   4.078  15.048 -0.4743 -0.0268  0.1406
  859MPD2    C512613   2.827   4.152  15.117  0.8342 -0.0774  0.3862
  859MPD2     H12614   3.177   4.274  15.048  0.3811 -1.0480 -0.7519
  859MPD2    H112615   2.893   3.982  15.006 -0.8446  1.0651 -2.1080
  859MPD2    H212616   2.781   4.348  15.196 -0.5136 -1.2055  0.2846
  859MPD2    H312617   2.727   4.112  15.129  0.5290  1.4193  2.8828
  859MPD2     N12618   3.139   4.033  14.972 -0.0797  0.3100  0.2210
  859MPD2    H512619   3.094   3.959  14.918 -0.8382  0.6413  0.3945
  859MPD2    N112620   3.005   4.470  15.166  0.7014 -0.0707 -0.2677
  859MPD2    H712621   2.927   4.532  15.184  1.3400  0.3898  0.9467
  860MPD2     C12622   1.070   4.552  11.544 -0.0996  0.1108  0.3322
  860MPD2    C112623   1.085   4.611  11.664  0.5563  0.0996  0.1673
  860MPD2    C212624   0.987   4.606  11.761 -0.5812  0.1086 -0.0370
  860MPD2    C312625   0.864   4.545  11.744  0.3089 -0.7897 -0.4586
  860MPD2    C412626   0.849   4.483  11.621  0.0495 -0.5888  0.1679
  860MPD2    C512627   0.946   4.490  11.526  0.0715  0.6677 -0.1376
  860MPD2     H12628   0.998   4.664  11.852  0.8424 -0.7413  0.3450
  860MPD2    H112629   0.754   4.435  11.602  1.0133 -1.8248 -1.4787
  860MPD2    H212630   1.147   4.543  11.469 -0.6969  1.2762 -0.4206
  860MPD2    H312631   0.929   4.440  11.431  1.4560 -0.7223  0.3487
  860MPD2     N12632   0.760   4.555  11.841 -0.4926 -0.3769 -0.3473
  860MPD2    H512633   0.775   4.617  11.919 -0.7488 -0.7297 -0.0142
  860MPD2    N112634   1.203   4.675  11.700 -0.6287 -0.1269  0.4404
  860MPD2    H712635   1.198   4.702  11.798  2.0613  0.6118  0.3650
  861MPD2     C12636   4.587   2.707  10.939 -0.0719 -0.1629  1.0053
  861MPD2    C112637   4.524   2.804  11.018  0.5329  0.1497 -0.5513
  861MPD2    C212638   4.443   2.895  10.959  0.0848  0.3145 -0.6401
  861MPD2    C312639   4.419   2.897  10.823  0.3890  0.3342  0.1920
  861MPD2    C412640   4.483   2.804  10.753  0.1525 -0.5022 -0.1385
  861MPD2    C512641   4.557   2.705  10.803 -0.0265  0.0940  0.1116
  861MPD2     H12642   4.399   2.974  11.019 -0.0615  0.1106 -0.4777
  861MPD2    H112643   4.460   2.799  10.647 -0.0383 -1.0345 -0.0687
  861MPD2    H212644   4.657   2.632  10.974  0.9196  0.4927  0.4146
  861MPD2    H312645   4.606   2.637  10.733  0.5642  0.1883  0.4314
  861MPD2     N12646   4.324   2.984  10.757 -0.2934 -0.4856  0.3706
  861MPD2    H512647   4.322   2.981  10.655 -0.4825  1.0210  0.3332
  861MPD2    N112648   4.542   2.808  11.159  0.4915  0.1458 -0.3920
  861MPD2    H712649   4.474   2.867  11.206 -0.0335  0.1411 -1.1513
  862MPD2     C12650   4.221   3.286  10.141  0.0407 -0.0366  0.8926
  862MPD2    C112651   4.145   3.216  10.233 -0.8941 -0.7236  0.3951
  862MPD2    C212652   4.044   3.134  10.178 -0.8120  0.1223 -0.6733
  862MPD2    C312653   4.010   3.127  10.043  0.3172  0.5339 -0.6242
  862MPD2    C412654   4.099   3.188   9.961  0.6905  0.1272  0.8603
  862MPD2    C512655   4.200   3.273  10.008  0.6819  0.5001 -0.3695
  862MPD2     H12656   3.980   3.086  10.252  0.1152 -0.4135 -0.2114
  862MPD2    H112657   4.077   3.185   9.855  1.9788 -0.9896  0.6333
  862MPD2    H212658   4.303   3.347  10.177 -0.1274  0.4326  0.4964
  862MPD2    H312659   4.265   3.325   9.938 -1.7357  3.8390 -0.1051
  862MPD2     N12660   3.902   3.049   9.996 -0.1605 -0.0496  0.0115
  862MPD2    H512661   3.908   3.038   9.896  0.8135 -1.2093  0.1896
  862MPD2    N112662   4.163   3.229  10.373  0.0064  0.9276  0.1822
  862MPD2    H712663   4.127   3.165  10.444 -0.3291  0.7345 -0.1656
  863MPD2     C12664   2.858   1.613  16.715  0.9824  0.4906 -1.0475
  863MPD2    C112665   2.799   1.483  16.720  0.7290 -0.6443  0.3607
  863MPD2    C212666   2.845   1.395  16.815  0.5155  0.3747  0.0676
  863MPD2    C312667   2.953   1.435  16.900 -0.1955  0.3950  1.0470
  863MPD2    C412668   3.013   1.561  16.881 -0.1908 -0.1815 -0.4747
  863MPD2    C512669   2.960   1.648  16.798  0.3723 -0.4276 -0.0518
  863MPD2     H12670   2.812   1.292  16.822  1.5468  0.1418  1.3699
  863MPD2    H112671   3.094   1.599  16.943 -1.6587  0.5708  0.9616
  863MPD2    H212672   2.818   1.687  16.646  1.0653  0.9465 -0.6133
  863MPD2    H312673   3.002   1.747  16.787 -0.1494 -0.3001 -0.8740
  863MPD2     N12674   3.004   1.343  16.993  0.2670  0.1278  0.3351
  863MPD2    H512675   2.951   1.257  16.996 -0.7032  0.6060 -2.8096
  863MPD2    N112676   2.720   1.449  16.611  0.2115  0.0231  0.1921
  863MPD2    H712677   2.713   1.531  16.553  0.3737  0.1408  0.3380
  864MPD2     C12678   3.062   2.402  17.366 -0.1258 -0.3360  0.1322
  864MPD2    C112679   3.180   2.391  17.299 -0.8740  0.2615 -0.0428
  864MPD2    C212680   3.224   2.488  17.209 -0.0778 -0.0795 -0.1903
  864MPD2    C312681   3.162   2.612  17.200 -0.2456 -0.7371  0.5563
  864MPD2    C412682   3.045   2.627  17.275  0.1592 -0.1636  0.6066
  864MPD2    C512683   2.999   2.522  17.356 -0.1523 -0.8827  0.2786
  864MPD2     H12684   3.304   2.476  17.137  0.9789 -1.7808  1.2741
  864MPD2    H112685   2.994   2.723  17.280 -2.2755 -1.4554  0.9146
  864MPD2    H212686   3.033   2.324  17.435  0.1414 -0.7935 -0.2725
  864MPD2    H312687   2.907   2.525  17.413  1.2069  0.3527  2.3524
  864MPD2     N12688   3.214   2.717  17.121  0.0556 -0.7334  0.3530
  864MPD2    H512689   3.163   2.804  17.126 -1.0031 -1.4680  2.2216
  864MPD2    N112690   3.257   2.267  17.303 -0.1350  0.6191  0.2831
  864MPD2    H712691   3.205   2.192  17.347 -0.5362  1.0750  0.5932
  865MPD2     C12692   3.254   2.973  16.166 -0.1063  0.1538  0.5754
  865MPD2    C112693   3.259   2.861  16.245 -0.0274 -0.4661 -0.1575
  865MPD2    C212694   3.237   2.881  16.380  0.6232 -0.4136  0.1646
  865MPD2    C312695   3.214   3.002  16.436 -0.1304  0.3352  0.5085
  865MPD2    C412696   3.213   3.113  16.355  0.0537  0.1493  0.0891
  865MPD2    C512697   3.222   3.092  16.222 -0.8243  1.0111  0.2808
  865MPD2     H12698   3.241   2.798  16.449  0.9613 -1.8248 -1.5318
  865MPD2    H112699   3.200   3.216  16.387  1.6435  0.9079 -1.7353
  865MPD2    H212700   3.238   2.964  16.059 -1.3622  0.4062  0.7371
  865MPD2    H312701   3.193   3.178  16.163 -0.0840  1.0443 -0.0316
  865MPD2     N12702   3.205   3.032  16.576 -0.2542 -0.1029  0.0728
  865MPD2    H512703   3.212   3.129  16.605  2.6177 -0.5715  0.9046
  865MPD2    N112704   3.304   2.741  16.184  0.8560  0.3472 -0.2817
  865MPD2    H712705   3.328   2.743  16.085 -3.0098  0.5812 -1.2000
  866MPD2     C12706   0.398   2.767  11.402  0.4100 -0.1010  1.0465
  866MPD2    C112707   0.413   2.835  11.283  0.5425 -0.8199  0.1373
  866MPD2    C212708   0.328   2.932  11.235 -0.0232  0.2068  0.9384
  866MPD2    C312709   0.230   2.973  11.328  0.6167  0.1090 -0.5959
  866MPD2    C412710   0.217   2.906  11.451 -0.1034  0.0712 -0.6636
  866MPD2    C512711   0.296   2.802  11.479 -0.1389 -0.4961 -0.5010
  866MPD2     H12712   0.328   2.964  11.132 -0.4559  1.3420  1.2964
  866MPD2    H112713   0.150   2.945  11.526 -0.8889 -0.6720 -0.9746
  866MPD2    H212714   0.457   2.684  11.441  0.2948 -1.4114 -1.5925
  866MPD2    H312715   0.292   2.775  11.584  1.7959 -0.9875 -0.5541
  866MPD2     N12716   0.126   3.064  11.296 -0.1536 -0.7043 -0.1338
  866MPD2    H512717   0.055   3.086  11.365  0.5931  0.4247  0.2768
  866MPD2    N112718   0.523   2.807  11.205  0.2419  0.4593 -0.7183
  866MPD2    H712719   0.556   2.715  11.235 -1.9044 -0.6181 -1.6904
  867MPD2     C12720   2.070   2.604  16.478  0.1483  0.4332 -1.2130
  867MPD2    C112721   2.149   2.572  16.587  0.3174 -0.7124  0.0892
  867MPD2    C212722   2.203   2.665  16.666 -0.2082 -0.0728  0.7156
  867MPD2    C312723   2.180   2.800  16.633 -0.2087  0.3754  0.5146
  867MPD2    C412724   2.097   2.829  16.526  0.6362  0.0619 -0.2194
  867MPD2    C512725   2.037   2.735  16.449  0.1824 -0.5879  0.1981
  867MPD2     H12726   2.270   2.636  16.746  1.7506 -0.3487 -0.9931
  867MPD2    H112727   2.082   2.931  16.495  2.4258  0.1850 -0.6963
  867MPD2    H212728   2.034   2.525  16.413 -1.1581  2.2622 -2.7340
  867MPD2    H312729   1.975   2.764  16.365 -1.8867 -0.6520  1.7222
  867MPD2     N12730   2.240   2.912  16.704  0.7189  1.0234  0.7438
  867MPD2    H512731   2.218   3.004  16.667 -0.3538  0.3332 -0.3341
  867MPD2    N112732   2.181   2.433  16.602  0.5822  0.0636  0.6265
  867MPD2    H712733   2.140   2.372  16.532  0.0070  2.7011 -1.3318
  868MPD2     C12734   3.785   1.355  12.676 -0.4996 -0.1487  0.0547
  868MPD2    C112735   3.833   1.305  12.793 -0.2984 -0.3967  0.0222
  868MPD2    C212736   3.786   1.361  12.912  0.0028 -1.0141 -0.4744
  868MPD2    C312737   3.688   1.462  12.918 -0.7983  0.0236  0.4393
  868MPD2    C412738   3.638   1.515  12.800 -0.4643  0.1697 -0.0072
  868MPD2    C512739   3.690   1.458  12.683  0.2136 -0.0405  0.2022
  868MPD2     H12740   3.823   1.333  13.010 -0.5342  1.3914  0.4089
  868MPD2    H112741   3.554   1.582  12.790 -0.2653  0.5737  1.0706
  868MPD2    H212742   3.802   1.319  12.575 -1.1386  1.5981 -0.6829
  868MPD2    H312743   3.650   1.496  12.590 -0.3419  1.1682  0.9411
  868MPD2     N12744   3.658   1.508  13.052  0.4688 -0.0367  0.1893
  868MPD2    H512745   3.708   1.483  13.137  1.9198  1.7832 -0.1304
  868MPD2    N112746   3.936   1.211  12.790  0.1111  0.3378 -0.1804
  868MPD2    H712747   3.979   1.205  12.698  0.6176  1.2160  0.0018
  869MPD2     C12748   0.789   4.112   1.588  0.1558  0.5429 -0.1337
  869MPD2    C112749   0.661   4.103   1.641 -0.2735 -1.1052  0.4227
  869MPD2    C212750   0.562   4.173   1.566  0.3372 -0.3726 -0.0986
  869MPD2    C312751   0.595   4.233   1.449  0.0919  0.1094 -0.0290
  869MPD2    C412752   0.720   4.224   1.402  0.4796 -0.7225 -0.7064
  869MPD2    C512753   0.819   4.168   1.470  0.3013  0.2958  0.5780
  869MPD2     H12754   0.455   4.162   1.582  0.3080 -0.6580 -0.4781
  869MPD2    H112755   0.756   4.288   1.322 -2.1547  0.4802 -0.9191
  869MPD2    H212756   0.876   4.081   1.645 -0.9858 -0.8771  0.8044
  869MPD2    H312757   0.917   4.161   1.424 -0.0085  1.3925 -0.2600
  869MPD2     N12758   0.504   4.303   1.364  0.2481 -0.4068 -0.7206
  869MPD2    H512759   0.542   4.314   1.271  0.7483  0.5294 -0.4072
  869MPD2    N112760   0.637   4.044   1.765  0.4314 -0.3569  0.3632
  869MPD2    H712761   0.717   3.996   1.805 -0.6031 -2.1411  0.2665
  870MPD2     C12762   4.693   3.495   1.225  0.3426 -0.9363  0.6963
  870MPD2    C112763   4.575   3.498   1.299 -0.0687 -0.3281 -0.4448
  870MPD2    C212764   4.452   3.498   1.225 -0.1022 -0.4590 -0.4454
  870MPD2    C312765   4.453   3.503   1.084  0.0326  0.2530 -0.1216
  870MPD2    C412766   4.572   3.503   1.014 -0.1124 -0.0046  0.4303
  870MPD2    C512767   4.688   3.495   1.083 -0.6519  0.1612  0.0937
  870MPD2     H12768   4.361   3.517   1.281  0.1732 -1.5269  0.3634
  870MPD2    H112769   4.588   3.489   0.907 -1.7104  1.2845  0.0306
  870MPD2    H212770   0.067   3.480   1.277 -0.0290 -0.0139  1.6349
  870MPD2    H312771   0.058   3.472   1.030 -0.9552  2.3069 -1.3867
  870MPD2     N12772   4.323   3.514   1.028 -0.4239 -0.3511  0.2726
  870MPD2    H512773   4.244   3.526   1.091 -1.3768  0.3852 -1.0383
  870MPD2    N112774   4.581   3.496   1.443 -0.1975  0.5471  0.5766
  870MPD2    H712775   4.675   3.491   1.480 -0.9971 -2.2182  2.2483
  871MPD2     C12776   1.185   2.879  16.201 -0.8166  0.1290  0.1807
  871MPD2    C112777   1.176   2.812  16.323 -0.0378 -0.5020  0.3078
  871MPD2    C212778   1.185   2.673  16.330  0.1632  1.3635  0.5635
  871MPD2    C312779   1.185   2.597  16.215 -0.7800 -0.3868 -0.0181
  871MPD2    C412780   1.197   2.662  16.093 -0.1786  0.4891  0.2749
  871MPD2    C512781   1.190   2.803  16.092  0.7726 -0.3646  0.1344
  871MPD2     H12782   1.192   2.622  16.425  1.9071 -1.7336 -1.2034
  871MPD2    H112783   1.202   2.613  15.997 -2.9243  0.7886 -0.0175
  871MPD2    H212784   1.193   2.987  16.200 -1.0293  0.1379 -0.2650
  871MPD2    H312785   1.182   2.855  15.997  0.6106  0.3767  0.5560
  871MPD2     N12786   1.199   2.455  16.224  0.2990  0.2547 -0.4995
  871MPD2    H512787   1.202   2.413  16.316  0.5308  3.2209  0.8347
  871MPD2    N112788   1.189   2.893  16.442  0.7372 -0.1527 -0.2556
  871MPD2    H712789   1.214   2.990  16.427 -1.0299  0.1142 -1.5064
  872MPD2     C12790   2.101   0.544  14.155 -0.1670  0.4314 -0.1974
  872MPD2    C112791   2.034   0.650  14.091 -0.3675  0.7645 -0.0408
  872MPD2    C212792   1.915   0.699  14.147  0.0423  0.0323  0.7564
  872MPD2    C312793   1.850   0.648  14.255  0.7142 -0.7643 -0.1064
  872MPD2    C412794   1.923   0.547  14.313  0.0853  0.2480 -0.0268
  872MPD2    C512795   2.040   0.492  14.268 -0.1225 -1.2228  0.3052
  872MPD2     H12796   1.868   0.779  14.092  0.8136 -0.8701 -1.2030
  872MPD2    H112797   1.890   0.508  14.409 -2.2095 -1.6965 -1.5876
  872MPD2    H212798   2.192   0.500  14.117 -0.6579  0.0366 -0.9245
  872MPD2    H312799   2.092   0.421  14.331  0.6135  0.1259  1.2383
  872MPD2     N12800   1.716   0.664  14.292  0.5613 -0.4995 -0.5034
  872MPD2    H512801   1.686   0.620  14.378 -3.2732  1.9231 -0.5803
  872MPD2    N112802   2.071   0.702  13.960  0.2513 -0.0490 -0.4235
  872MPD2    H712803   2.021   0.785  13.928  3.1766  2.4405  1.4500
  873MPD2     C12804   3.922   0.257   0.922 -0.3252  1.0359  0.1771
  873MPD2    C112805   3.805   0.247   0.988  0.0291  0.0804  0.1542
  873MPD2    C212806   3.733   0.127   0.968 -0.9062  0.5756  0.0267
  873MPD2    C312807   3.779   0.020   0.893  0.2954  0.1335  0.2301
  873MPD2    C412808   3.907   0.040   0.841 -0.3255  0.1275 -0.2795
  873MPD2    C512809   3.971   0.157   0.843  0.0865  0.3057  0.2354
  873MPD2     H12810   3.631   0.126   1.004 -0.6058  0.1724  0.8653
  873MPD2    H112811   3.954   4.690   0.774 -3.1424 -0.3567 -1.7279
  873MPD2    H212812   3.974   0.350   0.941 -1.1102  1.5126 -0.0610
  873MPD2    H312813   4.060   0.157   0.782 -1.0105 -2.0116 -1.3751
  873MPD2     N12814   3.708   4.617   0.899 -0.1328 -0.6450  0.0797
  873MPD2    H512815   3.634   4.609   0.968 -0.9905 -0.5549 -0.8191
  873MPD2    N112816   3.752   0.365   1.045  0.6747  0.2829  0.3055
  873MPD2    H712817   3.814   0.444   1.035  0.5379  0.2884 -0.5034
  874MPD2     C12818   3.513   0.500  16.044  0.4297 -0.4784 -0.1140
  874MPD2    C112819   3.578   0.469  16.159  0.5967  0.6073 -0.7252
  874MPD2    C212820   3.709   0.524  16.180  0.2004 -0.2520  0.5131
  874MPD2    C312821   3.778   0.595  16.080  0.1762  0.3242  0.6584
  874MPD2    C412822   3.710   0.603  15.962 -0.3134  0.7422  0.2202
  874MPD2    C512823   3.577   0.577  15.947 -0.1999 -0.4361 -0.1700
  874MPD2     H12824   3.750   0.513  16.279 -2.7209 -1.5503  1.5722
  874MPD2    H112825   3.770   0.644  15.881 -1.8441  0.1099 -1.2211
  874MPD2    H212826   3.420   0.448  16.021  0.0060  0.1354  0.2005
  874MPD2    H312827   3.526   0.598  15.854 -2.1537  2.5666  1.5692
  874MPD2     N12828   3.909   0.641  16.102 -0.0257 -0.0093  0.2342
  874MPD2    H512829   3.945   0.634  16.196 -0.7018 -2.9963  0.2723
  874MPD2    N112830   3.518   0.382  16.252 -0.0466 -0.0978  0.2049
  874MPD2    H712831   3.426   0.346  16.227  0.2382 -1.3771  0.9901
  875MPD2     C12832   0.186   3.606  14.509  0.0048 -0.4620  0.2683
  875MPD2    C112833   0.057   3.615  14.565 -0.0851 -0.0497 -0.1839
  875MPD2    C212834   0.047   3.649  14.697  0.1541 -0.4372 -0.6707
  875MPD2    C312835   0.164   3.674  14.769  0.2991 -0.1302 -0.1914
  875MPD2    C412836   0.283   3.648  14.708 -0.4583  0.1063  0.4230
  875MPD2    C512837   0.294   3.632  14.571  0.0127 -0.3960  0.7649
  875MPD2     H12838   4.668   3.650  14.738  0.0286  1.7492 -0.9955
  875MPD2    H112839   0.374   3.677  14.760 -0.2501 -1.5434  0.9622
  875MPD2    H212840   0.190   3.571  14.407 -1.1950  0.0511  0.0392
  875MPD2    H312841   0.391   3.619  14.523  0.2381  0.7407  0.9014
  875MPD2     N12842   0.162   3.709  14.906  0.1939 -0.3839 -0.4001
  875MPD2    H512843   0.246   3.729  14.960  0.8117 -3.5249 -0.1829
  875MPD2    N112844   4.664   3.588  14.490 -0.6281  0.0180  0.1416
  875MPD2    H712845   4.581   3.593  14.548 -1.4196  0.3274 -1.0319
  876MPD2     C12846   3.197   0.167  16.065  0.7048  0.1671  0.0984
  876MPD2    C112847   3.319   0.120  16.023  0.3967  0.1833 -0.0001
  876MPD2    C212848   3.376   0.010  16.085 -0.4832  0.4657 -0.3125
  876MPD2    C312849   3.309   4.657  16.181  0.2926 -0.3355 -0.6539
  876MPD2    C412850   3.183   4.700  16.217  0.7504  0.1473 -0.5472
  876MPD2    C512851   3.127   0.093  16.159  0.2829 -1.0570 -0.1591
  876MPD2     H12852   3.478   4.700  16.064  0.4091  3.3059 -0.1473
  876MPD2    H112853   3.127   4.639  16.287  0.8616 -0.0246 -0.6089
  876MPD2    H212854   3.153   0.256  16.023  2.9168  1.4730  0.5494
  876MPD2    H312855   3.028   0.124  16.191  0.3233 -1.7546  0.6609
  876MPD2     N12856   3.373   4.546  16.243 -0.3975  0.3384  0.1616
  876MPD2    H512857   3.465   4.530  16.203 -0.1998 -1.9329  1.5420
  876MPD2    N112858   3.393   0.196  15.929  0.1970  0.2348 -0.1933
  876MPD2    H712859   3.351   0.285  15.903 -2.2704 -0.3037  1.9802
  877MPD2     C12860   3.268   0.512  15.264  0.5126 -0.3838 -0.6360
  877MPD2    C112861   3.408   0.504  15.268 -1.2729  0.3911 -0.7776
  877MPD2    C212862   3.477   0.523  15.150 -0.1572 -0.3446  0.5859
  877MPD2    C312863   3.419   0.555  15.031 -0.3812 -0.6030 -1.0375
  877MPD2    C412864   3.286   0.553  15.025  0.2775  0.0839  0.3411
  877MPD2    C512865   3.211   0.545  15.138 -0.3795  0.1057 -0.6339
  877MPD2     H12866   3.584   0.506  15.159 -0.0937  0.2587  0.9804
  877MPD2    H112867   3.243   0.566  14.927 -1.9046 -3.0130  0.8898
  877MPD2    H212868   3.199   0.499  15.347  0.1702 -1.8652 -1.1614
  877MPD2    H312869   3.105   0.556  15.116 -0.6288 -0.0516  0.5084
  877MPD2     N12870   3.490   0.573  14.907  0.1700 -0.5028  0.2660
  877MPD2    H512871   3.433   0.584  14.824 -1.7330  2.0222  1.9100
  877MPD2    N112872   3.475   0.480  15.388  0.4771 -0.1543 -0.5109
  877MPD2    H712873   3.575   0.495  15.387  0.2651  1.2662  0.6481
  878MPD2     C12874   3.714   4.155  12.758  0.5442 -0.4327 -0.0866
  878MPD2    C112875   3.681   4.287  12.789  0.5528 -0.8706 -0.0079
  878MPD2    C212876   3.740   4.347  12.900 -0.0970  0.2977 -0.3948
  878MPD2    C312877   3.832   4.275  12.973 -0.1426  0.2687  0.1234
  878MPD2    C412878   3.862   4.143  12.938 -0.0003  0.0942  0.1885
  878MPD2    C512879   3.796   4.081  12.841  0.3299  0.0619  0.0016
  878MPD2     H12880   3.706   4.440  12.945 -2.3679 -0.3492 -0.7959
  878MPD2    H112881   3.920   4.080  13.004 -1.7186 -0.6032  1.0560
  878MPD2    H212882   3.663   4.113  12.672  1.2160 -0.6431 -0.3903
  878MPD2    H312883   3.803   3.974  12.823  0.5016  0.3206 -1.4416
  878MPD2     N12884   3.880   4.328  13.095 -0.0522 -0.0007 -0.6725
  878MPD2    H512885   3.830   4.411  13.126  3.2873  0.2865  3.9187
  878MPD2    N112886   3.583   4.352  12.707 -0.2867  0.0857  0.0885
  878MPD2    H712887   3.527   4.290  12.650 -0.2444 -1.0953  1.3293
  879MPD2     C12888   4.132   1.183  16.956 -0.0742 -0.1812 -0.0818
  879MPD2    C112889   4.007   1.154  16.994  0.3956  0.1222  0.2913
  879MPD2    C212890   3.924   1.082  16.907 -0.0840  0.3647 -0.1081
  879MPD2    C312891   3.966   1.064  16.780 -0.3034 -0.4717  0.3896
  879MPD2    C412892   4.094   1.098  16.742  0.2755 -0.5710 -0.0261
  879MPD2    C512893   4.179   1.152  16.836 -0.2606  0.3605 -0.5477
  879MPD2     H12894   3.821   1.061  16.935  0.4831 -2.4905 -0.1004
  879MPD2    H112895   4.132   1.070  16.645 -0.0543 -1.2195  0.0337
  879MPD2    H212896   4.204   1.226  17.025  0.3153 -1.3756  0.2579
  879MPD2    H312897   4.281   1.169  16.805  0.2005 -0.1114  0.7189
  879MPD2     N12898   3.882   0.996  16.688  0.3769 -0.3435  0.4068
  879MPD2    H512899   3.904   1.010  16.590  0.7824  1.8948  0.8336
  879MPD2    N112900   3.979   1.184  17.127  0.4676  0.8858  0.3964
  879MPD2    H712901   4.052   1.215  17.190 -1.3109  2.3644  1.7081
  880MPD2     C12902   3.991   3.396   0.360  0.0647  0.0980 -0.1504
  880MPD2    C112903   4.037   3.307   0.261  0.0145 -0.4022  0.8673
  880MPD2    C212904   4.103   3.193   0.298  0.0668  0.1502  0.3158
  880MPD2    C312905   4.127   3.162   0.432 -0.4521 -0.4313 -0.0488
  880MPD2    C412906   4.075   3.249   0.534 -0.1433 -0.0052  0.3231
  880MPD2    C512907   4.012   3.361   0.494 -0.8590  0.3695 -0.4310
  880MPD2     H12908   4.155   3.124   0.232  0.1480  0.3751  0.1437
  880MPD2    H112909   4.113   3.239   0.635  0.0945 -0.8016  0.1565
  880MPD2    H212910   3.941   3.489   0.336  0.1078 -0.2066 -1.4062
  880MPD2    H312911   3.980   3.444   0.557  0.0910 -0.3758  1.0309
  880MPD2     N12912   4.213   3.055   0.472 -0.4778 -0.6850 -0.2221
  880MPD2    H512913   4.254   3.006   0.393  0.8752 -2.0618  1.3098
  880MPD2    N112914   4.024   3.358   0.132  0.4203  0.0964 -0.7538
  880MPD2    H712915   3.968   3.443   0.128 -2.4970 -1.8158 -0.1080
  881MPD2     C12916   0.101   3.824  17.542  0.2638  0.1984  0.3763
  881MPD2    C112917   0.038   3.770  17.430  0.0554  0.4408  0.2684
  881MPD2    C212918   4.630   3.707  17.442  0.3466 -0.0132  0.4766
  881MPD2    C312919   4.556   3.725  17.559  0.0523  0.6744 -0.0207
  881MPD2    C412920   4.609   3.810  17.657  0.4121  0.3301 -1.2257
  881MPD2    C512921   0.025   3.848  17.654  0.4351 -0.6779 -0.4701
  881MPD2     H12922   4.586   3.658  17.357  1.9577 -1.3240  0.3858
  881MPD2    H112923   4.546   3.839   0.055  1.4942  0.2782 -0.3890
  881MPD2    H212924   0.195   3.876  17.526  0.7754 -0.8597 -0.0012
  881MPD2    H312925   0.056   3.908   0.053 -0.7394 -0.5033 -0.1627
  881MPD2     N12926   4.429   3.670  17.590 -0.0562 -0.5255  0.4904
  881MPD2    H512927   4.377   3.695  17.673  0.5169 -4.0982  1.9160
  881MPD2    N112928   0.129   3.751  17.321 -0.3938  0.3223  0.0114
  881MPD2    H712929   0.216   3.803  17.323  0.2409 -0.6887 -1.4214
  882MPD2     C12930   3.462   0.512  14.102 -0.4283  0.2328  0.6573
  882MPD2    C112931   3.412   0.506  14.228 -0.3155  0.5439  0.7293
  882MPD2    C212932   3.278   0.485  14.253 -0.1667 -1.0167  0.6213
  882MPD2    C312933   3.191   0.490  14.149 -0.1086  0.6911  0.1996
  882MPD2    C412934   3.241   0.503  14.017 -0.0216  0.2623 -0.6751
  882MPD2    C512935   3.373   0.514  13.994  0.3062  0.0909 -0.8314
  882MPD2     H12936   3.246   0.469  14.355 -1.3538  0.6205  0.4993
  882MPD2    H112937   3.170   0.503  13.935  0.3199  1.6786 -0.9801
  882MPD2    H212938   3.568   0.509  14.081 -0.6913 -3.0965 -0.2111
  882MPD2    H312939   3.422   0.542  13.901 -2.4929  3.1120 -1.4014
  882MPD2     N12940   3.056   0.449  14.172  0.4984  0.2195  0.2671
  882MPD2    H512941   3.033   0.428  14.268 -1.4100  3.8312  0.6192
  882MPD2    N112942   3.508   0.508  14.337  0.0641  0.1955 -0.1980
  882MPD2    H712943   3.604   0.491  14.310 -0.9010 -3.0170 -1.6377
  883MPD2     C12944   0.455   0.712  16.548  0.5729 -0.1639  0.5344
  883MPD2    C112945   0.545   0.623  16.497 -0.5563 -0.6149 -0.2243
  883MPD2    C212946   0.678   0.662  16.497  0.1754  0.1605 -0.1338
  883MPD2    C312947   0.719   0.781  16.554  0.5389 -0.2351  0.0603
  883MPD2    C412948   0.626   0.860  16.608  0.4980  0.1270  0.1036
  883MPD2    C512949   0.491   0.837  16.589 -0.5541 -0.4744 -0.9648
  883MPD2     H12950   0.753   0.593  16.461 -0.2737 -0.0850 -0.6144
  883MPD2    H112951   0.652   0.959  16.644  1.2930 -0.2955  0.6982
  883MPD2    H212952   0.349   0.690  16.545  0.9356 -1.7577 -0.4817
  883MPD2    H312953   0.409   0.903  16.616 -1.3986 -1.8859 -0.1271
  883MPD2     N12954   0.859   0.805  16.546  0.6670 -0.0071  0.3145
  883MPD2    H512955   0.917   0.728  16.514  0.4381  0.1054 -0.3771
  883MPD2    N112956   0.508   0.495  16.445 -1.0511 -0.2188  0.6195
  883MPD2    H712957   0.589   0.436  16.430 -2.5653 -1.7668 -1.4265
  884MPD2     C12958   2.588   0.920  14.960  0.1163  0.1119  0.2100
  884MPD2    C112959   2.594   1.060  14.945 -0.4218  0.1529  0.3388
  884MPD2    C212960   2.502   1.141  15.008  0.1146  0.4884  0.3479
  884MPD2    C312961   2.393   1.099  15.080 -0.5248 -0.3969 -0.6696
  884MPD2    C412962   2.388   0.961  15.093  0.0650  0.1930  0.2286
  884MPD2    C512963   2.481   0.876  15.033 -0.6430 -0.1118 -0.2293
  884MPD2     H12964   2.513   1.249  15.006  0.6846  0.4057 -0.7557
  884MPD2    H112965   2.308   0.917  15.151  0.4122 -1.1068 -0.2931
  884MPD2    H212966   2.667   0.859  14.917  0.3009  0.4600  0.0554
  884MPD2    H312967   2.471   0.768  15.045  1.4583 -0.1561  1.0350
  884MPD2     N12968   2.302   1.196  15.133 -0.4492 -0.4255 -0.1476
  884MPD2    H512969   2.314   1.296  15.124 -2.1796  0.2276  4.8316
  884MPD2    N112970   2.684   1.126  14.871 -0.1854  0.1200  0.2580
  884MPD2    H712971   2.670   1.226  14.875 -0.2041  0.0839  1.0552
  885MPD2     C12972   0.815   0.972  17.578  0.7048  0.1661 -0.2839
  885MPD2    C112973   0.897   1.083  17.614  0.2351 -0.2649  0.8361
  885MPD2    C212974   0.912   1.187  17.524 -0.4778  0.4768  0.6302
  885MPD2    C312975   0.831   1.201  17.409 -0.3734 -0.0460 -0.1145
  885MPD2    C412976   0.744   1.097  17.381  0.3482  1.0001  0.1812
  885MPD2    C512977   0.734   0.991  17.467  0.0133  0.5060  0.1297
  885MPD2     H12978   0.990   1.259  17.544  0.6994 -0.8653  0.9533
  885MPD2    H112979   0.677   1.097  17.296  0.4150  1.4345  0.1256
  885MPD2    H212980   0.796   0.879  17.631  0.9920 -0.8500 -1.9771
  885MPD2    H312981   0.667   0.907  17.451 -0.2543  0.7911 -0.2535
  885MPD2     N12982   0.851   1.317  17.329 -0.2941  0.5100 -0.2864
  885MPD2    H512983   0.908   1.396  17.359  1.6913 -1.3335  0.8083
  885MPD2    N112984   0.973   1.080   0.046  0.6517  0.1629  0.3152
  885MPD2    H712985   0.979   0.994   0.099  2.1122 -0.8256 -1.4187
  886MPD2     C12986   1.903   4.412  15.162 -0.3875  0.2735  0.3046
  886MPD2    C112987   2.026   4.449  15.168  0.2504 -0.3312 -0.4219
  886MPD2    C212988   2.068   4.571  15.117  0.1950 -0.1432 -0.1957
  886MPD2    C312989   1.977   4.660  15.054 -0.6564  0.2399 -0.1762
  886MPD2    C412990   1.848   4.621  15.046  0.1776 -0.5827  0.4909
  886MPD2    C512991   1.813   4.494  15.093  0.1240 -0.8391  0.2143
  886MPD2     H12992   2.174   4.592  15.115  0.1567  0.3094  2.2635
  886MPD2    H112993   1.775   4.691  15.007  1.2601  1.6084  2.3984
  886MPD2    H212994   1.862   4.315  15.187 -3.3263  0.8035 -2.5349
  886MPD2    H312995   1.713   4.454  15.076  1.0749 -2.3299 -2.0003
  886MPD2     N12996   2.014   0.072  15.015  0.7653 -0.4004  0.1284
  886MPD2    H512997   1.951   0.118  14.949  1.5535 -0.3178 -0.5591
  886MPD2    N112998   2.126   4.364  15.220  0.5483 -0.2473  0.3532
  886MPD2    H712999   2.221   4.399  15.217  1.0538 -1.7733 -1.1912
  887MPD2     C13000   2.801   4.480  15.520  0.2559  0.1306  0.0284
  887MPD2    C113001   2.667   4.514  15.523  0.1461 -0.1247 -0.1618
  887MPD2    C213002   2.627   4.637  15.566 -0.6049 -0.5351  0.2089
  887MPD2    C313003   2.730   0.010  15.590  0.3875 -0.2377 -0.0046
  887MPD2    C413004   2.856   4.702  15.570  0.7007 -0.5071  0.7510
  887MPD2    C513005   2.895   4.574  15.537 -0.5878 -0.0358  0.1394
  887MPD2     H13006   2.522   4.664  15.574 -0.4243 -0.2428  1.6743
  887MPD2    H113007   2.932   0.059  15.581 -0.3228  0.6035 -0.0214
  887MPD2    H213008   2.847   4.384  15.499  0.0389  0.0594 -0.1132
  887MPD2    H313009   2.999   4.544  15.526 -1.1898 -1.7008 -0.9906
  887MPD2     N13010   2.692   0.127  15.648 -0.2040 -0.4656  1.0045
  887MPD2    H513011   2.592   0.136  15.666 -0.8702 -1.7699 -2.0805
  887MPD2    N113012   2.568   4.423  15.485 -0.0983 -0.2123  0.0136
  887MPD2    H713013   2.480   4.472  15.478  0.2146  0.3130 -0.2639
  888MPD2     C13014   4.458   0.171  14.732  0.2670  0.6395 -0.3771
  888MPD2    C113015   4.498   0.226  14.853  0.2679  0.6364  0.7789
  888MPD2    C213016   4.527   0.359  14.856  0.3792  0.2617 -0.4812
  888MPD2    C313017   4.531   0.441  14.746  0.9274  0.7474 -0.2564
  888MPD2    C413018   4.485   0.386  14.627 -0.2465  0.2573 -0.2967
  888MPD2    C513019   4.449   0.254  14.623  0.5296  0.4236 -0.0507
  888MPD2     H13020   4.555   0.401  14.952 -1.0764  1.0142 -0.3734
  888MPD2    H113021   4.479   0.448  14.539  0.4797  0.4274 -0.2188
  888MPD2    H213022   4.452   0.065  14.712 -0.2845  0.6153 -0.0790
  888MPD2    H313023   4.415   0.210  14.529 -0.3998  0.8077  0.1090
  888MPD2     N13024   4.559   0.583  14.760 -0.2011  0.4551 -0.5642
  888MPD2    H513025   4.578   0.621  14.852 -0.5542  0.6676 -0.5804
  888MPD2    N113026   4.510   0.144  14.970  0.7326  0.4710  0.1744
  888MPD2    H713027   4.535   0.190  15.057  2.5229  2.2118 -1.2707
  889MPD2     C13028   3.740   3.891  12.433  0.3836  0.4274  0.5352
  889MPD2    C113029   3.860   3.900  12.507 -0.0719  0.1674 -0.1981
  889MPD2    C213030   3.902   4.027  12.533  0.0786 -0.3827 -0.2733
  889MPD2    C313031   3.852   4.141  12.468  0.6776 -0.0700  0.4004
  889MPD2    C413032   3.731   4.126  12.396 -0.4295  0.6093  0.0506
  889MPD2    C513033   3.679   4.001  12.384 -0.0762  0.8239 -0.3804
  889MPD2     H13034   4.000   4.047  12.575  1.7920 -1.3802 -3.7842
  889MPD2    H113035   3.682   4.210  12.348 -1.4891 -0.4297 -0.6719
  889MPD2    H213036   3.690   3.795  12.440 -0.0824  0.6978  0.8510
  889MPD2    H313037   3.584   3.990  12.333 -0.5308 -1.5949  0.9944
  889MPD2     N13038   3.917   4.262  12.492 -0.0417 -0.2896  0.2487
  889MPD2    H513039   4.004   4.269  12.544 -0.3673 -0.0743  0.7608
  889MPD2    N113040   3.871   3.793  12.601 -0.8833 -0.4864 -0.5069
  889MPD2    H713041   3.795   3.726  12.600 -1.3182  0.0066 -0.4058
  890MPD2     C13042   3.628   1.059  14.373  0.8403  0.8197  0.3039
  890MPD2    C113043   3.671   1.149  14.473  0.3460  0.0669 -0.0188
  890MPD2    C213044   3.645   1.116  14.607 -0.2542  0.2766 -0.3522
  890MPD2    C313045   3.558   1.011  14.636  0.2971 -0.8751 -0.0954
  890MPD2    C413046   3.510   0.924  14.532 -0.1914  0.5778 -0.0961
  890MPD2    C513047   3.548   0.958  14.404 -1.2494  0.3004 -0.5409
  890MPD2     H13048   3.676   1.171  14.695  0.4877 -0.2573 -0.2782
  890MPD2    H113049   3.436   0.845  14.542 -2.3729  2.6442 -0.0624
  890MPD2    H213050   3.640   1.082  14.268  2.1915  0.3265  0.3405
  890MPD2    H313051   3.523   0.895  14.320 -0.1392  0.9198 -1.3349
  890MPD2     N13052   3.517   0.994  14.773 -0.0666 -0.3071 -0.6022
  890MPD2    H513053   3.566   1.037  14.851 -0.8083  0.7212 -0.6925
  890MPD2    N113054   3.729   1.276  14.432  0.7268  0.2699  0.1896
  890MPD2    H713055   3.736   1.288  14.331 -0.0310  0.3606  0.1504
  891MPD2     C13056   1.341   4.147  16.794  1.0606  0.5493 -0.0696
  891MPD2    C113057   1.303   4.275  16.836 -0.0800  0.4382 -0.8292
  891MPD2    C213058   1.377   4.338  16.932  0.8168  0.0939  0.2315
  891MPD2    C313059   1.502   4.292  16.970 -0.1888 -0.4001 -0.3254
  891MPD2    C413060   1.555   4.180  16.904  0.4744 -0.0113  0.6011
  891MPD2    C513061   1.463   4.101  16.839 -0.0942  0.0271 -0.0577
  891MPD2     H13062   1.352   4.439  16.962  0.5135 -0.0863  0.5854
  891MPD2    H113063   1.657   4.145  16.910  0.4763 -0.1180 -0.0316
  891MPD2    H213064   1.268   4.088  16.740  3.1072 -2.1875  0.1473
  891MPD2    H313065   1.487   3.999  16.813 -1.8767 -0.4460  0.2198
  891MPD2     N13066   1.581   4.381  17.043  0.2646 -0.3104 -0.0099
  891MPD2    H513067   1.550   4.478  17.053 -1.5528 -0.9428  0.4562
  891MPD2    N113068   1.173   4.305  16.795  0.5413 -0.0943  0.9325
  891MPD2    H713069   1.134   4.241  16.726 -1.3207 -0.0172  1.9222
  892MPD2     C13070   2.576   1.159  14.396  0.4258 -0.0085  0.6671
  892MPD2    C113071   2.504   1.057  14.459 -0.2063 -0.8359 -0.5621
  892MPD2    C213072   2.531   0.920  14.426 -0.7595  0.1409 -0.8487
  892MPD2    C313073   2.635   0.888  14.342  0.0071 -0.6556  0.1232
  892MPD2    C413074   2.697   0.994  14.278  0.3379 -0.0839  0.2594
  892MPD2    C513075   2.671   1.127  14.305  0.7041 -0.6287  0.2461
  892MPD2     H13076   2.467   0.844  14.469 -1.3876  1.1774  0.0519
  892MPD2    H113077   2.776   0.969  14.208  0.4207  1.9612 -0.3644
  892MPD2    H213078   2.556   1.265  14.409  2.0188  0.4716 -0.7816
  892MPD2    H313079   2.717   1.208  14.248 -0.6166 -0.5265 -0.6876
  892MPD2     N13080   2.666   0.758  14.302 -0.2600 -0.0426 -0.6932
  892MPD2    H513081   2.748   0.754  14.244  0.1880 -0.6224 -0.0236
  892MPD2    N113082   2.404   1.090  14.549  0.2276 -0.0536 -0.1301
  892MPD2    H713083   2.384   1.185  14.577 -0.0762  0.2129 -1.3015
  893MPD2     C13084   4.245   4.380   2.045 -0.3901 -0.1744 -0.1436
  893MPD2    C113085   4.134   4.312   2.002  0.5018  0.2449  0.4255
  893MPD2    C213086   4.014   4.379   1.989  0.3945  0.4597 -0.4962
  893MPD2    C313087   4.004   4.518   2.032  0.6040  0.1644 -0.0714
  893MPD2    C413088   4.119   4.581   2.077  0.0720 -0.6661 -0.4857
  893MPD2    C513089   4.238   4.515   2.072  0.1901 -0.2059 -0.6856
  893MPD2     H13090   3.936   4.321   1.941 -1.6495  1.3227  1.7834
  893MPD2    H113091   4.127   4.686   2.103  1.6008 -0.2125 -2.7610
  893MPD2    H213092   4.345   4.338   2.046 -0.7537 -0.9702  2.1307
  893MPD2    H313093   4.329   4.571   2.090 -0.4116  1.0584 -1.5279
  893MPD2     N13094   3.884   4.594   2.031 -0.1791 -0.2395  0.2690
  893MPD2    H513095   3.878   4.690   2.063 -1.7152  0.9286 -3.4631
  893MPD2    N113096   4.157   4.180   1.975  0.8887 -0.8096  0.0357
  893MPD2    H713097   4.251   4.149   1.998  1.4086  0.2867 -0.6129
  894MPD2     C13098   1.615   1.697   1.060  0.1893  0.1614  0.0384
  894MPD2    C113099   1.683   1.748   0.946  0.1972  0.5038 -0.0118
  894MPD2    C213100   1.793   1.829   0.969  0.5179  0.0083 -0.0894
  894MPD2    C313101   1.841   1.847   1.095  0.0259  0.5966  1.2152
  894MPD2    C413102   1.777   1.797   1.203 -0.4500  0.0032  0.0353
  894MPD2    C513103   1.666   1.721   1.182 -0.2958 -0.0094  0.5872
  894MPD2     H13104   1.856   1.860   0.886 -0.7156 -0.2352 -1.1114
  894MPD2    H113105   1.806   1.820   1.305 -3.1603 -0.5641  0.9177
  894MPD2    H213106   1.522   1.641   1.057  0.1448  0.1852  1.1619
  894MPD2    H313107   1.614   1.679   1.267  0.3929 -0.6094  0.7118
  894MPD2     N13108   1.961   1.911   1.124  0.5803  0.4210 -1.0617
  894MPD2    H513109   1.996   1.884   1.215 -0.6802  0.5466 -0.5353
  894MPD2    N113110   1.641   1.731   0.810 -0.8327 -0.7038 -0.6206
  894MPD2    H713111   1.697   1.767   0.733 -0.1428  1.4444  0.8544
  895MPD2     C13112   1.827   0.387  13.859  0.7202 -0.2587 -0.2626
  895MPD2    C113113   1.718   0.354  13.788 -0.4162 -0.1841 -0.0730
  895MPD2    C213114   1.714   0.236  13.721  0.1667 -0.4774 -0.9899
  895MPD2    C313115   1.832   0.165  13.716 -0.2247  0.1977 -0.0957
  895MPD2    C413116   1.947   0.203  13.793 -0.3127 -0.5366  0.0526
  895MPD2    C513117   1.932   0.308  13.874 -0.0203  0.6338 -0.5821
  895MPD2     H13118   1.635   0.218  13.650  0.6694 -0.6668 -1.5023
  895MPD2    H113119   2.034   0.139  13.801  0.8817  0.8919 -1.7168
  895MPD2    H213120   1.830   0.478  13.917 -0.2459 -1.1544  1.1775
  895MPD2    H313121   2.018   0.337  13.934 -0.2654 -2.7299  1.3763
  895MPD2     N13122   1.840   0.058  13.623 -0.4349 -0.6395  0.4275
  895MPD2    H513123   1.756   0.046  13.567  0.1754 -0.1563 -0.5976
  895MPD2    N113124   1.602   0.431  13.795  0.1143 -0.1015  0.1940
  895MPD2    H713125   1.520   0.376  13.772  0.6658 -1.1547  0.7520
  896MPD2     C13126   3.730   2.316   1.825  0.1601  0.8181 -0.1306
  896MPD2    C113127   3.735   2.311   1.685 -0.2869  0.3331  0.4446
  896MPD2    C213128   3.622   2.267   1.620  0.2213 -0.7112  0.0221
  896MPD2    C313129   3.508   2.232   1.688 -0.7410  0.3605  0.2002
  896MPD2    C413130   3.512   2.216   1.824  0.4948 -0.9892  0.4015
  896MPD2    C513131   3.626   2.262   1.886  0.5041 -0.7342 -0.0275
  896MPD2     H13132   3.617   2.267   1.512  0.2199 -0.1247  0.0244
  896MPD2    H113133   3.427   2.177   1.879  0.7725 -0.8703  0.9124
  896MPD2    H213134   3.819   2.330   1.885  0.5732 -0.5763 -0.4100
  896MPD2    H313135   3.629   2.242   1.992  2.2386  1.7540  0.3987
  896MPD2     N13136   3.399   2.198   1.604 -0.4475 -0.4717 -0.2526
  896MPD2    H513137   3.408   2.195   1.503 -0.1800  0.8965 -0.2738
  896MPD2    N113138   3.846   2.363   1.614 -0.4813  0.2141  0.7016
  896MPD2    H713139   3.917   2.406   1.673  0.5066 -0.4388 -0.0031
  897MPD2     C13140   0.636   4.519  10.819 -0.3727  0.0634  0.0354
  897MPD2    C113141   0.554   4.522  10.708  0.4618  0.6688  0.7126
  897MPD2    C213142   0.439   4.446  10.712 -0.3918  0.0288  0.4475
  897MPD2    C313143   0.420   4.351  10.809 -0.4345 -0.0755  0.1999
  897MPD2    C413144   0.510   4.342  10.911  0.4755  0.4518  0.2538
  897MPD2    C513145   0.612   4.434  10.917  0.0735  0.5759  0.7375
  897MPD2     H13146   0.377   4.442  10.623 -2.6117  1.3480  1.9167
  897MPD2    H113147   0.492   4.269  10.990 -0.3061  0.6872  0.2955
  897MPD2    H213148   0.713   4.594  10.836 -0.3791  0.1795 -0.4575
  897MPD2    H313149   0.673   4.439  11.006  0.6867 -1.8004  0.4474
  897MPD2     N13150   0.316   4.265  10.801 -0.1209 -0.0001  0.0679
  897MPD2    H513151   0.240   4.283  10.735  0.0564  2.1602  0.4700
  897MPD2    N113152   0.563   4.618  10.609  0.1963  0.6095 -0.4353
  897MPD2    H713153   0.623   4.699  10.625 -0.3216  1.0442 -0.7049
  898MPD2     C13154   2.325   0.302  17.176  0.0417  0.4958  0.3411
  898MPD2    C113155   2.460   0.314  17.151 -0.1342  0.3514  0.6115
  898MPD2    C213156   2.497   0.429  17.085  0.1509 -0.0524  0.4129
  898MPD2    C313157   2.415   0.535  17.056  0.3871  0.2013  0.3951
  898MPD2    C413158   2.283   0.519  17.097 -0.3319 -0.2998 -0.3738
  898MPD2    C513159   2.237   0.408  17.165 -0.0500 -0.5289 -0.4345
  898MPD2     H13160   2.593   0.445  17.037 -0.7232 -0.2223 -1.3920
  898MPD2    H113161   2.213   0.601  17.082  1.4464  1.5832  1.5190
  898MPD2    H213162   2.278   0.216  17.221  0.7920  0.0875  0.3429
  898MPD2    H313163   2.132   0.393  17.188 -0.0375  1.4630  0.9013
  898MPD2     N13164   2.462   0.653  16.991 -0.5417 -0.2868  0.4386
  898MPD2    H513165   2.562   0.670  16.992 -0.2999 -1.6279 -0.1820
  898MPD2    N113166   2.553   0.207  17.176 -0.2274 -0.0091 -0.2375
  898MPD2    H713167   2.647   0.232  17.147  0.0159  0.0587  0.6116
  899MPD2     C13168   2.930   0.713  17.570 -0.0043 -0.4993  0.3079
  899MPD2    C113169   2.893   0.845  17.549  0.6732 -0.0104 -0.0950
  899MPD2    C213170   2.781   0.904  17.617 -0.0097 -0.9528  0.4211
  899MPD2    C313171   2.714   0.822   0.025 -0.4005  0.4860 -1.2226
  899MPD2    C413172   2.765   0.700   0.057  0.6816 -0.1319  0.0866
  899MPD2    C513173   2.863   0.646  17.666  0.7575  0.0406  0.2975
  899MPD2     H13174   2.752   1.007  17.599 -1.1192 -0.9990  1.9469
  899MPD2    H113175   2.728   0.634   0.135 -0.9113 -0.7425 -1.1862
  899MPD2    H213176   3.009   0.667  17.512  0.5185 -0.2042  0.7834
  899MPD2    H313177   2.890   0.546   0.012  2.9390  1.2947  2.5115
  899MPD2     N13178   2.602   0.854   0.098  0.7304  0.5617 -0.4587
  899MPD2    H513179   2.573   0.788   0.169  0.4839  1.1907  0.0222
  899MPD2    N113180   2.964   0.912  17.450 -0.0932 -0.1023  0.0464
  899MPD2    H713181   3.039   0.861  17.405  0.8285  1.7506 -0.5367
  900MPD2     C13182   2.905   2.383  12.806 -0.4426 -0.0126  0.1365
  900MPD2    C113183   2.786   2.322  12.765  0.3176 -0.6723  0.1227
  900MPD2    C213184   2.702   2.398  12.682 -0.0339 -0.3620  0.6158
  900MPD2    C313185   2.728   2.528  12.650  0.3170 -0.1376  0.3225
  900MPD2    C413186   2.847   2.582  12.688  0.4817  0.1994 -0.6776
  900MPD2    C513187   2.939   2.514  12.768 -0.4259  1.0293  0.0425
  900MPD2     H13188   2.616   2.352  12.636  0.6157  1.1408 -2.1035
  900MPD2    H113189   2.876   2.684  12.666  1.2523 -0.1322 -1.2092
  900MPD2    H213190   2.973   2.330  12.872  1.9677  0.8619 -1.6627
  900MPD2    H313191   3.034   2.555  12.800 -0.1486  0.4274  0.0094
  900MPD2     N13192   2.634   2.597  12.570  0.5675  0.0394 -0.3912
  900MPD2    H513193   2.557   2.547  12.528  0.5553 -1.4250  1.3443
  900MPD2    N113194   2.759   2.184  12.800  0.1259  0.1898 -0.1192
  900MPD2    H713195   2.828   2.132  12.854  0.5146  1.2859  0.4369
  901MPD2     C13196   2.957   1.274  13.139 -0.2141 -0.3267  0.4725
  901MPD2    C113197   2.913   1.247  13.011  0.1306 -0.1580 -0.3224
  901MPD2    C213198   2.866   1.354  12.936  0.2816  0.2850 -0.7634
  901MPD2    C313199   2.875   1.483  12.983  0.4241 -0.4549 -0.1832
  901MPD2    C413200   2.901   1.503  13.119 -1.1413 -0.0782 -0.8792
  901MPD2    C513201   2.943   1.394  13.193 -0.1647  0.5103 -0.4577
  901MPD2     H13202   2.833   1.346  12.833  1.4469 -0.1357 -1.1141
  901MPD2    H113203   2.899   1.600  13.168 -1.7027 -0.1646 -0.7344
  901MPD2    H213204   2.994   1.190  13.196 -0.0880 -1.0296 -0.6559
  901MPD2    H313205   2.985   1.414  13.291  2.1933  0.8848 -1.5519
  901MPD2     N13206   2.845   1.586  12.889 -0.7530 -0.7161 -0.7696
  901MPD2    H513207   2.831   1.550  12.795 -1.4144 -0.2204 -0.8601
  901MPD2    N113208   2.921   1.119  12.962 -0.2986  0.1848 -0.1163
  901MPD2    H713209   2.983   1.056  13.011  1.7652  1.0562 -1.6214
  902MPD2     C13210   1.967   0.238  12.712  0.1307 -0.3320  1.0777
  902MPD2    C113211   1.976   0.304  12.593  0.6449  0.3524 -0.9339
  902MPD2    C213212   2.089   0.268  12.514  0.0931  0.4470  0.2957
  902MPD2    C313213   2.165   0.154  12.543  0.7216  0.5130  0.5368
  902MPD2    C413214   2.138   0.083  12.654 -0.2898 -0.0760 -0.1526
  902MPD2    C513215   2.042   0.127  12.742  0.2099  0.2426 -0.5024
  902MPD2     H13216   2.110   0.324  12.424 -0.1041  0.1114  0.0405
  902MPD2    H113217   2.192   4.711  12.669 -0.0758  0.0998  0.1626
  902MPD2    H213218   1.884   0.264  12.777 -1.6657 -0.8655 -0.9890
  902MPD2    H313219   2.023   0.072  12.834  1.3628  0.6202 -0.0475
  902MPD2     N13220   2.272   0.114  12.465  0.2039  0.4398 -0.0066
  902MPD2    H513221   2.308   0.021  12.480  0.2873  0.2298 -1.5035
  902MPD2    N113222   1.904   0.420  12.564  0.1331 -0.0670 -0.0142
  902MPD2    H713223   1.847   0.464  12.636 -0.5027  1.1377 -1.2541
  903MPD2     C13224   2.249   0.206  11.738 -0.0907  0.2682 -0.7576
  903MPD2    C113225   2.197   0.160  11.851 -0.9766  0.1063 -0.4287
  903MPD2    C213226   2.061   0.151  11.865  0.3271 -0.4695  0.1376
  903MPD2    C313227   1.982   0.177  11.760 -0.7393  0.5941 -0.5593
  903MPD2    C413228   2.037   0.222  11.640  0.1358  0.0285 -0.6435
  903MPD2    C513229   2.169   0.235  11.635  0.2411  0.0013  0.3585
  903MPD2     H13230   2.019   0.103  11.953  2.6355  1.2860  2.2098
  903MPD2    H113231   1.979   0.240  11.550 -2.0835 -1.4760  0.4797
  903MPD2    H213232   2.355   0.220  11.720 -0.3052  1.4921 -1.1340
  903MPD2    H313233   2.214   0.263  11.540 -0.3547 -2.5802 -0.6608
  903MPD2     N13234   1.839   0.166  11.769  0.0242 -0.0314  0.0581
  903MPD2    H513235   1.806   0.129  11.857  2.7121 -0.8182  0.7478
  903MPD2    N113236   2.280   0.131  11.960  0.2924 -0.1863 -0.2190
  903MPD2    H713237   2.228   0.119  12.047 -0.0847  0.7776 -0.3043
  904MPD2     C13238   1.608   4.329  13.888 -0.6535 -0.5924  0.6407
  904MPD2    C113239   1.580   4.362  14.022 -0.6605  0.6308  0.4634
  904MPD2    C213240   1.669   4.413  14.114 -0.2083  0.5318 -0.4241
  904MPD2    C313241   1.796   4.434  14.070 -0.3297 -0.6285  0.3986
  904MPD2    C413242   1.827   4.402  13.939  0.3938 -0.3507 -0.5594
  904MPD2    C513243   1.733   4.345  13.850  0.3154 -0.0039 -0.4882
  904MPD2     H13244   1.636   4.445  14.212 -2.5162  2.4784 -1.8349
  904MPD2    H113245   1.929   4.416  13.907 -0.0006  0.5946 -1.3895
  904MPD2    H213246   1.537   4.283  13.821 -1.7138  1.0117  0.6567
  904MPD2    H313247   1.758   4.324  13.747 -1.8317 -0.5588 -0.8853
  904MPD2     N13248   1.888   4.475  14.159  0.2826  0.0389  0.1735
  904MPD2    H513249   1.869   4.462  14.258 -0.5035 -0.2866 -0.0163
  904MPD2    N113250   1.442   4.348  14.062  0.3105  0.0026  0.2280
  904MPD2    H713251   1.414   4.383  14.153 -0.4801  0.2953 -0.1309
  905MPD2     C13252   1.372   4.389  13.250  0.8139  0.3873 -0.4976
  905MPD2    C113253   1.440   4.470  13.331  0.0139 -0.1551 -0.0055
  905MPD2    C213254   1.545   4.536  13.269  0.4599 -1.1645 -0.2700
  905MPD2    C313255   1.591   4.506  13.142  0.7223 -0.2777 -0.1311
  905MPD2    C413256   1.515   4.430  13.060 -0.2305 -0.6450 -0.4422
  905MPD2    C513257   1.419   4.360  13.128 -0.2098 -0.2920  0.0825
  905MPD2     H13258   1.602   4.603  13.332  1.0807 -1.8036 -0.1555
  905MPD2    H113259   1.540   4.407  12.957 -0.1826 -0.9919 -0.3535
  905MPD2    H213260   1.293   4.332  13.298 -1.9260  2.3883 -2.6536
  905MPD2    H313261   1.377   4.281  13.066  0.0463  0.3305 -0.8708
  905MPD2     N13262   1.711   4.559  13.083  0.5140  0.0235  0.2927
  905MPD2    H513263   1.720   4.568  12.983 -0.1656 -1.2340  0.1291
  905MPD2    N113264   1.407   4.478  13.469  0.1449 -0.3092  0.0902
  905MPD2    H713265   1.346   4.403  13.500  2.3713 -2.5450 -0.9473
  906MPD2     C13266   3.797   3.927  11.628 -0.0551 -0.3914  0.8905
  906MPD2    C113267   3.738   3.909  11.504  0.1942 -0.3039  0.0129
  906MPD2    C213268   3.614   3.847  11.493  0.8262 -0.3760 -0.3074
  906MPD2    C313269   3.542   3.807  11.601  1.2134  0.7080 -0.3789
  906MPD2    C413270   3.602   3.821  11.727 -0.2405 -0.0158 -1.0787
  906MPD2    C513271   3.730   3.882  11.740  0.7989  0.4130  0.2424
  906MPD2     H13272   3.572   3.832  11.394 -0.5214  2.6029 -0.1842
  906MPD2    H113273   3.557   3.808  11.825 -0.6409  0.4636 -1.1973
  906MPD2    H213274   3.894   3.972  11.636 -0.7037  1.0964  0.2990
  906MPD2    H313275   3.768   3.891  11.841 -0.3748 -0.5377  0.7678
  906MPD2     N13276   3.415   3.752  11.579 -0.3304 -0.2127  0.0963
  906MPD2    H513277   3.372   3.759  11.488 -0.5245  0.0722  0.2109
  906MPD2    N113278   3.796   3.941  11.377 -0.1091 -0.5644  0.6733
  906MPD2    H713279   3.736   3.911  11.301  0.1156  2.0727 -0.5268
  907MPD2     C13280   2.296   3.244  15.488 -0.0169  0.0163 -0.2566
  907MPD2    C113281   2.399   3.153  15.476  0.5109 -0.1523  0.1390
  907MPD2    C213282   2.478   3.125  15.582  0.4490  0.1524  0.0483
  907MPD2    C313283   2.461   3.193  15.701 -0.3516  0.2136  0.5750
  907MPD2    C413284   2.360   3.285  15.707  0.4275  0.6889  0.2036
  907MPD2    C513285   2.277   3.310  15.605  0.5923  1.1111 -0.1892
  907MPD2     H13286   2.559   3.054  15.577  1.0790  0.8658  0.2061
  907MPD2    H113287   2.335   3.341  15.797  0.9226  0.0095  0.7624
  907MPD2    H213288   2.217   3.262  15.416  0.4187 -1.3120 -1.0569
  907MPD2    H313289   2.201   3.386  15.619 -0.1423  0.2686  0.3506
  907MPD2     N13290   2.546   3.165  15.811 -0.2373 -0.0924 -0.2835
  907MPD2    H513291   2.584   3.070  15.809 -0.1426 -0.0761  0.6549
  907MPD2    N113292   2.420   3.091  15.345 -0.0579  0.1990  0.3505
  907MPD2    H713293   2.477   3.007  15.344 -0.8605 -0.3425  0.0028
  908MPD2     C13294   0.877   4.554   9.706 -0.1246  0.3152 -0.1534
  908MPD2    C113295   0.787   4.462   9.740 -0.3866  0.3653  0.4652
  908MPD2    C213296   0.705   4.490   9.846  0.3311 -0.2791 -0.6274
  908MPD2    C313297   0.720   4.610   9.918 -0.6001 -0.0113  0.8082
  908MPD2    C413298   0.828   4.693   9.886 -0.0827 -0.2041  0.2733
  908MPD2    C513299   0.904   4.665   9.777  0.2051 -0.2489 -0.8928
  908MPD2     H13300   0.625   4.427   9.882  0.4234 -1.8372 -3.1467
  908MPD2    H113301   0.853   0.059   9.946 -0.1142  0.6795 -0.9980
  908MPD2    H213302   0.951   4.531   9.630 -4.0546 -2.2722 -3.2435
  908MPD2    H313303   0.989   0.006   9.750 -0.0289 -0.0023 -1.0588
  908MPD2     N13304   0.622   4.644  10.011 -0.1022 -0.7581 -0.5953
  908MPD2    H513305   0.573   4.564  10.048  1.0569 -1.7837 -1.2885
  908MPD2    N113306   0.765   4.351   9.657 -0.0885  0.1459 -0.5988
  908MPD2    H713307   0.802   4.359   9.563 -1.4631 -3.0723 -1.3970
  909MPD2     C13308   0.752   1.753  11.458  0.5839  0.1374  0.1782
  909MPD2    C113309   0.768   1.889  11.487  0.1865 -0.1958  0.3120
  909MPD2    C213310   0.710   1.936  11.606  0.3210  0.2459 -0.1593
  909MPD2    C313311   0.628   1.860  11.687 -0.4739  0.7798  0.0517
  909MPD2    C413312   0.614   1.726  11.650 -0.2751  0.4249 -0.1270
  909MPD2    C513313   0.675   1.673  11.542 -0.0876 -0.3834  0.0890
  909MPD2     H13314   0.727   2.039  11.634 -2.3381  1.0653 -1.4638
  909MPD2    H113315   0.554   1.661  11.712 -0.4170 -0.2389 -0.9621
  909MPD2    H213316   0.796   1.707  11.370 -0.8138  0.9900 -0.9621
  909MPD2    H313317   0.664   1.567  11.523  0.0545 -0.3123 -0.3771
  909MPD2     N13318   0.569   1.925  11.803 -0.2996  0.1624  0.8613
  909MPD2    H513319   0.601   2.018  11.828  0.3002  1.0285 -3.1302
  909MPD2    N113320   0.842   1.970  11.399 -0.2724 -0.0821  0.2231
  909MPD2    H713321   0.865   2.063  11.434  0.0485 -1.4792  3.6640
  910MPD2     C13322   1.694   3.884  16.186  1.0714  0.0078 -0.0333
  910MPD2    C113323   1.769   3.803  16.099 -0.0067 -0.0431  0.3513
  910MPD2    C213324   1.762   3.831  15.962 -0.1654 -0.0357 -0.0410
  910MPD2    C313325   1.679   3.933  15.918  0.2913  0.2218 -0.3358
  910MPD2    C413326   1.606   4.006  16.008  0.0728  0.3601  0.1878
  910MPD2    C513327   1.620   3.990  16.143 -0.0122  0.3224 -0.7644
  910MPD2     H13328   1.830   3.773  15.901 -0.9129 -1.2701  0.3002
  910MPD2    H113329   1.532   4.075  15.969  0.0930  0.1627 -0.1999
  910MPD2    H213330   1.701   3.863  16.292 -1.3978  1.0414  0.3259
  910MPD2    H313331   1.563   4.047  16.216 -0.6915 -0.9772 -0.2807
  910MPD2     N13332   1.652   3.954  15.783 -0.0046 -0.9239  0.0624
  910MPD2    H513333   1.564   4.005  15.778 -0.2711 -1.4711 -0.8945
  910MPD2    N113334   1.856   3.704  16.139 -0.3938 -0.5547  0.2246
  910MPD2    H713335   1.916   3.676  16.062  0.0857  0.9919  0.0131
  911MPD2     C13336   4.338   4.194  15.992 -0.3440 -0.3048  0.5014
  911MPD2    C113337   4.370   4.315  16.046 -0.3445  0.4782  0.2304
  911MPD2    C213338   4.283   4.425  16.025 -0.2530 -0.2456  0.3202
  911MPD2    C313339   4.161   4.410  15.961  0.2867  0.5168  0.3268
  911MPD2    C413340   4.132   4.283  15.907 -0.0035  0.2216  0.9101
  911MPD2    C513341   4.224   4.181  15.924 -0.4409 -0.2137  0.0129
  911MPD2     H13342   4.311   4.525  16.054  1.6985 -1.2735  1.9752
  911MPD2    H113343   4.045   4.269  15.845  0.0144 -0.1273  0.9689
  911MPD2    H213344   4.404   4.109  16.001 -0.5086 -0.4245  0.5848
  911MPD2    H313345   4.194   4.083  15.890 -1.7211  0.9888 -2.3675
  911MPD2     N13346   4.067   4.511  15.938 -0.3857  0.1924  0.5752
  911MPD2    H513347   3.994   4.477  15.877  1.1147  1.7855 -2.0870
  911MPD2    N113348   4.495   4.310  16.108 -0.0005  0.2111  0.1259
  911MPD2    H713349   4.535   4.216  16.115 -0.0156  0.2656  0.9736
  912MPD2     C13350   3.905   4.254  15.428 -0.1907 -0.0915  0.8575
  912MPD2    C113351   3.893   4.296  15.557  0.7084 -0.0608 -0.0558
  912MPD2    C213352   3.873   4.202  15.658 -0.3959 -0.0009 -0.6930
  912MPD2    C313353   3.857   4.064  15.630  0.6018 -0.2422 -0.2390
  912MPD2    C413354   3.849   4.018  15.497  0.1602 -0.3247  0.2419
  912MPD2    C513355   3.881   4.114  15.401 -0.4656 -0.0779  0.6101
  912MPD2     H13356   3.868   4.234  15.762  0.0267 -2.5036  0.1246
  912MPD2    H113357   3.820   3.920  15.461  0.6728  0.5521 -2.5573
  912MPD2    H213358   3.933   4.322  15.348  0.1756  0.3443  1.3548
  912MPD2    H313359   3.881   4.088  15.296  2.4585  0.7760  0.4062
  912MPD2     N13360   3.856   3.978  15.743  0.0947  0.1195  0.0044
  912MPD2    H513361   3.887   4.015  15.832 -0.4851 -1.6078  0.9360
  912MPD2    N113362   3.909   4.433  15.591  0.3997 -0.3928 -0.1196
  912MPD2    H713363   3.922   4.491  15.508 -2.7167  0.9432  0.3232
  913MPD2     C13364   0.293   1.592  10.793  0.2795  0.5763  0.1595
  913MPD2    C113365   0.344   1.495  10.704  0.3444  0.2282 -0.2759
  913MPD2    C213366   0.443   1.538  10.606  0.4206 -0.9678  0.4519
  913MPD2    C313367   0.476   1.676  10.602 -0.1748 -1.0312  0.4796
  913MPD2    C413368   0.419   1.763  10.694 -0.0925  0.5105 -0.3879
  913MPD2    C513369   0.322   1.720  10.783  0.9034  0.2276  0.1808
  913MPD2     H13370   0.483   1.472  10.530 -0.2214  0.0741 -0.7878
  913MPD2    H113371   0.440   1.869  10.695  2.0909  0.0526  0.8184
  913MPD2    H213372   0.215   1.560  10.861 -2.3519 -0.4572 -3.3244
  913MPD2    H313373   0.286   1.799  10.848  1.4223  1.6721 -1.2568
  913MPD2     N13374   0.561   1.733  10.506  0.8202  0.2543  0.9497
  913MPD2    H513375   0.578   1.833  10.499 -0.1809  0.1992 -2.4000
  913MPD2    N113376   0.286   1.367  10.731 -0.2395 -0.1871 -0.8195
  913MPD2    H713377   0.249   1.358  10.826  0.3507  1.4631 -0.4284
  914MPD2     C13378   2.884   1.117  11.976  0.1628 -0.0404 -0.2101
  914MPD2    C113379   2.866   1.206  12.075 -1.0532  0.2169  0.5896
  914MPD2    C213380   2.862   1.166  12.208  0.2530 -0.0244 -0.4634
  914MPD2    C313381   2.900   1.037  12.241  0.9351  0.0091  0.1244
  914MPD2    C413382   2.921   0.946  12.137 -0.1121  0.6221  0.7280
  914MPD2    C513383   2.911   0.990  12.011 -0.9660  0.1308 -0.3793
  914MPD2     H13384   2.839   1.229  12.293 -0.4388 -4.2271  2.4945
  914MPD2    H113385   2.966   0.847  12.144  0.6940  0.8988 -0.6236
  914MPD2    H213386   2.867   1.144  11.872  0.5342 -0.1130 -0.2899
  914MPD2    H313387   2.922   0.914  11.934 -0.8646 -0.5050  0.2640
  914MPD2     N13388   2.928   1.003  12.378 -0.5946  0.2089  0.4708
  914MPD2    H513389   2.923   1.078  12.447  1.2897  0.7108  0.0816
  914MPD2    N113390   2.848   1.338  12.041  0.6216 -0.2029  0.2704
  914MPD2    H713391   2.850   1.350  11.940 -1.3527 -0.1811  0.2394
  915MPD2     C13392   0.641   0.875  15.561  0.4794 -0.2867  0.5334
  915MPD2    C113393   0.599   0.995  15.495  0.2139  0.0232  0.1579
  915MPD2    C213394   0.545   1.096  15.566  0.4634  0.2765  0.5825
  915MPD2    C313395   0.538   1.087  15.704 -0.8810 -0.2253  0.5151
  915MPD2    C413396   0.582   0.968  15.771 -0.1446 -1.0516 -0.1745
  915MPD2    C513397   0.636   0.865  15.694  0.3230 -0.1687 -0.6369
  915MPD2     H13398   0.509   1.188  15.521 -1.8163 -1.4212 -1.0197
  915MPD2    H113399   0.571   0.955  15.878  1.6099  0.8814  0.2402
  915MPD2    H213400   0.685   0.788  15.513 -0.4847 -0.5102  0.0440
  915MPD2    H313401   0.682   0.777  15.737 -0.4632 -1.0482 -1.6036
  915MPD2     N13402   0.483   1.203  15.770  0.0355 -0.5685  0.1748
  915MPD2    H513403   0.466   1.288  15.718 -2.0241 -0.8257  0.4324
  915MPD2    N113404   0.570   0.978  15.359  0.6339 -0.5393 -0.3814
  915MPD2    H713405   0.549   0.883  15.328 -0.8375 -0.2259 -0.3365
  916MPD2     C13406   3.601   4.181  15.854  0.1394  0.2712  0.3244
  916MPD2    C113407   3.579   4.120  15.978  0.9723  0.2103  0.1924
  916MPD2    C213408   3.515   3.995  15.984  0.6415 -0.0316  0.0416
  916MPD2    C313409   3.467   3.945  15.864 -0.2330 -0.2832  0.0433
  916MPD2    C413410   3.461   4.019  15.752  0.0459 -0.7223  1.2733
  916MPD2    C513411   3.533   4.133  15.750  0.3119 -0.5824 -0.9017
  916MPD2     H13412   3.507   3.938  16.075  1.9064  1.0853  0.8514
  916MPD2    H113413   3.405   3.984  15.666 -1.4224  0.0765  1.9006
  916MPD2    H213414   3.652   4.277  15.853 -1.6560  1.1930 -1.4662
  916MPD2    H313415   3.544   4.174  15.650 -3.4505  1.5758 -0.4203
  916MPD2     N13416   3.429   3.815  15.872 -0.0398  0.7455  0.0467
  916MPD2    H513417   3.439   3.767  15.961 -1.6519  1.2063  0.4689
  916MPD2    N113418   3.630   4.189  16.088 -0.1166  0.4383 -0.8011
  916MPD2    H713419   3.637   4.290  16.082 -3.1553  0.6534 -0.7560
  917MPD2     C13420   3.996   1.612  11.000 -0.2111 -0.4762 -0.6245
  917MPD2    C113421   4.005   1.715  11.092  0.2991  0.0144  0.2200
  917MPD2    C213422   4.004   1.851  11.049  0.3560  0.0002 -0.0265
  917MPD2    C313423   4.028   1.870  10.908 -0.4715 -0.3681 -0.1430
  917MPD2    C413424   4.046   1.766  10.822 -0.4926 -1.2070 -0.0322
  917MPD2    C513425   4.026   1.640  10.872  0.2691  0.3328 -0.2394
  917MPD2     H13426   3.991   1.938  11.112  0.8523  0.7563 -0.9863
  917MPD2    H113427   4.075   1.787  10.719 -0.3836 -0.9077  0.0567
  917MPD2    H213428   3.999   1.506  11.022  1.1491 -0.0305  1.3501
  917MPD2    H313429   4.027   1.553  10.806 -0.1899 -0.8671  1.3433
  917MPD2     N13430   4.027   2.004  10.857  0.2667 -0.1772 -0.6485
  917MPD2    H513431   4.035   2.022  10.757  0.5888 -0.4003 -0.6608
  917MPD2    N113432   4.007   1.682  11.232  0.5941  0.1504  0.2562
  917MPD2    H713433   4.023   1.584  11.253 -0.6088  0.2600  1.6256
  918MPD2     C13434   4.173   2.082  12.185 -0.5876 -0.4114 -0.1202
  918MPD2    C113435   4.245   1.969  12.150  0.2419  0.2547  0.4712
  918MPD2    C213436   4.213   1.909  12.027  0.1534  0.2230  0.0726
  918MPD2    C313437   4.108   1.953  11.951 -1.4745  0.2052 -0.1459
  918MPD2    C413438   4.053   2.077  11.984 -0.2896 -0.2071  0.3317
  918MPD2    C513439   4.078   2.140  12.101 -0.5396 -0.1792  0.0211
  918MPD2     H13440   4.260   1.817  11.994 -0.5905 -0.5652  1.1779
  918MPD2    H113441   3.978   2.116  11.916  0.4307  1.0112  0.2550
  918MPD2    H213442   4.179   2.131  12.282  0.5995 -1.3256  0.2695
  918MPD2    H313443   4.047   2.243  12.119  1.3297  0.1255  1.4466
  918MPD2     N13444   4.074   1.897  11.825  0.0046  0.0092 -0.1605
  918MPD2    H513445   4.023   1.953  11.757 -0.3937  1.1465  1.0807
  918MPD2    N113446   4.357   1.918  12.221  0.2247  0.1588 -0.2213
  918MPD2    H713447   4.412   1.855  12.164  1.0682  1.0137 -0.3620
  919MPD2     C13448   4.615   1.001  11.946 -0.4779  0.1347  0.4935
  919MPD2    C113449   4.620   0.881  11.890  0.0756  0.3419  0.5055
  919MPD2    C213450   4.583   0.879  11.757  0.2467 -0.0227  0.4046
  919MPD2    C313451   4.564   0.992  11.676  0.4662 -0.3161  0.4019
  919MPD2    C413452   4.581   1.114  11.740 -0.8268 -0.4645  0.1368
  919MPD2    C513453   4.608   1.119  11.875  0.7635  0.5237 -1.1860
  919MPD2     H13454   4.569   0.779  11.718 -2.0723  0.6814 -0.5145
  919MPD2    H113455   4.557   1.208  11.690 -0.5881 -0.2965  0.3371
  919MPD2    H213456   4.619   1.011  12.054 -2.0762  0.6923  0.5102
  919MPD2    H313457   4.614   1.213  11.929 -1.4842 -1.7751  3.0447
  919MPD2     N13458   4.530   0.984  11.543 -0.8545  0.2952 -0.0529
  919MPD2    H513459   4.537   1.072  11.494  0.3933  0.2319 -0.0105
  919MPD2    N113460   4.630   0.753  11.949  0.6567  0.1284 -0.3149
  919MPD2    H713461   4.624   0.666  11.897 -2.6626  0.5913 -0.6813
  920MPD2     C13462   4.630   1.308  10.575  0.2897 -0.1466  0.0260
  920MPD2    C113463   4.584   1.182  10.561 -1.1197 -0.5162 -0.0191
  920MPD2    C213464   4.561   1.099  10.671 -0.0091 -0.2912 -0.0359
  920MPD2    C313465   4.592   1.147  10.798  0.2525 -0.8419  0.3444
  920MPD2    C413466   4.626   1.279  10.814  0.0400  0.5831 -0.1740
  920MPD2    C513467   4.647   1.353  10.703 -0.4947  0.6077 -0.0365
  920MPD2     H13468   4.525   0.999  10.652 -1.2445 -0.1896  1.8203
  920MPD2    H113469   4.642   1.320  10.913  0.6253 -0.5783  0.2247
  920MPD2    H213470   4.639   1.377  10.492  0.2792 -1.8309 -1.3933
  920MPD2    H313471   4.678   1.456  10.720 -2.4896  1.0421  0.9473
  920MPD2     N13472   4.564   1.054  10.905 -0.3064 -0.2198 -0.4693
  920MPD2    H513473   4.510   0.972  10.882  2.4156 -2.3343  0.6553
  920MPD2    N113474   4.565   1.119  10.440 -0.4652  0.2854 -0.1916
  920MPD2    H713475   4.509   1.035  10.430  2.1986 -1.3663 -1.3033
  921MPD2     C13476   0.431   0.102  16.746 -0.3468 -0.5751 -1.1350
  921MPD2    C113477   0.465   4.692  16.734 -0.3995 -0.7203 -0.0976
  921MPD2    C213478   0.388   4.613  16.650  0.7902  0.1069 -0.1237
  921MPD2    C313479   0.281   4.663  16.585  0.5664  0.4639 -0.3087
  921MPD2    C413480   0.241   0.069  16.611 -0.2733 -0.9618  0.1947
  921MPD2    C513481   0.322   0.155  16.688  0.0849 -0.4122 -0.1626
  921MPD2     H13482   0.423   4.513  16.628 -0.5046 -0.2901 -0.3657
  921MPD2    H113483   0.153   0.116  16.569 -1.6372 -1.0571  2.9472
  921MPD2    H213484   0.491   0.176  16.798 -0.9355 -0.2776 -0.8802
  921MPD2    H313485   0.297   0.259  16.705  1.1253  0.1659 -2.1564
  921MPD2     N13486   0.215   4.584  16.484  0.4733  0.4399  0.4078
  921MPD2    H513487   0.164   4.638  16.415  0.4745 -2.3579 -1.7947
  921MPD2    N113488   0.585   4.649  16.789  1.2634  0.0045 -0.7396
  921MPD2    H713489   0.654   4.713  16.829  0.2592  1.4087 -1.2540
  922MPD2     C13490   1.329   2.521  16.998 -0.5349  0.3616  0.0235
  922MPD2    C113491   1.274   2.541  17.123 -0.2370 -0.9993  0.0755
  922MPD2    C213492   1.195   2.441  17.175  0.2903 -0.1709  0.4348
  922MPD2    C313493   1.156   2.327  17.109  0.1618 -0.1297  0.1002
  922MPD2    C413494   1.210   2.307  16.985  0.2802  0.1090  0.0706
  922MPD2    C513495   1.297   2.402  16.930 -1.0926  0.2943  0.4009
  922MPD2     H13496   1.150   2.451  17.273  1.8938 -0.9120  1.2415
  922MPD2    H113497   1.200   2.214  16.930 -1.4606 -0.3444  1.1425
  922MPD2    H213498   1.399   2.589  16.952  0.6659 -1.4732 -0.8891
  922MPD2    H313499   1.346   2.379  16.836 -1.6044 -2.7069  0.8832
  922MPD2     N13500   1.057   2.244  17.171  0.3207 -0.2738  0.2769
  922MPD2    H513501   1.022   2.279  17.260  0.6831 -2.9588  1.4630
  922MPD2    N113502   1.310   2.649  17.203 -0.2006 -0.0045 -0.6802
  922MPD2    H713503   1.284   2.635  17.300  0.6464 -1.0677 -0.6137
  923MPD2     C13504   3.757   4.137   9.997 -0.3603 -0.3627  0.0126
  923MPD2    C113505   3.702   4.253   9.945  0.3956  0.1997  0.0751
  923MPD2    C213506   3.771   4.369   9.933 -0.9574  0.5648  0.2120
  923MPD2    C313507   3.912   4.367   9.952  0.3890  0.1899 -0.3762
  923MPD2    C413508   3.972   4.251   9.996 -0.5601 -0.2120 -0.2192
  923MPD2    C513509   3.890   4.150  10.028 -0.1829 -0.3834  0.2979
  923MPD2     H13510   3.723   4.462   9.904  0.4304  0.8902 -1.1029
  923MPD2    H113511   4.079   4.236  10.008 -0.4257 -0.6891 -1.9593
  923MPD2    H213512   3.710   4.045  10.030  2.3167 -1.5551  0.4420
  923MPD2    H313513   3.954   4.072  10.067  1.2761  0.5723 -0.1789
  923MPD2     N13514   3.989   4.476   9.934 -0.4636  0.7593 -0.4938
  923MPD2    H513515   4.088   4.451   9.930 -0.4494  0.9460 -1.3822
  923MPD2    N113516   3.565   4.235   9.906 -0.7889  0.3254  0.1681
  923MPD2    H713517   3.524   4.142   9.912  1.0866 -0.6179 -1.6093
  924MPD2     C13518   3.006   2.472  16.037 -0.3647  0.7529 -0.3814
  924MPD2    C113519   2.928   2.508  16.146  0.2896 -0.4563 -0.2491
  924MPD2    C213520   2.888   2.639  16.153  0.0859 -0.3928  0.1835
  924MPD2    C313521   2.925   2.736  16.059  0.3663 -0.3938  0.0827
  924MPD2    C413522   2.985   2.688  15.945  0.2178  0.3881 -0.1420
  924MPD2    C513523   3.028   2.560  15.941  0.5808  0.1989  0.4980
  924MPD2     H13524   2.839   2.671  16.244  1.1183 -2.6285  1.5390
  924MPD2    H113525   3.004   2.744  15.854 -2.8160  0.0603 -0.9702
  924MPD2    H213526   3.033   2.368  16.022  0.0655  1.2955 -3.2014
  924MPD2    H313527   3.091   2.533  15.857 -0.1164  0.4227 -0.0899
  924MPD2     N13528   2.884   2.872  16.069 -0.7613  0.2544 -0.2148
  924MPD2    H513529   2.906   2.929  15.988  1.8620 -1.5748 -0.7749
  924MPD2    N113530   2.908   2.416  16.254  0.3830 -0.7117 -0.5110
  924MPD2    H713531   2.961   2.329  16.255 -0.6426 -1.3113  1.1243
  925MPD2     C13532   1.422   0.750  14.937  0.1554 -0.3609  0.3569
  925MPD2    C113533   1.303   0.716  14.870 -0.1827 -0.9906  0.1243
  925MPD2    C213534   1.205   0.661  14.953  0.3031  0.0433  0.2321
  925MPD2    C313535   1.226   0.640  15.090  0.1685  0.2594 -0.1909
  925MPD2    C413536   1.347   0.680  15.139  0.6504 -0.5185  0.2749
  925MPD2    C513537   1.440   0.738  15.068 -0.1978 -0.2211 -0.0373
  925MPD2     H13538   1.120   0.606  14.913  0.9024 -2.2262  2.0159
  925MPD2    H113539   1.367   0.669  15.245 -2.8761  1.2938  1.1114
  925MPD2    H213540   1.502   0.800  14.883  0.3723 -2.5436 -1.3215
  925MPD2    H313541   1.528   0.779  15.117 -0.8085  0.4794  0.4666
  925MPD2     N13542   1.138   0.569  15.176 -0.0916 -0.4413  0.7361
  925MPD2    H513543   1.179   0.522  15.257  1.7952 -1.7182 -0.9451
  925MPD2    N113544   1.297   0.719  14.729 -0.0259  0.0980  0.1231
  925MPD2    H713545   1.202   0.707  14.694  0.8687 -1.1824 -1.8562
  926MPD2     C13546   0.235   3.663  13.597  0.0069 -0.0528  0.1240
  926MPD2    C113547   0.179   3.789  13.584 -0.1763  0.4682 -0.3022
  926MPD2    C213548   0.239   3.876  13.503  0.0336  0.0521  0.3061
  926MPD2    C313549   0.351   3.839  13.429  0.7278  0.1088  0.2512
  926MPD2    C413550   0.409   3.719  13.447 -0.0685  0.2189  0.0347
  926MPD2    C513551   0.346   3.627  13.528  0.4835 -0.4244 -0.7164
  926MPD2     H13552   0.200   3.977  13.498  1.7108  0.7127  0.4231
  926MPD2    H113553   0.495   3.683  13.391  1.7573 -0.5963  3.3277
  926MPD2    H213554   0.197   3.587  13.664 -1.7009  1.1374  0.5156
  926MPD2    H313555   0.384   3.527  13.548  0.1336 -0.2756  0.7200
  926MPD2     N13556   0.403   3.920  13.325  0.1434  0.2192 -0.1408
  926MPD2    H513557   0.476   3.872  13.274  0.0196 -1.8967  1.6818
  926MPD2    N113558   0.074   3.831  13.666  0.0857  0.3063  0.3322
  926MPD2    H713559   0.041   3.927  13.653 -2.6515 -0.6054  0.5927
  927MPD2     C13560   0.459   1.119   0.290  0.4652 -0.2237  0.4257
  927MPD2    C113561   0.395   1.233   0.252 -0.1834  1.0594  0.0251
  927MPD2    C213562   0.361   1.248   0.117 -0.0685 -0.4363  0.3952
  927MPD2    C313563   0.388   1.144   0.026  0.2480  0.0608  0.2361
  927MPD2    C413564   0.456   1.029   0.071 -0.4361 -0.0015  0.7886
  927MPD2    C513565   0.494   1.022   0.204  0.1824 -0.0196 -0.3980
  927MPD2     H13566   0.314   1.340   0.086 -0.9627 -0.4760  1.5917
  927MPD2    H113567   0.473   0.943   0.008  0.0547  0.1584  0.7055
  927MPD2    H213568   0.505   1.107   0.388  0.6132  1.3573  0.5567
  927MPD2    H313569   0.542   0.931   0.238  0.4410 -0.3235 -1.5874
  927MPD2     N13570   0.350   1.153  17.572  0.1211  0.1272 -0.0492
  927MPD2    H513571   0.312   1.244  17.547  0.6122  0.2502 -0.3524
  927MPD2    N113572   0.359   1.325   0.357 -0.1747  0.4932  0.4127
  927MPD2    H713573   0.375   1.288   0.451 -0.5249  0.2909  0.3965
  928MPD2     C13574   2.402   4.502   0.807 -0.6217  0.4910  0.2136
  928MPD2    C113575   2.529   4.516   0.854  0.0691  0.9301  0.0186
  928MPD2    C213576   2.636   4.437   0.802 -0.1563 -0.2159  1.2124
  928MPD2    C313577   2.622   4.357   0.691 -0.0068 -0.8331  0.2560
  928MPD2    C413578   2.489   4.340   0.642 -0.3136 -0.8209 -0.0870
  928MPD2    C513579   2.388   4.413   0.704  0.4367 -0.1509  0.2785
  928MPD2     H13580   2.736   4.445   0.843  0.6600  1.4131 -1.0536
  928MPD2    H113581   2.466   4.273   0.560 -0.4475 -0.9774  0.0768
  928MPD2    H213582   2.321   4.567   0.838 -1.1114  0.4393 -0.9704
  928MPD2    H313583   2.284   4.389   0.681  1.0254 -1.4186 -1.0393
  928MPD2     N13584   2.729   4.309   0.618 -0.5520 -0.0066 -1.0667
  928MPD2    H513585   2.692   4.283   0.527 -0.7245 -0.3027 -0.9101
  928MPD2    N113586   2.551   4.616   0.956 -0.0394  0.2446 -0.7107
  928MPD2    H713587   2.469   4.670   0.979  0.0906  0.7805 -1.5146
  929MPD2     C13588   3.585   3.922  10.679 -0.6120 -0.8612  0.4309
  929MPD2    C113589   3.455   3.894  10.641  0.3067 -0.2169  0.1470
  929MPD2    C213590   3.402   3.948  10.530  0.4976  0.9579 -0.8406
  929MPD2    C313591   3.472   4.045  10.463 -0.1175 -0.0402  0.4475
  929MPD2    C413592   3.603   4.074  10.494 -0.4255  0.6287  0.5063
  929MPD2    C513593   3.658   4.005  10.600  0.2630  0.1022  0.4311
  929MPD2     H13594   3.298   3.940  10.501 -0.0356  0.9870  1.0967
  929MPD2    H113595   3.660   4.145  10.437 -1.8741  0.5966 -0.9906
  929MPD2    H213596   3.630   3.872  10.764  0.2277  1.7174  1.4813
  929MPD2    H313597   3.757   4.033  10.634  0.4353 -0.2248  0.1880
  929MPD2     N13598   3.395   4.103  10.361  0.3027  0.0579  0.2770
  929MPD2    H513599   3.301   4.070  10.343  0.0505 -0.2355  2.1595
  929MPD2    N113600   3.377   3.815  10.729 -0.2967  0.0491 -0.1477
  929MPD2    H713601   3.414   3.801  10.822  0.7887  0.5008 -0.5141
  930MPD2     C13602   4.446   1.259  14.045  0.4034 -0.2654 -0.2160
  930MPD2    C113603   4.464   1.343  13.933  0.0505 -0.6113  0.3866
  930MPD2    C213604   4.444   1.296  13.805  0.6439  0.2946 -0.0665
  930MPD2    C313605   4.422   1.163  13.780 -0.5731  0.2765  0.3364
  930MPD2    C413606   4.403   1.081  13.887 -0.1320 -0.2282  0.3736
  930MPD2    C513607   4.408   1.131  14.021  0.3006  0.2804  0.5586
  930MPD2     H13608   4.469   1.361  13.721 -2.4234  0.0063 -1.1709
  930MPD2    H113609   4.386   0.976  13.872 -1.5920  0.0828 -0.1612
  930MPD2    H213610   4.452   1.288  14.149  0.3966 -1.5023  0.1268
  930MPD2    H313611   4.393   1.063  14.104  2.6253 -2.7414 -1.4744
  930MPD2     N13612   4.432   1.116  13.647 -0.3438 -0.4825  0.1409
  930MPD2    H513613   4.449   1.187  13.576 -2.4338 -1.5786 -1.4575
  930MPD2    N113614   4.491   1.481  13.943  0.0120  0.5352  0.1022
  930MPD2    H713615   4.488   1.535  13.858  1.3196  0.3368 -0.0692
  931MPD2     C13616   0.496   1.195   0.962 -0.1716 -0.2341  0.1076
  931MPD2    C113617   0.368   1.214   0.947  0.3148  0.2722 -0.3721
  931MPD2    C213618   0.279   1.141   1.029 -0.5013  0.2903  0.0703
  931MPD2    C313619   0.328   1.051   1.122  0.0137 -0.3152 -0.3579
  931MPD2    C413620   0.466   1.045   1.137  0.1737  0.6194 -0.6558
  931MPD2    C513621   0.553   1.119   1.057  0.2632  0.0610  0.6555
  931MPD2     H13622   0.173   1.140   1.006 -0.5541 -0.1212  0.3221
  931MPD2    H113623   0.509   0.983   1.215 -1.0190 -0.3805 -0.8016
  931MPD2    H213624   0.557   1.237   0.883 -2.9674  1.4053 -1.1844
  931MPD2    H313625   0.657   1.100   1.078  0.0126 -0.9275  1.0106
  931MPD2     N13626   0.245   0.966   1.203 -0.7356  0.7137  0.4113
  931MPD2    H513627   0.290   0.910   1.274  0.8435 -0.0665 -1.1865
  931MPD2    N113628   0.332   1.304   0.851 -0.1459  0.0721 -0.0347
  931MPD2    H713629   0.405   1.348   0.796  0.1766 -1.6464 -0.9854
  932MPD2     C13630   1.436   0.337  11.195 -0.5422  0.0727 -0.4858
  932MPD2    C113631   1.578   0.356  11.201 -0.3849 -0.1697  0.5401
  932MPD2    C213632   1.659   0.246  11.222 -0.2930  0.5803  0.7091
  932MPD2    C313633   1.604   0.123  11.238 -0.3212  0.0265  0.5325
  932MPD2    C413634   1.470   0.107  11.226 -0.0460  0.0445  0.1256
  932MPD2    C513635   1.387   0.213  11.204  0.0371  0.6865  0.0267
  932MPD2     H13636   1.763   0.270  11.236  0.4313 -1.4010 -1.3237
  932MPD2    H113637   1.427   0.012  11.257 -1.6998  0.1949 -1.7383
  932MPD2    H213638   1.366   0.420  11.195 -0.2555  0.3128  2.2731
  932MPD2    H313639   1.279   0.208  11.212 -0.1326  1.9520 -1.5520
  932MPD2     N13640   1.683   0.006  11.278  0.3591  0.1552 -0.6213
  932MPD2    H513641   1.627   4.644  11.297 -1.5218  1.6226  0.2339
  932MPD2    N113642   1.641   0.485  11.194 -0.5121 -0.6404  0.0674
  932MPD2    H713643   1.742   0.493  11.204 -0.3110 -2.0405 -0.8169
  933MPD2     C13644   2.560   0.741   1.085  0.3942  0.0236 -0.7666
  933MPD2    C113645   2.498   0.618   1.084 -0.2579 -0.2126  0.7854
  933MPD2    C213646   2.358   0.616   1.056  0.6204  0.0201  0.3896
  933MPD2    C313647   2.296   0.730   1.026  0.1394  0.1672  0.2803
  933MPD2    C413648   2.366   0.847   1.025  0.3812 -0.4304 -0.0485
  933MPD2    C513649   2.504   0.856   1.046 -0.3962 -0.6076 -0.6145
  933MPD2     H13650   2.306   0.522   1.067 -1.9695  1.1777 -1.8233
  933MPD2    H113651   2.320   0.941   0.995  0.7112 -0.5963 -1.0725
  933MPD2    H213652   2.659   0.746   1.129  0.2875 -3.1387 -0.1214
  933MPD2    H313653   2.553   0.953   1.043 -1.2029 -0.2372 -2.0822
  933MPD2     N13654   2.160   0.716   0.987 -0.1499 -0.1212 -0.1159
  933MPD2    H513655   2.115   0.625   0.992  0.9224 -0.5617  1.5058
  933MPD2    N113656   2.569   0.501   1.103 -0.2519  0.2682 -0.4721
  933MPD2    H713657   2.662   0.502   1.146 -0.5958 -1.0984  0.3157
  934MPD2     C13658   3.373   2.031   2.248  0.2170 -0.3208 -0.5479
  934MPD2    C113659   3.466   1.999   2.148  0.7945 -0.1270  0.4701
  934MPD2    C213660   3.421   1.952   2.022  0.0399 -0.8603 -0.9695
  934MPD2    C313661   3.295   1.917   1.994 -0.8429 -0.0532  0.5040
  934MPD2    C413662   3.203   1.963   2.086 -0.1758  0.1825  0.7146
  934MPD2    C513663   3.240   2.024   2.210 -0.2155 -0.4236  0.9890
  934MPD2     H13664   3.489   1.925   1.942 -0.2617 -1.2572 -1.0924
  934MPD2    H113665   3.098   1.938   2.073 -0.1959  0.3279  0.5987
  934MPD2    H213666   3.402   2.075   2.343 -1.3470 -1.7858  0.6096
  934MPD2    H313667   3.158   2.054   2.273 -0.7604  1.5453 -0.6661
  934MPD2     N13668   3.237   1.849   1.888 -0.2379 -0.0008 -0.8464
  934MPD2    H513669   3.136   1.857   1.881 -0.5472 -1.8618  1.4782
  934MPD2    N113670   3.605   2.023   2.171  0.2153  0.0164 -0.0955
  934MPD2    H713671   3.674   2.025   2.096  3.0359  0.6396  2.5533
  935MPD2     C13672   3.543   1.129   1.287 -0.2087 -0.1849  0.7069
  935MPD2    C113673   3.426   1.175   1.225  0.5769  0.0194 -0.6379
  935MPD2    C213674   3.356   1.280   1.278 -0.5830 -0.5330 -0.3208
  935MPD2    C313675   3.408   1.337   1.395  0.1352 -0.0753  0.6475
  935MPD2    C413676   3.519   1.285   1.462 -0.5558  0.3927  0.5841
  935MPD2    C513677   3.583   1.184   1.402  0.2901 -0.3367  0.1602
  935MPD2     H13678   3.260   1.310   1.239 -1.1078 -2.7775 -0.7771
  935MPD2    H113679   3.551   1.336   1.552  2.0822 -0.6479  0.2330
  935MPD2    H213680   3.606   1.046   1.258  1.5962  1.2332  0.5204
  935MPD2    H313681   3.665   1.138   1.456 -0.4746 -0.2010  1.4438
  935MPD2     N13682   3.350   1.453   1.457 -0.0979  0.4519 -0.0279
  935MPD2    H513683   3.392   1.488   1.542 -0.4156  1.4629 -0.2812
  935MPD2    N113684   3.381   1.117   1.105 -0.2062 -0.2650 -0.5468
  935MPD2    H713685   3.294   1.150   1.065  0.1594 -0.6475 -1.6387
  936MPD2     C13686   2.028   3.867  12.879  0.5982  0.8835  0.2837
  936MPD2    C113687   2.124   3.823  12.962 -0.0419 -0.2422 -0.4253
  936MPD2    C213688   2.236   3.892  12.990 -0.1990 -0.6319  0.1367
  936MPD2    C313689   2.269   4.002  12.906  0.6026 -0.6219  0.2636
  936MPD2    C413690   2.171   4.052  12.812 -0.0262  0.4631 -0.4758
  936MPD2    C513691   2.045   3.985  12.810  0.3374 -0.1616  0.3057
  936MPD2     H13692   2.306   3.833  13.049  1.1402  1.2997  0.4573
  936MPD2    H113693   2.195   4.132  12.743  0.0369  2.0812  1.4459
  936MPD2    H213694   1.930   3.823  12.864  0.8156  0.9380 -1.2643
  936MPD2    H313695   1.969   4.026  12.745 -0.0829 -2.0250 -0.3652
  936MPD2     N13696   2.395   4.064  12.909  0.5107 -0.7375  0.2203
  936MPD2    H513697   2.423   4.120  12.829 -0.1789  0.0137  0.4986
  936MPD2    N113698   2.113   3.696  13.033  0.3636  0.4159  0.1340
  936MPD2    H713699   2.187   3.674  13.099 -0.7293  0.8297  1.5015
  937MPD2     C13700   0.385   0.283  11.779 -0.8040 -0.2030 -0.5929
  937MPD2    C113701   0.286   0.383  11.775  0.7804 -0.5515  1.0491
  937MPD2    C213702   0.302   0.480  11.675 -0.0247  0.6653 -0.4574
  937MPD2    C313703   0.388   0.465  11.572  0.7600  0.5398 -0.1798
  937MPD2    C413704   0.477   0.360  11.575 -0.3849  0.2122 -0.1799
  937MPD2    C513705   0.473   0.267  11.674 -0.6902  0.3755  0.0800
  937MPD2     H13706   0.242   0.570  11.684  0.0101  0.5728  0.6346
  937MPD2    H113707   0.550   0.344  11.496  0.2364  0.0888  0.4203
  937MPD2    H213708   0.397   0.214  11.861 -1.6073  0.6467  0.2466
  937MPD2    H313709   0.530   0.175  11.673  0.3384  1.0042  0.1863
  937MPD2     N13710   0.385   0.569  11.474 -0.4191  0.1740 -0.2989
  937MPD2    H513711   0.321   0.645  11.492  0.3288  0.9563 -0.9097
  937MPD2    N113712   0.198   0.412  11.879  0.5149 -0.3903  0.7883
  937MPD2    H713713   0.135   0.491  11.868  0.7671 -0.3663 -0.5741
  938MPD2     C13714   1.931   1.521   1.051 -0.2707 -0.7397 -0.0317
  938MPD2    C113715   2.060   1.484   1.049 -0.6156  0.2083 -0.3702
  938MPD2    C213716   2.105   1.375   1.122  0.1946 -0.6662  0.7125
  938MPD2    C313717   2.014   1.285   1.175  0.1082 -0.0658  0.1378
  938MPD2    C413718   1.882   1.315   1.153 -0.0811  0.4677  0.1348
  938MPD2    C513719   1.843   1.431   1.101  0.2645 -0.1742 -0.1170
  938MPD2     H13720   2.213   1.370   1.124  0.1260 -2.2183  0.4029
  938MPD2    H113721   1.808   1.237   1.171  0.6840  0.0407  1.3944
  938MPD2    H213722   1.901   1.599   0.983 -1.0359 -2.0250 -1.1622
  938MPD2    H313723   1.737   1.447   1.085  0.1825  0.7594  1.2815
  938MPD2     N13724   2.047   1.152   1.220  0.4366 -0.2830 -0.3500
  938MPD2    H513725   1.973   1.083   1.226  1.5859 -1.5580 -0.9117
  938MPD2    N113726   2.162   1.559   0.977  0.4192 -0.2673 -0.2142
  938MPD2    H713727   2.259   1.532   0.992  0.2770  0.9840  3.0146
  939MPD2     C13728   3.497   2.542   1.423  0.3740  0.1470  0.3923
  939MPD2    C113729   3.387   2.540   1.337 -0.4308  0.0891 -0.0232
  939MPD2    C213730   3.402   2.528   1.199 -0.4773  0.0928 -0.5662
  939MPD2    C313731   3.537   2.516   1.154 -0.3470 -0.4187  0.3993
  939MPD2    C413732   3.645   2.523   1.240  0.4807  0.4076  0.1808
  939MPD2    C513733   3.622   2.537   1.371 -0.2422 -1.0046  0.1430
  939MPD2     H13734   3.322   2.536   1.126  0.0426 -1.1118 -1.2817
  939MPD2    H113735   3.750   2.523   1.213  0.3642 -1.2311 -0.2386
  939MPD2    H213736   3.484   2.543   1.531  2.0360 -0.0051  0.5901
  939MPD2    H313737   3.707   2.549   1.439 -0.7890 -3.8549  1.3151
  939MPD2     N13738   3.561   2.503   1.011 -0.7047  0.5251  0.4405
  939MPD2    H513739   3.482   2.533   0.954 -0.9670 -0.1799  0.4345
  939MPD2    N113740   3.260   2.539   1.395  0.4921 -0.3973  0.1206
  939MPD2    H713741   3.256   2.538   1.496 -2.5511  0.0952 -0.0003
  940MPD2     C13742   2.606   3.191  13.203  0.3331 -0.1503  0.0725
  940MPD2    C113743   2.723   3.197  13.274 -0.2082  0.6210  0.5093
  940MPD2    C213744   2.843   3.183  13.215  0.2545  0.9575  0.1756
  940MPD2    C313745   2.846   3.154  13.081 -0.0389 -0.3277 -0.1762
  940MPD2    C413746   2.728   3.143  13.005 -0.4478 -0.4458  1.0020
  940MPD2    C513747   2.609   3.146  13.070 -0.0082 -0.4488  0.2815
  940MPD2     H13748   2.929   3.191  13.281  0.2061 -0.0162  0.3592
  940MPD2    H113749   2.724   3.117  12.900  0.7734 -0.3338  0.9249
  940MPD2    H213750   2.508   3.209  13.243  1.1632  0.3615  1.8720
  940MPD2    H313751   2.518   3.151  13.012  0.6986  4.1909 -0.4138
  940MPD2     N13752   2.965   3.151  13.010 -0.3225  0.4394 -0.7109
  940MPD2    H513753   2.963   3.130  12.911 -0.3691  0.0930 -0.6375
  940MPD2    N113754   2.729   3.227  13.416  0.3807 -0.1391  0.1891
  940MPD2    H713755   2.817   3.258  13.456 -0.7379  0.4405  2.1721
  941MPD2     C13756   1.262   1.869  10.229 -0.0436 -0.0445  0.3435
  941MPD2    C113757   1.272   1.877  10.090 -0.0725  0.5116 -0.4883
  941MPD2    C213758   1.347   1.780  10.018 -0.4638  0.3836 -0.4995
  941MPD2    C313759   1.397   1.675  10.092  0.4397  0.7861 -0.4364
  941MPD2    C413760   1.400   1.678  10.232 -0.1047  0.6144 -0.0149
  941MPD2    C513761   1.329   1.775  10.299 -0.2579 -0.3180  0.7276
  941MPD2     H13762   1.355   1.790   9.910  1.6769  2.4554 -0.1664
  941MPD2    H113763   1.440   1.590  10.281 -1.9675  0.7927  1.7607
  941MPD2    H213764   1.205   1.946  10.281  1.4612  1.7142 -0.6003
  941MPD2    H313765   1.317   1.748  10.404  2.5649  0.2596  1.2164
  941MPD2     N13766   1.463   1.561  10.038 -0.1548 -0.1597  0.4167
  941MPD2    H513767   1.483   1.480  10.096 -0.5186 -0.8807 -0.4555
  941MPD2    N113768   1.214   1.977  10.010  0.1405 -0.1858  0.1044
  941MPD2    H713769   1.213   1.964   9.910  0.2182  2.1391 -0.1992
  942MPD2     C13770   0.301   4.664   8.995 -0.4324  0.4111 -0.5094
  942MPD2    C113771   0.221   4.554   8.964 -0.2240  0.4095 -0.5118
  942MPD2    C213772   0.288   4.433   8.964  0.3543  0.4559  0.0983
  942MPD2    C313773   0.420   4.416   9.001  0.8327 -0.3247 -0.7807
  942MPD2    C413774   0.491   4.525   9.035  0.5420  0.1649 -0.8033
  942MPD2    C513775   0.432   4.645   9.034 -0.3865  0.0701 -0.0407
  942MPD2     H13776   0.233   4.343   8.939  1.7473  0.0943 -1.6449
  942MPD2    H113777   0.589   4.523   9.081 -1.3594  0.6187  3.2907
  942MPD2    H213778   0.258   0.043   8.992 -2.1941 -0.3369 -0.4550
  942MPD2    H313779   0.477   0.015   9.072 -1.1563 -0.1548  1.4081
  942MPD2     N13780   0.489   4.292   9.006 -0.1984  0.3566 -0.1316
  942MPD2    H513781   0.588   4.300   9.024 -0.2779 -0.2347  0.5746
  942MPD2    N113782   0.089   4.567   8.922 -0.2712  0.3854  0.0939
  942MPD2    H713783   0.047   4.478   8.896  0.2778  0.1259  0.0907
  943MPD2     C13784   0.723   3.301   9.643 -0.3113 -0.7334 -0.7992
  943MPD2    C113785   0.669   3.177   9.673  0.0068  0.1098 -0.7056
  943MPD2    C213786   0.592   3.116   9.575  1.0755  0.0038  0.3729
  943MPD2    C313787   0.561   3.186   9.456 -0.2627  0.1432  0.1384
  943MPD2    C413788   0.613   3.306   9.438 -0.0061  0.2534  0.3015
  943MPD2    C513789   0.700   3.365   9.526  0.1620 -0.1367  0.1339
  943MPD2     H13790   0.551   3.018   9.596  1.5492 -0.2283  0.2028
  943MPD2    H113791   0.603   3.357   9.343 -0.8277  0.1591  0.3376
  943MPD2    H213792   0.789   3.351   9.713  0.0902 -1.4896 -0.6399
  943MPD2    H313793   0.742   3.463   9.506  0.3831  0.1076  1.7538
  943MPD2     N13794   0.493   3.134   9.345  0.3706 -0.1583 -0.4302
  943MPD2    H513795   0.490   3.194   9.264 -0.9043 -0.6453 -0.7535
  943MPD2    N113796   0.699   3.117   9.799 -0.0084 -0.1114 -0.3134
  943MPD2    H713797   0.763   3.172   9.855  0.1140 -0.5771  0.0096
  944MPD2     C13798   0.626   1.286  10.936 -0.7009 -0.3145 -0.5753
  944MPD2    C113799   0.687   1.403  10.904 -0.3092 -0.2189  0.6420
  944MPD2    C213800   0.651   1.515  10.976 -0.2872  0.1650  0.8758
  944MPD2    C313801   0.551   1.519  11.073  0.6543  0.7363  0.5198
  944MPD2    C413802   0.488   1.404  11.099  0.2514  0.4147 -0.0603
  944MPD2    C513803   0.527   1.291  11.029 -0.6637 -0.7627 -0.1227
  944MPD2     H13804   0.704   1.604  10.943  1.6920 -1.9595 -1.7206
  944MPD2    H113805   0.402   1.394  11.164 -0.3646 -0.7572 -1.0539
  944MPD2    H213806   0.652   1.187  10.901  0.6879  0.3694 -1.4903
  944MPD2    H313807   0.475   1.199  11.054 -0.3540 -0.7691  0.5061
  944MPD2     N13808   0.524   1.646  11.129 -0.0326 -0.9137 -0.1370
  944MPD2    H513809   0.580   1.729  11.116 -0.5353 -0.4917  0.3454
  944MPD2    N113810   0.796   1.411  10.816 -0.5222 -0.1489  0.2963
  944MPD2    H713811   0.846   1.498  10.796  0.1587 -0.2523  1.5634
    1TCq1    O113812   3.933   2.250  13.895  0.5538 -0.4315 -0.5940
    1TCq1    C113813   3.844   2.354  13.899  0.3292  0.0220 -0.4305
    1TCq1    O213814   3.776   2.394  13.801 -0.1314  0.2898 -0.4646
    1TCq1    C213815   3.809   2.372  14.041  0.3144  0.2079  0.4959
    1TCq1    C313816   3.678   2.404  14.069  0.2026  0.9538 -0.1217
    1TCq1    C413817   3.650   2.455  14.193  0.3076 -0.4296  0.1101
    1TCq1    C513818   3.745   2.482  14.286  0.3775  0.8127 -0.3083
    1TCq1    C613819   3.872   2.447  14.253  0.6188  0.6757 -0.2637
    1TCq1    C713820   3.903   2.393  14.136 -0.1226  0.3979  0.3367
    1TCq1    C813821   3.970   2.494  14.347 -0.1231  0.6654  0.2589
    1TCq1    O413822   4.072   2.433  14.355  0.1379  0.0385  0.4455
    1TCq1    C913823   3.508   2.474  14.230 -0.9803 -0.5656 -0.2577
    1TCq1    O513824   3.480   2.520  14.340  0.0563  0.0063 -0.0348
    1TCq1    O613825   3.426   2.445  14.136  0.5829 -0.0082  0.4222
    1TCq1    H113826   3.961   2.216  13.983  1.6566  2.0800  0.0260
    1TCq1    H213827   3.611   2.415  13.985  0.5140  0.6289 -0.4143
    1TCq1    H313828   3.712   2.509  14.386  0.3054  0.5885 -0.2701
    1TCq1    H413829   4.008   2.378  14.115 -0.7086 -0.7342 -1.7354
    2MPD2     C13830   4.137   2.827  14.707 -0.4589 -0.4120  0.3978
    2MPD2    C113831   4.024   2.884  14.653  0.7414  0.6043 -0.2351
    2MPD2    C213832   3.961   2.810  14.551  0.2399 -0.1855 -0.0535
    2MPD2    C313833   4.014   2.683  14.512 -0.3135 -0.5790 -0.5258
    2MPD2    C413834   4.130   2.636  14.560 -0.2152 -0.4378 -0.8299
    2MPD2    C513835   4.186   2.705  14.663 -0.1946  0.0683 -0.0968
    2MPD2     H13836   3.871   2.852  14.509  1.5897 -0.2380 -2.9649
    2MPD2    H113837   4.169   2.535  14.554 -0.2910 -0.4744 -0.7326
    2MPD2    H213838   4.184   2.875  14.791 -1.3940  2.4362 -0.7004
    2MPD2    H313839   4.272   2.655  14.708  0.3325 -1.5179 -2.8179
    2MPD2     N13840   3.934   2.605  14.422  0.5690  0.1541 -0.0824
    2MPD2    H513841   3.845   2.644  14.391 -0.4773 -0.2963  2.3638
    2MPD2    N113842   3.981   3.003  14.710  0.0133 -0.2893  0.3045
    2MPD2    H713843   4.040   3.041  14.783 -0.5405  0.2734  0.4589
    3TMC2    C113844   3.838   3.189  14.778 -0.3798  0.6628  0.0824
    3TMC2    C213845   3.881   3.184  14.910 -0.1998  0.0556 -0.0709
    3TMC2    C313846   3.843   3.283  14.991 -0.4295 -0.4649 -0.1046
    3TMC2    C413847   3.765   3.295  14.735  0.7394 -0.7364 -0.5528
    3TMC2    C513848   3.714   3.381  14.829  0.4547 -0.0254 -0.3655
    3TMC2    C613849   3.753   3.375  14.960  0.7728 -0.3411 -0.4819
    3TMC2     C13850   3.871   3.084  14.678  0.1016  0.7396  0.8841
    3TMC2     O13851   3.794   3.079  14.584 -0.4800 -0.7965  0.2892
    3TMC2     H13852   3.941   3.100  14.943 -1.3409 -0.0395  1.7576
    3TMC2    H113853   3.740   3.300  14.630  0.4008  1.1933 -0.3716
    3TMC2    H213854   3.719   3.450  15.030  0.8200  1.4704 -2.3677
    3TMC2    C713855   3.576   3.427  14.818  0.4010 -0.2908 -0.1133
    3TMC2    C813856   3.902   3.295  15.120 -0.6204  0.5674  0.7912
    3TMC2    O113857   3.507   3.413  14.920 -0.0345  0.7561  0.2596
    3TMC2    O213858   3.940   3.195  15.179 -0.0693 -0.0193 -0.1036
    3TMC2    O513859   3.934   3.424  15.144 -0.2737  0.4541  0.0876
    3TMC2    H513860   3.912   3.483  15.068  0.0188 -0.4710 -0.7171
    4MPD2     C13861   2.477   3.906  13.767 -0.2732  0.0382 -0.1576
    4MPD2    C113862   2.581   3.973  13.710 -0.1114 -0.3415  0.0211
    4MPD2    C213863   2.710   3.933  13.743  0.1441  0.2666 -0.2418
    4MPD2    C313864   2.740   3.828  13.827 -0.2231  0.4683 -0.3106
    4MPD2    C413865   2.633   3.769  13.884 -0.0076  0.4355 -0.1106
    4MPD2    C513866   2.501   3.801  13.848 -0.3937  0.3729 -0.6335
    4MPD2     H13867   2.789   3.996  13.705 -0.6118  1.0424 -0.5109
    4MPD2    H113868   2.642   3.688  13.956  0.1989  2.4079  2.0548
    4MPD2    H213869   2.374   3.937  13.754 -0.8486  0.2480  4.8343
    4MPD2    H313870   2.416   3.747  13.889 -1.4787  0.9434 -2.1515
    4MPD2     N13871   2.876   3.799  13.861 -0.6312  0.3337 -0.1027
    4MPD2    H513872   2.947   3.841  13.803 -0.5981  0.4817  0.0443
    4MPD2    N113873   2.548   4.084  13.641 -0.2301 -0.5520  0.2735
    4MPD2    H713874   2.447   4.098  13.633 -0.1769 -1.4873 -2.0764
    5TCq2    C113875   2.909   3.722  13.971  0.5227  0.6269  0.0097
    5TCq2    O213876   2.833   3.695  14.064 -0.4874 -0.2664 -0.8810
    5TCq2    C213877   3.046   3.718  13.989  0.1854 -0.7592  0.8671
    5TCq2    C313878   3.125   3.758  13.888 -0.1231  0.5066  0.1061
    5TCq2    C413879   3.257   3.778  13.920  0.3715  0.7617 -0.3750
    5TCq2    C513880   3.307   3.756  14.044 -0.5146  0.0670 -0.1075
    5TCq2    C613881   3.217   3.714  14.143  0.5767 -0.5849 -0.6023
    5TCq2    C713882   3.086   3.689  14.118 -0.0395 -0.2382  0.0504
    5TCq2    C813883   3.285   3.652  14.257 -0.6785 -0.5402  0.3689
    5TCq2    O413884   3.405   3.628  14.248  0.1815  0.0914  0.2280
    5TCq2    C913885   3.354   3.809  13.811 -0.1307 -0.4403  0.3609
    5TCq2    O513886   3.473   3.816  13.839 -0.2605 -0.0547 -0.1053
    5TCq2    O613887   3.299   3.831  13.698  0.0135 -0.1321 -0.0967
    5TCq2    H213888   3.104   3.742  13.783 -3.8908 -1.0605  1.0636
    5TCq2    H313889   3.409   3.787  14.064  0.4634 -1.8276 -2.2400
    5TCq2    H413890   3.010   3.645  14.182 -0.3060 -1.7795 -1.3210
    6MPD1     C13891   2.171   0.832  12.235 -0.0599  0.2247 -0.2040
    6MPD1    C113892   2.149   0.864  12.369 -0.0357  0.1273  0.0250
    6MPD1    C213893   2.168   0.774  12.468  0.1686 -0.2960  0.4714
    6MPD1    C313894   2.208   0.649  12.435 -0.6194 -1.4875 -0.3725
    6MPD1    C413895   2.236   0.617  12.303  0.3796  1.0024  0.3608
    6MPD1    C513896   2.221   0.709  12.204 -0.9024 -1.1040 -0.5213
    6MPD1     H13897   2.155   0.805  12.570  0.9693  0.1036  0.4551
    6MPD1    H113898   2.271   0.521  12.267 -2.2932  0.1550  0.0461
    6MPD1    H213899   2.134   0.882  12.146  0.1371 -0.2984 -0.5720
    6MPD1    H313900   2.226   0.681  12.100 -0.5833  1.7105 -1.2565
    6MPD1     N13901   2.233   0.552  12.537 -0.0666 -0.1362 -0.7780
    6MPD1    H513902   2.270   0.463  12.505 -0.9602 -0.7553 -0.1347
    6MPD1    N113903   2.128   1.000  12.400 -0.2523  0.1366 -0.4071
    6MPD1    H613904   2.081   1.051  12.325  2.9733  0.5026 -2.1470
    6MPD1    H713905   2.072   1.019  12.483 -2.0520  0.4929 -1.7053
    7MPD2     C13906   2.185   0.285  13.407 -0.6480  0.1959  0.2540
    7MPD2    C113907   2.214   0.203  13.296 -0.4265 -0.1927  0.0536
    7MPD2    C213908   2.231   0.073  13.324  0.0711 -0.2183 -0.4072
    7MPD2    C313909   2.257   0.024  13.448 -0.0553 -0.4378  0.6806
    7MPD2    C413910   2.258   0.120  13.552  0.4320  0.3196 -0.3611
    7MPD2    C513911   2.207   0.241  13.535  0.2197  0.2292  0.2424
    7MPD2     H13912   2.242   4.720  13.246 -0.0611  0.4807 -1.0894
    7MPD2    H113913   2.287   0.080  13.649 -0.0038  0.5538 -0.1320
    7MPD2    H213914   2.127   0.376  13.391  1.3419  1.3883 -0.1467
    7MPD2    H313915   2.191   0.309  13.618 -2.2124  0.7516 -0.6677
    7MPD2     N13916   2.294   4.606  13.447  0.3866 -0.5240  0.1711
    7MPD2    H513917   2.311   4.569  13.354  0.0262  1.6157 -0.7390
    7MPD2    N113918   2.205   0.239  13.159 -0.2793 -0.1147  0.2924
    7MPD2    H713919   2.224   0.160  13.099 -1.7737 -0.5754  0.4317
    8TMC3    C113920   2.350   4.395  13.518 -0.4558 -0.0290 -0.5517
    8TMC3    C213921   2.458   4.335  13.582 -0.0596 -0.3547 -0.2709
    8TMC3    C313922   2.540   4.263  13.495  0.6438  0.0823  0.2736
    8TMC3    C413923   2.324   4.371  13.386  0.2682 -0.1429 -0.0156
    8TMC3    C513924   2.417   4.320  13.306  0.3569  0.0418  0.3921
    8TMC3    C613925   2.535   4.271  13.357  0.0198  0.1637  0.4613
    8TMC3     C13926   2.315   4.529  13.559 -0.3338  0.2674 -0.6212
    8TMC3     O13927   2.313   4.553  13.679  0.0131 -0.2001  0.0931
    8TMC3     H13928   2.480   4.342  13.688  3.1346  2.2686 -1.1232
    8TMC3    H113929   2.221   4.387  13.357  0.2528 -0.0907  0.0696
    8TMC3    H213930   2.596   4.208  13.295 -0.3133  0.3077 -0.0122
    8TMC3    C713931   2.421   4.409  13.189  0.6013 -0.1801  1.2061
    8TMC3    C813932   2.625   4.165  13.558  0.1678 -0.4009 -0.7078
    8TMC3    O113933   2.331   4.493  13.188  0.4578 -1.1195  0.0722
    8TMC3    O213934   2.741   4.158  13.526  0.8541 -0.3938  0.2388
    9TMC3    C113935   2.247   0.466  12.759 -0.2297 -0.0557  0.1918
    9TMC3    C213936   2.335   0.371  12.712 -0.3895 -0.2268 -0.5412
    9TMC3    C313937   2.371   0.273  12.799  0.1722  0.1297 -0.5534
    9TMC3    C413938   2.195   0.463  12.884  0.2358  0.1258  0.5904
    9TMC3    C513939   2.233   0.356  12.961  0.0427  0.2505 -0.1608
    9TMC3    C613940   2.320   0.258  12.927 -0.1443 -0.4393 -0.2452
    9TMC3     C13941   2.215   0.575  12.676  0.5165  0.4509  0.4437
    9TMC3     O13942   2.162   0.668  12.736  0.1021  0.5126 -0.7094
    9TMC3     H13943   2.373   0.364  12.611  2.3893 -0.9456  0.5684
    9TMC3    H113944   2.126   0.537  12.923  2.4552  2.8016 -0.5969
    9TMC3    H213945   2.371   0.193  12.998  0.9003 -0.7200 -1.2499
    9TMC3    C713946   2.189   0.364  13.102 -0.1561  0.0607  0.6984
    9TMC3    C813947   2.453   0.156  12.754  0.0576 -0.4920  0.4722
    9TMC3    O113948   2.155   0.468  13.151  0.3000  0.0786 -0.0814
    9TMC3    O213949   2.529   0.160  12.656 -0.3594  0.0172  0.3302
   10MPD2     C13950   2.662   4.427  12.906  0.5938  0.7465  0.2898
   10MPD2    C113951   2.552   4.456  12.985 -0.6937  0.3073 -0.7688
   10MPD2    C213952   2.468   4.563  12.942 -0.1039 -0.2166  1.0965
   10MPD2    C313953   2.500   4.652  12.839  0.4063  0.3308 -0.0229
   10MPD2    C413954   2.615   4.625  12.774 -0.0217  0.3314  0.1522
   10MPD2    C513955   2.690   4.517  12.807 -0.2559  0.2778  0.3959
   10MPD2     H13956   2.386   4.589  13.007  0.3057  3.1909  0.2358
   10MPD2    H113957   2.650   4.695  12.699  1.0345 -0.7669 -0.3837
   10MPD2    H213958   2.734   4.347  12.923 -0.3095 -0.2285 -0.4627
   10MPD2    H313959   2.780   4.496  12.751  0.9528 -0.7378  2.6993
   10MPD2     N13960   2.418   0.048  12.824  0.2952 -0.1020 -0.7183
   10MPD2    H513961   2.351   0.043  12.900  1.6135 -0.6769  0.4116
   10MPD2    N113962   2.521   4.377  13.099 -0.1396 -0.3565  0.7480
   10MPD2    H713963   2.582   4.299  13.121  0.0879 -0.8677 -1.5975
   11MPD2     C13964   3.294   3.497  14.746  0.5556  0.0268  1.0920
   11MPD2    C113965   3.401   3.484  14.654 -0.2468  0.5011 -0.6467
   11MPD2    C213966   3.370   3.524  14.522  0.0797  0.3007 -0.1638
   11MPD2    C313967   3.241   3.569  14.488  1.0042  0.2445 -0.0049
   11MPD2    C413968   3.143   3.562  14.583 -0.1384  0.6777 -0.8820
   11MPD2    C513969   3.168   3.535  14.709 -0.7295 -0.2104  0.2187
   11MPD2     H13970   3.453   3.524  14.453  0.8208  2.5418  0.7407
   11MPD2    H113971   3.041   3.585  14.554 -0.8335 -0.9807  0.2626
   11MPD2    H213972   3.311   3.482  14.852  0.7760 -1.7733  0.7965
   11MPD2    H313973   3.088   3.554  14.780 -1.0659 -0.8436  0.0165
   11MPD2     N13974   3.199   3.621  14.362  0.0926  0.5086 -0.0759
   11MPD2    H513975   3.103   3.651  14.345 -0.1575 -0.8348 -1.0746
   11MPD2    N113976   3.538   3.452  14.688  0.7345  0.8643 -0.0845
   11MPD2    H713977   3.610   3.455  14.616  0.6247 -1.7479 -0.3107
    1MPD1     C13978   2.324   1.155  16.575  0.5055  0.8653  0.6060
    1MPD1    C113979   2.368   1.019  16.565 -0.9547  0.0139  0.0548
    1MPD1    C213980   2.272   0.923  16.571 -0.0978  0.2635  0.0978
    1MPD1    C313981   2.142   0.952  16.612 -0.3958 -0.0559 -0.1499
    1MPD1    C413982   2.106   1.086  16.634 -0.2363 -0.2785 -0.0997
    1MPD1    C513983   2.196   1.188  16.607 -0.0888  0.7498 -0.9736
    1MPD1     H13984   2.301   0.819  16.560  0.5145  0.5742 -1.1635
    1MPD1    H113985   2.010   1.121  16.669 -0.5483 -1.3772  0.1380
    1MPD1    H213986   2.396   1.233  16.553  0.2198  1.4776  1.8451
    1MPD1    H313987   2.174   1.292  16.627 -2.3847  0.3615 -1.4632
    1MPD1     N13988   2.049   0.853  16.634 -0.6225 -0.4565  0.1848
    1MPD1    H513989   1.953   0.882  16.650 -1.4346 -2.0373 -1.7380
    1MPD1    N113990   2.502   0.994  16.535 -0.2107 -0.4951 -0.7870
    1MPD1    H613991   2.559   1.057  16.591  2.1485 -0.9044 -2.6854
    1MPD1    H713992   2.527   0.896  16.553 -1.7179 -0.8898 -0.8929
    2MPD1     C13993   1.864   4.635  16.218  0.1562 -0.1027  0.2601
    2MPD1    C113994   1.962   0.010  16.196 -0.6759  0.5821 -0.1342
    2MPD1    C213995   1.940   0.139  16.247  0.0287  0.8852 -0.4903
    2MPD1    C313996   1.856   0.161  16.353 -0.1780 -0.8098  0.2326
    2MPD1    C413997   1.787   0.049  16.399  0.2114  0.1532 -0.3142
    2MPD1    C513998   1.780   4.662  16.319 -0.2831 -0.0741 -0.5936
    2MPD1     H13999   2.007   0.222  16.228  1.0090  0.2617  0.2002
    2MPD1    H114000   1.729   0.056  16.490  0.1431  2.9581 -0.5690
    2MPD1    H214001   1.867   4.533  16.180 -0.8725 -0.7723  1.9940
    2MPD1    H314002   1.720   4.577  16.349 -0.0824 -0.1346 -0.3615
    2MPD1     N14003   1.862   0.289  16.415 -0.1956 -0.0951  0.6208
    2MPD1    H514004   1.916   0.363  16.372 -2.2141  1.2303  0.3434
    2MPD1    N114005   2.058   4.710  16.094 -0.0954  0.7898 -0.4398
    2MPD1    H614006   2.145   0.035  16.120  0.7025 -0.4993 -0.8225
    2MPD1    H714007   2.080   4.613  16.073  1.5404  1.3211 -1.1763
    3TMC3    C114008   1.808   0.461  16.570  0.1181 -0.1184  0.2749
    3TMC3    C214009   1.696   0.515  16.628 -0.1959 -0.7140 -0.2313
    3TMC3    C314010   1.711   0.643  16.682  1.3590  0.3172 -0.4489
    3TMC3    C414011   1.932   0.522  16.571  0.2317  0.4884 -0.0286
    3TMC3    C514012   1.937   0.646  16.621  0.9075  1.1233  0.7902
    3TMC3    C614013   1.840   0.705  16.692  0.2863 -0.2846 -0.4250
    3TMC3     C14014   1.799   0.324  16.532  0.5027 -0.6303 -0.0021
    3TMC3     O14015   1.715   0.257  16.588  0.1024 -0.2416  0.5789
    3TMC3     H14016   1.600   0.465  16.620 -1.0882  1.2125 -1.4500
    3TMC3    H114017   2.011   0.463  16.526 -1.4317 -1.2037 -0.7237
    3TMC3    H214018   1.852   0.793  16.753 -0.7475 -0.1704 -0.3837
    3TMC3    C714019   2.062   0.719  16.619  0.4065  0.2256 -0.2862
    3TMC3    C814020   1.611   0.718  16.748  0.3588 -0.2726 -0.8037
    3TMC3    O114021   2.158   0.660  16.576 -0.0516 -0.2438  0.1548
    3TMC3    O214022   1.639   0.836  16.755  0.5652  0.1078  0.1889
    4MPD1     C14023   1.155   0.842  16.900  0.2975  0.4772 -0.0327
    4MPD1    C114024   1.134   0.728  16.827  0.1352  0.3478 -0.3356
    4MPD1    C214025   1.249   0.665  16.792  0.0985  0.1226  0.2028
    4MPD1    C314026   1.376   0.727  16.813  0.2125  0.2380  0.6741
    4MPD1    C414027   1.383   0.847  16.872 -0.4195  1.0847  0.0497
    4MPD1    C514028   1.270   0.908  16.907  0.1112 -0.5870  0.6787
    4MPD1     H14029   1.252   0.570  16.739 -1.5284  0.0861  0.1612
    4MPD1    H114030   1.476   0.894  16.901  0.1995  0.4264 -0.8499
    4MPD1    H214031   1.066   0.896  16.932 -0.7571 -2.0854  1.3363
    4MPD1    H314032   1.279   1.004  16.957  0.7643 -0.0382 -0.4797
    4MPD1     N14033   1.493   0.657  16.774  0.0279 -0.0835 -0.2507
    4MPD1    H514034   1.481   0.559  16.752 -0.7235 -0.3215  1.2574
    4MPD1    N114035   1.015   0.660  16.806 -0.0878 -0.2397 -0.5329
    4MPD1    H614036   1.014   0.598  16.725  0.1157  2.0216 -2.3010
    4MPD1    H714037   0.934   0.721  16.809 -0.3262 -0.6927  1.7706
    1TCq1    O114038   2.469   3.393  12.871 -1.1857  0.0551  0.5836
    1TCq1    C114039   2.490   3.519  12.909 -0.0343 -0.4956 -0.4980
    1TCq1    O214040   2.414   3.586  12.981  0.0886 -0.3688  0.0588
    1TCq1    C214041   2.566   3.579  12.799 -0.7223 -0.1390  0.5051
    1TCq1    C314042   2.657   3.497  12.732  0.7069 -0.1148 -0.4674
    1TCq1    C414043   2.727   3.549  12.624 -0.1805 -0.1447  1.3360
    1TCq1    C514044   2.697   3.680  12.587  0.4283  0.6013 -0.5696
    1TCq1    C614045   2.601   3.760  12.643 -0.4058  0.2499 -0.1096
    1TCq1    C714046   2.543   3.707  12.761  0.2090 -1.6500  0.8376
    1TCq1    C814047   2.543   3.870  12.563 -0.5993  0.1804 -0.3214
    1TCq1    O414048   2.454   3.930  12.624  0.3154 -0.6218  0.6127
    1TCq1    C914049   2.855   3.503  12.595  0.5196  0.2335  0.0922
    1TCq1    O514050   2.898   3.425  12.684  0.2915 -0.0644 -0.0051
    1TCq1    O614051   2.915   3.530  12.489 -0.7107 -0.0048 -0.6086
    1TCq1    H114052   2.518   3.352  12.797  1.6836  0.3769  2.3253
    1TCq1    H214053   2.707   3.414  12.781  1.6400  0.0104 -1.1892
    1TCq1    H314054   2.758   3.712  12.504 -0.7979 -0.0265 -1.7364
    1TCq1    H414055   2.463   3.766  12.805  0.0273 -2.3413  1.4382
    2MPD1     C14056   2.515   4.152  12.142  0.1929 -0.6353  0.0099
    2MPD1    C114057   2.596   4.045  12.118  0.4361  0.1349 -0.3457
    2MPD1    C214058   2.631   3.965  12.221 -0.4539 -0.3668  0.3016
    2MPD1    C314059   2.560   3.972  12.340 -0.2387 -0.0435 -0.0229
    2MPD1    C414060   2.470   4.073  12.362  0.4344 -0.0631 -0.2353
    2MPD1    C514061   2.442   4.163  12.259  0.1247 -0.2011 -0.1753
    2MPD1     H14062   2.702   3.886  12.204  0.4882  1.2140 -3.1176
    2MPD1    H114063   2.408   4.090  12.450 -1.4954  0.7207 -1.7468
    2MPD1    H214064   2.488   4.224  12.065  1.1587 -1.1935 -0.8578
    2MPD1    H314065   2.366   4.239  12.270 -1.5668 -1.7353 -1.4213
    2MPD1     N14066   2.595   3.875  12.438  0.2712  0.3465 -0.4389
    2MPD1    H514067   2.671   3.812  12.412 -0.8528  0.0829 -3.0510
    2MPD1    N114068   2.666   4.051  11.994 -0.0901 -0.2091 -0.2948
    2MPD1    H614069   2.608   4.094  11.922 -1.2220 -2.1904 -0.5527
    2MPD1    H714070   2.690   3.957  11.965 -1.9015 -0.5180 -0.8068
    1TCq1    O114071   3.439   0.095   9.590  0.3511 -0.0496 -0.1445
    1TCq1    C114072   3.421   4.691   9.614 -0.3855  0.3245 -0.1748
    1TCq1    O214073   3.334   4.643   9.678 -0.3469 -0.0188  0.0110
    1TCq1    C214074   3.516   4.607   9.546 -0.8776 -0.3480  0.5592
    1TCq1    C314075   3.479   4.478   9.520 -0.4327  0.3007  0.6368
    1TCq1    C414076   3.588   4.389   9.517 -0.2075 -0.3803 -0.5092
    1TCq1    C514077   3.715   4.428   9.490 -0.3528  0.1477 -0.1487
    1TCq1    C614078   3.739   4.565   9.499 -0.5210  0.2366 -0.4623
    1TCq1    C714079   3.641   4.655   9.527 -0.0851  0.0410  0.0138
    1TCq1    C814080   3.879   4.612   9.518 -0.5885 -0.3543 -0.1019
    1TCq1    O414081   3.906   0.009   9.492 -0.1172 -0.8223  0.3353
    1TCq1    C914082   3.549   4.251   9.473 -0.0767  0.0020  0.1623
    1TCq1    O514083   3.427   4.228   9.455 -0.8371 -0.0049 -0.0238
    1TCq1    O614084   3.636   4.160   9.482  0.0376  0.5141 -0.6150
    1TCq1    H114085   3.505   0.106   9.518 -0.9546 -1.7544 -1.6050
    1TCq1    H214086   3.379   4.445   9.544 -1.1774  0.2034 -2.6914
    1TCq1    H314087   3.786   4.355   9.452 -0.4252  0.3445 -0.6644
    1TCq1    H414088   3.667   0.036   9.552 -1.4243  0.5365 -0.6419
    2MPD1     C14089   4.376   4.461   9.576 -0.0502  0.0034  0.8932
    2MPD1    C114090   4.288   4.371   9.630  0.1599 -0.2532  0.4053
    2MPD1    C214091   4.153   4.389   9.616  0.6108 -0.0537  0.7482
    2MPD1    C314092   4.096   4.500   9.557 -1.0723 -0.7803  0.0148
    2MPD1    C414093   4.179   4.597   9.510 -0.6892  0.3375  0.1697
    2MPD1    C514094   4.319   4.574   9.513  1.1605  0.0959 -0.1368
    2MPD1     H14095   4.087   4.312   9.654  1.8508 -2.0663 -1.1688
    2MPD1    H114096   4.142   4.687   9.462  0.3121 -0.2575 -1.6852
    2MPD1    H214097   4.482   4.436   9.573 -0.5489 -1.4964 -3.6518
    2MPD1    H314098   4.394   4.637   9.467 -0.2828  1.3721 -0.7272
    2MPD1     N14099   3.951   4.504   9.555 -1.0006  0.4057  0.1800
    2MPD1    H514100   3.900   4.423   9.589 -2.3512  2.6488  3.4897
    2MPD1    N114101   4.332   4.241   9.663 -0.2747 -0.0565 -0.1596
    2MPD1    H614102   4.431   4.240   9.688  0.1455 -1.2469 -1.8510
    2MPD1    H714103   4.280   4.189   9.732  1.9456 -0.6882  1.0324
    1MPD1     C14104   4.464   3.534  12.045 -0.2349 -0.8653  0.0585
    1MPD1    C114105   4.453   3.641  12.134  0.3637  0.6551 -0.3893
    1MPD1    C214106   4.485   3.764  12.078  0.5376 -0.2836  0.6820
    1MPD1    C314107   4.519   3.777  11.948  0.6231 -0.1430 -0.1577
    1MPD1    C414108   4.525   3.667  11.865  0.0569 -0.2912 -0.0529
    1MPD1    C514109   4.502   3.545  11.916 -0.2064 -0.3399 -0.0749
    1MPD1     H14110   4.464   3.857  12.130  0.9426  0.7721 -1.0546
    1MPD1    H114111   4.567   3.675  11.766  1.8873 -0.1414  0.7413
    1MPD1    H214112   4.425   3.438  12.076 -0.1540 -0.8771  0.1246
    1MPD1    H314113   4.504   3.451  11.863 -3.3134 -0.3396 -0.2354
    1MPD1     N14114   4.546   3.912  11.908 -0.5788 -0.1379  0.1951
    1MPD1    H514115   4.543   3.985  11.978 -2.5113 -0.2913  0.2719
    1MPD1    N114116   4.382   3.634  12.252 -0.4014  0.7167 -0.0847
    1MPD1    H614117   4.429   3.686  12.326  3.2652 -1.6811 -0.7623
    1MPD1    H714118   4.389   3.542  12.294  0.1346  0.4712 -0.7180
    2MPD1     C14119   3.360   0.151  11.711 -0.6805 -0.2409  0.0506
    2MPD1    C114120   3.456   0.241  11.677 -0.5519  0.7008 -0.2590
    2MPD1    C214121   3.526   0.225  11.564 -1.0265  1.0421  0.1768
    2MPD1    C314122   3.528   0.108  11.491  0.3208 -0.3522  0.4533
    2MPD1    C414123   3.447   0.004  11.540 -0.2213 -0.5171  0.5227
    2MPD1    C514124   3.360   0.033  11.640 -0.4309  0.1727  0.4041
    2MPD1     H14125   3.582   0.307  11.521 -0.9446  1.1218  0.4401
    2MPD1    H114126   3.446   4.628  11.490 -1.3094 -0.1381 -0.1999
    2MPD1    H214127   3.286   0.175  11.786  0.9957 -1.7886  2.1769
    2MPD1    H314128   3.285   4.683  11.675 -0.2795 -1.4559 -2.5976
    2MPD1     N14129   3.594   0.090  11.367  0.0837 -0.1758  0.4165
    2MPD1    H514130   3.584   4.718  11.327  0.2281  0.3104 -0.7329
    2MPD1    N114131   3.449   0.369  11.733  0.0895  0.0057 -0.1923
    2MPD1    H614132   3.411   0.367  11.827  0.2855 -0.3706 -0.1218
    2MPD1    H714133   3.538   0.418  11.742 -0.8359  1.9572 -1.7107
    3MPD1     C14134   3.543   4.099  11.021 -0.3298  0.2144  0.2682
    3MPD1    C114135   3.563   4.129  11.153  0.3162  0.0843  0.7317
    3MPD1    C214136   3.617   4.257  11.178  0.1068  0.7687  0.2842
    3MPD1    C314137   3.662   4.338  11.074 -0.2770  0.3976  0.0914
    3MPD1    C414138   3.639   4.298  10.946  0.6894  0.4095 -0.1744
    3MPD1    C514139   3.575   4.184  10.922 -0.6187 -0.4184 -0.0694
    3MPD1     H14140   3.626   4.297  11.278  2.4925 -4.4927  2.1324
    3MPD1    H114141   3.673   4.351  10.857 -2.2188  2.1817 -0.2166
    3MPD1    H214142   3.498   4.006  10.989  0.5864 -0.8938  2.2215
    3MPD1    H314143   3.575   4.144  10.821 -0.6770  0.0508 -0.2515
    3MPD1     N14144   3.711   4.463  11.100  0.4353 -0.7325  0.0057
    3MPD1    H514145   3.695   4.487  11.197 -1.6195  1.8661 -0.9975
    3MPD1    N114146   3.518   4.046  11.253  0.4323 -0.0124  0.6392
    3MPD1    H614147   3.430   3.998  11.230 -0.3235  0.8285  1.7951
    3MPD1    H714148   3.519   4.091  11.344 -0.6514 -0.6337  0.9710
    4MPD2     C14149   4.675   4.640  11.931  0.2541  0.2425 -0.1523
    4MPD2    C114150   0.048   4.574  11.856  0.0052 -0.4755 -0.3788
    4MPD2    C214151   0.105   4.640  11.744  0.1483 -0.2183 -0.3277
    4MPD2    C314152   0.079   0.058  11.733  0.4881 -0.0344 -0.4555
    4MPD2    C414153   0.007   0.121  11.829 -0.1090 -0.3494 -0.7007
    4MPD2    C514154   4.656   0.053  11.921 -0.1886 -0.1619  0.1713
    4MPD2     H14155   0.163   4.597  11.663 -0.6300  1.2288 -1.6796
    4MPD2    H114156   4.697   0.225  11.826  0.0303 -0.2446  1.4687
    4MPD2    H214157   4.621   4.589  12.009  0.6415  2.7631  1.7513
    4MPD2    H314158   4.602   0.106  11.999  0.6845  0.7741  0.1450
    4MPD2     N14159   0.126   0.119  11.616  0.1083  0.1198 -0.4246
    4MPD2    H514160   0.177   0.059  11.552  0.2238 -0.5205  0.2633
    4MPD2    N114161   0.068   4.437  11.878 -0.3425 -0.4356  0.3435
    4MPD2    H714162   0.114   4.385  11.804  0.1815 -1.1598  1.1771
    5TMC3    C114163   0.050   4.218  11.925  0.3789  0.0054  0.1367
    5TMC3    C214164   4.662   4.146  11.895  0.1110 -0.4744  0.0026
    5TMC3    C314165   4.666   4.072  11.778 -0.0687 -0.1508 -0.0632
    5TMC3    C414166   0.163   4.200  11.850 -0.0363  0.3230  0.0673
    5TMC3    C514167   0.166   4.137  11.734  0.5331 -0.1866  0.6562
    5TMC3    C614168   0.055   4.070  11.701  0.7793 -0.2690  0.3375
    5TMC3     C14169   0.019   4.350  11.969  0.1857  0.4386  0.0271
    5TMC3     O14170   4.662   4.375  12.060 -0.1044  0.3326 -0.1577
    5TMC3     H14171   4.578   4.151  11.963 -1.2681 -0.0849 -1.7317
    5TMC3    H114172   0.243   4.270  11.874  0.1150  0.1021  0.2094
    5TMC3    H214173   0.057   3.995  11.622  2.1749  0.2814 -0.1540
    5TMC3    C714174   0.219   4.224  11.626  0.5108 -0.4224  0.1213
    5TMC3    C814175   4.585   3.952  11.773 -0.0256  0.4470  0.4388
    5TMC3    O114176   0.237   4.338  11.656 -0.0557 -0.1108 -0.3655
    5TMC3    O214177   4.578   3.882  11.677  0.0168  0.7246 -0.0413
    6TMC3    C114178   3.732   0.144  11.173 -0.1111  0.2466 -0.9146
    6TMC3    C214179   3.705   0.010  11.140  0.1062 -0.1933 -0.1690
    6TMC3    C314180   3.799   4.679  11.058 -0.4975 -0.0546 -0.0107
    6TMC3    C414181   3.853   0.202  11.159  1.3629  0.6839  0.3645
    6TMC3    C514182   3.937   0.150  11.064 -0.0276 -0.0325 -0.2171
    6TMC3    C614183   3.910   0.027  11.012  0.1052  0.2620 -0.1655
    6TMC3     C14184   3.668   0.193  11.297 -0.0533  0.0298 -0.5741
    6TMC3     O14185   3.681   0.312  11.324 -0.5544 -1.0601 -0.3087
    6TMC3     H14186   3.614   4.676  11.164  1.6400 -1.5135  2.6317
    6TMC3    H114187   3.866   0.307  11.183 -2.9725  1.1571  0.6501
    6TMC3    H214188   3.985   4.691  10.957 -2.7352 -2.7008 -0.9410
    6TMC3    C714189   4.080   0.197  11.051  1.0271 -0.0706 -0.5299
    6TMC3    C814190   3.781   4.545  11.016  0.6204 -0.2826  0.6861
    6TMC3    O114191   4.140   0.270  11.133 -1.0542 -0.2423  0.3740
    6TMC3    O214192   3.835   4.513  10.909  0.2406 -0.5866  0.1162
    7MPD2     C14193   0.135   4.374  11.140 -1.0144 -0.0287 -0.2858
    7MPD2    C114194   0.190   4.441  11.246 -0.2188 -0.6029 -0.2419
    7MPD2    C214195   0.202   4.377  11.369 -0.6937 -0.3288 -0.1599
    7MPD2    C314196   0.161   4.246  11.386  0.8366 -0.1512 -0.6625
    7MPD2    C414197   0.105   4.180  11.279 -0.2707 -0.5700  0.7077
    7MPD2    C514198   0.087   4.248  11.160  0.4178  0.4280 -0.1259
    7MPD2     H14199   0.240   4.427  11.458 -1.7078  1.3915 -0.6929
    7MPD2    H114200   0.058   4.084  11.300 -0.8646 -0.6247 -0.8610
    7MPD2    H214201   0.112   4.420  11.044 -1.2759  0.8542  0.2118
    7MPD2    H314202   0.035   4.188  11.085  2.2410 -1.2884 -0.0140
    7MPD2     N14203   0.169   4.178  11.504 -0.5822 -0.4784 -0.0369
    7MPD2    H514204   0.146   4.081  11.486  1.4211 -0.3872 -3.0294
    7MPD2    N114205   0.206   4.580  11.226  0.1745  0.0799 -0.3146
    7MPD2    H714206   0.199   4.610  11.129  1.2700 -2.0365 -1.0531
    8TMC3    C114207   0.221   0.096  11.289 -0.6549 -0.1983  0.1273
    8TMC3    C214208   0.119   0.120  11.200 -0.5689 -0.5522 -0.7309
    8TMC3    C314209   0.028   0.217  11.228 -0.1613  0.3637 -0.6368
    8TMC3    C414210   0.239   0.169  11.400  0.2487 -0.1794 -0.3794
    8TMC3    C514211   0.139   0.259  11.434 -0.3994  0.2113  0.2407
    8TMC3    C614212   0.031   0.283  11.346  0.1312  1.2474  0.3112
    8TMC3     C14213   0.239   4.674  11.328  0.6910 -0.5437  0.0004
    8TMC3     O14214   0.261   4.659  11.447 -0.2378  0.0922 -0.1532
    8TMC3     H14215   0.108   0.046  11.121 -1.5744 -0.5602 -0.5732
    8TMC3    H114216   0.321   0.157  11.469 -0.2859 -3.3139 -0.3081
    8TMC3    H214217   4.670   0.347  11.379 -0.3635  1.0915 -0.6136
    8TMC3    C714218   0.087   0.243  11.568 -0.1172 -0.1926 -0.3548
    8TMC3    C814219   4.617   0.211  11.155 -0.2610  0.1004  0.3188
    8TMC3    O114220   0.001   0.324  11.601 -0.7584  0.1917 -0.1469
    8TMC3    O214221   4.519   0.251  11.216 -0.0188  0.7384 -0.3490
    9MPD2     C14222   4.539   0.131  10.804  0.3015  0.5340  0.5064
    9MPD2    C114223   4.514   0.166  10.938  0.1656 -0.6479 -0.6259
    9MPD2    C214224   4.381   0.191  10.976  0.1534  0.5515  0.0189
    9MPD2    C314225   4.274   0.178  10.884  0.1946  0.7062  0.0240
    9MPD2    C414226   4.304   0.148  10.758 -0.0885 -0.5444 -0.4322
    9MPD2    C514227   4.430   0.120  10.721  0.2354 -0.9784 -0.3579
    9MPD2     H14228   4.359   0.200  11.082  0.1453 -0.9299  0.1444
    9MPD2    H114229   4.234   0.135  10.676  1.1101 -0.1383 -1.4971
    9MPD2    H214230   4.640   0.119  10.767  0.0405 -0.4018  0.1133
    9MPD2    H314231   4.449   0.104  10.615  0.8238 -1.9075 -0.1053
    9MPD2     N14232   4.135   0.175  10.926  0.1707  0.7125  0.2019
    9MPD2    H514233   4.066   0.152  10.854  2.7756  1.4154 -2.5190
    9MPD2    N114234   4.625   0.171  11.027  0.3363 -0.2692 -0.3989
    9MPD2    H714235   4.716   0.141  10.994  0.4337 -1.7949  1.2769
    1MPD1     C14236   4.078   3.803  16.628 -0.0690  0.7808 -0.0998
    1MPD1    C114237   3.993   3.709  16.684  0.1456  0.2714 -0.2009
    1MPD1    C214238   3.859   3.713  16.636  0.0984 -0.2516  0.3728
    1MPD1    C314239   3.800   3.817  16.562 -0.1920 -0.2117 -0.1804
    1MPD1    C414240   3.886   3.924  16.528  0.0132  0.1080 -0.2480
    1MPD1    C514241   4.022   3.912  16.557 -0.1897  0.1459 -0.6918
    1MPD1     H14242   3.789   3.640  16.673 -0.6564 -0.0451 -0.6587
    1MPD1    H114243   3.854   4.015  16.479 -0.6731 -0.1208 -0.2325
    1MPD1    H214244   4.185   3.797  16.646 -0.1028 -1.8958 -0.8671
    1MPD1    H314245   4.098   3.986  16.534 -0.8684  1.0978  0.1665
    1MPD1     N14246   3.661   3.827  16.539 -0.4088 -0.0875 -0.1799
    1MPD1    H514247   3.632   3.898  16.473 -0.1465 -0.0715 -0.2799
    1MPD1    N114248   4.043   3.604  16.764 -0.4151  0.5928  0.3150
    1MPD1    H614249   3.972   3.590  16.836 -0.2442  0.8165  0.5286
    1MPD1    H714250   4.119   3.624  16.828 -1.6316  4.9890  0.3750
    2MPD1     C14251   2.961   4.244  15.984 -0.0087 -0.4772  0.3685
    2MPD1    C114252   3.073   4.288  16.054  0.1082 -0.2958 -0.9464
    2MPD1    C214253   3.131   4.195  16.137  0.4654  0.6390 -0.2923
    2MPD1    C314254   3.102   4.061  16.127 -0.1776 -0.6435  0.4202
    2MPD1    C414255   3.008   4.015  16.040 -0.5340  0.3541 -0.3594
    2MPD1    C514256   2.936   4.111  15.971 -0.0950 -0.6720  0.2175
    2MPD1     H14257   3.211   4.222  16.206 -1.2080  1.6199  1.2654
    2MPD1    H114258   2.980   3.910  16.039  1.5358 -0.1989  0.4735
    2MPD1    H214259   2.906   4.316  15.926  2.8866  1.2816 -0.2097
    2MPD1    H314260   2.854   4.079  15.907 -0.2731  0.3832 -0.0838
    2MPD1     N14261   3.158   3.959  16.199 -0.0881 -0.4858  0.5568
    2MPD1    H514262   3.137   3.860  16.188  0.4108 -0.4048 -1.0044
    2MPD1    N114263   3.091   4.426  16.079  0.3605 -0.8935  0.5594
    2MPD1    H614264   3.179   4.443  16.126  1.0645 -0.5671 -0.8798
    2MPD1    H714265   3.080   4.491  16.001  0.8703 -0.6446  0.6975
    3TCq2    C114266   3.271   3.980  16.277 -0.3068 -0.4094  0.0023
    3TCq2    O214267   3.350   4.070  16.293 -0.0975 -0.1373 -0.0717
    3TCq2    C214268   3.294   3.862  16.355  0.1943  0.4019  0.1529
    3TCq2    C314269   3.188   3.808  16.416 -0.0026 -0.3934 -0.9864
    3TCq2    C414270   3.210   3.720  16.524 -0.3251 -0.2854  0.6719
    3TCq2    C514271   3.333   3.698  16.577  0.0938 -0.2009  0.3811
    3TCq2    C614272   3.437   3.772  16.523  0.1807  0.2213  0.4130
    3TCq2    C714273   3.417   3.847  16.403 -0.8678 -0.3774  0.2515
    3TCq2    C814274   3.563   3.746  16.592  0.6471  0.1854 -0.2621
    3TCq2    O414275   3.570   3.683  16.697 -0.5974  0.4584  0.5824
    3TCq2    C914276   3.105   3.641  16.582  0.0298  0.1492  0.0967
    3TCq2    O514277   2.987   3.658  16.533  0.2106 -0.1344  0.5252
    3TCq2    O614278   3.128   3.542  16.652 -0.2266 -0.1376  0.0717
    3TCq2    H214279   3.083   3.827  16.394 -0.1661  0.3989  0.4893
    3TCq2    H314280   3.340   3.639  16.668 -1.4983  0.1522  0.7242
    3TCq2    H414281   3.502   3.882  16.347 -1.6647 -0.6287 -1.1088
    1TCq1    O114282   1.236   1.680  12.905  0.0000 -0.5972 -0.1936
    1TCq1    C114283   1.261   1.813  12.919  0.5981  0.7420 -0.1283
    1TCq1    O214284   1.178   1.900  12.911  0.0841  0.5360 -0.1018
    1TCq1    C214285   1.399   1.846  12.869 -0.0440  1.0547  0.4344
    1TCq1    C314286   1.482   1.757  12.813  0.7262 -0.4091  0.0631
    1TCq1    C414287   1.617   1.796  12.797  0.1136  0.4002  0.0958
    1TCq1    C514288   1.660   1.915  12.846 -0.4092 -0.0093  0.0920
    1TCq1    C614289   1.565   2.004  12.889 -0.9419  0.6566 -0.1593
    1TCq1    C714290   1.432   1.975  12.905  0.3291 -0.2210  0.2248
    1TCq1    C814291   1.584   2.151  12.882 -0.3827 -0.5211 -0.5364
    1TCq1    O414292   1.497   2.216  12.834  0.4608 -0.9925 -0.0230
    1TCq1    C914293   1.715   1.707  12.749 -0.5969 -0.5763  0.0183
    1TCq1    O514294   1.675   1.611  12.687  1.1285 -0.3749 -0.4023
    1TCq1    O614295   1.832   1.742  12.767 -0.4003  0.2376 -0.3694
    1TCq1    H114296   1.317   1.625  12.899  0.4124 -0.1018  0.8952
    1TCq1    H214297   1.453   1.661  12.772  0.0570  0.1017 -0.6664
    1TCq1    H314298   1.766   1.933  12.831 -0.6429  1.0887 -0.1910
    1TCq1    H414299   1.359   2.048  12.936 -1.7089 -2.5571  0.8727
    2MPD2     C14300   1.689   2.436  12.890 -0.5930 -0.1855 -0.5744
    2MPD2    C114301   1.756   2.324  12.945 -0.3223 -0.5931  0.1530
    2MPD2    C214302   1.884   2.342  12.999 -0.2023 -0.4909 -0.2152
    2MPD2    C314303   1.944   2.462  13.011 -0.0235 -0.3615 -0.2956
    2MPD2    C414304   1.877   2.568  12.955 -0.1257 -0.0665 -0.2924
    2MPD2    C514305   1.757   2.555  12.894  0.9608 -0.4584 -0.3386
    2MPD2     H14306   1.936   2.256  13.040 -0.9120  0.3946  2.5146
    2MPD2    H114307   1.924   2.665  12.946  0.4778 -0.2875  0.5366
    2MPD2    H214308   1.592   2.423  12.842 -2.2960  1.6545  2.3584
    2MPD2    H314309   1.722   2.645  12.845  1.1039 -0.9373 -1.3242
    2MPD2     N14310   2.075   2.472  13.064  0.1954 -0.4299 -0.2644
    2MPD2    H514311   2.113   2.387  13.106 -0.6008 -0.8566 -0.4081
    2MPD2    N114312   1.702   2.187  12.933  0.1752 -0.4610  0.3393
    2MPD2    H714313   1.768   2.120  12.971  0.7091 -0.1496 -0.0523
    3TCq1    O114314   2.554   2.285  13.032 -0.9200 -0.0978 -0.0425
    3TCq1    C114315   2.516   2.289  13.162  0.0444 -0.3544  0.2213
    3TCq1    O214316   2.569   2.224  13.248 -0.0959 -0.0147 -0.2107
    3TCq1    C214317   2.440   2.413  13.187 -0.9526  0.3337  0.0106
    3TCq1    C314318   2.462   2.481  13.301 -0.8149 -0.1930 -0.1713
    3TCq1    C414319   2.400   2.598  13.329 -0.0406 -0.7240  0.5092
    3TCq1    C514320   2.292   2.643  13.257 -0.6992 -0.3995  0.0431
    3TCq1    C614321   2.264   2.566  13.150  0.1071  0.6157  0.3149
    3TCq1    C714322   2.342   2.468  13.109 -0.7023 -0.0749 -0.3236
    3TCq1    C814323   2.140   2.591  13.077 -0.0353 -0.1034 -0.4251
    3TCq1    O414324   2.093   2.703  13.097 -0.0160 -0.3494  0.0221
    3TCq1    C914325   2.400   2.641  13.466  0.3289  0.9602  0.1438
    3TCq1    O514326   2.344   2.753  13.488  0.2369 -0.1650  0.4489
    3TCq1    O614327   2.444   2.562  13.557 -0.0472 -0.3979 -0.7188
    3TCq1    H114328   2.522   2.372  13.000  0.7973  0.7493  0.5551
    3TCq1    H214329   2.518   2.427  13.377  2.6416  1.2129 -1.7277
    3TCq1    H314330   2.228   2.723  13.293  0.2614  1.2249 -1.7975
    3TCq1    H414331   2.320   2.409  13.021  1.1884  0.7451 -1.3266
    1MPD2     C14332   1.796   3.993  14.696  0.3185  0.0976 -0.0581
    1MPD2    C114333   1.725   3.894  14.757 -0.2842 -0.1157  0.1922
    1MPD2    C214334   1.777   3.774  14.791 -0.3547  0.1162 -0.4336
    1MPD2    C314335   1.903   3.747  14.780 -1.4656  0.0193  0.0326
    1MPD2    C414336   1.982   3.845  14.725 -0.3967  0.4602  0.1093
    1MPD2    C514337   1.924   3.955  14.677  0.9312  0.8358  0.0208
    1MPD2     H14338   1.717   3.701  14.844 -1.0813  0.6123 -0.5750
    1MPD2    H114339   2.086   3.819  14.705 -0.6474  0.2417 -0.8837
    1MPD2    H214340   1.754   4.092  14.680 -0.9928 -0.3144  0.8372
    1MPD2    H314341   1.986   4.022  14.619 -1.2053  2.6619 -0.1716
    1MPD2     N14342   1.945   3.622  14.821 -0.1043  0.0075 -0.7355
    1MPD2    H514343   1.874   3.556  14.851 -0.4015  0.5980 -0.1482
    1MPD2    N114344   1.590   3.928  14.798  0.2270  0.1548  0.7229
    1MPD2    H714345   1.566   4.022  14.768  0.8605  0.3202  0.7275
    2TMC3    C114346   1.377   3.904  14.902  0.1555  0.4137 -0.8414
    2TMC3    C214347   1.304   3.846  14.996  0.6298  0.0743 -0.4254
    2TMC3    C314348   1.176   3.804  14.970  0.0824  0.3097  0.3085
    2TMC3    C414349   1.311   3.952  14.792 -0.0007 -0.0321  0.4411
    2TMC3    C514350   1.175   3.930  14.781  0.0099 -0.1624  0.4445
    2TMC3    C614351   1.103   3.859  14.874 -0.1958  0.0837 -0.4235
    2TMC3     C14352   1.513   3.859  14.897  0.0192 -0.2642  0.3386
    2TMC3     O14353   1.548   3.769  14.971 -0.0309 -0.0145 -0.2469
    2TMC3     H14354   1.348   3.828  15.093  3.7355  0.5944 -1.7527
    2TMC3    H114355   1.367   3.951  14.699  1.5066 -1.5069  1.3704
    2TMC3    H214356   0.998   3.834  14.864 -0.8548  1.6032  2.8801
    2TMC3    C714357   1.092   4.043  14.724  0.0444 -0.3269 -0.3870
    2TMC3    C814358   1.175   3.654  14.976 -0.2451  0.0522 -0.1863
    2TMC3    O114359   0.970   4.023  14.720  0.5513  0.5286  0.1167
    2TMC3    O214360   1.067   3.596  14.959 -0.2711 -0.2978  0.6628
    3TCq1    O114361   1.613   0.463  14.492 -0.1897  0.0584 -0.5231
    3TCq1    C114362   1.503   0.409  14.431  0.3995  0.0939 -0.1424
    3TCq1    O214363   1.442   0.431  14.324  0.3197  0.3633 -0.0428
    3TCq1    C214364   1.469   0.299  14.518 -0.0096  0.2480  0.2623
    3TCq1    C314365   1.556   0.252  14.617  0.4373  0.8763 -0.5776
    3TCq1    C414366   1.538   0.140  14.693 -0.4149  0.6190 -0.1933
    3TCq1    C514367   1.442   0.057  14.648 -0.4604 -0.1078  0.6550
    3TCq1    C614368   1.351   0.110  14.556 -0.2389 -0.7680 -0.1183
    3TCq1    C714369   1.357   0.229  14.491 -0.1973  0.3608  0.1181
    3TCq1    C814370   1.233   0.030  14.530 -0.0674  0.0804 -0.3832
    3TCq1    O414371   1.140   0.086  14.472 -0.0644  0.9919 -0.5992
    3TCq1    C914372   1.632   0.094  14.790 -0.0387  0.2570 -0.2202
    3TCq1    O514373   1.596   4.719  14.872  0.0315 -0.0476  0.3419
    3TCq1    O614374   1.752   0.149  14.788 -0.2719 -0.3662 -0.0227
    3TCq1    H114375   1.608   0.449  14.589  2.5319 -0.8201 -0.5231
    3TCq1    H214376   1.650   0.301  14.639  0.3524  0.6967  0.1914
    3TCq1    H314377   1.432   4.680  14.693  1.9482 -1.6840 -2.2499
    3TCq1    H414378   1.279   0.260  14.421 -0.5751  0.2433  0.4858
    4MPD2     C14379   1.021   4.533  14.572  0.3205 -0.3260  0.2791
    4MPD2    C114380   1.159   4.516  14.591  0.2406  0.0292  0.0481
    4MPD2    C214381   1.198   4.391  14.631 -0.4086  0.0831  0.1280
    4MPD2    C314382   1.107   4.290  14.662  0.1217  0.4591 -0.5014
    4MPD2    C414383   0.977   4.310  14.650  0.0852  0.3103  0.4066
    4MPD2    C514384   0.935   4.431  14.610  0.0627  0.1604  0.2937
    4MPD2     H14385   1.301   4.371  14.656 -0.2106  2.8493  1.5818
    4MPD2    H114386   0.898   4.238  14.671  0.4600  0.6975  3.1657
    4MPD2    H214387   0.968   4.627  14.564  2.2688  0.7343 -0.1236
    4MPD2    H314388   0.829   4.450  14.605 -0.0882 -0.2383  2.0429
    4MPD2     N14389   1.159   4.158  14.703 -0.3494 -0.4241  0.1404
    4MPD2    H514390   1.259   4.150  14.719 -0.5163 -2.5292  0.1317
    4MPD2    N114391   1.252   4.621  14.570  0.7213 -0.0778 -0.1569
    4MPD2    H714392   1.350   4.599  14.583  0.4804 -2.7576 -2.8406
    5TMC2    C114393   1.890   3.314  14.938 -0.1622  0.6048 -0.0499
    5TMC2    C214394   1.925   3.301  15.072 -0.7268 -0.4431 -0.6116
    5TMC2    C314395   2.029   3.371  15.112 -0.6050  0.4127 -0.3706
    5TMC2    C414396   1.971   3.374  14.849 -0.2143 -1.0792  0.5649
    5TMC2    C514397   2.081   3.447  14.893  1.0004 -0.2463  0.2777
    5TMC2    C614398   2.106   3.437  15.024  0.1520 -0.0505 -0.1271
    5TMC2     C14399   1.753   3.347  14.912 -0.3590 -0.1136 -0.2794
    5TMC2     O14400   1.728   3.445  14.839  0.1523  0.2246 -0.1293
    5TMC2     H14401   1.852   3.262  15.142  0.0564 -1.3304 -0.2928
    5TMC2    H114402   1.948   3.392  14.745  1.6354 -1.5922  0.0674
    5TMC2    H214403   2.172   3.511  15.068 -1.7984  1.3384  0.4442
    5TMC2    C714404   2.078   3.584  14.849  0.6467  0.0822  0.5150
    5TMC2    C814405   2.051   3.397  15.257  0.2277  0.1736 -0.9305
    5TMC2    O114406   2.182   3.652  14.847 -0.1928 -0.1757  0.1641
    5TMC2    O214407   2.123   3.492  15.294 -0.3135 -0.4353 -0.5466
    5TMC2    O514408   2.007   3.302  15.344  0.4171 -0.5718  0.1713
    5TMC2    H514409   1.983   3.218  15.300  3.5412 -1.5604  0.3615
    6MPD2     C14410   1.273   3.386  15.083  0.1407  0.0060 -0.3127
    6MPD2    C114411   1.349   3.479  15.013 -0.4583 -0.2516 -0.5232
    6MPD2    C214412   1.479   3.446  14.978 -0.6337  0.3127 -0.7743
    6MPD2    C314413   1.533   3.316  15.014  0.3300 -0.1577 -0.6814
    6MPD2    C414414   1.457   3.223  15.078  0.1450  0.2571  0.1318
    6MPD2    C514415   1.328   3.267  15.115 -0.7320  0.8194  0.4887
    6MPD2     H14416   1.543   3.516  14.927 -1.1886  1.4212  0.0693
    6MPD2    H114417   1.500   3.130  15.111  2.2821  0.4907 -2.0161
    6MPD2    H214418   1.171   3.403  15.115  1.1483  1.4228  2.1118
    6MPD2    H314419   1.262   3.201  15.170 -1.0250 -0.3723 -1.3138
    6MPD2     N14420   1.666   3.276  14.990 -0.1321  0.2900 -0.1215
    6MPD2    H514421   1.689   3.181  15.017 -0.7273  0.0227 -0.5632
    6MPD2    N114422   1.303   3.607  14.980 -0.1045  0.5417 -0.7453
    6MPD2    H714423   1.382   3.667  14.960  1.6940 -2.4212 -2.5018
  945NH4     N114424   0.276   3.944   7.207 -0.3786  0.0072 -0.3468
  945NH4     H214425   0.293   4.041   7.239 -0.6318  0.4430 -1.5239
  945NH4     H314426   0.364   3.903   7.169  0.3176  1.0982  0.1069
  945NH4     H414427   0.205   3.953   7.131 -3.3862 -1.0404  2.3408
  945NH4     H514428   0.239   3.894   7.290  0.1765  0.8954  0.4238
  946SOD     NA14429   3.449   0.352   0.308  0.4740  0.2175  0.3449
  947SOD     NA14430   3.020   2.844  14.660 -0.1012 -0.5136 -0.4175
  948SOD     NA14431   3.535   0.862   2.102 -0.5548 -0.3242  0.0257
  949SOD     NA14432   1.420   4.697  15.008  0.7386  0.1492 -0.7001
  950SOD     NA14433   2.005   4.599   9.461  0.0378  0.8970 -0.0159
  951SOD     NA14434   1.869   3.092   2.021  0.0734 -0.0991  0.2102
  952SOD     NA14435   0.915   3.527   9.949 -0.0146  0.4495  0.4107
  953SOD     NA14436   2.427   2.794  11.607 -0.3564 -0.2826  0.3913
  954SOD     NA14437   3.929   1.735  12.540  0.0562 -0.1388 -1.1259
  955SOD     NA14438   3.565   1.038   5.070  0.4042  0.3257 -0.1566
  956SOD     NA14439   3.144   3.368  13.567  0.0576 -0.0232  0.9114
  957SOD     NA14440   3.200   3.656  12.764  0.1552 -0.1372 -0.2367
  958SOD     NA14441   3.346   3.980   3.899 -0.2565 -0.0092 -0.1353
  959SOD     NA14442   0.788   3.675  10.180  0.2247  0.1733 -0.0695
  960SOD     NA14443   3.240   0.765  13.118 -0.1420  0.0602 -0.5841
  961SOD     NA14444   4.279   3.929  12.696  0.3762  0.3108  0.1945
  962SOD     NA14445   0.274   2.993  10.190 -0.6136  0.1401  0.2218
  963SOD     NA14446   2.696   4.192   2.339  0.3490 -0.0183 -0.5067
  964SOD     NA14447   4.353   4.712  11.538 -0.0642  0.2372  0.0576
  965SOD     NA14448   1.948   4.510  10.077  0.3335  0.4415 -0.8798
  966SOD     NA14449   2.390   2.946  13.413  0.1216 -0.2086 -0.3804
  967SOD     NA14450   1.261   1.754  10.862  0.1162  0.3564 -0.2321
  968SOD     NA14451   0.687   1.816   6.492 -0.1553  0.3224  0.0718
  969SOD     NA14452   1.667   3.222  11.430  0.0301  0.3822 -0.4599
  970SOD     NA14453   3.909   1.149   2.681  0.1630 -0.3042  0.1106
  971SOD     NA14454   3.765   3.626  14.285  0.4591  0.5392  0.0343
  972SOD     NA14455   2.772   2.130  13.325 -0.2123 -0.3615  0.2929
  973SOD     NA14456   0.742   1.748  12.739  0.0011  0.2857 -0.1098
  974SOD     NA14457   2.286   2.251  10.762 -0.2380  0.0672 -0.0052
  975SOD     NA14458   1.416   0.722   9.148 -0.1563 -0.3295  0.2141
  976SOD     NA14459   2.158   1.865  12.628 -0.1430 -0.3284  0.4460
  977SOD     NA14460   0.691   0.493   9.315  0.3239  0.1192  0.0790
  978SOD     NA14461   2.575   2.703  12.003  0.1590  0.0978 -0.0460
  979SOD     NA14462   1.271   2.691  10.230  0.1256  0.2466 -0.1267
  980SOD     NA14463   2.929   3.636  16.328 -0.1595 -0.1817  0.5360
  981SOD     NA14464   1.216   1.834   9.570 -0.1370  0.1259  0.1249
  982SOD     NA14465   3.684   1.942   1.048  0.2502 -0.1949  0.0590
  983SOD     NA14466   3.012   0.913  16.488 -0.0943  0.2230  0.4563
  984SOD     NA14467   3.277   0.516   7.353  0.0415  0.3345  0.2781
  985SOD     NA14468   3.558   2.454  17.045  0.3676  0.1836  0.2963
  986SOD     NA14469   0.959   2.458  15.676  0.1267 -0.1062 -0.4100
  987SOD     NA14470   2.182   4.560  13.837 -0.2475 -0.0058 -0.4291
  988SOD     NA14471   2.167   0.146   7.422 -0.0389 -0.6914  0.5270
  989SOD     NA14472   0.638   3.901  10.010 -0.3118  0.0600  0.0784
  990SOD     NA14473   3.957   0.692  17.668 -0.2802 -0.7110 -0.0646
  991SOD     NA14474   2.067   1.276   3.033 -0.4932 -0.0495 -0.3777
  992SOD     NA14475   0.612   1.416  15.276  0.1872 -0.2160 -0.1761
  993SOD     NA14476   3.271   2.494  14.359 -0.3988 -0.2960  0.0719
  994SOD     NA14477   3.038   2.339  10.848  0.2033  0.1889  0.1965
  995SOD     NA14478   1.545   3.025   0.716  0.1322 -0.1844  0.2444
  996SOD     NA14479   0.792   2.726  12.225 -0.2929  0.2109  0.5011
  997SOD     NA14480   3.757   3.598  15.518 -0.0995 -0.3621 -0.1893
  998SOD     NA14481   1.311   1.473  11.015  0.1108 -0.4469 -0.0425
  999SOD     NA14482   1.885   3.391  12.330  0.0495 -0.2860 -0.2470
 1000SOD     NA14483   4.666   1.460   9.197  0.0550 -0.2943 -0.6861
 1001SOD     NA14484   0.284   1.508  12.993 -0.2384 -0.4245 -0.6300
 1002SOD     NA14485   1.236   4.310   0.594 -0.4676 -0.1848 -0.0003
 1003SOD     NA14486   2.589   2.831   0.332  0.0471  0.0933  0.2124
 1004SOD     NA14487   3.162   2.876  15.013 -0.4901  0.2574  0.1953
 1005SOD     NA14488   2.755   3.611  16.915 -0.2013  0.3543  0.4621
 1006SOD     NA14489   1.739   0.289  12.215 -0.7881 -0.0884 -0.8326
 1007SOD     NA14490   3.315   2.996  14.704  0.2220 -0.2787 -0.1941
 1008SOD     NA14491   3.618   1.672   1.170  0.2847  0.0227 -0.0262
 1009SOD     NA14492   3.839   3.574  11.046 -0.0857 -0.2989  0.3365
 1010SOD     NA14493   4.076   1.014  14.844  0.0087 -0.4656  0.2492
 1011SOL     OW14494   4.329   0.399   1.977  0.2725  0.0806 -0.1204
 1011SOL    HW114495   4.383   0.478   1.980 -0.2733  0.5393 -2.1201
 1011SOL    HW214496   4.243   0.438   1.986 -0.1862 -1.2452  1.2022
 1012SOL     OW14497   0.594   3.622   6.411  0.2008  0.2419  0.1837
 1012SOL    HW114498   0.538   3.548   6.387 -0.2801  0.4063  0.8064
 1012SOL    HW214499   0.557   3.664   6.489  0.9134  2.0349 -0.4306
 1013SOL     OW14500   4.131   3.662   8.912  0.5406 -0.1432  0.0855
 1013SOL    HW114501   4.097   3.635   8.827 -0.5860 -0.0230  0.4875
 1013SOL    HW214502   4.224   3.675   8.895  0.7049 -1.2484  0.1069
 1014SOL     OW14503   1.365   0.270   8.170 -0.7798  0.1840  0.1658
 1014SOL    HW114504   1.427   0.336   8.141 -0.8990 -1.1455 -3.0804
 1014SOL    HW214505   1.279   0.311   8.158  0.1872  1.6707 -1.5787
 1015SOL     OW14506   2.639   4.234  10.385  0.5658  0.3766  0.4496
 1015SOL    HW114507   2.606   4.153  10.425 -2.4464  0.7250 -1.4001
 1015SOL    HW214508   2.610   4.303  10.444 -1.0226 -0.1226  0.2449
 1016SOL     OW14509   4.612   2.234  12.688 -0.2598  0.4654  0.0680
 1016SOL    HW114510   4.705   2.256  12.685 -0.1085 -0.1288  0.4578
 1016SOL    HW214511   4.576   2.321  12.700  0.9418  1.1679 -1.3239
 1017SOL     OW14512   2.569   1.153  11.831 -0.1372  0.2554  0.2972
 1017SOL    HW114513   2.522   1.073  11.807 -1.8375  0.9146  1.4042
 1017SOL    HW214514   2.552   1.158  11.925 -1.7717 -1.4397  0.0845
 1018SOL     OW14515   0.305   0.933   8.911 -0.2722 -0.0669 -0.4331
 1018SOL    HW114516   0.317   1.017   8.954  1.7299 -0.8428  0.5136
 1018SOL    HW214517   0.286   0.964   8.822 -1.5181  2.2021  0.6232
 1019SOL     OW14518   4.058   0.961   8.464  0.0140 -0.1901 -0.8690
 1019SOL    HW114519   4.122   0.980   8.395  1.2046  1.4720  0.6926
 1019SOL    HW214520   4.017   1.047   8.472 -1.6759 -1.3039  2.3510
 1020SOL     OW14521   2.914   0.513   9.682  0.1733 -0.1084 -0.6009
 1020SOL    HW114522   2.822   0.488   9.686  0.2333 -0.4459 -1.2794
 1020SOL    HW214523   2.940   0.481   9.595  0.9143  0.4214 -0.5774
 1021SOL     OW14524   3.211   2.270   8.695  0.2643 -0.5973 -0.4684
 1021SOL    HW114525   3.152   2.321   8.751  0.6087  1.3756 -1.9009
 1021SOL    HW214526   3.212   2.193   8.751  1.8496 -1.6053 -1.8953
 1022SOL     OW14527   0.577   1.941   1.842  0.2169 -0.4593 -0.6477
 1022SOL    HW114528   0.653   1.923   1.787  0.7610 -0.4118  0.0833
 1022SOL    HW214529   0.597   1.882   1.915  2.1477 -0.3005 -1.0413
 1023SOL     OW14530   0.549   4.567  11.195  0.1275  0.2097 -0.4163
 1023SOL    HW114531   0.499   4.617  11.260  0.4909 -2.9951  2.2758
 1023SOL    HW214532   0.536   4.476  11.219  1.3835  0.2063  0.2485
 1024SOL     OW14533   0.239   4.445   7.129 -0.8091  0.0726  0.2473
 1024SOL    HW114534   0.164   4.505   7.130 -1.1916 -0.3950 -1.0774
 1024SOL    HW214535   0.219   4.410   7.042  0.0245 -0.9605  0.4633
 1025SOL     OW14536   2.645   4.381   3.179  0.2702  0.0612  0.1386
 1025SOL    HW114537   2.698   4.312   3.138 -1.6080 -1.3119  0.0542
 1025SOL    HW214538   2.641   4.440   3.104  2.1061 -0.2318 -0.1934
 1026SOL     OW14539   0.418   2.432   8.163  0.3224  0.8923  0.5983
 1026SOL    HW114540   0.378   2.509   8.204 -0.5727  0.0261  1.3540
 1026SOL    HW214541   0.355   2.408   8.095  1.6774 -0.3723 -0.2089
 1027SOL     OW14542   3.024   2.294   6.211 -0.3957  0.1888 -0.1191
 1027SOL    HW114543   2.979   2.367   6.254 -0.0313 -0.6642  1.7509
 1027SOL    HW214544   3.024   2.239   6.290 -0.2147  1.0276  0.4744
 1028SOL     OW14545   3.467   4.045   8.632  0.3748  0.3187  0.0476
 1028SOL    HW114546   3.428   3.987   8.698  0.7012 -0.7441 -0.6982
 1028SOL    HW214547   3.473   4.120   8.691  1.2949  2.0671 -2.2773
 1029SOL     OW14548   2.739   4.050   1.776 -0.2227 -0.4463 -0.6561
 1029SOL    HW114549   2.791   4.106   1.718 -1.2724  3.0085  1.7492
 1029SOL    HW214550   2.653   4.044   1.735 -1.1941 -1.7017  1.6082
 1030SOL     OW14551   0.713   0.796   7.152 -0.1644  0.0221  0.6356
 1030SOL    HW114552   0.697   0.787   7.246  1.6906  1.3118  1.0633
 1030SOL    HW214553   0.789   0.738   7.147 -2.2832 -2.5817 -1.2093
 1031SOL     OW14554   1.740   3.488   9.771  0.3205 -0.0013  0.3352
 1031SOL    HW114555   1.665   3.512   9.826  0.1781  0.3695 -0.0173
 1031SOL    HW214556   1.711   3.411   9.721 -0.7184  0.9470 -0.5355
 1032SOL     OW14557   3.659   1.223   3.654 -0.2030  0.7112 -0.0378
 1032SOL    HW114558   3.659   1.300   3.597 -0.0667  0.5499 -0.2578
 1032SOL    HW214559   3.746   1.235   3.692 -1.1910  0.1948  2.3551
 1033SOL     OW14560   1.742   3.554  12.733 -0.6300  0.1619  0.1455
 1033SOL    HW114561   1.795   3.521  12.805 -0.0982  0.6424 -0.0201
 1033SOL    HW214562   1.674   3.489  12.748 -1.6304  1.0684 -0.4510
 1034SOL     OW14563   1.784   2.344  14.830 -0.2237  0.1658 -0.0310
 1034SOL    HW114564   1.877   2.325  14.842 -0.2491 -0.3126 -0.5976
 1034SOL    HW214565   1.766   2.414  14.892 -2.0060  0.6886 -1.1267
 1035SOL     OW14566   0.268   0.106  12.518  0.9130  0.1024  1.1453
 1035SOL    HW114567   0.297   0.175  12.459 -1.5182 -0.7666 -1.0885
 1035SOL    HW214568   0.325   0.103  12.594  1.1862 -0.4785  0.9154
 1036SOL     OW14569   3.478   1.266   6.632 -0.4213 -0.0012 -0.4210
 1036SOL    HW114570   3.525   1.309   6.703 -1.5446 -0.5020  0.6282
 1036SOL    HW214571   3.551   1.204   6.623 -0.0253  0.1331  1.9070
 1037SOL     OW14572   3.511   0.198  14.208  0.3957  0.6416 -0.7723
 1037SOL    HW114573   3.463   0.228  14.131 -2.8702 -2.2495  0.1489
 1037SOL    HW214574   3.548   0.119  14.170  1.3901  0.4305  0.6264
 1038SOL     OW14575   0.612   0.330   6.998 -0.1924  0.4422 -0.1616
 1038SOL    HW114576   0.578   0.284   7.075 -0.7509 -0.6468 -1.0597
 1038SOL    HW214577   0.644   0.407   7.045  0.4613 -0.0696  0.2315
 1039SOL     OW14578   4.005   1.257   9.304  0.0001 -0.0533 -0.0666
 1039SOL    HW114579   3.962   1.173   9.320 -1.7084  1.0448  1.1713
 1039SOL    HW214580   3.997   1.306   9.386 -0.2021 -0.3896  0.1160
 1040SOL     OW14581   4.232   1.454   7.023  0.3914 -0.0712 -0.2001
 1040SOL    HW114582   4.290   1.489   7.091 -0.1365  0.9851 -0.2835
 1040SOL    HW214583   4.295   1.438   6.952 -1.2854  2.0913 -2.1867
 1041SOL     OW14584   3.950   1.198   5.304  0.1456  0.8935  0.1729
 1041SOL    HW114585   4.029   1.144   5.307 -0.2821  0.3112  0.9064
 1041SOL    HW214586   3.903   1.162   5.379 -0.5102 -0.0151 -0.6836
 1042SOL     OW14587   3.404   1.979   9.397 -0.0773  0.4018  0.4377
 1042SOL    HW114588   3.389   1.920   9.470 -0.3175  1.2545  1.0792
 1042SOL    HW214589   3.472   2.035   9.434 -0.6073  0.0090  2.0049
 1043SOL     OW14590   1.553   1.400  15.937 -0.1108 -0.1945  0.1117
 1043SOL    HW114591   1.485   1.409  16.004  1.6903 -0.2544  1.9519
 1043SOL    HW214592   1.502   1.354  15.870 -1.5101  0.5290  0.6843
 1044SOL     OW14593   0.334   1.813  13.398 -0.1003  0.3299  0.5861
 1044SOL    HW114594   0.317   1.900  13.362 -1.7200  0.2727  1.2118
 1044SOL    HW214595   0.309   1.827  13.489  0.9496 -3.9550  1.5287
 1045SOL     OW14596   3.070   4.668  14.713  0.1648  0.0062  0.2591
 1045SOL    HW114597   3.116   0.006  14.772 -0.6711  0.4037  0.5161
 1045SOL    HW214598   3.014   4.611  14.766  1.1705 -0.2730  1.0161
 1046SOL     OW14599   1.240   3.872   6.872  1.1746  0.1699  0.4472
 1046SOL    HW114600   1.301   3.889   6.800 -0.5098  3.0768 -0.3169
 1046SOL    HW214601   1.189   3.953   6.873 -0.6346 -0.9820  0.6358
 1047SOL     OW14602   2.081   3.954   3.428  0.4858  0.0478 -0.2249
 1047SOL    HW114603   2.069   3.918   3.341 -1.4329 -0.9930  0.4705
 1047SOL    HW214604   2.161   4.007   3.422  0.6235 -0.2204 -0.7690
 1048SOL     OW14605   4.265   0.582   1.309  0.4380  0.0553 -0.5908
 1048SOL    HW114606   4.284   0.497   1.349 -1.2264  0.8806  1.9440
 1048SOL    HW214607   4.228   0.544   1.229  1.7285 -0.9847 -0.6978
 1049SOL     OW14608   4.672   4.555   5.006 -0.9968 -0.1896  0.2341
 1049SOL    HW114609   0.025   4.494   4.995 -0.3286  0.5701  0.4488
 1049SOL    HW214610   4.704   4.580   5.093 -0.4010  0.5581 -0.1921
 1050SOL     OW14611   1.754   4.446   5.523  0.3022  0.4628 -0.1602
 1050SOL    HW114612   1.816   4.479   5.458  0.5399  0.3278 -0.0058
 1050SOL    HW214613   1.795   4.491   5.598 -0.3592  1.2947 -0.3007
 1051SOL     OW14614   1.024   2.458   3.219  0.0485  0.0716  0.3155
 1051SOL    HW114615   1.009   2.371   3.257 -1.8847  0.5841  0.7210
 1051SOL    HW214616   0.956   2.517   3.251  0.7907  0.9161  0.3216
 1052SOL     OW14617   2.345   1.089   3.308 -0.0037  0.2842  0.2537
 1052SOL    HW114618   2.355   0.995   3.317  3.1647  0.5997  0.0069
 1052SOL    HW214619   2.290   1.096   3.386 -0.5091 -2.1575  0.0973
 1053SOL     OW14620   3.732   0.380   8.550  0.9460 -0.4229 -0.1814
 1053SOL    HW114621   3.776   0.372   8.634  1.3465 -3.8720 -0.7013
 1053SOL    HW214622   3.667   0.310   8.549  0.6626 -0.1692  0.6477
 1054SOL     OW14623   3.736   0.837  17.325  0.3817  0.2099  0.9736
 1054SOL    HW114624   3.809   0.831  17.263  0.9073 -0.2126  1.6318
 1054SOL    HW214625   3.673   0.815  17.257 -0.1365  0.8578  1.2419
 1055SOL     OW14626   3.018   1.266   3.709 -0.9285 -0.7106 -0.3750
 1055SOL    HW114627   3.043   1.326   3.779  0.5399 -1.0111 -0.6443
 1055SOL    HW214628   3.104   1.234   3.683 -1.7272 -4.0117  1.0752
 1056SOL     OW14629   0.151   1.890   6.526 -0.4039  0.1748 -0.3787
 1056SOL    HW114630   0.075   1.852   6.570  0.9119 -1.2084  0.7014
 1056SOL    HW214631   0.119   1.899   6.436  0.5492 -0.6740 -0.8027
 1057SOL     OW14632   0.917   0.689   3.020 -0.8622  0.0017 -0.2189
 1057SOL    HW114633   0.922   0.743   3.098 -1.3539 -0.4420  0.1150
 1057SOL    HW214634   1.004   0.705   2.982 -1.1074 -1.6878 -1.4776
 1058SOL     OW14635   4.541   4.694   8.172  0.4980  0.1519  0.0506
 1058SOL    HW114636   4.465   4.696   8.230 -1.1193 -0.8283 -2.0430
 1058SOL    HW214637   4.517   0.056   8.131  0.1978  1.5726  3.0952
 1059SOL     OW14638   2.769   4.108   0.916 -0.1296 -0.5487  0.1126
 1059SOL    HW114639   2.810   4.148   0.839  1.4233 -0.2927  1.0604
 1059SOL    HW214640   2.829   4.136   0.986  0.5693 -0.2659 -0.5985
 1060SOL     OW14641   1.233   3.070  13.147 -0.6431 -0.6499  0.0775
 1060SOL    HW114642   1.161   3.042  13.089 -2.1225  0.8210  1.2087
 1060SOL    HW214643   1.231   3.008  13.219  0.8761  1.1008  1.6036
 1061SOL     OW14644   0.577   2.042   8.450  0.8229 -0.0303  0.1814
 1061SOL    HW114645   0.517   2.023   8.522 -1.7057  0.3095 -1.8111
 1061SOL    HW214646   0.535   2.125   8.428  0.0410 -0.2202  0.9680
 1062SOL     OW14647   4.071   4.118   7.796 -0.2038  0.3837  0.5248
 1062SOL    HW114648   4.040   4.208   7.807  0.8476  0.7628  0.4409
 1062SOL    HW214649   4.165   4.129   7.815 -0.2636  2.6097 -0.4271
 1063SOL     OW14650   0.225   2.794   9.785  0.5239 -0.2873 -0.2499
 1063SOL    HW114651   0.216   2.698   9.780  1.1121 -0.5420  3.6506
 1063SOL    HW214652   0.297   2.810   9.724 -0.4378  1.8879 -0.8114
 1064SOL     OW14653   0.367   1.577   9.458  0.6259 -0.6039  0.1467
 1064SOL    HW114654   0.447   1.528   9.441  0.7939 -0.1510 -0.3779
 1064SOL    HW214655   0.305   1.525   9.407  2.9133 -2.2077 -0.9736
 1065SOL     OW14656   0.961   3.727  12.195 -0.0612 -0.4953  0.1916
 1065SOL    HW114657   1.024   3.689  12.133 -0.3480  1.7056 -1.4527
 1065SOL    HW214658   0.955   3.816  12.160 -0.1670 -1.0361 -1.1700
 1066SOL     OW14659   1.624   0.449   7.353 -0.6702 -0.4461 -0.4098
 1066SOL    HW114660   1.689   0.513   7.383 -0.4773 -0.6366 -0.4240
 1066SOL    HW214661   1.674   0.378   7.313  0.1774  0.7494 -1.4712
 1067SOL     OW14662   4.162   2.659   8.748 -0.5908  0.5406 -0.4473
 1067SOL    HW114663   4.223   2.708   8.693 -0.0047  1.7255  1.2999
 1067SOL    HW214664   4.176   2.702   8.832  2.3908 -1.4859  0.1085
 1068SOL     OW14665   0.205   2.887   5.133  0.0493 -0.2054 -0.5814
 1068SOL    HW114666   0.247   2.812   5.177 -0.2951  0.3400  0.6765
 1068SOL    HW214667   0.125   2.886   5.187  0.2874  1.5353 -0.2021
 1069SOL     OW14668   1.996   4.449   1.901  0.4010  0.1609 -0.4836
 1069SOL    HW114669   1.992   4.456   1.806 -0.6256 -2.3191 -0.6311
 1069SOL    HW214670   2.018   4.540   1.918 -3.1543  0.5644  1.9168
 1070SOL     OW14671   1.602   3.427  16.475 -0.2795  0.5365 -0.5981
 1070SOL    HW114672   1.627   3.519  16.466  1.1303  0.1352 -0.8150
 1070SOL    HW214673   1.508   3.431  16.491 -0.0855  0.0486  0.6193
 1071SOL     OW14674   3.023   3.085   6.851 -0.1177 -0.0516 -0.0374
 1071SOL    HW114675   3.066   3.139   6.786 -1.7944 -0.5749 -1.5809
 1071SOL    HW214676   2.940   3.131   6.863 -2.0289 -3.2993 -0.7694
 1072SOL     OW14677   2.039   4.378   0.953  0.2454 -0.2508  0.0020
 1072SOL    HW114678   1.986   4.328   1.015  0.5487 -2.1219 -1.2303
 1072SOL    HW214679   2.127   4.357   0.983  0.2986  1.6439  1.1489
 1073SOL     OW14680   0.898   1.146   4.129  0.2415 -0.1823  0.0616
 1073SOL    HW114681   0.908   1.211   4.060 -1.1820  0.3740  0.3762
 1073SOL    HW214682   0.810   1.111   4.119  0.6176 -1.6398  1.6741
 1074SOL     OW14683   2.773   2.546   4.295  0.1873 -0.5714  0.2609
 1074SOL    HW114684   2.836   2.516   4.228 -0.9401 -0.0268 -1.0466
 1074SOL    HW214685   2.691   2.528   4.248  0.7111 -0.4777 -0.6996
 1075SOL     OW14686   3.945   2.246   6.084  0.1349 -0.4084 -0.0952
 1075SOL    HW114687   3.904   2.208   6.161  0.5402 -3.7552 -1.5223
 1075SOL    HW214688   3.938   2.341   6.094  0.6170 -0.3623 -0.2245
 1076SOL     OW14689   4.387   3.465   3.656  0.6300 -0.0823  0.4105
 1076SOL    HW114690   4.403   3.371   3.655 -1.6250 -0.4578  0.1497
 1076SOL    HW214691   4.436   3.493   3.734  2.0553  0.0858 -0.5482
 1077SOL     OW14692   2.908   2.757  16.514 -0.2077  0.0637  1.1603
 1077SOL    HW114693   2.881   2.812  16.441  0.2189  1.7350  2.2554
 1077SOL    HW214694   2.992   2.795  16.542 -0.1452  0.8755 -0.1564
 1078SOL     OW14695   0.982   3.709   6.314 -0.3547 -0.1177 -0.2156
 1078SOL    HW114696   0.928   3.785   6.291 -1.3088 -0.9705 -0.8104
 1078SOL    HW214697   1.061   3.728   6.264  0.9354 -2.6176  0.8594
 1079SOL     OW14698   1.009   0.446  13.282  0.4964 -0.5461 -0.1523
 1079SOL    HW114699   1.075   0.391  13.240  2.4434  0.2484  1.8361
 1079SOL    HW214700   1.063   0.524  13.269  0.6801 -0.4892  0.8834
 1080SOL     OW14701   4.434   0.605   6.622  0.3770  0.2609  0.2614
 1080SOL    HW114702   4.339   0.608   6.607 -0.1753  3.4173  4.3052
 1080SOL    HW214703   4.449   0.657   6.701  0.4808  0.4937  0.0875
 1081SOL     OW14704   0.433   4.426  10.050 -0.3924 -1.2811  0.2769
 1081SOL    HW114705   0.427   4.400   9.958 -0.4590 -2.5005  0.6178
 1081SOL    HW214706   0.364   4.370  10.086 -1.3888 -0.7342 -0.7838
 1082SOL     OW14707   4.635   4.327   8.504 -0.2587  0.6589  0.3317
 1082SOL    HW114708   4.631   4.239   8.466 -2.0021  1.8086 -2.1907
 1082SOL    HW214709   4.543   4.355   8.495 -0.3021 -0.1084 -1.6900
 1083SOL     OW14710   3.850   1.092   6.079  0.0921 -0.0793  0.0740
 1083SOL    HW114711   3.803   1.162   6.034 -2.2473 -0.9704  1.0900
 1083SOL    HW214712   3.779   1.071   6.140  1.2535 -1.6639  0.8669
 1084SOL     OW14713   4.424   2.021   6.614  0.7941 -0.8440 -0.1540
 1084SOL    HW114714   4.440   2.085   6.684  0.1259 -0.8713  0.0201
 1084SOL    HW214715   4.375   1.954   6.661  0.9128 -1.0327 -0.3003
 1085SOL     OW14716   1.948   3.303   3.989 -0.6603  0.2819  0.4044
 1085SOL    HW114717   1.988   3.324   3.905  0.6865 -1.2793  0.6528
 1085SOL    HW214718   1.973   3.381   4.038  2.7211  0.8669 -2.2807
 1086SOL     OW14719   2.765   2.528   3.294 -0.0512 -0.3488 -0.9361
 1086SOL    HW114720   2.830   2.588   3.256 -0.8562  0.8516 -0.4408
 1086SOL    HW214721   2.813   2.507   3.373 -1.2322 -1.1787 -0.4442
 1087SOL     OW14722   0.908   3.129  14.657 -0.2330  0.5607  0.1966
 1087SOL    HW114723   0.859   3.133  14.739 -0.8997 -3.2235 -0.0291
 1087SOL    HW214724   0.935   3.219  14.635 -0.0752  0.3057 -0.6411
 1088SOL     OW14725   2.662   3.867  15.795  0.5405 -0.4681 -0.7210
 1088SOL    HW114726   2.648   3.961  15.786  0.7864 -0.2611  1.1220
 1088SOL    HW214727   2.608   3.841  15.720 -0.3759 -1.1290  0.1517
 1089SOL     OW14728   0.475   0.331   0.356  0.2431  0.1452  0.0543
 1089SOL    HW114729   0.514   0.247   0.335  1.2582  0.4636  0.6761
 1089SOL    HW214730   0.521   0.356   0.437 -0.6934  1.1090  0.2942
 1090SOL     OW14731   2.089   4.029   9.200 -0.6630 -0.3052  0.0225
 1090SOL    HW114732   2.141   4.062   9.273  0.8136  1.6244 -1.8938
 1090SOL    HW214733   2.110   3.936   9.201 -2.2736 -0.6829 -0.2163
 1091SOL     OW14734   0.481   0.850   8.191 -0.2069 -0.2527  1.0973
 1091SOL    HW114735   0.558   0.893   8.154  0.9593 -1.4599  2.1692
 1091SOL    HW214736   0.409   0.913   8.181  0.5914  0.2170 -1.8210
 1092SOL     OW14737   3.714   3.602  14.522 -0.0320 -0.3898  0.6398
 1092SOL    HW114738   3.803   3.579  14.550 -1.3168 -2.6807  2.8824
 1092SOL    HW214739   3.699   3.669  14.589 -0.0798  1.1985 -0.9714
 1093SOL     OW14740   1.904   1.858  12.540 -0.4043  0.3779  0.0571
 1093SOL    HW114741   1.884   1.831  12.630  0.2760 -0.6771 -0.1039
 1093SOL    HW214742   1.884   1.776  12.496 -1.9748  1.2178 -0.7844
 1094SOL     OW14743   2.697   4.383  14.229  0.3500 -0.4845  0.1785
 1094SOL    HW114744   2.666   4.472  14.243  1.7505 -0.1285  1.0579
 1094SOL    HW214745   2.620   4.350  14.183  1.3693 -2.7515  0.1221
 1095SOL     OW14746   0.548   0.114  11.009 -0.7657 -0.3215 -0.1679
 1095SOL    HW114747   0.557   0.035  11.062  1.9746  0.8576  1.1355
 1095SOL    HW214748   0.609   0.167  11.061 -2.1155 -0.1653  1.2816
 1096SOL     OW14749   4.447   2.098   3.404 -0.1992  0.0124  0.2078
 1096SOL    HW114750   4.457   2.129   3.314  0.8289  2.1887  1.0632
 1096SOL    HW214751   4.529   2.051   3.421 -1.2696 -1.1393  2.2426
 1097SOL     OW14752   3.307   2.956   5.919 -0.2509 -0.5480  0.6981
 1097SOL    HW114753   3.335   2.866   5.937 -0.1621 -0.8869 -1.1407
 1097SOL    HW214754   3.214   2.938   5.926 -0.3062 -0.7275 -0.4638
 1098SOL     OW14755   0.632   0.847  17.136 -0.3981  0.8130  0.2089
 1098SOL    HW114756   0.638   0.808  17.049 -1.8421  3.1629 -0.9501
 1098SOL    HW214757   0.616   0.940  17.117  0.2338  1.3967  2.5979
 1099SOL     OW14758   0.094   2.145   1.601 -0.4168 -0.0346  0.1424
 1099SOL    HW114759   0.172   2.165   1.549 -1.8718  1.5051 -1.4359
 1099SOL    HW214760   0.019   2.173   1.549  0.8848 -1.0231 -2.2796
 1100SOL     OW14761   2.594   0.861   5.388 -0.2569  0.9854  0.3984
 1100SOL    HW114762   2.644   0.804   5.447 -1.9204 -1.4245 -0.5483
 1100SOL    HW214763   2.514   0.881   5.436 -1.4138 -0.1715 -1.0799
 1101SOL     OW14764   0.157   3.262   5.341 -0.0684  0.3197  0.4083
 1101SOL    HW114765   0.237   3.291   5.384 -0.6526  1.5895  0.6330
 1101SOL    HW214766   0.187   3.229   5.256 -0.6164 -1.8960  1.0800
 1102SOL     OW14767   4.347   1.565   7.780 -0.0532 -0.1585 -0.0860
 1102SOL    HW114768   4.379   1.617   7.854 -1.1730 -0.8365  0.8607
 1102SOL    HW214769   4.312   1.634   7.723  1.1930 -1.7398 -2.7878
 1103SOL     OW14770   2.513   3.359  11.231 -0.1920 -0.0213 -0.0604
 1103SOL    HW114771   2.524   3.427  11.165 -0.0420 -0.2476 -0.2670
 1103SOL    HW214772   2.425   3.328  11.211 -0.9224  1.6137  0.6428
 1104SOL     OW14773   2.882   3.274   7.288 -0.1133  0.2720 -0.3990
 1104SOL    HW114774   2.838   3.195   7.255  0.3665  0.4052 -1.3525
 1104SOL    HW214775   2.827   3.302   7.361 -0.6368 -0.6911 -0.4208
 1105SOL     OW14776   2.091   3.093   9.405 -0.0545 -0.4013 -0.5851
 1105SOL    HW114777   2.163   3.050   9.452 -0.1769  1.4418  1.3178
 1105SOL    HW214778   2.107   3.174   9.454 -1.4227  0.2511 -1.2316
 1106SOL     OW14779   1.645   2.963   9.168  0.2935 -0.4855  0.3521
 1106SOL    HW114780   1.644   3.049   9.126  1.6212 -0.2587  0.7934
 1106SOL    HW214781   1.736   2.947   9.192  0.0167 -1.2414  0.9062
 1107SOL     OW14782   2.774   3.598   5.828  0.2517  0.1268  0.4963
 1107SOL    HW114783   2.712   3.613   5.756 -0.5484 -0.8813  0.9720
 1107SOL    HW214784   2.841   3.542   5.790  1.1225  0.5789  1.3676
 1108SOL     OW14785   2.218   4.624   2.527  0.1565 -0.0802  0.2420
 1108SOL    HW114786   2.278   4.658   2.460  1.1573 -1.3239  0.5025
 1108SOL    HW214787   2.245   4.532   2.530 -0.7164 -0.4288 -2.6404
 1109SOL     OW14788   4.295   2.248   9.270 -0.1949  0.0572  0.4138
 1109SOL    HW114789   4.268   2.318   9.211  4.3460  1.7396  0.2929
 1109SOL    HW214790   4.377   2.230   9.224 -1.1412 -2.7844 -0.1854
 1110SOL     OW14791   3.073   2.901   7.882  0.2206  0.0341 -0.3568
 1110SOL    HW114792   3.120   2.982   7.862 -0.6565 -0.2639 -3.5818
 1110SOL    HW214793   3.139   2.838   7.910 -0.1353  0.0222  0.4712
 1111SOL     OW14794   1.315   4.344   1.439  0.1075 -0.1615  0.3958
 1111SOL    HW114795   1.395   4.307   1.402  0.0592 -0.7318  0.8738
 1111SOL    HW214796   1.345   4.423   1.483 -0.6245 -1.0677  2.5046
 1112SOL     OW14797   1.580   1.511  10.818  0.1368 -0.0432  0.2034
 1112SOL    HW114798   1.563   1.580  10.883  0.3787 -0.8710  1.1562
 1112SOL    HW214799   1.504   1.513  10.760 -0.0270  2.8209  0.5095
 1113SOL     OW14800   2.783   0.380   5.992  0.1818  0.2623  0.1840
 1113SOL    HW114801   2.716   0.438   6.030  1.0902  0.5629  1.3104
 1113SOL    HW214802   2.800   0.336   6.075 -0.3605 -0.0272  0.1420
 1114SOL     OW14803   1.558   3.337  12.754  0.9061 -0.0154 -0.3329
 1114SOL    HW114804   1.558   3.255  12.704  0.0162 -2.0801  3.0276
 1114SOL    HW214805   1.466   3.340  12.779  0.2131 -0.2232 -2.8252
 1115SOL     OW14806   3.581   0.156  10.794 -0.1949  0.1444 -0.3503
 1115SOL    HW114807   3.576   0.075  10.744  2.4235 -0.4068  0.2725
 1115SOL    HW214808   3.609   0.209  10.720  1.4037 -0.5192 -0.2171
 1116SOL     OW14809   1.077   2.397   3.648 -0.2529 -0.0017  0.0749
 1116SOL    HW114810   1.061   2.305   3.671 -0.7135  0.4053  1.3675
 1116SOL    HW214811   1.003   2.448   3.681 -0.2948 -1.1611  1.7755
 1117SOL     OW14812   0.166   1.391  13.857 -0.1219 -0.5089 -0.4198
 1117SOL    HW114813   0.251   1.378  13.815  1.2254  1.6574  1.6497
 1117SOL    HW214814   0.162   1.486  13.849  1.4251 -0.6143 -2.3897
 1118SOL     OW14815   4.577   0.229   3.921  0.0174 -0.1396  0.1869
 1118SOL    HW114816   4.533   0.261   3.842 -1.4774  0.8762  1.4051
 1118SOL    HW214817   4.503   0.227   3.982  0.5714  2.2570  0.9377
 1119SOL     OW14818   1.784   1.306  12.157  0.0779 -0.3571  0.3048
 1119SOL    HW114819   1.787   1.376  12.222 -1.3073 -0.0522  0.0502
 1119SOL    HW214820   1.695   1.299  12.121  0.3018  1.8505 -0.6584
 1120SOL     OW14821   1.826   4.100  11.681  0.0757 -0.1243 -0.2914
 1120SOL    HW114822   1.798   4.126  11.593 -0.9972 -0.6839 -0.1089
 1120SOL    HW214823   1.916   4.134  11.687  0.4869 -0.9661 -1.8234
 1121SOL     OW14824   0.951   3.098   7.208  0.3448 -0.4096 -0.5075
 1121SOL    HW114825   0.862   3.114   7.176  0.2872 -0.6041 -0.4446
 1121SOL    HW214826   0.993   3.180   7.183  2.5682 -1.3349  0.2278
 1122SOL     OW14827   0.420   2.932   2.461 -0.5067  0.0926 -0.2712
 1122SOL    HW114828   0.408   2.842   2.432 -2.7683  0.1352  0.5927
 1122SOL    HW214829   0.403   2.923   2.555  1.5601  0.1892  0.1287
 1123SOL     OW14830   3.393   3.813  12.334 -0.2640  0.1901  0.4277
 1123SOL    HW114831   3.411   3.733  12.383  1.5107  0.4950  0.2971
 1123SOL    HW214832   3.409   3.781  12.245 -0.2011  3.2207 -0.6679
 1124SOL     OW14833   4.194   2.030   9.477 -0.0268 -0.0138 -0.0353
 1124SOL    HW114834   4.228   2.080   9.403  0.7752 -0.1804  0.2211
 1124SOL    HW214835   4.131   2.091   9.516  1.8940  2.2496 -0.4718
 1125SOL     OW14836   1.383   0.995   6.188 -0.0539 -0.3945 -0.3084
 1125SOL    HW114837   1.299   1.021   6.224 -0.2504  1.3672 -1.9857
 1125SOL    HW214838   1.392   0.903   6.211  2.3272  0.2187  1.3169
 1126SOL     OW14839   0.173   4.233   6.146  0.1234  0.3356 -0.0852
 1126SOL    HW114840   0.263   4.202   6.142  0.7414  1.8998  1.6449
 1126SOL    HW214841   0.127   4.151   6.163 -0.0041  0.3845 -0.1858
 1127SOL     OW14842   3.533   4.469   6.576  0.7073 -0.4340 -0.0390
 1127SOL    HW114843   3.595   4.514   6.634 -0.7876  0.7779  0.6127
 1127SOL    HW214844   3.462   4.449   6.637 -0.2876  1.1174 -0.6990
 1128SOL     OW14845   3.978   3.597   5.890  0.1051 -0.0808  0.1852
 1128SOL    HW114846   3.914   3.532   5.917  0.2034  0.3660  1.5225
 1128SOL    HW214847   3.918   3.670   5.873 -0.2787 -0.1013  1.4298
 1129SOL     OW14848   2.788   1.547   9.103  0.4906 -0.1648 -0.6116
 1129SOL    HW114849   2.725   1.519   9.169  3.1391 -1.3420  1.4365
 1129SOL    HW214850   2.797   1.636   9.137 -0.9106  0.0308 -0.7417
 1130SOL     OW14851   2.419   3.460  15.099 -0.5060 -0.1169  0.3654
 1130SOL    HW114852   2.398   3.380  15.146 -0.4087 -1.7324 -2.2893
 1130SOL    HW214853   2.413   3.428  15.009  1.0248 -0.9588  0.5756
 1131SOL     OW14854   0.718   1.626   4.684 -0.0759  0.2499 -0.1359
 1131SOL    HW114855   0.785   1.593   4.625  1.5932  0.1310  1.8298
 1131SOL    HW214856   0.725   1.568   4.760 -0.0515  1.3396  0.6933
 1132SOL     OW14857   2.705   2.222  13.710 -0.0591  0.0633 -0.0649
 1132SOL    HW114858   2.772   2.253  13.771  0.4198 -2.8804  0.9074
 1132SOL    HW214859   2.739   2.243  13.623  3.2387 -0.5208  1.0972
 1133SOL     OW14860   2.055   2.457   6.578 -0.0423 -0.5783  0.1684
 1133SOL    HW114861   1.983   2.437   6.518  0.9457 -0.1000 -1.1656
 1133SOL    HW214862   2.112   2.522   6.537 -1.1477 -0.1820 -0.7070
 1134SOL     OW14863   1.996   4.356   7.495  0.1349  0.0089  0.9968
 1134SOL    HW114864   2.012   4.447   7.472  2.2030 -1.0488 -1.6949
 1134SOL    HW214865   2.021   4.316   7.412 -2.6329 -0.0609  0.1793
 1135SOL     OW14866   1.261   2.802   1.664  0.2313 -0.4160  0.4283
 1135SOL    HW114867   1.234   2.789   1.573  1.3642 -0.5183  0.1045
 1135SOL    HW214868   1.264   2.713   1.699  0.7461 -0.6928 -0.3191
 1136SOL     OW14869   0.136   3.830   2.472  0.2016  0.4131  0.2906
 1136SOL    HW114870   0.171   3.791   2.391  1.0897  1.4704  0.1624
 1136SOL    HW214871   0.110   3.758   2.530  1.3845  2.3553  3.2160
 1137SOL     OW14872   0.847   0.392   2.771  0.5669  0.2398 -0.2080
 1137SOL    HW114873   0.836   0.362   2.861 -1.0278 -0.1617 -0.5287
 1137SOL    HW214874   0.874   0.483   2.780  1.0905  0.3042 -2.5466
 1138SOL     OW14875   3.422   1.544  12.407 -0.4525  0.2886 -0.1555
 1138SOL    HW114876   3.448   1.463  12.449  2.1294  0.2550 -1.8120
 1138SOL    HW214877   3.497   1.602  12.424  0.0188  0.0272 -1.3255
 1139SOL     OW14878   2.634   1.313   4.834 -0.0653 -0.1043 -0.2019
 1139SOL    HW114879   2.647   1.324   4.928  0.5420 -1.4505 -0.1357
 1139SOL    HW214880   2.539   1.312   4.827  0.0583 -0.4973 -1.7830
 1140SOL     OW14881   1.413   2.310   8.003  0.3017 -0.5680  0.0186
 1140SOL    HW114882   1.482   2.333   7.942 -1.0512  1.7628 -0.6365
 1140SOL    HW214883   1.343   2.333   7.942  1.1249 -1.4288 -1.2366
 1141SOL     OW14884   3.676   0.274   7.918  0.0069 -0.2730 -0.5200
 1141SOL    HW114885   3.746   0.236   7.972  0.4887 -0.3023 -1.1636
 1141SOL    HW214886   3.609   0.206   7.911 -0.3938  0.1712 -0.9776
 1142SOL     OW14887   3.952   3.513  14.604 -0.0510 -0.5450  0.2197
 1142SOL    HW114888   4.032   3.541  14.648 -0.2473  0.7580 -0.2531
 1142SOL    HW214889   3.990   3.443  14.552  0.7093 -0.2230  0.3422
 1143SOL     OW14890   4.605   4.122   3.910 -0.5966 -0.2825 -0.0289
 1143SOL    HW114891   4.696   4.110   3.883 -0.6892 -1.6040  0.2866
 1143SOL    HW214892   4.600   4.217   3.897 -0.6540 -0.1141  1.2245
 1144SOL     OW14893   4.712   4.109   5.814  0.2614 -0.1810  0.4220
 1144SOL    HW114894   4.664   4.068   5.886 -1.3222  0.2379 -0.3920
 1144SOL    HW214895   0.019   4.027   5.773 -3.1490 -0.2724 -1.7570
 1145SOL     OW14896   0.738   0.162  13.633 -0.8347  0.2641 -0.1675
 1145SOL    HW114897   0.810   0.223  13.653  0.4140 -1.1408 -0.3800
 1145SOL    HW214898   0.731   0.183  13.539 -0.9756 -0.7609 -0.3869
 1146SOL     OW14899   3.306   3.449   7.241 -0.0770  0.3995  0.1121
 1146SOL    HW114900   3.328   3.538   7.214 -1.1991  0.9086  0.8549
 1146SOL    HW214901   3.258   3.410   7.168  1.1072 -0.0408 -0.4339
 1147SOL     OW14902   3.052   2.350   6.592  0.3396 -0.1693 -0.1510
 1147SOL    HW114903   2.997   2.373   6.667 -1.2369 -0.8584 -1.1135
 1147SOL    HW214904   3.040   2.255   6.594 -1.8403  0.1404  0.7792
 1148SOL     OW14905   2.613   0.362   9.069 -0.1762  0.0714 -0.1329
 1148SOL    HW114906   2.554   0.331   9.000  0.0930  2.3565 -1.4139
 1148SOL    HW214907   2.698   0.356   9.025 -0.5250 -1.6888 -0.5827
 1149SOL     OW14908   2.882   0.717  14.927  0.4528 -0.1265 -0.0958
 1149SOL    HW114909   2.857   0.698  14.837 -0.2439  1.4870 -0.2373
 1149SOL    HW214910   2.876   0.812  14.939  2.2481  0.0218 -0.4173
 1150SOL     OW14911   1.881   2.759   7.223  0.2559 -0.1994  0.7832
 1150SOL    HW114912   1.799   2.799   7.192  0.4017  0.2842  1.0221
 1150SOL    HW214913   1.860   2.738   7.314 -0.4348 -0.6534  0.5241
 1151SOL     OW14914   3.416   1.576   1.129 -0.3390  0.3963 -0.2361
 1151SOL    HW114915   3.417   1.512   1.057 -2.4917 -1.4586  1.4150
 1151SOL    HW214916   3.344   1.540   1.179  0.1061 -1.3670 -0.8721
 1152SOL     OW14917   0.670   1.217   6.843 -0.6169  0.5538  0.0368
 1152SOL    HW114918   0.708   1.140   6.884  0.5794  1.3424  0.3923
 1152SOL    HW214919   0.641   1.173   6.763 -0.9511  0.0775  0.4136
 1153SOL     OW14920   1.074   1.823   1.650  0.3045 -0.2226 -0.3363
 1153SOL    HW114921   1.022   1.892   1.691  0.9420  0.3854 -0.5449
 1153SOL    HW214922   1.059   1.842   1.558 -1.8303  2.6086  0.6011
 1154SOL     OW14923   3.496   0.199   5.467 -0.1953  0.0789 -0.3029
 1154SOL    HW114924   3.453   0.133   5.522  0.4512 -1.4042 -1.5693
 1154SOL    HW214925   3.548   0.245   5.534 -1.7136  1.8577 -0.3476
 1155SOL     OW14926   0.607   1.106  17.035 -0.0890  0.0735 -0.1598
 1155SOL    HW114927   0.620   1.173  16.968  2.0696 -0.5020 -0.3309
 1155SOL    HW214928   0.644   1.149  17.112  1.1080 -2.0272  0.4513
 1156SOL     OW14929   0.733   3.132   0.229 -0.7791 -0.4930 -0.4754
 1156SOL    HW114930   0.742   3.202   0.164 -0.5709  0.5994  0.7379
 1156SOL    HW214931   0.818   3.089   0.216  0.3099  1.3663  0.5270
 1157SOL     OW14932   1.976   2.965   8.075 -0.6126 -0.1958  0.3505
 1157SOL    HW114933   2.055   2.915   8.096 -1.0563 -1.5516 -1.2024
 1157SOL    HW214934   1.961   3.002   8.162 -0.4394  0.0604  0.2720
 1158SOL     OW14935   1.729   4.026   0.934 -0.4385 -0.7588 -0.2175
 1158SOL    HW114936   1.676   4.033   1.013 -1.7501  0.8994 -1.2331
 1158SOL    HW214937   1.810   4.073   0.955 -0.3340 -1.0201 -0.0344
 1159SOL     OW14938   0.035   2.475   0.611 -0.1229  0.0448  0.2439
 1159SOL    HW114939   4.718   2.400   0.564  4.8162 -2.1768 -0.2179
 1159SOL    HW214940   0.121   2.476   0.567 -1.0004  2.2996 -1.4162
 1160SOL     OW14941   0.384   0.448   1.725 -0.5483 -0.3822 -0.2220
 1160SOL    HW114942   0.328   0.424   1.798 -1.5570 -2.8104 -1.7815
 1160SOL    HW214943   0.365   0.370   1.673 -0.8987  0.7185 -1.7598
 1161SOL     OW14944   2.145   2.946   7.800  0.1882 -0.4057 -0.1979
 1161SOL    HW114945   2.183   3.022   7.757 -0.0953 -0.7458 -1.0403
 1161SOL    HW214946   2.142   2.977   7.891  1.5925  2.8943 -1.2993
 1162SOL     OW14947   0.316   4.008   5.931 -0.1458  0.2193 -0.1713
 1162SOL    HW114948   0.249   3.963   5.982  0.6600  0.1214  0.8173
 1162SOL    HW214949   0.264   4.059   5.869  0.2995  0.2948 -0.4783
 1163SOL     OW14950   0.248   4.687   7.466  0.2474 -0.3880  0.6618
 1163SOL    HW114951   0.233   4.684   7.372  3.7087 -0.3012  0.1325
 1163SOL    HW214952   0.181   0.032   7.489 -0.1533 -0.7706  0.5911
 1164SOL     OW14953   3.838   3.954   7.097  0.2995 -0.5659  0.0054
 1164SOL    HW114954   3.895   3.901   7.042 -0.8249 -1.3958 -0.3699
 1164SOL    HW214955   3.906   4.011   7.134  0.0110 -1.0080  1.2280
 1165SOL     OW14956   0.929   2.667   8.757  0.7405  0.4039 -0.1958
 1165SOL    HW114957   0.916   2.604   8.827 -0.0321  0.9797  0.1773
 1165SOL    HW214958   0.990   2.622   8.698  1.9508 -1.1291  2.2329
 1166SOL     OW14959   2.795   4.505   7.968 -0.0232  0.5159  0.2562
 1166SOL    HW114960   2.767   4.533   8.055  1.4722 -0.3304  1.0086
 1166SOL    HW214961   2.875   4.557   7.960  1.4084 -1.6551  0.4556
 1167SOL     OW14962   2.354   1.943   6.288  0.0757  0.2079 -0.5386
 1167SOL    HW114963   2.433   1.909   6.331  0.7906  0.0630 -1.9686
 1167SOL    HW214964   2.322   1.988   6.366  1.0758 -0.4217  0.2289
 1168SOL     OW14965   1.828   1.741  15.437  0.2664  0.0292  0.2033
 1168SOL    HW114966   1.822   1.721  15.530 -0.4805 -2.0115 -0.2922
 1168SOL    HW214967   1.737   1.717  15.418 -0.1048  0.5499  1.3193
 1169SOL     OW14968   2.133   2.968  17.278 -0.0122  0.4665 -0.1347
 1169SOL    HW114969   2.112   2.902  17.212  2.6197 -0.6036  0.0863
 1169SOL    HW214970   2.048   2.999  17.309 -1.8483 -2.7990 -1.8620
 1170SOL     OW14971   1.930   0.134   7.846  0.1312  0.4379 -0.1925
 1170SOL    HW114972   1.848   0.160   7.805  1.0335 -1.1744 -2.9826
 1170SOL    HW214973   1.918   0.040   7.856  0.6371  0.5031  0.9882
 1171SOL     OW14974   2.393   0.864   1.765 -0.4236 -0.0036  0.0996
 1171SOL    HW114975   2.303   0.846   1.739 -0.9777 -0.8971  2.5712
 1171SOL    HW214976   2.431   0.777   1.771  1.2565  0.6048 -1.9858
 1172SOL     OW14977   1.711   1.053  16.625 -0.5835 -0.1868  0.5108
 1172SOL    HW114978   1.634   1.107  16.642 -1.4920 -1.6497  1.0574
 1172SOL    HW214979   1.701   0.978  16.684  2.0918 -2.0762 -1.4583
 1173SOL     OW14980   1.606   1.521  10.480 -0.1820 -0.3369 -0.6596
 1173SOL    HW114981   1.518   1.517  10.518  0.2194  0.3075  0.3305
 1173SOL    HW214982   1.634   1.606  10.512 -1.1579 -0.8943  1.7434
 1174SOL     OW14983   4.432   3.252   9.031 -0.6462  0.0310 -0.3613
 1174SOL    HW114984   4.432   3.246   9.126  1.7287 -1.6232 -0.4669
 1174SOL    HW214985   4.522   3.232   9.007 -1.1882 -0.3629 -2.0665
 1175SOL     OW14986   2.676   2.595   5.428  0.3113 -0.5519  0.2933
 1175SOL    HW114987   2.600   2.537   5.417  1.3170 -2.0953  1.3902
 1175SOL    HW214988   2.677   2.645   5.346  0.8886 -0.0994  0.5753
 1176SOL     OW14989   0.175   1.215   5.344  0.4162 -0.7068  0.0828
 1176SOL    HW114990   0.231   1.158   5.397  0.2301  0.1490  1.1991
 1176SOL    HW214991   0.103   1.155   5.328 -1.0499  0.9903  0.3787
 1177SOL     OW14992   3.254   2.804   5.350 -0.0670  0.3659  0.0930
 1177SOL    HW114993   3.170   2.768   5.322  0.8308  0.0810 -2.2615
 1177SOL    HW214994   3.271   2.744   5.423  1.1561 -0.9715 -1.2996
 1178SOL     OW14995   3.077   2.252   2.672 -0.5525  0.0783  0.5164
 1178SOL    HW114996   2.987   2.285   2.672 -0.7168 -0.3515  1.0909
 1178SOL    HW214997   3.110   2.289   2.590 -1.5040 -2.1940 -0.8854
 1179SOL     OW14998   0.937   2.477  15.889  0.1178  0.2638 -0.3701
 1179SOL    HW114999   1.016   2.465  15.941 -0.6249 -1.0358  0.4743
 1179SOL    HW215000   0.869   2.492  15.954  1.3604  2.8734  0.3208
 1180SOL     OW15001   4.463   3.096   6.336 -0.4745 -0.3494  0.0076
 1180SOL    HW115002   4.372   3.071   6.351  0.2003 -3.0609 -0.3738
 1180SOL    HW215003   4.457   3.190   6.322 -0.0632 -0.3093  0.0839
 1181SOL     OW15004   0.936   3.976   4.394  0.3631 -0.4502 -0.0160
 1181SOL    HW115005   0.929   4.021   4.478 -0.7258 -0.3135 -0.1844
 1181SOL    HW215006   0.904   4.039   4.329 -0.1179 -1.0020 -0.3045
 1182SOL     OW15007   4.295   3.932  12.484  0.7875  0.0677  0.6555
 1182SOL    HW115008   4.236   3.871  12.440  2.1745 -1.6835  1.2257
 1182SOL    HW215009   4.350   3.974  12.418 -1.2076 -0.0652 -1.0871
 1183SOL     OW15010   0.863   2.401  16.149 -0.6195 -0.4098  0.1595
 1183SOL    HW115011   0.950   2.423  16.183 -0.7382 -0.6213  0.5941
 1183SOL    HW215012   0.808   2.479  16.161  0.6101  0.0428  2.8808
 1184SOL     OW15013   0.461   3.579   9.317  0.1120  0.2854  0.2527
 1184SOL    HW115014   0.537   3.618   9.360  0.4123 -0.3737  0.3114
 1184SOL    HW215015   0.495   3.581   9.228  0.3153 -0.7596  0.3028
 1185SOL     OW15016   2.528   0.395   1.447 -0.2281 -0.2314 -0.6732
 1185SOL    HW115017   2.452   0.349   1.410  0.6166  0.6273 -3.4918
 1185SOL    HW215018   2.498   0.485   1.444  1.3484  0.2871 -1.1499
 1186SOL     OW15019   1.680   3.192  15.503 -0.3783  0.4411 -0.5517
 1186SOL    HW115020   1.592   3.226  15.516 -0.4302  0.8615 -2.0799
 1186SOL    HW215021   1.700   3.225  15.416  2.2516  0.5806  0.1005
 1187SOL     OW15022   2.720   4.236   9.424 -0.5400  0.4950 -0.8270
 1187SOL    HW115023   2.755   4.164   9.477 -0.7313  1.8628  1.1437
 1187SOL    HW215024   2.732   4.308   9.486  0.9374  1.5398 -2.3246
 1188SOL     OW15025   1.511   2.453  16.457 -0.2285 -0.1954 -0.3227
 1188SOL    HW115026   1.523   2.359  16.438 -0.7159 -0.4527  0.6446
 1188SOL    HW215027   1.434   2.444  16.513  1.3341 -0.6055  1.7722
 1189SOL     OW15028   0.581   2.945  11.524  0.0517 -0.2049 -0.5296
 1189SOL    HW115029   0.496   2.981  11.496  1.1478  1.5729 -1.5740
 1189SOL    HW215030   0.582   2.866  11.470 -1.4038 -0.1423 -0.6679
 1190SOL     OW15031   2.499   2.280  12.194  0.9533  0.9424 -0.0213
 1190SOL    HW115032   2.447   2.294  12.273 -0.0905  0.5214 -0.6378
 1190SOL    HW215033   2.473   2.194  12.164  0.5570  0.2453  2.3387
 1191SOL     OW15034   1.694   2.288   2.498 -0.2293 -0.0022  0.0344
 1191SOL    HW115035   1.673   2.259   2.409 -1.7525 -1.7227  0.9621
 1191SOL    HW215036   1.645   2.225   2.551  0.7805  0.2940  1.3037
 1192SOL     OW15037   1.523   2.526   2.882 -0.2369 -0.0141 -0.1573
 1192SOL    HW115038   1.484   2.495   2.964  1.0724  1.7992  1.1599
 1192SOL    HW215039   1.596   2.464   2.880 -0.6454 -0.5212  0.4447
 1193SOL     OW15040   3.683   3.845  10.268  0.1566  0.3818  0.0891
 1193SOL    HW115041   3.631   3.842  10.348 -1.6884 -1.4152 -1.1482
 1193SOL    HW215042   3.630   3.900  10.210 -0.4582  0.7370  1.0017
 1194SOL     OW15043   1.675   0.139   7.431  0.1889  0.2993  0.1276
 1194SOL    HW115044   1.704   0.051   7.453  2.5246  1.2616  0.9134
 1194SOL    HW215045   1.698   0.149   7.339  0.6013 -1.8186  0.0042
 1195SOL     OW15046   0.282   2.347   4.958  0.2473 -0.3703  0.3603
 1195SOL    HW115047   0.315   2.275   4.903 -0.2520 -0.6837  0.4719
 1195SOL    HW215048   0.217   2.303   5.012  0.4916 -1.6476 -0.3784
 1196SOL     OW15049   0.312   1.639   5.590 -0.0037 -0.5056  0.0422
 1196SOL    HW115050   0.228   1.602   5.561 -2.1122  3.4617  1.0835
 1196SOL    HW215051   0.308   1.709   5.525  0.6498 -0.8586 -0.3811
 1197SOL     OW15052   1.730   3.376   8.419 -0.2033 -0.2896  0.0350
 1197SOL    HW115053   1.793   3.395   8.488  2.4160 -0.4353 -2.3345
 1197SOL    HW215054   1.781   3.301   8.391 -1.0845 -0.7881 -0.2458
 1198SOL     OW15055   2.722   2.299   6.691  0.7516 -0.0208  0.2746
 1198SOL    HW115056   2.755   2.212   6.671  1.0588  0.3323 -0.7797
 1198SOL    HW215057   2.681   2.279   6.775  1.6633 -2.6709  0.0861
 1199SOL     OW15058   3.873   3.221  16.202 -0.2489 -0.6151 -0.0905
 1199SOL    HW115059   3.940   3.281  16.234  1.1758 -1.3131 -1.7624
 1199SOL    HW215060   3.818   3.199  16.277  1.2337  1.6566  1.6635
 1200SOL     OW15061   0.884   0.186   1.655 -0.3391  0.3050  0.0550
 1200SOL    HW115062   0.923   0.213   1.738 -2.5309  0.9971  0.8543
 1200SOL    HW215063   0.808   0.142   1.693  0.6414 -2.3170 -0.9861
 1201SOL     OW15064   0.890   2.733   4.902 -0.2916 -0.2850 -0.3834
 1201SOL    HW115065   0.871   2.711   4.811  3.0772 -2.0400 -0.6264
 1201SOL    HW215066   0.881   2.647   4.942  0.1734  0.5335  1.4816
 1202SOL     OW15067   4.190   4.127   3.710 -0.2178 -0.1111 -0.0045
 1202SOL    HW115068   4.244   4.056   3.745 -2.8581 -2.0518  0.1531
 1202SOL    HW215069   4.253   4.198   3.704 -1.7779  1.2388 -0.3518
 1203SOL     OW15070   1.875   1.577  10.437  0.3113  0.3056  0.1706
 1203SOL    HW115071   1.790   1.541  10.463  1.6721 -1.5863  1.9538
 1203SOL    HW215072   1.913   1.589  10.524  1.8048 -2.6327 -0.0877
 1204SOL     OW15073   4.552   0.987   6.815  0.6592  0.7288 -0.7863
 1204SOL    HW115074   4.549   0.893   6.837 -0.4309  0.7006 -1.0504
 1204SOL    HW215075   4.498   1.024   6.886  1.3268  0.6154 -0.2202
 1205SOL     OW15076   2.328   1.577   7.912  0.3373 -0.7473  0.2181
 1205SOL    HW115077   2.320   1.501   7.970  0.3479  0.8518  2.3095
 1205SOL    HW215078   2.404   1.612   7.959 -0.7536  2.6914 -0.6012
 1206SOL     OW15079   3.989   2.459  17.293 -0.2500 -0.0498 -0.1962
 1206SOL    HW115080   3.985   2.545  17.250  0.5486 -0.4776 -1.1129
 1206SOL    HW215081   3.950   2.404  17.226 -0.1101 -0.7489  0.3025
 1207SOL     OW15082   0.688   1.696   7.926 -0.0518 -0.4914 -0.0691
 1207SOL    HW115083   0.771   1.653   7.947 -0.2334 -0.3455  0.9453
 1207SOL    HW215084   0.725   1.781   7.900 -0.8837 -0.3901 -0.9299
 1208SOL     OW15085   4.036   1.867   4.719  0.4264 -0.0953 -0.3252
 1208SOL    HW115086   4.121   1.905   4.737 -0.1353  1.2808 -0.6122
 1208SOL    HW215087   3.984   1.932   4.766  0.6667 -1.6729  2.1436
 1209SOL     OW15088   0.325   1.420   7.349  0.0329  0.2406 -0.0858
 1209SOL    HW115089   0.408   1.393   7.388 -0.0246  1.8328  1.1223
 1209SOL    HW215090   0.346   1.425   7.255  0.0584 -1.4416 -0.1629
 1210SOL     OW15091   2.203   4.201   9.920  0.1127  0.6066 -0.1633
 1210SOL    HW115092   2.286   4.157   9.904 -1.4177 -2.9194  1.7076
 1210SOL    HW215093   2.228   4.291   9.944  0.0092  0.8338 -0.9220
 1211SOL     OW15094   4.214   3.610   6.264 -0.2188  0.0206  0.4020
 1211SOL    HW115095   4.252   3.582   6.180 -2.5114 -1.2920 -0.1986
 1211SOL    HW215096   4.177   3.698   6.262 -1.1861 -0.4053 -0.8924
 1212SOL     OW15097   0.218   3.023  12.889 -0.2747 -0.3293  0.4454
 1212SOL    HW115098   0.191   3.076  12.814 -1.9443 -0.9019  0.6546
 1212SOL    HW215099   0.294   3.072  12.919 -0.7106 -0.1498  1.2426
 1213SOL     OW15100   1.920   2.950   1.147  0.2445 -0.3014  0.1302
 1213SOL    HW115101   1.885   3.031   1.183  2.8886  0.3159  1.3288
 1213SOL    HW215102   1.929   2.895   1.224 -0.9841  0.3680  0.7392
 1214SOL     OW15103   3.789   0.641  17.501 -0.6018 -0.0249  0.2280
 1214SOL    HW115104   3.812   0.711  17.440 -0.0445 -0.7275 -0.3663
 1214SOL    HW215105   3.716   0.601  17.454 -0.1974  1.3735 -1.5730
 1215SOL     OW15106   2.983   1.468   6.346  0.1053  0.2749 -0.0336
 1215SOL    HW115107   3.012   1.392   6.296  1.4802  0.6738  0.1587
 1215SOL    HW215108   3.011   1.534   6.283  1.0770  0.6894  0.8300
 1216SOL     OW15109   1.345   2.892   9.864 -0.2684  0.3302  0.0950
 1216SOL    HW115110   1.344   2.812   9.916 -1.9995  1.8107  2.3618
 1216SOL    HW215111   1.279   2.937   9.917  0.3621  1.6593 -0.2299
 1217SOL     OW15112   1.788   2.987   7.658  0.0283  0.7988 -0.6677
 1217SOL    HW115113   1.721   2.990   7.726  0.3180 -0.2077 -0.3349
 1217SOL    HW215114   1.864   2.940   7.690  1.3861  2.4357 -1.4824
 1218SOL     OW15115   0.800   2.265   9.106 -0.1055 -0.0740  0.2374
 1218SOL    HW115116   0.765   2.185   9.066 -0.1842 -0.0533  0.2651
 1218SOL    HW215117   0.716   2.295   9.139 -0.2512  0.2361 -0.4122
 1219SOL     OW15118   3.201   0.452  15.900 -0.4852  0.1060 -0.0604
 1219SOL    HW115119   3.234   0.526  15.951 -0.8457  0.4908 -0.3880
 1219SOL    HW215120   3.149   0.497  15.834 -0.7798  2.6579  1.9062
 1220SOL     OW15121   0.515   1.039  11.761  0.1814 -0.0241 -0.4004
 1220SOL    HW115122   0.541   1.045  11.669  0.7807 -0.5312 -0.2698
 1220SOL    HW215123   0.423   1.057  11.743  0.4419  0.0514 -1.6402
 1221SOL     OW15124   3.942   4.088   3.774  0.5037  0.3281 -1.1889
 1221SOL    HW115125   4.032   4.117   3.759  0.6524  0.0404 -0.8547
 1221SOL    HW215126   3.954   3.994   3.792 -3.4442 -0.1811 -1.1496
 1222SOL     OW15127   2.688   4.053  14.053 -0.3947  0.5941 -0.3192
 1222SOL    HW115128   2.608   4.002  14.051  0.0116 -0.0522  0.0340
 1222SOL    HW215129   2.750   3.984  14.076 -1.3445 -0.3992 -0.7354
 1223SOL     OW15130   0.594   0.414   7.945 -0.1686 -0.3388  0.2307
 1223SOL    HW115131   0.559   0.500   7.967  0.6003  0.5938 -2.2813
 1223SOL    HW215132   0.608   0.369   8.028  1.9993 -2.4763 -1.3005
 1224SOL     OW15133   0.195   4.338   6.859  0.1357  0.1781 -0.0123
 1224SOL    HW115134   0.115   4.286   6.847  0.5826 -0.6107  0.3725
 1224SOL    HW215135   0.236   4.317   6.775  0.7867  0.7998  0.1499
 1225SOL     OW15136   3.659   3.283   5.526  0.1280 -1.3008  0.5748
 1225SOL    HW115137   3.748   3.287   5.560 -0.7250 -1.5821  2.8799
 1225SOL    HW215138   3.644   3.191   5.503  1.3275 -0.6196 -2.8681
 1226SOL     OW15139   1.636   4.384   8.566  0.3228 -0.3063  0.4655
 1226SOL    HW115140   1.600   4.393   8.478  0.7331 -2.0019  0.1295
 1226SOL    HW215141   1.597   4.463   8.605  0.9719  0.0881  0.2997
 1227SOL     OW15142   0.505   4.501   5.138 -0.5974 -0.1206  0.0381
 1227SOL    HW115143   0.414   4.487   5.164 -0.5983  0.4771  0.3603
 1227SOL    HW215144   0.514   4.464   5.050 -1.4984  0.7516 -0.4188
 1228SOL     OW15145   4.608   3.118   8.547 -0.4140  0.3881  0.5563
 1228SOL    HW115146   4.519   3.152   8.550 -0.5856 -0.2665  2.9132
 1228SOL    HW215147   4.622   3.087   8.637  2.7885 -1.0752 -0.4400
 1229SOL     OW15148   3.598   0.541   2.501 -0.2568  0.7075  0.4553
 1229SOL    HW115149   3.640   0.462   2.535 -2.3283 -1.6859 -2.5650
 1229SOL    HW215150   3.573   0.585   2.583  0.0553  1.1089  0.3344
 1230SOL     OW15151   3.798   4.086  14.835  0.5287  0.7515 -0.4214
 1230SOL    HW115152   3.782   4.035  14.915 -1.1843  1.9978  0.0332
 1230SOL    HW215153   3.746   4.166  14.847 -1.4114 -0.5815  0.2134
 1231SOL     OW15154   2.587   0.642  13.862  0.5620 -0.6353 -0.2003
 1231SOL    HW115155   2.581   0.680  13.774  0.7608  0.8024  0.3999
 1231SOL    HW215156   2.626   0.715  13.910 -0.4427 -0.6239  0.5918
 1232SOL     OW15157   0.477   1.972   7.350  0.3378 -0.1085 -0.7452
 1232SOL    HW115158   0.460   2.049   7.296  0.0594 -0.9651 -1.8823
 1232SOL    HW215159   0.451   1.900   7.293 -0.9469 -0.2690  0.0221
 1233SOL     OW15160   1.007   4.461   9.205  0.2471  0.3549 -0.2268
 1233SOL    HW115161   1.006   4.557   9.215 -1.5877  0.0725  2.2415
 1233SOL    HW215162   1.047   4.448   9.119  0.0241 -2.2766  0.0907
 1234SOL     OW15163   1.270   4.667   3.359  0.0253 -0.1989 -0.0173
 1234SOL    HW115164   1.314   0.025   3.326  0.2920 -0.5895 -0.6035
 1234SOL    HW215165   1.180   4.690   3.337 -0.4699 -1.6552  0.5106
 1235SOL     OW15166   1.740   1.533  11.103 -0.4758 -0.1259 -0.3279
 1235SOL    HW115167   1.716   1.446  11.133  2.1187  0.2569  2.7921
 1235SOL    HW215168   1.659   1.568  11.066 -0.7602  1.4109  1.7558
 1236SOL     OW15169   4.224   4.072  13.627  0.0355 -0.0316 -0.1225
 1236SOL    HW115170   4.217   4.028  13.542  1.4050  0.4604 -0.4940
 1236SOL    HW215171   4.295   4.128  13.594 -1.1722  0.4213 -1.9328
 1237SOL     OW15172   2.432   1.488   3.722 -0.0596 -0.4956  0.0139
 1237SOL    HW115173   2.348   1.532   3.706  0.2151 -0.5707 -1.6488
 1237SOL    HW215174   2.424   1.485   3.817 -1.8106  0.9052 -0.0813
 1238SOL     OW15175   3.945   0.939   3.079 -0.3290  0.4010 -0.5667
 1238SOL    HW115176   3.914   1.029   3.080 -0.0398  0.5028 -0.8662
 1238SOL    HW215177   4.030   0.964   3.116 -1.8037  1.9580  1.7422
 1239SOL     OW15178   4.247   3.688   7.947  0.4688  0.1942  0.3505
 1239SOL    HW115179   4.185   3.715   7.880 -1.1659 -1.5454  1.1520
 1239SOL    HW215180   4.323   3.735   7.914  1.5825 -1.6889  0.1938
 1240SOL     OW15181   1.276   3.574   2.466 -0.1409 -0.0594  0.2195
 1240SOL    HW115182   1.258   3.654   2.514 -0.3629 -0.0137  0.0650
 1240SOL    HW215183   1.308   3.610   2.383 -1.2349 -1.4156 -0.8069
 1241SOL     OW15184   4.297   0.367   6.835  0.3573 -0.5628  0.2116
 1241SOL    HW115185   4.241   0.309   6.887  0.7302  0.1731  1.4293
 1241SOL    HW215186   4.380   0.361   6.882  0.2501 -2.1743  0.1699
 1242SOL     OW15187   1.174   1.406   6.722  0.2530  0.0198  0.0906
 1242SOL    HW115188   1.269   1.393   6.719  0.0640 -1.4423  0.0631
 1242SOL    HW215189   1.180   1.493   6.683  0.2257 -0.9657 -2.0893
 1243SOL     OW15190   0.416   1.099   0.614 -0.5929 -0.9065 -0.4088
 1243SOL    HW115191   0.446   1.018   0.572 -0.4143 -2.1473  2.1340
 1243SOL    HW215192   0.334   1.068   0.652 -0.0096 -2.6935 -0.5788
 1244SOL     OW15193   3.064   3.679   3.821  0.2857  0.3992  0.1086
 1244SOL    HW115194   3.095   3.749   3.878  0.4669  0.9216 -0.6231
 1244SOL    HW215195   2.970   3.684   3.835  0.4107 -0.5102  1.2575
 1245SOL     OW15196   1.614   2.915   7.210  0.7802  0.0464 -0.3584
 1245SOL    HW115197   1.522   2.924   7.182  0.0703 -1.9775  1.3177
 1245SOL    HW215198   1.652   2.997   7.178  1.6263 -0.1733  0.0953
 1246SOL     OW15199   2.071   1.833   2.595  0.0886 -0.1776  0.2519
 1246SOL    HW115200   2.161   1.800   2.604 -0.0158 -0.4375  0.3345
 1246SOL    HW215201   2.022   1.752   2.587 -0.0466 -0.0979  0.2845
 1247SOL     OW15202   1.217   2.440   5.802  0.5031 -0.1602  0.2780
 1247SOL    HW115203   1.230   2.513   5.863 -0.5303 -1.7936  2.4847
 1247SOL    HW215204   1.134   2.464   5.760  0.1280 -0.7876  0.6532
 1248SOL     OW15205   2.549   2.190   2.052  0.0867 -0.3239  1.1350
 1248SOL    HW115206   2.625   2.219   2.001 -1.2236  1.6457  0.2766
 1248SOL    HW215207   2.573   2.190   2.145  1.6475  2.0933  0.7322
 1249SOL     OW15208   0.048   2.039   3.145  0.3409 -0.0292  0.2222
 1249SOL    HW115209   4.675   2.042   3.127  0.1383 -0.1961  1.2226
 1249SOL    HW215210   0.074   1.958   3.102 -1.1616  0.3417 -1.3806
 1250SOL     OW15211   2.791   3.629   9.009 -0.4435  0.1204 -0.3675
 1250SOL    HW115212   2.792   3.543   8.967  3.0939 -0.4674  0.9695
 1250SOL    HW215213   2.879   3.645   9.041 -0.2114 -1.7956 -0.0754
 1251SOL     OW15214   2.532   1.831   8.534 -0.0323  0.3944  0.2232
 1251SOL    HW115215   2.502   1.899   8.594 -0.2791  0.9822 -0.5728
 1251SOL    HW215216   2.535   1.755   8.592  2.1363 -0.0896 -0.5034
 1252SOL     OW15217   1.863   1.090   5.111 -0.2601 -0.3463 -0.2266
 1252SOL    HW115218   1.867   1.025   5.041 -0.3633  0.3018 -0.8315
 1252SOL    HW215219   1.815   1.164   5.074  2.4875  2.7823  2.4697
 1253SOL     OW15220   1.169   3.437  11.860  0.1756  0.3068 -0.2047
 1253SOL    HW115221   1.233   3.477  11.802  1.8953  0.0645  1.5254
 1253SOL    HW215222   1.098   3.417  11.798 -1.2097  2.0324  0.8221
 1254SOL     OW15223   4.268   0.235   2.722 -0.0518 -0.0640  0.4734
 1254SOL    HW115224   4.277   0.330   2.730  1.4802 -0.2997  1.4976
 1254SOL    HW215225   4.184   0.225   2.678  0.3134  0.9713 -0.4443
 1255SOL     OW15226   2.130   0.232   2.768  0.2014  0.5371  0.1074
 1255SOL    HW115227   2.208   0.227   2.712  0.1034  0.4093 -0.0182
 1255SOL    HW215228   2.108   0.139   2.773 -1.0868  0.7035 -2.2948
 1256SOL     OW15229   3.160   2.748   4.281  0.0254 -0.0893  0.7381
 1256SOL    HW115230   3.081   2.767   4.332 -1.1066 -0.5006 -0.8560
 1256SOL    HW215231   3.120   2.733   4.196  2.8397 -2.3690 -0.1634
 1257SOL     OW15232   1.530   2.262   2.225  0.7748 -0.0405 -0.1837
 1257SOL    HW115233   1.484   2.247   2.142 -2.0681  2.6944  0.8735
 1257SOL    HW215234   1.610   2.301   2.190  0.1319 -0.4274 -2.1258
 1258SOL     OW15235   2.131   0.417  12.054 -0.4553  0.6743 -0.5028
 1258SOL    HW115236   2.114   0.420  11.960  1.5093  2.3808 -0.7852
 1258SOL    HW215237   2.225   0.433  12.057 -0.6470  1.5321  1.3708
 1259SOL     OW15238   1.626   1.997   2.133 -0.3332  0.1301 -0.1737
 1259SOL    HW115239   1.543   2.029   2.097  0.3309  1.1180 -0.8504
 1259SOL    HW215240   1.684   2.073   2.133 -0.5856  0.3188  0.3536
 1260SOL     OW15241   0.680   1.232  12.829 -0.0903 -0.4968 -0.4635
 1260SOL    HW115242   0.702   1.160  12.771  0.3815 -1.3524  0.7845
 1260SOL    HW215243   0.739   1.238  12.904 -1.3942  0.4910  0.4939
 1261SOL     OW15244   0.895   3.484   4.818 -0.1155  0.2167 -0.0840
 1261SOL    HW115245   0.957   3.521   4.756  0.2419 -0.3293 -0.0570
 1261SOL    HW215246   0.831   3.553   4.836  0.0041  0.6254 -1.2387
 1262SOL     OW15247   2.433   2.331  17.675  0.1818 -0.8986 -0.6639
 1262SOL    HW115248   2.359   2.280  17.642 -0.4855 -0.8958  0.8202
 1262SOL    HW215249   2.460   2.376  17.595  0.7781  1.7892  1.0097
 1263SOL     OW15250   1.361   0.379  10.048  0.5765  0.2451 -0.7567
 1263SOL    HW115251   1.318   0.338  10.123  1.0275 -0.3647 -0.8313
 1263SOL    HW215252   1.406   0.450  10.093  0.5930 -0.9186  1.0738
 1264SOL     OW15253   1.534   4.187   1.576 -0.4972  0.2403  0.2810
 1264SOL    HW115254   1.598   4.127   1.615  2.9556  2.0923 -2.5993
 1264SOL    HW215255   1.456   4.200   1.630 -0.0426  1.9816  0.5159
 1265SOL     OW15256   3.628   2.443   2.228  0.2666  0.3599 -0.2881
 1265SOL    HW115257   3.633   2.503   2.302 -0.7647 -0.0699  0.1275
 1265SOL    HW215258   3.681   2.366   2.250  0.9810  0.4986 -1.5400
 1266SOL     OW15259   2.079   0.357  15.490  0.4520  0.2471 -0.2262
 1266SOL    HW115260   2.046   0.445  15.510  1.4976  0.9088 -1.4005
 1266SOL    HW215261   2.162   0.382  15.449  0.2552  1.5725  0.1881
 1267SOL     OW15262   2.054   3.884   4.438 -0.0156 -0.1564  0.4624
 1267SOL    HW115263   2.004   3.889   4.357  0.3631 -0.6772  0.1958
 1267SOL    HW215264   2.110   3.812   4.411  0.8619  1.6708 -2.5796
 1268SOL     OW15265   3.044   3.890  15.591 -0.2870 -0.1829 -0.3627
 1268SOL    HW115266   3.139   3.887  15.602 -0.2352  0.8754 -0.5139
 1268SOL    HW215267   3.019   3.980  15.569  1.0362 -0.0875 -1.4662
 1269SOL     OW15268   3.115   1.456   3.103  0.2931  0.1314  0.2890
 1269SOL    HW115269   3.163   1.538   3.097 -1.5750  1.1391 -0.9420
 1269SOL    HW215270   3.031   1.481   3.065 -0.0948 -0.4826  0.7365
 1270SOL     OW15271   2.403   2.814   5.457  0.4068 -0.1846  0.1580
 1270SOL    HW115272   2.440   2.843   5.374  2.5728  0.1805  1.2534
 1270SOL    HW215273   2.317   2.791   5.424 -0.2013  3.2707 -0.6682
 1271SOL     OW15274   0.793   4.234   8.053 -0.3160 -0.1537  0.2883
 1271SOL    HW115275   0.818   4.229   7.961  1.5692 -0.0826  0.7949
 1271SOL    HW215276   0.710   4.280   8.046  0.0126  0.5500  1.0553
 1272SOL     OW15277   0.854   4.336   1.898  0.0539 -0.1215 -0.0795
 1272SOL    HW115278   0.862   4.243   1.922 -0.0268  0.5288  2.5124
 1272SOL    HW215279   0.766   4.332   1.860  0.5093 -1.3093 -1.0171
 1273SOL     OW15280   1.024   4.126   5.866 -0.0124  0.0597 -0.3203
 1273SOL    HW115281   0.981   4.050   5.829 -0.3565  0.7130 -1.2517
 1273SOL    HW215282   1.025   4.181   5.788 -0.4292  1.7047  0.8208
 1274SOL     OW15283   4.044   0.651   2.552  0.4439 -0.9962 -0.4682
 1274SOL    HW115284   3.994   0.645   2.470 -1.4747 -1.3622  0.7118
 1274SOL    HW215285   4.132   0.652   2.515  0.8559  1.1586  0.6070
 1275SOL     OW15286   3.279   3.122   1.683 -0.0868 -0.2588 -0.0756
 1275SOL    HW115287   3.242   3.092   1.766 -0.0553 -0.5555 -0.1686
 1275SOL    HW215288   3.345   3.054   1.677 -0.9601 -1.0794 -0.4145
 1276SOL     OW15289   0.457   2.898   6.948  0.5081 -0.6250 -0.1430
 1276SOL    HW115290   0.515   2.950   6.893 -1.1012  1.4029  0.0638
 1276SOL    HW215291   0.405   2.962   6.996 -0.7397 -1.1459 -0.8021
 1277SOL     OW15292   0.092   1.209   8.681  0.1176  0.8692  0.2535
 1277SOL    HW115293   0.029   1.139   8.691 -1.5636  2.3436 -0.0765
 1277SOL    HW215294   0.045   1.254   8.611  0.6211 -0.5829 -1.0145
 1278SOL     OW15295   1.666   0.240  15.232 -0.0548  0.2303  0.0197
 1278SOL    HW115296   1.705   0.163  15.273  0.3188  1.1177  1.3354
 1278SOL    HW215297   1.611   0.280  15.299 -0.3079 -2.1100  1.1906
 1279SOL     OW15298   4.504   1.317   1.263  0.5296 -0.2454  0.1720
 1279SOL    HW115299   4.595   1.338   1.285 -0.1274  3.3659 -0.6586
 1279SOL    HW215300   4.509   1.352   1.174  1.7343  1.0256  0.7347
 1280SOL     OW15301   2.554   0.207   1.645 -0.3849 -0.3459  0.2609
 1280SOL    HW115302   2.600   0.124   1.634  0.5702  0.1664  0.4059
 1280SOL    HW215303   2.558   0.245   1.557 -1.7360  1.4019  0.9492
 1281SOL     OW15304   4.397   1.607   6.607  0.1446  0.0480 -0.2689
 1281SOL    HW115305   4.313   1.583   6.567  0.3929 -2.0606  0.5120
 1281SOL    HW215306   4.447   1.526   6.611 -1.6132 -1.0737 -0.7340
 1282SOL     OW15307   3.425   0.605  10.815  0.6087 -0.1000  0.2837
 1282SOL    HW115308   3.384   0.650  10.889  1.0265 -0.6349  0.8328
 1282SOL    HW215309   3.375   0.524  10.813  1.3418 -0.4919 -1.8757
 1283SOL     OW15310   4.432   3.829  16.465  0.0347  0.1601 -0.4284
 1283SOL    HW115311   4.458   3.738  16.481  1.4886  0.7918  0.7505
 1283SOL    HW215312   4.485   3.882  16.524  0.6014  0.4181 -1.1664
 1284SOL     OW15313   4.031   4.242   6.468  0.4886  0.2200  0.1127
 1284SOL    HW115314   4.035   4.146   6.469 -1.1620  0.1607  0.1322
 1284SOL    HW215315   4.078   4.267   6.389  0.6981 -1.9712 -0.4700
 1285SOL     OW15316   4.210   0.963   3.189  0.2536 -0.1865 -0.1660
 1285SOL    HW115317   4.265   0.990   3.262  0.8072 -2.8750  0.3982
 1285SOL    HW215318   4.229   0.870   3.182  0.1212 -0.2367  0.1824
 1286SOL     OW15319   3.602   0.558   3.323 -0.2056 -0.0229  0.5347
 1286SOL    HW115320   3.549   0.580   3.247 -0.0289 -0.3700  0.3100
 1286SOL    HW215321   3.605   0.646   3.359 -2.5640  0.3755 -0.2373
 1287SOL     OW15322   2.994   3.096  15.231 -0.1940 -0.4589 -0.1488
 1287SOL    HW115323   3.006   3.065  15.141  0.7288  0.5098 -0.3529
 1287SOL    HW215324   3.022   3.187  15.227 -3.0550  0.4294  0.0132
 1288SOL     OW15325   1.166   1.464  17.355 -0.2982 -0.3501 -0.0297
 1288SOL    HW115326   1.190   1.515  17.432  0.0307 -0.7245  0.1204
 1288SOL    HW215327   1.230   1.393  17.364 -0.7276 -0.7162  0.1615
 1289SOL     OW15328   4.238   4.403   4.755 -0.1624 -0.0880  0.1596
 1289SOL    HW115329   4.180   4.458   4.702 -1.0952 -2.0850 -0.8758
 1289SOL    HW215330   4.289   4.468   4.803  0.9762  0.6969 -2.1265
 1290SOL     OW15331   3.229   0.930   3.361  0.6525  0.2408 -0.0791
 1290SOL    HW115332   3.250   0.891   3.446 -0.5940  2.4476  1.2360
 1290SOL    HW215333   3.166   0.995   3.390  0.8254  0.2650  0.2407
 1291SOL     OW15334   2.284   3.970  14.509  0.2209  0.0588  1.1916
 1291SOL    HW115335   2.226   4.032  14.553 -1.1374 -0.8209  0.6052
 1291SOL    HW215336   2.257   3.963  14.418 -0.0286 -0.6787  1.3245
 1292SOL     OW15337   4.254   3.232   9.597  0.2039 -0.1107  0.1382
 1292SOL    HW115338   4.178   3.265   9.644 -0.3199 -0.5965 -0.3802
 1292SOL    HW215339   4.237   3.259   9.507  1.6387 -0.5925 -0.2884
 1293SOL     OW15340   1.328   4.255  14.962  0.2821 -0.1329  0.1572
 1293SOL    HW115341   1.416   4.242  14.924  0.7045  1.2217  0.6883
 1293SOL    HW215342   1.347   4.242  15.055 -2.4055 -2.6331  0.3353
 1294SOL     OW15343   0.938   0.157   4.543  0.0623 -0.0606 -0.7811
 1294SOL    HW115344   1.005   0.134   4.608  0.3707  2.2189 -0.3067
 1294SOL    HW215345   0.903   0.072   4.515 -1.5432 -0.6030  2.8237
 1295SOL     OW15346   3.717   2.401  13.144 -0.1196 -0.2155 -0.2204
 1295SOL    HW115347   3.732   2.326  13.086  1.1621  0.8155 -1.2177
 1295SOL    HW215348   3.765   2.375  13.223 -1.3955 -0.8883  0.3415
 1296SOL     OW15349   2.476   1.695   3.401 -0.0436 -0.0488 -0.0994
 1296SOL    HW115350   2.523   1.778   3.409  0.3597 -0.1546 -1.3365
 1296SOL    HW215351   2.401   1.711   3.458 -0.0917 -0.0831 -0.1530
 1297SOL     OW15352   0.972   0.843  10.257  0.4307 -0.1604 -0.1637
 1297SOL    HW115353   1.045   0.815  10.203  0.7463  1.2122 -0.4476
 1297SOL    HW215354   1.014   0.907  10.315  1.5656 -0.0992 -1.0560
 1298SOL     OW15355   4.292   0.199  11.914 -0.0479 -0.1291 -0.0213
 1298SOL    HW115356   4.314   0.203  12.007 -0.9770 -0.3102  0.2056
 1298SOL    HW215357   4.326   0.280  11.875  0.6500  0.0387  0.9300
 1299SOL     OW15358   0.137   1.263   7.102  0.2872  0.8072  0.3134
 1299SOL    HW115359   0.077   1.310   7.045  0.7023  1.3060  0.2851
 1299SOL    HW215360   0.156   1.182   7.055  0.5514 -0.5253  2.6943
 1300SOL     OW15361   1.053   1.062   6.227  0.4050  0.3742 -0.1009
 1300SOL    HW115362   0.975   1.095   6.271 -0.1585  1.7660 -2.1646
 1300SOL    HW215363   1.031   0.969   6.223  0.2807  0.3737  0.6232
 1301SOL     OW15364   0.947   2.932   0.007  0.0945 -0.1485 -0.0323
 1301SOL    HW115365   0.879   2.928  17.625 -1.7738 -0.8513  1.8961
 1301SOL    HW215366   0.997   3.000  17.647 -1.3986  0.1206 -1.2921
 1302SOL     OW15367   3.056   1.069  13.709  0.2847 -0.1110  0.3782
 1302SOL    HW115368   2.976   1.028  13.743 -1.2536  1.6580 -1.1290
 1302SOL    HW215369   3.117   1.019  13.762 -0.4357 -0.4473  0.8929
 1303SOL     OW15370   2.918   2.479  12.113 -0.0506  0.0672 -0.0823
 1303SOL    HW115371   2.965   2.531  12.048 -1.4364  1.4263 -0.0082
 1303SOL    HW215372   2.942   2.390  12.088 -1.6819  0.0101 -1.4460
 1304SOL     OW15373   3.930   3.670  11.630  0.1014 -0.2896  0.1908
 1304SOL    HW115374   3.876   3.634  11.701  4.1904 -2.2506  2.3239
 1304SOL    HW215375   3.924   3.763  11.653  1.5404 -0.2717  0.4963
 1305SOL     OW15376   3.425   2.425   2.480 -0.3452  0.7562 -0.2396
 1305SOL    HW115377   3.428   2.423   2.384  0.0709  0.1201 -0.2179
 1305SOL    HW215378   3.509   2.470   2.490  0.2501 -0.5808  0.9027
 1306SOL     OW15379   1.342   0.617   0.768 -0.0177 -0.1768 -0.4460
 1306SOL    HW115380   1.273   0.643   0.707  0.6727  0.9273 -0.7346
 1306SOL    HW215381   1.418   0.654   0.724  1.5043 -2.1989  0.4507
 1307SOL     OW15382   0.598   0.864  14.874  0.6859 -0.3209  0.1727
 1307SOL    HW115383   0.513   0.869  14.832  1.3895 -0.8242 -1.3151
 1307SOL    HW215384   0.603   0.775  14.910 -0.3725  0.4519  2.2036
 1308SOL     OW15385   4.545   1.573   2.251  0.1509 -0.5532  0.3931
 1308SOL    HW115386   4.543   1.506   2.320  0.0556 -1.4342 -0.4762
 1308SOL    HW215387   4.561   1.516   2.176 -0.2882 -0.4875  0.2488
 1309SOL     OW15388   4.175   1.968   3.433 -0.6869 -0.3951 -0.3319
 1309SOL    HW115389   4.253   2.003   3.389  0.0952 -1.9081 -0.1744
 1309SOL    HW215390   4.123   2.048   3.437  1.1309  0.7832 -0.4035
 1310SOL     OW15391   3.596   3.774   3.558 -0.0490  0.4274 -0.1202
 1310SOL    HW115392   3.679   3.755   3.601  0.1016 -1.4139 -1.2146
 1310SOL    HW215393   3.558   3.837   3.619  0.5706  1.9063 -1.2716
 1311SOL     OW15394   1.783   3.136   7.951 -0.3808 -0.0006  0.0442
 1311SOL    HW115395   1.737   3.061   7.912  0.1220 -0.0745 -0.4033
 1311SOL    HW215396   1.851   3.086   7.995 -0.1027 -0.1611 -0.5804
 1312SOL     OW15397   0.946   2.965  13.486 -0.0840  0.0310 -0.9800
 1312SOL    HW115398   0.859   2.931  13.468 -0.0465 -0.4260 -0.3019
 1312SOL    HW215399   0.985   2.920  13.561 -1.8459 -1.2044 -0.8113
 1313SOL     OW15400   0.435   1.242   4.945 -0.2742  0.1206 -0.5457
 1313SOL    HW115401   0.380   1.320   4.942  1.6252  1.4585 -0.8872
 1313SOL    HW215402   0.390   1.172   4.897  2.8940 -1.9278 -0.5270
 1314SOL     OW15403   2.675   1.261   7.366 -0.3904 -0.5134 -0.0996
 1314SOL    HW115404   2.646   1.170   7.374 -0.5889 -0.3978  0.4707
 1314SOL    HW215405   2.756   1.262   7.416 -0.9334 -0.8513  0.7933
 1315SOL     OW15406   4.307   0.897   7.618  0.1173  0.0409 -0.2588
 1315SOL    HW115407   4.243   0.843   7.665  1.0402 -1.0996 -0.3086
 1315SOL    HW215408   4.337   0.937   7.699 -0.3119 -0.3903  0.1185
 1316SOL     OW15409   1.928   2.786   3.578 -0.5573  0.4747  0.0632
 1316SOL    HW115410   1.874   2.774   3.500 -1.1320 -1.7785  0.8141
 1316SOL    HW215411   2.010   2.747   3.549 -0.5676  1.6569 -1.5802
 1317SOL     OW15412   2.600   1.885  14.096  0.5911 -0.2561 -0.0335
 1317SOL    HW115413   2.602   1.909  14.189  0.6771 -0.5427  0.0380
 1317SOL    HW215414   2.680   1.925  14.063  0.0460 -0.9898 -2.2206
 1318SOL     OW15415   1.435   2.441   7.013  0.0032  0.4083  0.3733
 1318SOL    HW115416   1.483   2.523   7.003  1.1591 -0.2124  0.8703
 1318SOL    HW215417   1.470   2.376   6.952  1.7213  1.7671 -0.0577
 1319SOL     OW15418   2.393   1.307   6.525  0.3363  0.0975  0.2443
 1319SOL    HW115419   2.382   1.261   6.609  1.7975 -0.0419  0.3515
 1319SOL    HW215420   2.370   1.397   6.548 -1.2649 -0.7420  1.9567
 1320SOL     OW15421   2.265   2.982   4.730 -0.1451 -0.0215  0.2194
 1320SOL    HW115422   2.303   2.903   4.692  0.4410 -0.7099  2.2210
 1320SOL    HW215423   2.174   2.953   4.719  0.3897 -1.7001  0.2276
 1321SOL     OW15424   4.140   0.152   5.414 -0.1752  0.0827  0.8034
 1321SOL    HW115425   4.135   0.134   5.508 -1.5270 -3.7522  0.0186
 1321SOL    HW215426   4.068   0.090   5.400 -1.3656  1.1490  2.1499
 1322SOL     OW15427   1.452   0.097   1.078  0.2884  0.1276  0.3469
 1322SOL    HW115428   1.376   0.057   1.120  1.2887  0.2744  2.3276
 1322SOL    HW215429   1.409   0.156   1.016  0.8919  0.0356 -0.1594
 1323SOL     OW15430   4.455   3.630   6.975 -0.2866  0.3314 -0.0400
 1323SOL    HW115431   4.455   3.541   7.010 -0.0305  1.9316  3.9833
 1323SOL    HW215432   4.448   3.618   6.880 -0.9090 -0.4968  0.1145
 1324SOL     OW15433   2.036   2.712   7.708 -0.6248  0.3214  0.8434
 1324SOL    HW115434   2.099   2.780   7.730  2.0532 -2.1309  0.7904
 1324SOL    HW215435   2.086   2.632   7.720  0.2584  0.8418  0.6100
 1325SOL     OW15436   4.711   3.127  16.737  0.3909 -0.7702  0.4229
 1325SOL    HW115437   4.623   3.126  16.775  0.6859  1.4916  1.1486
 1325SOL    HW215438   4.716   3.216  16.702 -0.4672 -1.4040 -1.3138
 1326SOL     OW15439   3.919   2.297   4.859 -0.6339 -0.5415  0.4608
 1326SOL    HW115440   3.903   2.332   4.771 -0.5425  2.2002  1.5251
 1326SOL    HW215441   3.850   2.344   4.905 -0.7704 -1.9230  1.6483
 1327SOL     OW15442   1.851   3.466   0.013 -0.6946 -0.0322 -0.3161
 1327SOL    HW115443   1.853   3.494  17.607  0.8831 -1.5740 -0.7510
 1327SOL    HW215444   1.820   3.376   0.008 -1.3532  0.0553  2.0480
 1328SOL     OW15445   0.068   0.280   4.765 -0.5899  0.4157 -0.5133
 1328SOL    HW115446   0.049   0.187   4.777 -2.5540  1.1247  1.8012
 1328SOL    HW215447   0.018   0.313   4.840 -0.2284  1.2559 -0.6388
 1329SOL     OW15448   2.545   3.587   9.140  0.4200  0.0387 -0.2758
 1329SOL    HW115449   2.495   3.662   9.108  0.1166 -0.6694 -1.4306
 1329SOL    HW215450   2.634   3.607   9.112  0.5258 -1.4636 -0.9915
 1330SOL     OW15451   1.666   0.688   9.403 -0.2888 -0.4061 -0.2932
 1330SOL    HW115452   1.581   0.724   9.377 -0.9550 -1.4766  0.3888
 1330SOL    HW215453   1.704   0.746   9.469  1.4112 -1.1405 -0.6337
 1331SOL     OW15454   3.109   2.497  11.035 -0.7514  0.1918  0.1536
 1331SOL    HW115455   3.180   2.559  11.050 -2.1287  1.4571  1.3600
 1331SOL    HW215456   3.036   2.539  11.078 -0.1113  0.3769  1.0512
 1332SOL     OW15457   2.719   2.150   4.827 -0.6485 -0.4945 -0.0657
 1332SOL    HW115458   2.675   2.095   4.892 -2.7696 -0.4352 -1.4684
 1332SOL    HW215459   2.643   2.188   4.783 -0.7546  1.2390  1.6127
 1333SOL     OW15460   1.850   0.408   5.073 -0.5930  0.3950  0.5991
 1333SOL    HW115461   1.828   0.345   5.005 -0.0500  1.5082 -0.6160
 1333SOL    HW215462   1.936   0.380   5.105 -0.6446  0.9048  1.1839
 1334SOL     OW15463   1.856   1.594   2.167 -0.0850  0.4497  0.6020
 1334SOL    HW115464   1.796   1.656   2.125 -0.4407 -0.9851 -1.0010
 1334SOL    HW215465   1.855   1.523   2.103 -0.9963  1.1410 -0.1504
 1335SOL     OW15466   3.431   0.836   7.085  0.1693  0.0850  0.4391
 1335SOL    HW115467   3.363   0.890   7.124 -0.2905  0.9034 -1.4984
 1335SOL    HW215468   3.505   0.836   7.146 -1.4953  0.6324  2.4506
 1336SOL     OW15469   3.400   0.879  12.562  0.2505  0.3790 -1.0733
 1336SOL    HW115470   3.466   0.949  12.573 -0.4111  0.9547 -0.7729
 1336SOL    HW215471   3.409   0.831  12.644 -0.0605  2.6026  0.2694
 1337SOL     OW15472   2.892   0.944   8.353 -0.7329  0.6026 -0.2417
 1337SOL    HW115473   2.962   0.878   8.352  1.5847  3.0379  0.3614
 1337SOL    HW215474   2.938   1.023   8.325 -0.2521  0.2534 -0.4461
 1338SOL     OW15475   3.415   1.119   3.657 -0.0870  0.3724  0.1922
 1338SOL    HW115476   3.411   1.070   3.739 -1.6233  0.8466  0.4034
 1338SOL    HW215477   3.503   1.157   3.659  0.1706 -0.2812  1.1954
 1339SOL     OW15478   4.588   3.426  13.890 -0.0208 -0.2058  0.5013
 1339SOL    HW115479   4.640   3.371  13.949  0.6523  1.6702  1.6618
 1339SOL    HW215480   4.648   3.493  13.856 -0.7239  0.1628 -0.0164
 1340SOL     OW15481   1.225   1.514   9.074 -0.1224  0.0419  0.4232
 1340SOL    HW115482   1.199   1.606   9.072 -2.9277 -0.7607 -0.6916
 1340SOL    HW215483   1.147   1.470   9.041 -0.5617  0.8544  0.3654
 1341SOL     OW15484   0.310   0.766   9.760  0.1461 -0.1167  0.1045
 1341SOL    HW115485   0.293   0.741   9.670  0.5986  1.9263 -0.5578
 1341SOL    HW215486   0.402   0.781   9.738  0.4306  0.9075  1.9453
 1342SOL     OW15487   0.605   1.667   2.495 -0.3607 -0.1193  0.3167
 1342SOL    HW115488   0.571   1.655   2.584 -3.4682 -1.1489 -1.0160
 1342SOL    HW215489   0.651   1.748   2.516 -1.4618 -0.2957  3.3632
 1343SOL     OW15490   4.171   1.090   2.309  0.1881 -0.3211  0.7695
 1343SOL    HW115491   4.135   1.179   2.304  1.2584 -0.0170 -1.9086
 1343SOL    HW215492   4.156   1.055   2.221 -0.2108 -1.2096  1.1995
 1344SOL     OW15493   2.153   2.704   6.186 -0.2105  0.2289 -0.8703
 1344SOL    HW115494   2.067   2.696   6.144 -0.4925  1.7247 -0.5925
 1344SOL    HW215495   2.187   2.791   6.167 -0.0524  0.5239  0.7734
 1345SOL     OW15496   2.546   3.772  15.554 -0.1254  0.2483 -0.0949
 1345SOL    HW115497   2.626   3.768  15.502  0.8417 -0.1539  1.4377
 1345SOL    HW215498   2.484   3.741  15.488 -1.3158  0.9211  0.6934
 1346SOL     OW15499   1.785   3.050   8.872 -0.1641 -0.2800  0.1739
 1346SOL    HW115500   1.874   3.085   8.878  0.0669 -0.6341 -1.3197
 1346SOL    HW215501   1.740   3.100   8.941  1.6489  0.3051  0.9236
 1347SOL     OW15502   2.097   2.823   4.554 -0.0020  0.0047  0.1845
 1347SOL    HW115503   2.004   2.829   4.533  0.0570 -1.2947 -0.4481
 1347SOL    HW215504   2.099   2.728   4.566 -1.9211  0.2146  2.2299
 1348SOL     OW15505   3.464   1.724   7.861 -0.3897  0.1475  0.2205
 1348SOL    HW115506   3.548   1.723   7.815 -0.8667 -1.4936 -0.6068
 1348SOL    HW215507   3.408   1.763   7.793  0.1904  0.1600 -0.2525
 1349SOL     OW15508   3.695   1.254   5.919  0.3139 -0.3727 -0.3006
 1349SOL    HW115509   3.604   1.283   5.924  0.1571 -1.0440  1.0243
 1349SOL    HW215510   3.713   1.261   5.826 -1.2752 -1.0443 -0.6646
 1350SOL     OW15511   4.511   2.599   3.065  0.1553 -0.1839 -1.1293
 1350SOL    HW115512   4.495   2.517   3.020 -0.1443  0.4550 -2.1856
 1350SOL    HW215513   4.555   2.648   2.995  0.9747  0.2328 -0.3278
 1351SOL     OW15514   2.140   4.720   3.671  0.0270  0.0351  0.1024
 1351SOL    HW115515   2.093   4.671   3.603 -0.9280  1.0262  0.0604
 1351SOL    HW215516   2.073   0.015   3.738  0.1328  1.1090 -0.0433
 1352SOL     OW15517   1.498   1.376   3.069 -0.2197  0.1644 -0.5744
 1352SOL    HW115518   1.422   1.368   3.126 -0.0272  0.8107 -0.2289
 1352SOL    HW215519   1.453   1.428   3.002  0.9366  0.5821 -1.0332
 1353SOL     OW15520   0.762   1.609  16.100 -0.0117  0.3907  0.0572
 1353SOL    HW115521   0.756   1.544  16.170 -0.3173  1.1186  0.6994
 1353SOL    HW215522   0.801   1.679  16.151 -2.3817  0.9524  1.1133
 1354SOL     OW15523   1.211   2.717  10.446 -0.0567 -0.1229 -0.1277
 1354SOL    HW115524   1.153   2.646  10.420  3.1110 -3.1888  1.2231
 1354SOL    HW215525   1.202   2.708  10.541 -0.6242  2.7137  0.0760
 1355SOL     OW15526   4.334   4.545   6.180  0.1199 -0.4130  0.2936
 1355SOL    HW115527   4.309   4.626   6.225  0.5282 -0.1394  0.0240
 1355SOL    HW215528   4.388   4.572   6.106  1.4132 -3.5404  0.1205
 1356SOL     OW15529   0.732   3.512   8.467 -0.2062 -0.2066 -0.1292
 1356SOL    HW115530   0.791   3.566   8.415  1.6561 -0.2848  1.8656
 1356SOL    HW215531   0.752   3.546   8.555 -0.9124 -0.7292  0.2301
 1357SOL     OW15532   4.511   3.731   2.677 -0.5084  0.7979  0.5163
 1357SOL    HW115533   4.460   3.665   2.629 -1.3474  1.0197  1.1081
 1357SOL    HW215534   4.520   3.802   2.614 -1.3758 -0.0367 -0.5565
 1358SOL     OW15535   4.208   0.519   7.941 -0.0551  0.1318  0.1576
 1358SOL    HW115536   4.198   0.524   8.036 -0.1495  2.4522  0.0162
 1358SOL    HW215537   4.282   0.578   7.932 -0.3789  0.2683 -1.7818
 1359SOL     OW15538   2.752   0.076  10.601 -0.1229 -0.0653  0.7993
 1359SOL    HW115539   2.752   4.705  10.630 -0.9006 -0.2402  0.2655
 1359SOL    HW215540   2.699   0.106  10.674  0.1602  0.4053  0.8142
 1360SOL     OW15541   2.254   3.976   1.449  0.3072  0.1920 -0.1502
 1360SOL    HW115542   2.226   4.068   1.450 -0.1803  0.0746 -1.6195
 1360SOL    HW215543   2.175   3.923   1.456  1.2870 -1.2513 -0.2077
 1361SOL     OW15544   4.149   4.486  14.969  0.4001 -0.0670  0.6007
 1361SOL    HW115545   4.141   4.536  14.888  0.2412  0.7747  1.1317
 1361SOL    HW215546   4.120   4.555  15.029  2.0260  1.3280 -0.2138
 1362SOL     OW15547   1.870   1.834  16.046  0.2554 -0.1675 -0.0859
 1362SOL    HW115548   1.821   1.767  15.999 -1.7885 -0.7056  2.7729
 1362SOL    HW215549   1.890   1.886  15.968  1.3010 -1.4739 -0.6813
 1363SOL     OW15550   0.309   2.028   7.574 -0.2322  0.1133 -0.1517
 1363SOL    HW115551   0.350   1.977   7.505 -1.1064 -1.4538  0.4939
 1363SOL    HW215552   0.239   1.974   7.610 -0.0790  0.4605  0.6663
 1364SOL     OW15553   4.666   2.827   3.644 -0.2698  0.4489  0.4942
 1364SOL    HW115554   4.720   2.776   3.584 -0.1156  0.1071  0.9182
 1364SOL    HW215555   4.580   2.840   3.604  1.2502  1.3513 -2.4142
 1365SOL     OW15556   0.797   3.398   7.003  0.3881  0.3117 -0.2474
 1365SOL    HW115557   0.713   3.364   7.034  1.0990  1.7550  3.3376
 1365SOL    HW215558   0.852   3.397   7.082  1.7469 -1.2388 -1.2275
 1366SOL     OW15559   1.245   2.818   3.114 -0.0580  0.4119  0.6623
 1366SOL    HW115560   1.294   2.884   3.064 -0.7738 -0.3098 -0.9890
 1366SOL    HW215561   1.197   2.878   3.171  1.1346  1.8954  0.1134
 1367SOL     OW15562   0.031   3.190   0.901 -0.4204  0.1860 -0.0617
 1367SOL    HW115563   0.062   3.177   0.990 -0.4864 -0.3157 -0.1081
 1367SOL    HW215564   4.661   3.219   0.911 -0.1350  0.5116  1.5465
 1368SOL     OW15565   0.989   0.873   5.766  0.2425  0.0157  0.3252
 1368SOL    HW115566   0.900   0.871   5.800  0.2091 -1.4417  0.1572
 1368SOL    HW215567   0.978   0.842   5.677  0.3549  0.4029  0.1774
 1369SOL     OW15568   4.517   1.794   8.667  0.6186 -0.1341  0.0243
 1369SOL    HW115569   4.429   1.816   8.696  1.0128  2.1482 -0.5205
 1369SOL    HW215570   4.563   1.877   8.680 -0.5018  0.3604  0.8093
 1370SOL     OW15571   4.549   1.533  12.922  0.1033  0.1778  0.0692
 1370SOL    HW115572   4.564   1.628  12.922  1.4447 -0.0326 -0.3558
 1370SOL    HW215573   4.478   1.524  12.859 -0.7336  0.5720  0.9618
 1371SOL     OW15574   0.310   3.037   0.090 -0.1092 -0.2037  0.1133
 1371SOL    HW115575   0.216   3.054   0.097 -0.1686 -0.6820  0.4256
 1371SOL    HW215576   0.324   2.996   0.175  1.0261  0.5043  0.2675
 1372SOL     OW15577   4.544   3.784  15.955 -0.5298  0.0997 -0.1884
 1372SOL    HW115578   4.516   3.815  15.869  1.0731 -2.8940 -1.7890
 1372SOL    HW215579   4.619   3.842  15.967 -1.3539  0.5243  2.9287
 1373SOL     OW15580   3.044   2.031   8.527 -0.1601 -0.2781 -0.0195
 1373SOL    HW115581   2.960   1.990   8.548 -1.1962  1.2895 -1.1434
 1373SOL    HW215582   3.033   2.102   8.589 -2.2353 -1.6830  1.1812
 1374SOL     OW15583   3.037   1.701   7.074  0.0128 -0.9314 -0.5102
 1374SOL    HW115584   3.057   1.646   6.998  0.9757 -0.9401 -0.2546
 1374SOL    HW215585   2.988   1.775   7.039  4.2774  1.3850 -1.6173
 1375SOL     OW15586   2.236   0.659  15.596 -0.2800 -0.2867  0.1364
 1375SOL    HW115587   2.307   0.617  15.547 -1.2853  0.3812 -1.9038
 1375SOL    HW215588   2.273   0.746  15.582 -0.9220  0.1762  1.3399
 1376SOL     OW15589   0.720   4.364   6.102 -0.0147 -0.0051  0.0667
 1376SOL    HW115590   0.672   4.445   6.084 -2.0894 -1.5443 -1.1654
 1376SOL    HW215591   0.697   4.308   6.028  0.4266 -0.5143  0.3112
 1377SOL     OW15592   0.893   0.460  12.190  0.3536 -0.4056  0.0304
 1377SOL    HW115593   0.948   0.516  12.246 -1.0926  1.0406  0.0237
 1377SOL    HW215594   0.905   0.500  12.104 -0.9733  1.6794  0.8133
 1378SOL     OW15595   3.432   1.635  10.479  0.1938  0.1496  0.0808
 1378SOL    HW115596   3.466   1.586  10.405  2.0359  2.0632 -0.3460
 1378SOL    HW215597   3.450   1.577  10.553 -1.4023  0.7551  0.9484
 1379SOL     OW15598   4.375   0.059   0.017 -0.1959  0.5512  0.4665
 1379SOL    HW115599   4.404   0.025   0.101  1.1130  1.3410  0.3269
 1379SOL    HW215600   4.427   0.139   0.021  0.5843  0.1146 -1.2607
 1380SOL     OW15601   2.224   1.614  10.315  0.0295 -0.1613 -0.1982
 1380SOL    HW115602   2.141   1.578  10.283  1.0297 -0.6161 -2.2505
 1380SOL    HW215603   2.201   1.639  10.405 -2.8085 -2.7025 -0.2224
 1381SOL     OW15604   3.366   2.118   4.776 -0.4019  0.6762 -0.5745
 1381SOL    HW115605   3.412   2.196   4.808 -1.5657  1.6552 -1.3069
 1381SOL    HW215606   3.339   2.148   4.689  2.9792  1.6114 -1.3207
 1382SOL     OW15607   1.582   2.812   0.344 -0.4616 -0.0236  0.4857
 1382SOL    HW115608   1.611   2.753   0.275 -2.1036 -0.8396  0.4943
 1382SOL    HW215609   1.531   2.751   0.397  0.9325 -2.5354 -1.0590
 1383SOL     OW15610   1.050   4.097  16.644  0.1044 -0.1850 -0.4807
 1383SOL    HW115611   1.015   4.145  16.569 -1.1596  1.4755  1.1681
 1383SOL    HW215612   1.088   4.018  16.606 -2.0908 -1.3733 -0.1905
 1384SOL     OW15613   3.520   2.818   2.877 -0.1428  0.0155 -0.3819
 1384SOL    HW115614   3.583   2.746   2.889  1.1538  0.9013 -1.8498
 1384SOL    HW215615   3.443   2.769   2.907  1.3995 -0.8374  2.1686
 1385SOL     OW15616   3.561   3.350   1.498  0.4720 -0.2242 -0.7303
 1385SOL    HW115617   3.642   3.299   1.501 -0.9031 -2.4096 -0.5438
 1385SOL    HW215618   3.571   3.382   1.409  1.7461  2.6710  0.4563
 1386SOL     OW15619   0.117   1.500  11.563  0.0540 -0.0927 -0.0066
 1386SOL    HW115620   0.060   1.434  11.603 -0.2280 -0.8019 -1.5322
 1386SOL    HW215621   0.189   1.512  11.625  1.2105  0.0085 -1.3519
 1387SOL     OW15622   4.480   1.506   4.368  0.6100 -0.0470  0.1827
 1387SOL    HW115623   4.467   1.453   4.289  2.4094 -2.6123  1.5929
 1387SOL    HW215624   4.576   1.502   4.362  0.7223  2.2558  0.6022
 1388SOL     OW15625   1.373   3.053  14.823  0.5722  0.4496 -0.4014
 1388SOL    HW115626   1.283   3.023  14.809  1.9311 -3.1563 -1.4935
 1388SOL    HW215627   1.364   3.091  14.910  0.1301 -0.0967 -0.2058
 1389SOL     OW15628   4.040   1.097  13.246  0.4706  0.3447 -0.1079
 1389SOL    HW115629   4.015   1.115  13.155  2.1947  1.7819 -0.3060
 1389SOL    HW215630   3.994   1.168  13.291  0.8997 -0.0820  1.0046
 1390SOL     OW15631   2.489   1.742  13.037 -0.6004 -0.0031  0.1610
 1390SOL    HW115632   2.520   1.687  12.965  2.0059  1.2119  0.3260
 1390SOL    HW215633   2.461   1.826  13.000  2.0252  1.3794  1.2874
 1391SOL     OW15634   0.918   2.711  16.799 -0.2247  0.2283 -0.3489
 1391SOL    HW115635   0.929   2.619  16.824  3.1479  0.5442 -0.7516
 1391SOL    HW215636   0.992   2.721  16.739  0.8891 -1.4509  0.7483
 1392SOL     OW15637   3.821   0.388   0.566  1.1108 -0.0262  0.0343
 1392SOL    HW115638   3.866   0.419   0.645  2.3062  1.9337 -1.4229
 1392SOL    HW215639   3.859   0.301   0.553  1.6449  0.1930  0.1432
 1393SOL     OW15640   1.392   0.128  16.759 -0.7648 -0.9177 -0.3104
 1393SOL    HW115641   1.378   0.128  16.853 -0.4601  1.3091 -0.2804
 1393SOL    HW215642   1.486   0.112  16.755 -0.6229  0.5946 -3.4810
 1394SOL     OW15643   2.161   3.206   2.829  0.2822 -0.0619 -0.3945
 1394SOL    HW115644   2.187   3.295   2.808  1.4430 -0.3477 -0.2215
 1394SOL    HW215645   2.067   3.222   2.828  0.3712  0.2918 -2.4945
 1395SOL     OW15646   4.505   4.707   4.611 -0.0135 -0.1672  0.4244
 1395SOL    HW115647   4.573   4.692   4.677  1.1775 -0.4911 -0.8871
 1395SOL    HW215648   4.456   4.625   4.618 -0.2032 -0.2885 -2.4814
 1396SOL     OW15649   3.719   1.421   2.393 -0.2519 -0.4499 -0.2319
 1396SOL    HW115650   3.683   1.343   2.434 -0.2936  1.1050  2.6641
 1396SOL    HW215651   3.653   1.444   2.328  0.0237 -0.6498 -0.5883
 1397SOL     OW15652   4.078   0.721  16.875  0.0614 -0.5077  0.0623
 1397SOL    HW115653   4.110   0.657  16.939 -2.5094 -1.2560  0.5909
 1397SOL    HW215654   4.143   0.787  16.901 -1.4653  0.9266  0.2334
 1398SOL     OW15655   1.662   0.142  12.485  0.9332  0.3420  0.0968
 1398SOL    HW115656   1.716   0.081  12.537 -0.1079 -0.9306 -0.3080
 1398SOL    HW215657   1.679   0.106  12.398 -0.6988 -0.1599 -0.0145
 1399SOL     OW15658   1.960   0.667   8.504  0.0728  0.0586  0.0233
 1399SOL    HW115659   1.962   0.578   8.540  0.1842 -0.1781 -0.5541
 1399SOL    HW215660   2.039   0.678   8.451  0.4395 -2.0470  0.1301
 1400SOL     OW15661   1.827   2.747   9.710  0.1139  0.1467  0.6404
 1400SOL    HW115662   1.919   2.729   9.692  0.5777  2.3746  0.8227
 1400SOL    HW215663   1.829   2.754   9.806  2.4177  2.0879  0.4342
 1401SOL     OW15664   0.053   4.269   8.251 -0.1191 -0.4678  0.2815
 1401SOL    HW115665   0.038   4.330   8.323 -0.7575  0.4216 -0.6058
 1401SOL    HW215666   4.709   4.202   8.274  0.8044 -1.7436 -0.8581
 1402SOL     OW15667   4.320   1.242  11.913 -0.2970 -0.0229  0.3368
 1402SOL    HW115668   4.288   1.162  11.956  2.6761 -2.8178 -2.6993
 1402SOL    HW215669   4.381   1.282  11.974 -1.5822  0.6347  1.1996
 1403SOL     OW15670   2.404   0.913   4.775 -0.1105  0.3307 -0.1261
 1403SOL    HW115671   2.479   0.866   4.811 -2.2694 -3.2120 -0.2020
 1403SOL    HW215672   2.366   0.845   4.719  1.2837 -0.6364  0.1031
 1404SOL     OW15673   3.334   1.174   0.610  0.0348 -0.8426 -0.0894
 1404SOL    HW115674   3.405   1.110   0.614  0.2096 -0.5234  1.9898
 1404SOL    HW215675   3.387   1.249   0.583  0.3024 -1.0602 -0.1650
 1405SOL     OW15676   3.888   1.217   3.081  0.3467  0.1660  0.2719
 1405SOL    HW115677   3.833   1.279   3.034 -0.3566  0.5861  1.6533
 1405SOL    HW215678   3.903   1.256   3.167 -0.6181 -1.0527  0.9995
 1406SOL     OW15679   0.506   1.836   8.232  0.1055 -0.0494  0.1547
 1406SOL    HW115680   0.508   1.878   8.318  0.8215 -1.5504  0.8690
 1406SOL    HW215681   0.576   1.772   8.243  0.3962  0.3834  0.8340
 1407SOL     OW15682   2.375   4.294   7.447 -0.9611  0.0945 -0.3501
 1407SOL    HW115683   2.405   4.310   7.357  1.0891 -1.0577  0.1352
 1407SOL    HW215684   2.394   4.374   7.497  0.9364 -0.4650 -0.1835
 1408SOL     OW15685   1.230   3.317  14.640  0.3691  0.5749  0.2002
 1408SOL    HW115686   1.301   3.373  14.609  1.5079 -0.2338  1.3383
 1408SOL    HW215687   1.281   3.236  14.639  0.0157  0.3456  1.2459
 1409SOL     OW15688   0.271   2.689   5.291  0.5378  0.0739  0.3566
 1409SOL    HW115689   0.312   2.619   5.241  2.1186 -0.2091  2.0711
 1409SOL    HW215690   0.241   2.649   5.372  1.7892 -0.5291  0.5121
 1410SOL     OW15691   1.351   2.511   6.243 -0.0749  0.0634 -0.2402
 1410SOL    HW115692   1.428   2.482   6.292 -0.8490 -0.9163  0.3962
 1410SOL    HW215693   1.319   2.576   6.306  0.2691 -0.2637  0.2756
 1411SOL     OW15694   2.597   3.655   6.655  0.2797 -0.3541 -0.6340
 1411SOL    HW115695   2.586   3.742   6.616  2.4211  0.9201  1.6140
 1411SOL    HW215696   2.538   3.617   6.590  0.1993 -2.4753  0.6695
 1412SOL     OW15697   4.681   2.621   5.101  0.1430  0.1152  0.2081
 1412SOL    HW115698   4.652   2.713   5.100  0.0493  0.0167 -2.9690
 1412SOL    HW215699   4.657   2.584   5.186  1.3945  1.5458  1.1885
 1413SOL     OW15700   2.035   1.673   4.535  0.1458 -0.0965  0.4449
 1413SOL    HW115701   2.101   1.669   4.466 -1.7230  1.7252 -1.4447
 1413SOL    HW215702   2.076   1.740   4.591  0.7102  0.7053 -0.9066
 1414SOL     OW15703   4.489   2.566   5.695 -0.9599  0.3763 -0.2780
 1414SOL    HW115704   4.419   2.506   5.667  1.5121 -2.0360 -1.3320
 1414SOL    HW215705   4.446   2.650   5.711  2.3741  1.6622  1.8592
 1415SOL     OW15706   1.069   1.738   4.034 -0.3559  0.8851 -0.0759
 1415SOL    HW115707   1.094   1.791   3.958 -0.7386 -2.1261 -2.3048
 1415SOL    HW215708   1.036   1.666   3.979 -0.8080  2.6746 -2.1519
 1416SOL     OW15709   4.296   4.047   2.559  0.6268  0.5124  0.0737
 1416SOL    HW115710   4.391   4.036   2.548  0.4964 -0.7680  0.2022
 1416SOL    HW215711   4.271   3.970   2.508 -1.6655  0.6581  0.9789
 1417SOL     OW15712   1.407   2.178   0.486  0.0071  0.2952 -0.3199
 1417SOL    HW115713   1.398   2.273   0.491  1.1751  0.3874 -0.0021
 1417SOL    HW215714   1.494   2.166   0.524 -1.6367 -1.8985  2.7207
 1418SOL     OW15715   1.775   4.609   7.693 -0.0933  0.7706  0.2187
 1418SOL    HW115716   1.697   4.630   7.743 -0.4932  0.3649 -0.2393
 1418SOL    HW215717   1.794   4.516   7.705 -2.4146  0.4066  0.9772
 1419SOL     OW15718   3.597   3.050   1.289  0.1449 -0.5726  0.0672
 1419SOL    HW115719   3.662   3.119   1.270 -0.0526 -0.7680 -1.3456
 1419SOL    HW215720   3.557   3.038   1.203  0.7238 -1.2571 -0.1012
 1420SOL     OW15721   0.330   1.019  10.293 -0.0487  0.8179  0.3357
 1420SOL    HW115722   0.338   1.094  10.234 -1.3959  1.3810  0.8674
 1420SOL    HW215723   0.422   1.010  10.316 -0.8405 -3.5370  1.7874
 1421SOL     OW15724   0.533   3.914   0.334 -0.1301  0.6399 -0.2545
 1421SOL    HW115725   0.475   3.886   0.263  0.1732 -1.7745  0.4703
 1421SOL    HW215726   0.595   3.978   0.299 -0.6924  0.9399 -0.7142
 1422SOL     OW15727   0.511   0.880   5.368 -0.0690  0.0501  0.2815
 1422SOL    HW115728   0.602   0.850   5.366  0.1068  0.5117  1.1829
 1422SOL    HW215729   0.502   0.913   5.279  0.8052 -1.1514 -0.2522
 1423SOL     OW15730   1.608   0.272   5.279 -0.0466  0.3743  0.2100
 1423SOL    HW115731   1.658   0.318   5.346 -0.3830  1.9619 -0.6140
 1423SOL    HW215732   1.546   0.341   5.255  0.0268  0.5620  0.5603
 1424SOL     OW15733   0.080   3.566   9.052  0.5549 -0.5803 -0.4431
 1424SOL    HW115734   4.711   3.538   9.068  0.2748  0.4654 -0.2045
 1424SOL    HW215735   0.110   3.476   9.040 -0.0501 -0.7447 -0.6979
 1425SOL     OW15736   3.760   3.521   8.889 -0.7828  0.1852  0.0862
 1425SOL    HW115737   3.795   3.610   8.888 -0.8921  0.2262 -0.5535
 1425SOL    HW215738   3.759   3.499   8.795  1.7022  3.2948 -0.6777
 1426SOL     OW15739   0.531   0.927   3.480 -0.0199  0.1132  0.1530
 1426SOL    HW115740   0.522   0.844   3.432 -0.0505 -1.5313  2.9820
 1426SOL    HW215741   0.611   0.961   3.441  0.9466 -3.4033 -0.9811
 1427SOL     OW15742   0.142   1.143  11.257 -0.1491 -0.6426 -0.2571
 1427SOL    HW115743   0.056   1.137  11.215 -1.0646 -0.3980  1.5892
 1427SOL    HW215744   0.202   1.103  11.195  0.6542  2.2838 -1.3553
 1428SOL     OW15745   2.310   1.978  17.369 -0.3781 -0.0257 -0.5097
 1428SOL    HW115746   2.264   2.050  17.413  0.3035  0.1481 -0.0891
 1428SOL    HW215747   2.373   1.953  17.437 -1.7675 -0.6579  0.5568
 1429SOL     OW15748   0.960   3.389   7.194 -0.3082  0.3291  0.1871
 1429SOL    HW115749   0.902   3.399   7.270 -2.6587 -1.0401 -1.3937
 1429SOL    HW215750   1.036   3.433   7.230 -0.0462 -0.5698  0.7207
 1430SOL     OW15751   3.625   1.643   6.683 -0.0553 -0.1891 -0.5413
 1430SOL    HW115752   3.537   1.636   6.645 -1.2885  0.1661  2.2279
 1430SOL    HW215753   3.672   1.567   6.648 -0.9674  0.1152 -2.4714
 1431SOL     OW15754   3.820   1.452   3.947 -0.4271  0.1989  0.6914
 1431SOL    HW115755   3.866   1.398   3.882 -3.6502 -0.7759 -0.7936
 1431SOL    HW215756   3.732   1.414   3.940  1.5668 -4.0619 -1.0384
 1432SOL     OW15757   1.166   2.745   0.706 -0.0174  0.0910  0.3682
 1432SOL    HW115758   1.245   2.728   0.756  0.1282  0.5415  0.2907
 1432SOL    HW215759   1.109   2.670   0.722  1.0685 -0.6380  0.8387
 1433SOL     OW15760   4.292   0.503  15.214  0.3765 -0.2515  0.5977
 1433SOL    HW115761   4.229   0.497  15.142  1.5324  0.0105 -0.4191
 1433SOL    HW215762   4.371   0.509  15.162 -1.0489 -2.6606 -1.7978
 1434SOL     OW15763   4.220   0.825   5.611  0.4068 -0.7952  0.1365
 1434SOL    HW115764   4.217   0.789   5.523 -1.2865  2.8025 -1.2609
 1434SOL    HW215765   4.223   0.740   5.654 -2.6461 -1.3332 -0.7122
 1435SOL     OW15766   0.737   3.135   3.355 -0.1317 -0.4596  0.6426
 1435SOL    HW115767   0.732   3.197   3.428 -0.1145 -1.4964  1.5095
 1435SOL    HW215768   0.650   3.103   3.331 -0.5288  0.7676  0.4154
 1436SOL     OW15769   0.412   4.242   4.226  0.3642  0.4241  0.4864
 1436SOL    HW115770   0.331   4.232   4.276  0.4851 -1.9024  0.2146
 1436SOL    HW215771   0.449   4.325   4.256 -0.2844  1.5940 -1.9951
 1437SOL     OW15772   3.560   2.739   4.551 -0.6932  0.2108 -0.2932
 1437SOL    HW115773   3.576   2.664   4.493 -3.0736  0.2785 -1.0627
 1437SOL    HW215774   3.601   2.706   4.631 -0.1575  1.1711 -0.1811
 1438SOL     OW15775   1.686   2.442  15.265 -0.1408 -0.2237 -0.1714
 1438SOL    HW115776   1.648   2.361  15.233  0.5822 -0.3597 -0.6696
 1438SOL    HW215777   1.699   2.494  15.185  1.1380  1.0839  0.8728
 1439SOL     OW15778   3.733   0.995   4.051  0.9959  0.2008 -0.1383
 1439SOL    HW115779   3.647   0.960   4.077  1.1191  0.4710  0.6341
 1439SOL    HW215780   3.775   0.959   4.128  0.9383 -0.4218 -0.3929
 1440SOL     OW15781   0.735   2.514  15.655  0.2434  0.2876 -0.4431
 1440SOL    HW115782   0.694   2.589  15.612  1.0355  0.8242 -0.2539
 1440SOL    HW215783   0.658   2.479  15.699  1.1129 -0.0803  0.7689
 1441SOL     OW15784   2.448   3.020   9.828  0.5624  0.4603 -0.2094
 1441SOL    HW115785   2.419   3.079   9.897  1.0105  0.2264  0.1792
 1441SOL    HW215786   2.441   3.080   9.754  0.4935 -0.9181 -1.3066
 1442SOL     OW15787   3.029   1.353   4.127  0.1703  0.2094 -0.0352
 1442SOL    HW115788   3.097   1.305   4.175 -0.1028  0.1857  0.3254
 1442SOL    HW215789   2.968   1.285   4.102  0.5029 -0.8359  1.9909
 1443SOL     OW15790   3.098   2.947   9.964 -0.8432 -0.6229 -0.0462
 1443SOL    HW115791   3.020   2.892   9.957 -0.7107 -0.8750  0.4627
 1443SOL    HW215792   3.116   2.961   9.871 -0.4956 -1.0513 -0.0434
 1444SOL     OW15793   2.295   3.941   0.024 -0.0799  0.3274  0.6966
 1444SOL    HW115794   2.247   3.921   0.104 -0.1566 -1.7458  0.1523
 1444SOL    HW215795   2.246   4.012  17.668 -0.6335 -1.2676 -1.4220
 1445SOL     OW15796   3.661   4.661  10.102 -0.2339  0.6367  0.0594
 1445SOL    HW115797   3.688   4.597  10.168 -0.7927  1.2581  0.8799
 1445SOL    HW215798   3.735   4.670  10.042 -0.4487  0.5465 -0.2236
 1446SOL     OW15799   1.226   2.374   7.817 -0.0566  0.3663  0.9402
 1446SOL    HW115800   1.216   2.455   7.766  2.4403  0.2120  0.2102
 1446SOL    HW215801   1.281   2.319   7.761  0.1172  0.5522  0.9235
 1447SOL     OW15802   4.275   3.276   2.298  0.4171 -0.0959  0.0870
 1447SOL    HW115803   4.305   3.294   2.209 -0.0202  0.4242  0.0421
 1447SOL    HW215804   4.360   3.255   2.336  0.2528 -0.7184  0.1014
 1448SOL     OW15805   2.996   0.582  14.427  0.3309  0.0866  0.2224
 1448SOL    HW115806   2.922   0.629  14.467  2.1974  4.1635 -1.1069
 1448SOL    HW215807   3.058   0.612  14.494 -0.3595  0.6086  0.6341
 1449SOL     OW15808   1.028   1.374   8.960 -0.0262 -0.6398 -0.5550
 1449SOL    HW115809   0.971   1.310   8.917 -3.2877  0.5668  1.9601
 1449SOL    HW215810   0.957   1.423   9.001 -0.2191 -1.2622 -0.1479
 1450SOL     OW15811   2.847   0.695   2.878  0.0072 -0.1392 -0.6799
 1450SOL    HW115812   2.933   0.675   2.841  0.7282 -1.5734  1.8187
 1450SOL    HW215813   2.813   0.753   2.809  1.1709  0.2483 -0.9223
 1451SOL     OW15814   2.056   3.755   5.046 -0.6573  0.1545 -0.5427
 1451SOL    HW115815   1.982   3.767   5.106 -1.5964 -0.4833 -1.5937
 1451SOL    HW215816   2.129   3.731   5.103  0.3194  2.5996 -0.7844
 1452SOL     OW15817   1.244   2.791   2.566 -0.4285  0.0885 -0.1293
 1452SOL    HW115818   1.181   2.768   2.634 -0.6962  1.2293  0.0152
 1452SOL    HW215819   1.314   2.735   2.600 -0.9864  0.3503  1.4611
 1453SOL     OW15820   3.199   2.809   6.203 -0.6198 -0.5529 -0.2790
 1453SOL    HW115821   3.218   2.903   6.200 -1.2208 -0.5541 -4.0110
 1453SOL    HW215822   3.136   2.806   6.275 -0.0310 -0.0835  0.2612
 1454SOL     OW15823   0.032   1.826   1.339 -0.4644  0.5401  0.2944
 1454SOL    HW115824   0.063   1.788   1.257 -0.9133  1.8204 -0.4689
 1454SOL    HW215825   0.112   1.846   1.387  0.0373 -0.5724 -0.0850
 1455SOL     OW15826   2.821   4.190   8.892  0.2464  0.2115  0.2746
 1455SOL    HW115827   2.871   4.108   8.901 -0.0439  0.2058  1.8722
 1455SOL    HW215828   2.738   4.157   8.856  0.7237 -2.1916  1.3255
 1456SOL     OW15829   0.474   1.946   9.086  0.0961 -0.0527  0.2379
 1456SOL    HW115830   0.503   1.901   9.166 -1.1827 -2.8645 -0.8755
 1456SOL    HW215831   0.424   1.877   9.042 -0.8181  0.3528  0.6572
 1457SOL     OW15832   4.207   3.521   8.461  0.1417  0.3176  0.8133
 1457SOL    HW115833   4.168   3.447   8.414  0.6323  0.7518 -0.2699
 1457SOL    HW215834   4.158   3.518   8.543 -0.1793  0.4303  0.6260
 1458SOL     OW15835   3.475   2.180   1.329 -0.0805  0.4474  0.3578
 1458SOL    HW115836   3.411   2.159   1.262  0.6534 -0.2977 -0.1214
 1458SOL    HW215837   3.513   2.263   1.300 -1.4798  0.8540 -0.2688
 1459SOL     OW15838   1.547   4.322   7.801  0.4248 -0.3123  0.0287
 1459SOL    HW115839   1.552   4.417   7.796  0.3811 -0.1791  2.2978
 1459SOL    HW215840   1.642   4.310   7.799  0.5171  0.0926  1.8579
 1460SOL     OW15841   2.933   3.004   1.243 -0.8101  0.2154 -0.2544
 1460SOL    HW115842   3.003   2.958   1.290 -0.2610  2.1507  0.7808
 1460SOL    HW215843   2.857   2.946   1.258 -0.3748  0.0140  1.1586
 1461SOL     OW15844   2.299   0.311   1.319 -0.0469  0.3912 -0.0525
 1461SOL    HW115845   2.294   0.317   1.224 -0.4980  1.2656  0.0334
 1461SOL    HW215846   2.239   0.379   1.348  1.0732  1.6192 -0.6388
 1462SOL     OW15847   0.003   2.396   8.143  0.2788  0.2483  0.0398
 1462SOL    HW115848   4.629   2.407   8.146  0.0301 -2.0333  0.5155
 1462SOL    HW215849   0.010   2.334   8.216  1.7488  0.1731 -0.1601
 1463SOL     OW15850   2.868   4.133   9.206 -0.3282 -0.4854  0.1866
 1463SOL    HW115851   2.844   4.197   9.139  2.0772  1.0307  0.7844
 1463SOL    HW215852   2.824   4.177   9.279 -0.1074  0.9794 -0.5568
 1464SOL     OW15853   1.816   3.566   4.950 -0.0052  0.4853  0.3631
 1464SOL    HW115854   1.885   3.538   4.890 -0.2662 -1.1880  0.8430
 1464SOL    HW215855   1.858   3.636   5.000  1.6058 -0.8886  0.9811
 1465SOL     OW15856   1.937   3.997   3.673 -0.5552 -0.3716 -0.0475
 1465SOL    HW115857   1.869   3.930   3.672 -0.2373 -0.7213  1.6089
 1465SOL    HW215858   2.001   3.970   3.607 -0.8294 -1.6913  0.2262
 1466SOL     OW15859   2.386   0.257   5.995  0.9040 -0.4674 -0.0674
 1466SOL    HW115860   2.406   0.308   6.074  1.1851 -0.6926  0.0042
 1466SOL    HW215861   2.302   0.214   6.015  1.4351 -0.9699  1.0912
 1467SOL     OW15862   3.582   0.432   2.148 -0.0093  0.2664  0.4271
 1467SOL    HW115863   3.523   0.506   2.133 -0.8025 -0.5399 -0.4510
 1467SOL    HW215864   3.530   0.397   2.220  0.8714 -0.2804  0.7972
 1468SOL     OW15865   1.625   3.728   6.470  0.4555  0.3673  0.1889
 1468SOL    HW115866   1.544   3.745   6.421  1.3246  2.2748 -0.5882
 1468SOL    HW215867   1.647   3.639   6.444 -3.1769 -0.1374 -1.2108
 1469SOL     OW15868   1.526   1.918   9.164 -0.0569 -0.1219  0.1529
 1469SOL    HW115869   1.598   1.857   9.180  1.2930  1.2487 -0.6872
 1469SOL    HW215870   1.527   1.907   9.069  1.7471 -1.4994  0.3532
 1470SOL     OW15871   3.663   2.581   2.444 -0.3671  0.3005 -0.0830
 1470SOL    HW115872   3.626   2.652   2.496  0.8061  0.5824  0.3616
 1470SOL    HW215873   3.754   2.593   2.473 -0.9089  1.7250  1.0350
 1471SOL     OW15874   2.546   1.530  13.185 -0.0384 -0.1747  0.2335
 1471SOL    HW115875   2.619   1.586  13.212  0.1749 -1.0642  1.4696
 1471SOL    HW215876   2.489   1.591  13.138 -0.9616 -0.2513  1.2636
 1472SOL     OW15877   3.064   1.066   2.189  0.1616 -0.2857 -0.6500
 1472SOL    HW115878   3.127   1.110   2.132  0.1312  0.0083 -0.4570
 1472SOL    HW215879   3.008   1.037   2.117 -3.5050 -1.5788  2.6985
 1473SOL     OW15880   4.099   1.593  12.574  0.0166 -0.2020  0.0263
 1473SOL    HW115881   4.133   1.578  12.486 -0.8563  0.5117 -0.4337
 1473SOL    HW215882   4.183   1.583  12.618  1.0184 -0.3828 -1.9229
 1474SOL     OW15883   2.251   3.128  10.032 -0.2764 -0.3362  0.1871
 1474SOL    HW115884   2.286   3.195  10.092 -2.1145  2.2347 -1.5954
 1474SOL    HW215885   2.245   3.187   9.957  1.4628 -0.5373 -0.1186
 1475SOL     OW15886   2.205   4.269   1.460  0.9705  0.1459 -0.2308
 1475SOL    HW115887   2.159   4.345   1.495  0.9494 -0.8751  1.9105
 1475SOL    HW215888   2.294   4.304   1.462 -0.3478  3.4551  0.8664
 1476SOL     OW15889   3.021   0.975   5.047 -0.1450 -0.3198 -0.2851
 1476SOL    HW115890   3.047   1.016   4.965 -1.4120 -0.0546 -0.5505
 1476SOL    HW215891   2.926   0.984   5.043  0.0961  1.0209 -2.6248
 1477SOL     OW15892   1.947   0.940   5.510  0.4807 -0.1868  0.3118
 1477SOL    HW115893   1.870   0.886   5.491  1.6764 -1.3333 -1.1830
 1477SOL    HW215894   2.016   0.892   5.465 -0.1682 -0.7447 -0.0819
 1478SOL     OW15895   1.679   3.477   1.575  0.6324 -0.4459 -0.5666
 1478SOL    HW115896   1.655   3.496   1.484 -2.2264 -1.5548 -0.0220
 1478SOL    HW215897   1.598   3.483   1.624  0.7532  2.7062 -0.7503
 1479SOL     OW15898   1.087   0.048  16.977 -0.3401 -0.2394 -0.7143
 1479SOL    HW115899   1.172   0.063  17.018 -0.3443 -0.2741 -0.6929
 1479SOL    HW215900   1.105   4.679  16.950  0.5495 -0.6751  1.3047
 1480SOL     OW15901   1.667   3.126   4.512  0.5399  0.4133 -0.2530
 1480SOL    HW115902   1.741   3.065   4.509 -1.4007 -1.9323 -0.8518
 1480SOL    HW215903   1.662   3.160   4.423  1.0423 -0.0656 -0.4701
 1481SOL     OW15904   2.374   1.881   9.289 -0.4837 -0.4805 -0.3164
 1481SOL    HW115905   2.314   1.928   9.346  2.5997  2.8616  0.2084
 1481SOL    HW215906   2.392   1.813   9.353 -3.0123 -1.1774 -0.3543
 1482SOL     OW15907   2.445   4.574   1.844  0.2081  0.2068 -0.0548
 1482SOL    HW115908   2.380   4.598   1.777  0.7885 -0.1862 -0.7596
 1482SOL    HW215909   2.525   4.583   1.792  0.4925 -1.1996  0.1503
 1483SOL     OW15910   1.859   4.108  10.435  0.6824 -0.3886  0.5294
 1483SOL    HW115911   1.820   4.099  10.348  2.5225 -0.4427 -0.2910
 1483SOL    HW215912   1.949   4.138  10.420  1.3840 -1.9443  1.5482
 1484SOL     OW15913   0.801   0.687   9.212  0.0555 -0.5729  0.0840
 1484SOL    HW115914   0.790   0.755   9.279  0.3569  0.0272 -0.4688
 1484SOL    HW215915   0.887   0.707   9.176 -0.6032  0.5430 -0.8684
 1485SOL     OW15916   1.210   0.550   7.494 -0.0020 -0.5280  0.5437
 1485SOL    HW115917   1.122   0.556   7.457 -0.1735  2.7255  1.4769
 1485SOL    HW215918   1.235   0.639   7.466 -0.7298  0.0394  1.7297
 1486SOL     OW15919   1.680   1.904   6.288 -0.5934 -0.2065  0.0038
 1486SOL    HW115920   1.639   1.873   6.208  3.7720 -0.3358 -2.2156
 1486SOL    HW215921   1.718   1.986   6.257  0.9715 -1.5012 -1.4586
 1487SOL     OW15922   3.684   1.884   5.536  0.2297  0.5850 -0.1325
 1487SOL    HW115923   3.704   1.969   5.495 -0.4269 -1.0057 -3.7920
 1487SOL    HW215924   3.661   1.916   5.623  0.3829  0.6883 -0.1285
 1488SOL     OW15925   2.054   3.208  10.515 -0.3425 -0.0753  0.2478
 1488SOL    HW115926   2.144   3.202  10.547 -0.3098  1.1650  0.3781
 1488SOL    HW215927   2.055   3.303  10.517 -2.8350 -0.0488 -0.7527
 1489SOL     OW15928   2.879   2.661   8.557 -0.3332  0.3969  0.3988
 1489SOL    HW115929   2.854   2.750   8.581 -0.7364  1.0222 -2.4150
 1489SOL    HW215930   2.828   2.669   8.477 -3.0433 -0.0180  2.0803
 1490SOL     OW15931   2.781   3.188   6.302 -0.0252 -0.6927 -0.2355
 1490SOL    HW115932   2.799   3.249   6.373  1.5671 -0.6929 -0.6363
 1490SOL    HW215933   2.757   3.241   6.226  1.2507 -0.6230 -0.5892
 1491SOL     OW15934   0.489   3.142   5.564  0.4579 -0.9266  0.3811
 1491SOL    HW115935   0.556   3.172   5.503  0.2866 -0.2445  0.5246
 1491SOL    HW215936   0.438   3.072   5.523  0.0521 -0.3881 -0.0322
 1492SOL     OW15937   1.220   2.170   1.837 -0.3493 -0.7660  0.5134
 1492SOL    HW115938   1.181   2.097   1.788 -1.4020  0.2947 -0.2166
 1492SOL    HW215939   1.147   2.229   1.819 -0.2514 -0.5915  0.6887
 1493SOL     OW15940   1.118   2.976  14.807  0.0979  0.2777 -0.0185
 1493SOL    HW115941   1.065   3.042  14.763  0.5648  1.0500  0.5863
 1493SOL    HW215942   1.056   2.929  14.864  1.0175 -0.7217  0.1705
 1494SOL     OW15943   4.286   4.370   9.959 -0.2487  0.4617 -0.1475
 1494SOL    HW115944   4.261   4.339  10.046 -1.9877  0.3607 -0.6995
 1494SOL    HW215945   4.299   4.289   9.911 -1.2192  0.4324 -0.3436
 1495SOL     OW15946   0.724   1.146   1.352 -0.5028  0.4417  0.2984
 1495SOL    HW115947   0.709   1.212   1.420 -1.4655 -1.7179  2.1672
 1495SOL    HW215948   0.783   1.188   1.289  1.2374 -3.5465 -0.6882
 1496SOL     OW15949   1.049   1.182   6.773  0.4387 -0.4237 -0.0807
 1496SOL    HW115950   1.066   1.169   6.680 -2.5673 -1.1332 -0.5470
 1496SOL    HW215951   1.089   1.268   6.780 -0.6883  0.1279 -0.4292
 1497SOL     OW15952   0.364   0.482   4.038  0.4552 -0.1034 -0.3152
 1497SOL    HW115953   0.305   0.407   4.039 -0.5984  0.6881 -3.0037
 1497SOL    HW215954   0.308   0.559   4.024  0.1515 -0.2964 -0.1709
 1498SOL     OW15955   4.115   2.661   7.067  0.1338  0.2978 -0.0409
 1498SOL    HW115956   4.032   2.615   7.058 -0.4445  1.1554  0.9457
 1498SOL    HW215957   4.108   2.728   6.999 -0.0927  1.4503  1.0973
 1499SOL     OW15958   4.665   0.166   9.264 -0.3523  0.7751  0.0178
 1499SOL    HW115959   4.648   0.220   9.341  3.5107  1.8397  0.1483
 1499SOL    HW215960   4.574   0.160   9.236 -0.4549  0.1984  0.4904
 1500SOL     OW15961   1.594   0.818   2.508 -0.2379  0.3315  0.4213
 1500SOL    HW115962   1.554   0.876   2.444 -3.7870 -0.8705  1.5329
 1500SOL    HW215963   1.587   0.736   2.460 -2.1480  0.4779  0.4420
 1501SOL     OW15964   4.458   1.840   3.647  0.3732  0.0345 -0.2173
 1501SOL    HW115965   4.407   1.882   3.717 -1.2035  1.3509 -2.1821
 1501SOL    HW215966   4.502   1.906   3.595 -0.4588  0.5489 -0.2610
 1502SOL     OW15967   3.748   0.779   2.044 -0.8555 -0.2955 -0.4415
 1502SOL    HW115968   3.817   0.845   2.040 -2.4750  1.4392  0.3629
 1502SOL    HW215969   3.794   0.713   1.994  1.3988 -1.2278  2.8401
 1503SOL     OW15970   2.840   1.235   1.964  0.9530  0.2748  0.0792
 1503SOL    HW115971   2.758   1.233   1.915  0.6950 -1.5566  0.5744
 1503SOL    HW215972   2.862   1.144   1.986  2.4876  0.4818 -0.6779
 1504SOL     OW15973   4.700   1.372   5.077 -0.5581 -0.8303 -0.4284
 1504SOL    HW115974   4.702   1.288   5.031 -1.0437 -0.9023 -0.3169
 1504SOL    HW215975   4.680   1.429   5.003  0.5415 -0.3889 -0.3961
 1505SOL     OW15976   2.228   3.638   7.436  0.8765  0.1335 -0.2333
 1505SOL    HW115977   2.275   3.561   7.403  0.2362 -0.8502  1.1235
 1505SOL    HW215978   2.285   3.678   7.502 -1.0615 -0.1356  1.6051
 1506SOL     OW15979   3.275   1.109   6.522  0.7427  0.0273  0.0046
 1506SOL    HW115980   3.304   1.043   6.585  0.1275  0.4436  0.7158
 1506SOL    HW215981   3.317   1.185   6.561 -1.1102  2.3222 -2.5324
 1507SOL     OW15982   1.515   2.713   6.976  0.2087 -0.0057 -0.1966
 1507SOL    HW115983   1.419   2.718   6.966  0.2472  2.1512  0.3207
 1507SOL    HW215984   1.542   2.793   6.931 -1.4950  1.5540  1.5185
 1508SOL     OW15985   1.164   1.803   8.061  0.6251 -0.1942 -0.0547
 1508SOL    HW115986   1.232   1.865   8.087 -0.2482  0.3428  0.9593
 1508SOL    HW215987   1.209   1.749   7.995 -0.8365 -0.7699 -0.5738
 1509SOL     OW15988   3.462   2.845   7.377 -0.2852 -0.4052  0.1471
 1509SOL    HW115989   3.465   2.925   7.430 -3.0658  0.5519 -1.1546
 1509SOL    HW215990   3.428   2.783   7.441 -1.6418  1.7922  1.5512
 1510SOL     OW15991   1.967   2.553   4.538  0.1572  0.4896  0.1474
 1510SOL    HW115992   1.967   2.471   4.489 -1.0562  0.4733  0.1842
 1510SOL    HW215993   1.975   2.523   4.629  0.8986 -0.8573 -0.3682
 1511SOL     OW15994   3.549   1.140   6.941  0.8770 -0.1091  0.2313
 1511SOL    HW115995   3.601   1.194   6.882  1.4907  1.4415  2.1984
 1511SOL    HW215996   3.562   1.051   6.907 -0.8497 -0.6825  1.0351
 1512SOL     OW15997   4.509   3.659  12.511 -0.1558  0.3355  0.3954
 1512SOL    HW115998   4.546   3.744  12.536  1.2080 -0.4200  0.9303
 1512SOL    HW215999   4.423   3.655  12.553 -0.2809  0.5411  0.1556
 1513SOL     OW16000   3.151   4.032   2.324 -0.5821 -0.4111  0.3700
 1513SOL    HW116001   3.206   3.993   2.392  3.0608  2.9016 -0.7261
 1513SOL    HW216002   3.189   4.007   2.240  0.9606 -0.9124  1.2283
 1514SOL     OW16003   4.085   2.942   2.513  0.1186  0.6020 -0.1271
 1514SOL    HW116004   4.167   2.904   2.481 -0.7259 -1.5664  0.2751
 1514SOL    HW216005   4.035   2.879   2.461  2.8068 -0.1689 -1.7939
 1515SOL     OW16006   1.393   3.405   5.369  0.8990  0.2500  0.0931
 1515SOL    HW116007   1.461   3.443   5.425  0.0149  0.7733  0.8243
 1515SOL    HW216008   1.420   3.442   5.285 -0.8597  1.9429  0.2628
 1516SOL     OW16009   2.808   3.487   1.899  0.3138  0.1995 -0.7705
 1516SOL    HW116010   2.714   3.507   1.899  0.7693  2.3375 -0.5409
 1516SOL    HW216011   2.807   3.400   1.939  1.9195 -0.5751 -2.4516
 1517SOL     OW16012   1.787   4.600   2.157  0.0346 -0.1445 -0.2431
 1517SOL    HW116013   1.752   4.529   2.212 -0.5461  0.9011  0.7362
 1517SOL    HW216014   1.874   4.621   2.191 -0.5098  1.2774  0.2475
 1518SOL     OW16015   2.340   0.000   5.621 -0.4268 -0.2770 -1.3022
 1518SOL    HW116016   2.302   0.058   5.555 -0.6756 -1.1270 -1.9030
 1518SOL    HW216017   2.386   4.658   5.566 -1.1809 -2.5359  0.6445
 1519SOL     OW16018   0.674   1.000   8.026  0.6983  0.1182 -0.5340
 1519SOL    HW116019   0.658   1.071   8.088  0.2809 -0.1068 -0.3861
 1519SOL    HW216020   0.685   1.041   7.940 -0.7931  1.4347 -0.1004
 1520SOL     OW16021   2.949   3.409  16.404  0.3673  0.2699 -0.4866
 1520SOL    HW116022   3.017   3.408  16.336  1.7717  0.6940  0.9189
 1520SOL    HW216023   2.993   3.441  16.483 -0.5199 -1.6410  0.7861
 1521SOL     OW16024   1.750   2.166   6.171 -0.3453 -0.4313 -0.2139
 1521SOL    HW116025   1.824   2.189   6.114 -0.2462 -0.3240 -0.0414
 1521SOL    HW216026   1.681   2.173   6.104  1.6072  0.8425 -2.0876
 1522SOL     OW16027   3.126   3.574  12.156 -0.3741  0.4110 -0.4475
 1522SOL    HW116028   3.182   3.651  12.146 -0.1983  0.1440 -1.5667
 1522SOL    HW216029   3.187   3.523  12.209 -2.1913 -1.5014 -0.1800
 1523SOL     OW16030   3.880   1.701   4.877  0.0101  0.2536  0.0629
 1523SOL    HW116031   3.940   1.727   4.806  2.2420 -0.1007  1.8256
 1523SOL    HW216032   3.803   1.757   4.863 -1.0644 -1.5997 -1.4813
 1524SOL     OW16033   3.626   3.433   9.536 -0.2630  0.2437  0.4818
 1524SOL    HW116034   3.543   3.430   9.488 -0.1433 -2.8633  0.4995
 1524SOL    HW216035   3.658   3.343   9.526  0.0970  0.1513  2.4780
 1525SOL     OW16036   0.726   0.941   5.680  0.1282  0.2059 -0.6234
 1525SOL    HW116037   0.682   1.025   5.672  0.6101  0.6123  0.9114
 1525SOL    HW216038   0.773   0.946   5.597  0.7656  0.1048 -0.2762
 1526SOL     OW16039   4.646   1.957   5.939  0.5924 -0.4304  0.1420
 1526SOL    HW116040   4.608   1.924   6.021 -2.0750 -1.0112 -1.3074
 1526SOL    HW216041   4.619   1.879   5.891 -2.0112 -0.5085  1.7219
 1527SOL     OW16042   1.255   0.093   0.655 -0.1805  0.1153  0.5062
 1527SOL    HW116043   1.292   0.049   0.578 -0.5324  1.8541 -0.6634
 1527SOL    HW216044   1.195   0.154   0.612  1.8807  0.9212 -1.2259
 1528SOL     OW16045   1.956   0.534  13.603 -0.3428 -0.4295 -0.1304
 1528SOL    HW116046   1.914   0.478  13.538  0.1326  2.6358 -3.0713
 1528SOL    HW216047   1.918   0.500  13.684  0.9218  1.8519  1.4054
 1529SOL     OW16048   4.648   2.166   6.206  0.1499 -0.7905 -0.2300
 1529SOL    HW116049   4.629   2.254   6.236  1.2661 -0.1959 -1.2894
 1529SOL    HW216050   4.573   2.124   6.249 -0.3065  0.1521 -0.1218
 1530SOL     OW16051   2.587   3.847  16.551 -1.2795 -0.5887 -0.4371
 1530SOL    HW116052   2.603   3.846  16.457  1.4077  1.6350 -0.0207
 1530SOL    HW216053   2.492   3.856  16.544 -1.2065 -0.0975 -0.7757
 1531SOL     OW16054   1.166   2.109   5.468  0.1515  0.1857  0.1471
 1531SOL    HW116055   1.127   2.111   5.381  0.6942 -0.9125 -0.1290
 1531SOL    HW216056   1.149   2.016   5.483  1.1921 -0.1755 -0.9351
 1532SOL     OW16057   1.445   1.048   7.769  0.2328  0.0006 -0.6601
 1532SOL    HW116058   1.478   1.069   7.681 -0.0529  0.0209 -0.7618
 1532SOL    HW216059   1.531   1.016   7.798 -1.3811 -2.1754  1.6545
 1533SOL     OW16060   3.440   0.767   7.974 -0.2339 -0.4489 -0.4239
 1533SOL    HW116061   3.381   0.794   8.045  0.9441 -0.3105  0.5165
 1533SOL    HW216062   3.430   0.672   7.979 -0.5158 -0.3981  0.0035
 1534SOL     OW16063   1.782   3.831   1.272  0.2937  0.3477  0.0393
 1534SOL    HW116064   1.852   3.884   1.233 -0.1028  2.1836  1.8365
 1534SOL    HW216065   1.794   3.865   1.360  0.2257  1.2484 -0.2998
 1535SOL     OW16066   1.548   4.013   8.528  0.6586  0.2569  0.6251
 1535SOL    HW116067   1.569   3.972   8.444  1.0807 -0.2175  0.9665
 1535SOL    HW216068   1.481   4.074   8.496  0.0528 -0.5260  0.4114
 1536SOL     OW16069   0.699   3.458  16.127 -0.0178 -0.1890  0.3861
 1536SOL    HW116070   0.756   3.510  16.184  0.6166  0.8403 -1.2101
 1536SOL    HW216071   0.636   3.416  16.186  0.3348  1.9541  2.2983
 1537SOL     OW16072   2.735   2.293   1.882  0.1971 -0.5179  0.4123
 1537SOL    HW116073   2.771   2.373   1.845 -0.7086 -1.3096 -2.1577
 1537SOL    HW216074   2.728   2.258   1.793  2.3397  0.9838 -0.3517
 1538SOL     OW16075   4.650   1.339   8.503 -0.2612 -0.7736 -0.4996
 1538SOL    HW116076   4.672   1.432   8.514  1.6396 -1.0788 -1.7337
 1538SOL    HW216077   4.561   1.337   8.538  0.5494 -0.2279  1.6093
 1539SOL     OW16078   0.256   3.918  11.403  0.7175  0.2195 -0.8478
 1539SOL    HW116079   0.220   3.832  11.423  2.7527 -0.2405  0.8752
 1539SOL    HW216080   0.246   3.915  11.308 -0.7602 -0.1197 -0.6783
 1540SOL     OW16081   0.503   2.308   3.502 -0.1186  0.6572 -0.0498
 1540SOL    HW116082   0.549   2.314   3.586 -1.0384  0.4396  0.4630
 1540SOL    HW216083   0.427   2.364   3.509  0.5188  1.6820 -1.3315
 1541SOL     OW16084   1.151   2.029   4.978 -0.6949  0.3611 -0.3637
 1541SOL    HW116085   1.218   2.081   4.932  0.3587 -0.4782  0.2124
 1541SOL    HW216086   1.171   1.958   4.917 -1.5550 -0.3037  0.1242
 1542SOL     OW16087   2.762   2.204   5.416  0.1883  0.2893  0.0252
 1542SOL    HW116088   2.756   2.214   5.511 -1.6899 -3.5250  0.3112
 1542SOL    HW216089   2.857   2.213   5.413  0.2330 -0.3967 -1.0036
 1543SOL     OW16090   4.017   4.382   2.335 -0.3273 -0.1115  0.5668
 1543SOL    HW116091   4.104   4.366   2.371  0.8521  2.8906 -0.9090
 1543SOL    HW216092   4.029   4.472   2.306  0.3304 -0.1676  0.6762
 1544SOL     OW16093   0.043   3.892  16.285 -0.0680 -0.1602 -0.0719
 1544SOL    HW116094   0.092   3.831  16.230 -0.6520 -1.5950  1.0057
 1544SOL    HW216095   0.073   3.872  16.374 -1.0623  0.9907  0.5199
 1545SOL     OW16096   0.322   2.460  11.413  0.1192  0.4360 -0.1104
 1545SOL    HW116097   0.321   2.364  11.411  0.0504  0.3922  2.8670
 1545SOL    HW216098   0.253   2.476  11.478  0.1042  1.0374 -0.2737
 1546SOL     OW16099   2.193   2.406   5.890  0.5758  0.3590  0.3812
 1546SOL    HW116100   2.199   2.374   5.800  1.8838  0.3952  0.4450
 1546SOL    HW216101   2.133   2.341   5.926  1.5686 -0.3982  0.6943
 1547SOL     OW16102   0.181   2.228   7.393  0.3212  0.2285  0.1629
 1547SOL    HW116103   0.221   2.160   7.447  0.1494 -0.5578 -0.7009
 1547SOL    HW216104   0.113   2.265   7.450  1.2067 -0.3243  1.5858
 1548SOL     OW16105   0.799   1.363   6.637 -0.1515  0.5979  0.4546
 1548SOL    HW116106   0.891   1.339   6.648 -0.2020  0.8931  1.5789
 1548SOL    HW216107   0.777   1.328   6.724  0.3209  1.9980  1.1402
 1549SOL     OW16108   2.550   0.635   1.736  0.5212 -0.4276 -0.0040
 1549SOL    HW116109   2.572   0.650   1.644 -3.9763 -1.2007 -1.2463
 1549SOL    HW216110   2.562   0.541   1.751  2.4900 -0.2415 -0.4357
 1550SOL     OW16111   4.405   1.012   1.041 -0.1256 -0.2041 -0.5633
 1550SOL    HW116112   4.355   1.056   1.109  1.0817 -0.1027  0.2642
 1550SOL    HW216113   4.459   1.082   1.005  0.4472  0.3963  1.4674
 1551SOL     OW16114   2.852   3.531   6.678  0.3049 -0.3361 -0.3837
 1551SOL    HW116115   2.911   3.558   6.607  0.5526 -1.2710 -0.5345
 1551SOL    HW216116   2.775   3.585   6.662  1.7712  2.1418  0.8204
 1552SOL     OW16117   0.212   0.834  11.864 -0.2752 -0.1354 -0.2208
 1552SOL    HW116118   0.124   0.850  11.897  0.1060  1.7309 -0.0786
 1552SOL    HW216119   0.224   0.911  11.809 -0.8335  0.8241  0.9948
 1553SOL     OW16120   4.568   0.459   0.192 -0.3234 -0.6272  0.2771
 1553SOL    HW116121   4.601   0.430   0.277  2.9816  1.4812 -0.2769
 1553SOL    HW216122   4.511   0.530   0.220 -3.0639 -2.8280  0.2474
 1554SOL     OW16123   0.004   1.311   3.685 -0.0641  0.1402 -0.0076
 1554SOL    HW116124   0.029   1.384   3.628  0.2510 -2.0300 -2.6177
 1554SOL    HW216125   4.683   1.270   3.609  0.9416  1.6398 -1.3703
 1555SOL     OW16126   1.311   4.527   8.589  0.0711  0.5509  0.0459
 1555SOL    HW116127   1.373   4.545   8.660 -0.5727  0.5341  0.6152
 1555SOL    HW216128   1.283   4.439   8.614  0.4694  0.4504  0.1432
 1556SOL     OW16129   3.857   4.464   4.484 -0.0558  0.1922  0.5447
 1556SOL    HW116130   3.833   4.466   4.577  2.1755  0.8614  1.1240
 1556SOL    HW216131   3.774   4.464   4.438 -1.3748  1.7263  2.9545
 1557SOL     OW16132   3.367   1.046   2.827  0.6448 -0.1631  0.0374
 1557SOL    HW116133   3.291   1.096   2.799 -0.3997 -1.3719  0.6785
 1557SOL    HW216134   3.322   0.963   2.839  1.6130 -0.3960  2.2135
 1558SOL     OW16135   3.103   2.182  11.706  0.4616 -0.5403  0.1023
 1558SOL    HW116136   3.113   2.268  11.748  2.7786 -1.2497  1.0391
 1558SOL    HW216137   3.173   2.138  11.755  0.5279  0.6530  1.0899
 1559SOL     OW16138   3.421   4.568  13.180 -0.4952  0.2574 -0.5600
 1559SOL    HW116139   3.415   4.557  13.274 -1.1341 -0.4070 -0.6833
 1559SOL    HW216140   3.365   4.498  13.146 -1.4992  1.7745 -2.0872
 1560SOL     OW16141   0.054   2.749  15.704  0.2444  0.3547  0.1691
 1560SOL    HW116142   0.039   2.748  15.610 -0.1593 -1.5549  0.2448
 1560SOL    HW216143   0.055   2.843  15.717 -1.3391  0.3294  0.4614
 1561SOL     OW16144   0.421   4.100   8.338 -0.1150 -0.2043 -0.3793
 1561SOL    HW116145   0.403   4.180   8.387  1.0460 -1.6416  2.3643
 1561SOL    HW216146   0.377   4.129   8.258 -0.3410 -1.8022 -0.8458
 1562SOL     OW16147   3.371   1.808   9.587  0.3895 -0.2944  0.2616
 1562SOL    HW116148   3.322   1.759   9.653 -0.2525 -2.0612 -1.5289
 1562SOL    HW216149   3.382   1.731   9.532 -0.1772  1.0269 -1.6822
 1563SOL     OW16150   0.444   1.597  12.833  0.7680  0.3982 -0.0189
 1563SOL    HW116151   0.485   1.682  12.820 -1.8552  1.4394 -1.6171
 1563SOL    HW216152   0.516   1.537  12.851 -1.2537 -2.0262  0.1296
 1564SOL     OW16153   4.092   0.764   7.711  0.1816 -0.1408 -0.7645
 1564SOL    HW116154   4.065   0.844   7.756  0.8938 -0.2868 -0.0747
 1564SOL    HW216155   4.159   0.725   7.767 -1.1623 -1.5455 -0.1078
 1565SOL     OW16156   2.320   1.880   7.433  0.2791 -0.2889 -0.4885
 1565SOL    HW116157   2.244   1.865   7.489  0.9661  0.4932  0.6395
 1565SOL    HW216158   2.351   1.963   7.468  1.4557  0.1173 -2.4582
 1566SOL     OW16159   0.123   1.511  11.234  0.2488 -0.0001  0.4924
 1566SOL    HW116160   0.091   1.586  11.284  0.7746  0.6685 -0.1770
 1566SOL    HW216161   0.216   1.530  11.242  0.1697  0.5109  0.2138
 1567SOL     OW16162   0.073   0.785   7.880  0.9753  0.1063 -0.2283
 1567SOL    HW116163   0.166   0.763   7.878  0.7597 -0.8588  0.1865
 1567SOL    HW216164   0.059   0.854   7.815 -1.0712 -1.6959 -1.6768
 1568SOL     OW16165   0.625   0.761  11.736 -0.4234 -0.0769  0.5463
 1568SOL    HW116166   0.550   0.723  11.783  0.1977 -2.0946 -0.0956
 1568SOL    HW216167   0.617   0.855  11.755  0.4196 -0.5609  3.2746
 1569SOL     OW16168   3.582   3.915   6.660 -0.4616 -0.1281 -0.1720
 1569SOL    HW116169   3.537   3.831   6.670  0.2924 -0.3597  1.1805
 1569SOL    HW216170   3.537   3.946   6.581 -0.3459 -0.7762 -0.4951
 1570SOL     OW16171   3.541   3.743  10.962 -0.1430 -1.1246  0.1156
 1570SOL    HW116172   3.538   3.671  11.025  0.1373 -2.5690 -1.5342
 1570SOL    HW216173   3.634   3.765  10.960 -0.3154 -0.2991  1.2769
 1571SOL     OW16174   0.740   1.058   8.764  0.2419  0.0436  0.4814
 1571SOL    HW116175   0.778   0.973   8.785 -0.0852 -0.2216  0.0058
 1571SOL    HW216176   0.647   1.034   8.763  0.6737 -1.5342 -0.2350
 1572SOL     OW16177   0.437   0.515   2.855  0.4425 -0.1950  0.1068
 1572SOL    HW116178   0.519   0.542   2.897  0.5407 -0.2236 -0.0652
 1572SOL    HW216179   0.481   0.517   2.770 -0.4562  2.2965 -0.2948
 1573SOL     OW16180   0.766   1.361  13.071 -0.0534  0.0904 -0.0681
 1573SOL    HW116181   0.821   1.438  13.057  1.7284 -1.3403 -0.9098
 1573SOL    HW216182   0.733   1.378  13.159  0.0740  0.4714 -0.0958
 1574SOL     OW16183   0.966   1.123   5.960  0.2932 -0.4330 -0.0896
 1574SOL    HW116184   1.001   1.038   5.934  0.9284 -0.1746 -0.0756
 1574SOL    HW216185   1.005   1.126   6.048  0.3869  0.3426 -0.1561
 1575SOL     OW16186   1.753   4.390   8.003 -0.5795  0.2590 -0.2425
 1575SOL    HW116187   1.762   4.330   8.076  0.0173 -0.1714 -0.6770
 1575SOL    HW216188   1.696   4.462   8.032 -0.6118 -0.6044  1.7751
 1576SOL     OW16189   3.463   3.455   4.215 -0.4353 -0.3064 -0.2099
 1576SOL    HW116190   3.461   3.509   4.136  0.3911  2.1708  1.4513
 1576SOL    HW216191   3.487   3.377   4.166 -1.8732 -1.0549  0.2831
 1577SOL     OW16192   3.715   2.592  16.915 -0.0169 -0.2036  0.2462
 1577SOL    HW116193   3.774   2.633  16.978  0.6608  0.4658 -0.8179
 1577SOL    HW216194   3.779   2.550  16.856 -0.8532 -0.8533 -0.1998
 1578SOL     OW16195   4.412   0.122  14.131  0.5901  0.6331  0.0290
 1578SOL    HW116196   4.345   0.068  14.171  2.5311 -2.6098 -1.1402
 1578SOL    HW216197   4.472   0.121  14.206  1.0670 -1.1613 -0.3861
 1579SOL     OW16198   4.348   2.085  11.115  0.1816 -0.0732 -0.3857
 1579SOL    HW116199   4.364   2.052  11.204 -1.0240  0.3862  0.0077
 1579SOL    HW216200   4.267   2.133  11.131  0.8042  1.8145 -2.8675
 1580SOL     OW16201   1.551   1.454   9.472 -0.0812 -0.1342 -0.2635
 1580SOL    HW116202   1.458   1.466   9.454 -0.3169 -1.8154 -0.1640
 1580SOL    HW216203   1.554   1.360   9.486 -0.4668 -0.1817 -0.5021
 1581SOL     OW16204   3.504   3.631   5.095 -0.5017 -0.2777 -0.1425
 1581SOL    HW116205   3.454   3.574   5.037  2.5771 -2.2230 -0.9036
 1581SOL    HW216206   3.535   3.578   5.169 -0.0252  1.5624  0.9911
 1582SOL     OW16207   3.358   3.633   3.386  0.0073  0.7373  1.2952
 1582SOL    HW116208   3.290   3.678   3.436 -3.1240 -2.6519  0.0254
 1582SOL    HW216209   3.422   3.704   3.378  2.2814 -1.1218  2.8972
 1583SOL     OW16210   1.300   4.595   2.672  0.3234  0.2781  0.2694
 1583SOL    HW116211   1.315   4.548   2.589  0.5515  2.2897 -0.8273
 1583SOL    HW216212   1.226   4.649   2.643  0.6541  0.3454 -0.4695
 1584SOL     OW16213   2.613   1.561   2.240 -0.1613 -0.2473 -0.6641
 1584SOL    HW116214   2.590   1.553   2.147 -1.8928  1.7916 -0.3973
 1584SOL    HW216215   2.705   1.539   2.229  0.1521 -0.5131  2.4526
 1585SOL     OW16216   3.527   1.388   0.613  0.0276 -0.4062  0.1570
 1585SOL    HW116217   3.600   1.392   0.675  1.6466 -0.2926 -1.7691
 1585SOL    HW216218   3.583   1.388   0.536  0.3876 -1.3179  0.4156
 1586SOL     OW16219   1.453   1.710   4.142  0.3014  0.0961  0.5211
 1586SOL    HW116220   1.542   1.692   4.173  0.4615  0.3586  0.2188
 1586SOL    HW216221   1.434   1.789   4.192 -0.2247 -1.0986  2.1928
 1587SOL     OW16222   1.586   3.987   0.507  0.2648 -0.0044 -0.0091
 1587SOL    HW116223   1.637   3.932   0.566 -0.8220 -1.2224 -0.2040
 1587SOL    HW216224   1.582   3.930   0.430 -0.4435  0.2814 -0.1797
 1588SOL     OW16225   2.455   0.923   4.208  0.0844  0.2370 -0.4376
 1588SOL    HW116226   2.529   0.890   4.157  0.2601  1.3265 -0.8988
 1588SOL    HW216227   2.491   0.913   4.296  1.0543  1.2040 -0.7214
 1589SOL     OW16228   3.229   0.048  13.311 -0.3103  0.4474 -0.2724
 1589SOL    HW116229   3.174   0.071  13.386 -0.8917  1.2099 -0.9273
 1589SOL    HW216230   3.262   4.680  13.327  0.7624  0.9578  0.3336
 1590SOL     OW16231   4.087   4.290   8.615 -0.1616  0.8175 -0.9631
 1590SOL    HW116232   4.108   4.198   8.626 -3.4973  0.6722  4.3150
 1590SOL    HW216233   4.017   4.309   8.678  1.9499  0.4492  1.4464
 1591SOL     OW16234   1.753   2.483   0.646 -0.1513  0.0680 -0.3049
 1591SOL    HW116235   1.845   2.456   0.645 -1.0810 -3.0365  0.3061
 1591SOL    HW216236   1.717   2.405   0.606 -2.2756  0.3723  1.0116
 1592SOL     OW16237   3.055   0.481  15.623 -0.3943 -0.9722  0.1929
 1592SOL    HW116238   3.135   0.442  15.588  0.7881  2.5170 -0.9624
 1592SOL    HW216239   2.995   0.407  15.621 -0.5478 -0.8727  1.2784
 1593SOL     OW16240   4.385   2.324  14.285  0.2359 -0.1529 -0.3383
 1593SOL    HW116241   4.477   2.311  14.307  0.3689  0.5264 -0.4940
 1593SOL    HW216242   4.375   2.406  14.237 -1.4233 -0.5638 -0.7151
 1594SOL     OW16243   1.179   0.738  12.008  0.1730  0.7990 -0.4556
 1594SOL    HW116244   1.182   0.748  11.913 -1.3307 -0.5086 -0.6532
 1594SOL    HW216245   1.174   0.830  12.034  0.0173 -0.0862  2.6270
 1595SOL     OW16246   3.855   1.571  17.342 -0.0767 -0.3321  0.4445
 1595SOL    HW116247   3.801   1.533  17.273  0.3996 -1.0681  0.4722
 1595SOL    HW216248   3.786   1.584  17.406 -0.7062 -0.1989 -0.2579
 1596SOL     OW16249   0.640   0.326   0.608 -0.0640 -0.1893  0.5368
 1596SOL    HW116250   0.660   0.414   0.639 -0.2300  0.3998 -1.0188
 1596SOL    HW216251   0.700   0.268   0.655  1.9977  1.2003 -0.3662
 1597SOL     OW16252   0.473   3.774   8.133  0.1454  0.0178  0.8074
 1597SOL    HW116253   0.457   3.797   8.042 -2.7857 -2.6952  0.6344
 1597SOL    HW216254   0.403   3.711   8.148 -0.0805 -0.3591 -1.9219
 1598SOL     OW16255   3.065   0.633   7.980 -0.7813 -1.3076  0.5384
 1598SOL    HW116256   2.985   0.680   8.004  0.1749 -1.0147  3.1513
 1598SOL    HW216257   3.119   0.708   7.954 -0.4942 -2.2584 -1.5899
 1599SOL     OW16258   2.769   3.712   3.820 -0.1064  0.3514 -0.3669
 1599SOL    HW116259   2.773   3.773   3.894  2.1817 -1.3994  0.9589
 1599SOL    HW216260   2.712   3.643   3.855 -2.2371  1.8430 -0.8873
 1600SOL     OW16261   1.101   1.261   1.346  0.6697 -0.1935  0.1557
 1600SOL    HW116262   1.035   1.217   1.399  0.6103  0.7923  0.9075
 1600SOL    HW216263   1.098   1.349   1.386  2.7095  0.2208 -0.6078
 1601SOL     OW16264   2.399   0.255   4.261 -0.3415  0.1467  0.0670
 1601SOL    HW116265   2.442   0.336   4.286  3.2040 -1.2537 -1.4571
 1601SOL    HW216266   2.374   0.262   4.169  0.7242  0.7005 -0.1748
 1602SOL     OW16267   2.783   1.933   8.472  0.8143 -0.3380 -0.0774
 1602SOL    HW116268   2.699   1.903   8.507  0.6273  0.1853 -0.0755
 1602SOL    HW216269   2.808   1.869   8.405  2.7964  0.4401 -0.0660
 1603SOL     OW16270   0.367   1.676   6.279 -0.4556  0.1124  0.5560
 1603SOL    HW116271   0.430   1.615   6.242 -2.3414 -0.8172 -1.1340
 1603SOL    HW216272   0.316   1.680   6.197 -0.9990  1.8436  0.9600
 1604SOL     OW16273   2.969   2.057   4.764 -0.1273  0.2075 -0.4462
 1604SOL    HW116274   2.896   2.120   4.764  0.3919  0.7915  1.4442
 1604SOL    HW216275   2.918   1.980   4.790 -2.6858  1.6356 -1.1789
 1605SOL     OW16276   2.596   2.377  15.322 -0.5086 -0.7130 -0.3111
 1605SOL    HW116277   2.584   2.314  15.250 -2.0315 -1.2101  0.3787
 1605SOL    HW216278   2.509   2.416  15.330 -1.3500 -2.5696 -0.4307
 1606SOL     OW16279   2.295   0.888   5.805 -0.1776 -0.3379  0.3462
 1606SOL    HW116280   2.241   0.966   5.796  0.5360  0.1012 -0.0695
 1606SOL    HW216281   2.379   0.927   5.782 -0.3744  0.7387  1.4375
 1607SOL     OW16282   1.938   3.458   9.367 -0.2992  0.5620  0.1984
 1607SOL    HW116283   1.931   3.548   9.334 -2.2972  0.9821  1.7742
 1607SOL    HW216284   1.859   3.417   9.331  0.0885  0.0296 -0.0486
 1608SOL     OW16285   1.211   0.679   2.922 -0.7242  0.7082 -0.5195
 1608SOL    HW116286   1.265   0.620   2.974 -1.2990  1.6310  1.1407
 1608SOL    HW216287   1.264   0.758   2.933 -1.8425  1.3928  0.0559
 1609SOL     OW16288   4.353   1.756   6.143  0.1587 -0.1090 -0.1935
 1609SOL    HW116289   4.387   1.759   6.233 -3.3466  0.2340  1.1427
 1609SOL    HW216290   4.416   1.697   6.102 -0.0038  0.6577 -1.5339
 1610SOL     OW16291   3.261   2.076   5.208  0.2921 -0.0599  0.3127
 1610SOL    HW116292   3.249   2.054   5.116 -1.2201  1.0472  0.2399
 1610SOL    HW216293   3.260   1.990   5.250 -1.8228  0.1283  0.6914
 1611SOL     OW16294   3.766   0.821  13.231 -0.0165 -0.6061 -0.6646
 1611SOL    HW116295   3.811   0.758  13.175  1.1000 -0.3846 -0.0098
 1611SOL    HW216296   3.807   0.796  13.314 -2.8203  0.9439  1.2017
 1612SOL     OW16297   2.785   0.501   8.637 -0.2672  0.6125  0.1945
 1612SOL    HW116298   2.837   0.426   8.666  0.7373  1.3560  0.2943
 1612SOL    HW216299   2.714   0.504   8.702  0.0599  1.8942  0.4911
 1613SOL     OW16300   0.388   2.531   5.877  0.8000 -0.4401 -0.1165
 1613SOL    HW116301   0.309   2.551   5.925  1.0977  1.5132 -0.4501
 1613SOL    HW216302   0.420   2.621   5.877 -2.4538  0.7262 -2.9671
 1614SOL     OW16303   2.191   1.841   1.506  0.0537  0.1851  0.0230
 1614SOL    HW116304   2.250   1.800   1.569 -1.4983 -2.2655 -0.1297
 1614SOL    HW216305   2.228   1.929   1.499 -0.4753  0.4887  0.9380
 1615SOL     OW16306   4.586   4.498   6.774  0.3268 -0.2074  0.1222
 1615SOL    HW116307   4.501   4.493   6.819 -1.3225 -2.9677 -3.2147
 1615SOL    HW216308   4.614   4.406   6.777 -1.8022 -0.8605  0.1625
 1616SOL     OW16309   2.126   1.117   7.383 -0.0579  0.2273  0.0666
 1616SOL    HW116310   2.087   1.087   7.465  1.0332 -1.1252  0.0969
 1616SOL    HW216311   2.067   1.173   7.333 -1.4339 -1.1828  0.0852
 1617SOL     OW16312   3.482   1.768   4.691 -0.1176 -0.3868  0.1622
 1617SOL    HW116313   3.390   1.763   4.717  0.0865 -2.0473  0.5673
 1617SOL    HW216314   3.475   1.695   4.629  1.0261  0.6734 -1.2222
 1618SOL     OW16315   0.855   1.291   8.751 -0.5901 -0.2185  0.2255
 1618SOL    HW116316   0.809   1.207   8.748 -0.6866 -0.2000  1.2906
 1618SOL    HW216317   0.922   1.287   8.683 -1.1699 -3.1269 -0.1906
 1619SOL     OW16318   2.109   4.662   5.774 -0.4226 -0.3250  0.3947
 1619SOL    HW116319   2.196   4.685   5.741 -0.6508  0.9315  0.6806
 1619SOL    HW216320   2.099   4.583   5.722 -1.0175 -1.3994  2.1340
 1620SOL     OW16321   0.963   2.127   6.209 -0.4111  0.0460  0.6883
 1620SOL    HW116322   0.944   2.069   6.135  1.5640  0.3360 -0.0682
 1620SOL    HW216323   0.978   2.205   6.154  1.1875  0.9467  2.3950
 1621SOL     OW16324   1.061   3.273   1.138  0.2316 -0.3689  0.0648
 1621SOL    HW116325   1.064   3.363   1.171  1.0627 -0.5028  0.3552
 1621SOL    HW216326   0.989   3.237   1.189 -0.2892  1.9301  0.9635
 1622SOL     OW16327   2.510   3.144   6.234  0.9956  0.6360 -0.5347
 1622SOL    HW116328   2.606   3.136   6.238  0.7825 -0.9379  1.5051
 1622SOL    HW216329   2.495   3.187   6.150 -0.2222 -1.2313 -1.2570
 1623SOL     OW16330   2.875   0.348   4.469 -0.2515  0.0522 -0.0239
 1623SOL    HW116331   2.787   0.326   4.498 -0.5844  1.9113  0.4197
 1623SOL    HW216332   2.919   0.369   4.552  0.4413  0.3877 -0.4661
 1624SOL     OW16333   1.344   3.364  16.528  1.2326 -0.0133  0.3563
 1624SOL    HW116334   1.295   3.441  16.500 -0.2789 -1.0295  0.2006
 1624SOL    HW216335   1.304   3.285  16.493 -2.8763  1.7862  0.9469
 1625SOL     OW16336   1.087   2.998   8.342 -0.4056 -0.3759  0.2835
 1625SOL    HW116337   1.144   2.972   8.415 -0.5054  0.8952  0.8067
 1625SOL    HW216338   1.006   3.002   8.392 -2.1806 -3.2019 -2.3978
 1626SOL     OW16339   1.919   2.367   3.231  0.6697 -0.0459 -0.1310
 1626SOL    HW116340   1.988   2.374   3.297  1.0570 -0.8762 -0.4529
 1626SOL    HW216341   1.844   2.347   3.286  1.8372 -1.9215  0.7478
 1627SOL     OW16342   1.533   0.383   6.964  0.3120  0.1161  0.2741
 1627SOL    HW116343   1.509   0.321   7.032  1.0583 -0.1147  0.3222
 1627SOL    HW216344   1.493   0.351   6.883  1.9029 -1.2189  0.0118
 1628SOL     OW16345   1.699   3.679   2.446 -0.0166 -0.1048 -0.4363
 1628SOL    HW116346   1.778   3.653   2.494 -1.1504  1.1913  2.1445
 1628SOL    HW216347   1.708   3.774   2.449  1.0377 -0.2034 -0.3468
 1629SOL     OW16348   0.649   3.391  16.438 -0.3459  0.1986 -0.7846
 1629SOL    HW116349   0.556   3.373  16.421 -1.1478  0.8173  2.7914
 1629SOL    HW216350   0.651   3.487  16.441 -1.5302  0.2705 -2.2770
 1630SOL     OW16351   4.324   2.913   6.563 -0.5348 -0.0250 -0.0696
 1630SOL    HW116352   4.288   2.895   6.475  0.3803  0.6070 -0.5720
 1630SOL    HW216353   4.269   2.986   6.591 -1.3292  0.1471 -2.0576
 1631SOL     OW16354   1.744   0.764   5.628 -0.3560  0.3800 -0.2892
 1631SOL    HW116355   1.685   0.723   5.691  0.6595 -2.7478 -1.4132
 1631SOL    HW216356   1.685   0.831   5.592 -1.5394 -1.7392 -2.2520
 1632SOL     OW16357   0.046   3.380   4.443  0.4308 -0.0274 -0.0516
 1632SOL    HW116358   0.098   3.347   4.369  1.1869 -1.3554  1.0823
 1632SOL    HW216359   4.694   3.318   4.446 -0.8980  1.7992  3.6858
 1633SOL     OW16360   0.950   0.605  11.969 -0.0313  0.6647 -0.4361
 1633SOL    HW116361   0.999   0.685  11.986 -2.1970  1.6582  1.2388
 1633SOL    HW216362   0.901   0.621  11.889 -2.5182  0.9947  1.1443
 1634SOL     OW16363   1.963   2.289  17.639 -0.0753  0.3843  0.5401
 1634SOL    HW116364   1.882   2.281   0.003 -0.1068 -2.0684  0.1016
 1634SOL    HW216365   2.011   2.215  17.678 -1.0307 -0.5535 -0.0500
 1635SOL     OW16366   4.252   1.543   1.906 -0.0306  0.3645 -0.1071
 1635SOL    HW116367   4.303   1.513   1.831  0.1063 -0.7655  0.4260
 1635SOL    HW216368   4.210   1.619   1.865 -2.9343 -1.1998 -0.0234
 1636SOL     OW16369   3.330   3.341   2.961 -0.0093  0.7371 -0.1346
 1636SOL    HW116370   3.307   3.253   2.990 -1.8397  0.3130 -2.7829
 1636SOL    HW216371   3.388   3.370   3.031 -2.2480  0.0885  2.0008
 1637SOL     OW16372   4.381   1.358  17.134 -0.1263 -0.0847  0.1323
 1637SOL    HW116373   4.338   1.436  17.167 -3.2691 -1.8755  0.2482
 1637SOL    HW216374   4.383   1.291  17.202 -1.8911  0.1923  0.4569
 1638SOL     OW16375   4.199   0.019   0.241  0.3210  0.5154  0.2919
 1638SOL    HW116376   4.285   4.698   0.249 -0.1500 -0.3841  0.6833
 1638SOL    HW216377   4.229   0.110   0.236  3.3891 -0.3745  2.5383
 1639SOL     OW16378   3.331   0.688   5.125 -0.3917  0.6278  0.4918
 1639SOL    HW116379   3.301   0.757   5.184 -0.0719  1.1123  0.0786
 1639SOL    HW216380   3.266   0.621   5.148 -0.6733  0.5767 -0.4625
 1640SOL     OW16381   0.985   0.856  11.036 -0.5296 -0.1294 -0.0859
 1640SOL    HW116382   0.910   0.904  11.002 -1.7707 -1.0448  1.3240
 1640SOL    HW216383   0.976   0.788  10.969  0.0989  0.0791 -0.3836
 1641SOL     OW16384   2.315   4.592   8.279  0.2353  0.5497 -0.1283
 1641SOL    HW116385   2.275   4.590   8.366 -0.4591 -0.9592 -0.4864
 1641SOL    HW216386   2.233   4.610   8.232 -0.2226  0.5176  0.6647
 1642SOL     OW16387   0.319   1.021   9.916  0.4661 -0.4450 -0.1583
 1642SOL    HW116388   0.387   0.996   9.978 -0.4085  1.5422  1.6120
 1642SOL    HW216389   0.296   0.937   9.877 -0.9811 -0.8999  1.6515
 1643SOL     OW16390   3.231   3.708  13.296  0.1157 -0.1800  0.0525
 1643SOL    HW116391   3.286   3.751  13.361  0.4277  2.2121 -1.8038
 1643SOL    HW216392   3.175   3.654  13.351 -0.3013  1.7867  1.5578
 1644SOL     OW16393   2.604   3.909  11.153  0.6138 -0.1254 -0.6098
 1644SOL    HW116394   2.631   3.891  11.063 -0.0361  0.1673 -0.8630
 1644SOL    HW216395   2.549   3.984  11.132 -0.5478 -0.4941  1.0590
 1645SOL     OW16396   1.310   0.593   7.067 -0.3275 -0.1781 -0.8477
 1645SOL    HW116397   1.266   0.672   7.036 -2.5572 -1.4419 -0.9051
 1645SOL    HW216398   1.353   0.614   7.150  0.6936 -0.0165 -1.4206
 1646SOL     OW16399   0.426   1.969   3.123  0.4222 -0.0838  0.2428
 1646SOL    HW116400   0.492   2.038   3.124 -0.3522  0.6319  2.0793
 1646SOL    HW216401   0.368   1.996   3.194  0.3427  0.2172  0.0646
 1647SOL     OW16402   0.047   1.461   6.069  0.6023  0.5614  0.4598
 1647SOL    HW116403   0.091   1.545   6.054 -3.1576  2.2244 -0.9954
 1647SOL    HW216404   0.030   1.434   5.979 -0.9231 -1.3023  1.3157
 1648SOL     OW16405   1.645   2.877  15.520  0.0590 -0.2876 -0.0110
 1648SOL    HW116406   1.709   2.827  15.570  0.4139 -0.4504 -0.6158
 1648SOL    HW216407   1.688   2.963  15.518 -1.2184  0.3436 -0.3152
 1649SOL     OW16408   1.290   4.687   1.266  0.4743 -0.2266  0.4071
 1649SOL    HW116409   1.343   4.650   1.336  0.6853  0.4476  0.6014
 1649SOL    HW216410   1.208   4.692   1.316 -0.8069 -4.0306 -1.2504
 1650SOL     OW16411   2.683   0.732   8.229  0.2129 -0.3720  0.1636
 1650SOL    HW116412   2.695   0.779   8.312 -0.2581 -0.0107  0.0284
 1650SOL    HW216413   2.696   0.642   8.258 -0.3377 -0.0528  1.3845
 1651SOL     OW16414   3.402   3.853   2.778 -0.1425  0.3540 -0.2036
 1651SOL    HW116415   3.324   3.838   2.724  0.8511 -0.0575 -1.4965
 1651SOL    HW216416   3.471   3.828   2.717 -0.7252 -0.2727 -0.6077
 1652SOL     OW16417   0.171   0.528   6.510 -0.2564 -0.0285 -0.2152
 1652SOL    HW116418   0.107   0.597   6.530  0.2463 -0.0663  1.5600
 1652SOL    HW216419   0.109   0.457   6.496 -1.0958  0.4085  1.2710
 1653SOL     OW16420   1.539   3.247   0.694 -0.6773  0.4782 -0.3634
 1653SOL    HW116421   1.538   3.285   0.606  1.3104 -1.0650 -1.0386
 1653SOL    HW216422   1.595   3.311   0.740  1.7807 -1.1848 -1.0296
 1654SOL     OW16423   2.158   4.515   9.041 -0.6225  0.1207 -0.0296
 1654SOL    HW116424   2.218   4.586   9.064  0.1700 -0.7581  0.6179
 1654SOL    HW216425   2.175   4.509   8.946 -0.6400  0.3454 -0.0468
 1655SOL     OW16426   4.527   4.497   1.705  0.1947  0.1672  0.3462
 1655SOL    HW116427   4.438   4.532   1.700 -0.2671 -0.8972  0.9909
 1655SOL    HW216428   4.532   4.465   1.615  1.9258 -0.4108  0.6558
 1656SOL     OW16429   4.485   0.433   7.436 -0.2351 -0.1222  0.4051
 1656SOL    HW116430   4.403   0.418   7.389 -0.6520 -0.0327  1.1185
 1656SOL    HW216431   4.488   0.358   7.495  4.2903 -0.2577  0.0529
 1657SOL     OW16432   3.611   3.554   2.741 -0.3400  0.0640 -0.1235
 1657SOL    HW116433   3.644   3.480   2.792 -1.9184  0.3273  1.2699
 1657SOL    HW216434   3.639   3.534   2.651  0.2217  0.6937 -0.0865
 1658SOL     OW16435   3.979   1.033   0.887  0.0880  0.0764 -0.0201
 1658SOL    HW116436   3.927   0.977   0.945 -0.0110 -0.9279 -1.0615
 1658SOL    HW216437   3.930   1.032   0.805 -0.1509 -0.2936  0.1289
 1659SOL     OW16438   2.286   3.588   1.720  0.6569 -0.0405 -0.5728
 1659SOL    HW116439   2.305   3.571   1.628 -1.6669 -1.9056 -0.7155
 1659SOL    HW216440   2.243   3.506   1.747 -1.7310  0.7118 -2.1475
 1660SOL     OW16441   0.120   2.278  13.801  0.1290 -0.3035 -0.0395
 1660SOL    HW116442   0.079   2.234  13.876  1.3738  1.7609  1.8484
 1660SOL    HW216443   0.202   2.316  13.831  0.2646 -0.3097 -0.4073
 1661SOL     OW16444   0.348   3.263   3.575 -0.2895 -0.0213  0.1614
 1661SOL    HW116445   0.420   3.325   3.560 -0.4721 -0.1486 -1.2783
 1661SOL    HW216446   0.323   3.278   3.666 -0.0578  1.0647  0.0515
 1662SOL     OW16447   4.530   1.739   4.600  0.4946  0.1428 -0.0176
 1662SOL    HW116448   4.455   1.779   4.555  0.2704 -0.1032  0.1374
 1662SOL    HW216449   4.487   1.660   4.633  2.1640 -0.3194  1.0542
 1663SOL     OW16450   1.625   3.688   9.544  0.5537 -0.2800  0.1025
 1663SOL    HW116451   1.600   3.750   9.476  0.5925 -1.3148 -0.8676
 1663SOL    HW216452   1.540   3.663   9.581 -0.3151  0.2649 -1.5415
 1664SOL     OW16453   3.257   1.001  13.096 -0.2476 -0.0712 -0.0466
 1664SOL    HW116454   3.223   1.032  13.180  1.3517  0.4891  0.4074
 1664SOL    HW216455   3.317   1.072  13.072 -0.6161 -0.2774 -1.5798
 1665SOL     OW16456   4.689   2.329  16.377 -0.7754  0.0685  0.1381
 1665SOL    HW116457   4.607   2.377  16.368  0.6351  2.2644 -0.8426
 1665SOL    HW216458   4.719   2.308  16.288 -0.7017  0.6988  0.0168
 1666SOL     OW16459   4.001   2.541   0.008  0.0044 -0.2979  0.3407
 1666SOL    HW116460   4.038   2.612  17.641  0.6980  0.9946  2.5657
 1666SOL    HW216461   3.908   2.552  17.678 -0.1215 -0.1075  1.2115
 1667SOL     OW16462   1.659   1.883   6.625 -0.3476  0.1237 -0.0176
 1667SOL    HW116463   1.578   1.898   6.673 -0.3395 -0.9073  0.3314
 1667SOL    HW216464   1.626   1.834   6.549 -2.5407 -1.0366  1.6832
 1668SOL     OW16465   1.258   1.915   4.157  0.4740 -0.2192  0.0008
 1668SOL    HW116466   1.217   1.840   4.114  1.1680 -0.5297 -0.1158
 1668SOL    HW216467   1.196   1.986   4.141  1.7353  1.1201  1.0147
 1669SOL     OW16468   4.382   2.633   4.549 -0.3579  0.3690  0.2531
 1669SOL    HW116469   4.415   2.720   4.528  0.2179  0.5574  1.9648
 1669SOL    HW216470   4.414   2.635   4.639  1.6329 -1.1466 -0.4228
 1670SOL     OW16471   2.131   4.343   6.553  0.1829 -0.3157  0.0542
 1670SOL    HW116472   2.048   4.329   6.598 -0.7167 -1.8360 -2.0604
 1670SOL    HW216473   2.187   4.381   6.621  0.0229 -3.0777  1.7419
 1671SOL     OW16474   4.614   3.425   4.114 -0.3725  0.5623  0.2562
 1671SOL    HW116475   4.544   3.361   4.100  0.5419 -0.5275  0.6731
 1671SOL    HW216476   4.587   3.464   4.197 -0.4705 -0.8267  0.8616
 1672SOL     OW16477   4.692   1.654   9.851  0.0968  0.0820 -0.1145
 1672SOL    HW116478   4.695   1.712   9.928 -0.4311  0.6960 -0.5530
 1672SOL    HW216479   0.059   1.618   9.848 -1.5681 -3.8560 -1.0485
 1673SOL     OW16480   3.872   3.237   3.785  0.0577 -0.1194  0.2858
 1673SOL    HW116481   3.844   3.298   3.717  1.0830 -1.1680 -1.1088
 1673SOL    HW216482   3.956   3.220   3.741  0.2480  1.9943 -0.1536
 1674SOL     OW16483   2.236   3.117  13.422 -0.5789  0.6229  0.3191
 1674SOL    HW116484   2.256   3.206  13.452  0.0344  1.0106 -1.1978
 1674SOL    HW216485   2.169   3.122  13.354 -0.3091 -2.3806 -0.1473
 1675SOL     OW16486   1.921   4.595   7.953 -0.0722 -0.0077  0.1958
 1675SOL    HW116487   2.010   4.576   7.925  0.6988  3.3303  0.3395
 1675SOL    HW216488   1.887   4.510   7.980  0.8233  0.0181  1.3650
 1676SOL     OW16489   0.556   3.302   9.100 -0.2903  0.1549 -0.0367
 1676SOL    HW116490   0.638   3.284   9.054  0.8414  1.7961  1.3333
 1676SOL    HW216491   0.501   3.339   9.030 -1.5751 -0.7744  0.4758
 1677SOL     OW16492   4.035   3.157   7.275  0.4819  0.0562 -0.5992
 1677SOL    HW116493   3.951   3.183   7.239  1.9314  0.8625 -3.3937
 1677SOL    HW216494   4.058   3.228   7.334  0.4848  1.7168 -2.6053
 1678SOL     OW16495   0.276   4.245   8.707 -0.0939  0.4464  0.5248
 1678SOL    HW116496   0.237   4.184   8.644 -0.9949  2.8693 -1.2873
 1678SOL    HW216497   0.300   4.189   8.780  1.8640  1.5267  0.6893
 1679SOL     OW16498   2.036   2.917   5.582  0.5382  1.1317 -0.2813
 1679SOL    HW116499   2.115   2.897   5.531  1.3340  1.0250  1.0130
 1679SOL    HW216500   2.021   2.832   5.624  1.8885  1.3925  0.7175
 1680SOL     OW16501   3.186   4.151   3.904 -0.5259 -0.0328 -0.7985
 1680SOL    HW116502   3.112   4.195   3.944 -1.2403 -0.2857 -1.8392
 1680SOL    HW216503   3.214   4.213   3.836 -0.4180 -0.2398 -0.9445
 1681SOL     OW16504   4.470   1.134   8.122 -0.2002 -0.1766  0.2890
 1681SOL    HW116505   4.402   1.172   8.066  0.5197  1.5983  0.5998
 1681SOL    HW216506   4.533   1.205   8.138  0.1122 -0.4075  0.0927
 1682SOL     OW16507   0.300   4.079   4.944 -0.4516  0.0366 -0.4755
 1682SOL    HW116508   0.249   3.998   4.946 -1.6894  0.8314  0.0310
 1682SOL    HW216509   0.232   4.141   4.968  0.0102  0.0387  0.8403
 1683SOL     OW16510   1.887   4.698   5.619  0.6920  0.3376  0.2325
 1683SOL    HW116511   1.809   0.016   5.660  1.1494  0.5574  0.8997
 1683SOL    HW216512   1.949   4.706   5.691 -2.0720  0.2165  2.6360
 1684SOL     OW16513   0.414   3.104   6.464 -0.3179 -0.1289  0.1228
 1684SOL    HW116514   0.329   3.105   6.421 -0.3898  0.7062  0.2679
 1684SOL    HW216515   0.429   3.012   6.446 -1.4703 -0.6134  1.6132
 1685SOL     OW16516   1.687   2.896   5.181  0.5661  0.1838 -0.0138
 1685SOL    HW116517   1.727   2.917   5.096  0.0357  2.6854  0.3671
 1685SOL    HW216518   1.739   2.938   5.250  1.0431 -2.7077  1.3829
 1686SOL     OW16519   1.749   0.271   3.351  0.3669  0.3821  0.4975
 1686SOL    HW116520   1.737   0.233   3.264  2.2243  0.8281  0.0447
 1686SOL    HW216521   1.836   0.234   3.366  0.3004 -0.9777 -2.4566
 1687SOL     OW16522   1.141   2.770  12.808  0.0987  0.3869  0.4709
 1687SOL    HW116523   1.113   2.715  12.882  0.7989  0.8967  1.1070
 1687SOL    HW216524   1.236   2.760  12.804 -0.0748 -0.9668 -0.3638
 1688SOL     OW16525   4.231   2.742  16.246 -0.2711  0.2734  0.0129
 1688SOL    HW116526   4.151   2.779  16.208 -0.4423 -1.3403 -1.2183
 1688SOL    HW216527   4.298   2.806  16.224 -1.7905  1.5423 -1.0115
 1689SOL     OW16528   4.371   1.760  10.503 -0.0699 -0.3719 -1.1895
 1689SOL    HW116529   4.453   1.751  10.454  0.9622 -0.9855  0.6517
 1689SOL    HW216530   4.387   1.687  10.563  0.7993  2.2303  1.7229
 1690SOL     OW16531   4.681   3.343   7.162  0.2594 -0.5205  0.0627
 1690SOL    HW116532   4.608   3.351   7.100  0.9576 -1.3263 -0.8436
 1690SOL    HW216533   4.653   3.257   7.193 -0.5136  0.7077  2.7944
 1691SOL     OW16534   3.339   1.635   3.867 -0.2615  0.6579  0.8907
 1691SOL    HW116535   3.260   1.634   3.814  1.3724 -1.7065 -1.4731
 1691SOL    HW216536   3.381   1.556   3.832 -0.5118  0.7880  0.3026
 1692SOL     OW16537   2.810   3.839   1.483  0.5475 -0.2516 -0.0449
 1692SOL    HW116538   2.777   3.821   1.395 -0.3955 -2.3548  0.7284
 1692SOL    HW216539   2.759   3.776   1.534  2.4992 -0.5520  1.5164
 1693SOL     OW16540   4.575   0.570   3.918  0.4085 -0.2549 -0.3412
 1693SOL    HW116541   4.666   0.575   3.886  0.5159  0.0016  0.0035
 1693SOL    HW216542   4.537   0.521   3.845  0.2321 -0.4994 -0.0843
 1694SOL     OW16543   2.949   0.899   4.129  0.1855  0.4487  0.0239
 1694SOL    HW116544   2.978   0.950   4.205  1.0693 -0.3822  0.2428
 1694SOL    HW216545   2.984   0.811   4.143 -0.6903  0.0406 -0.3354
 1695SOL     OW16546   1.306   3.197   9.318  0.1373  0.2313  0.3150
 1695SOL    HW116547   1.341   3.117   9.357  0.5848  0.1550 -0.2454
 1695SOL    HW216548   1.218   3.167   9.295  0.4309  0.2761 -0.8330
 1696SOL     OW16549   0.622   1.683   0.212  0.3334 -0.4253  0.4013
 1696SOL    HW116550   0.535   1.677   0.171  0.2408  0.8212  0.4061
 1696SOL    HW216551   0.665   1.610   0.167  0.4285 -0.3527  0.3751
 1697SOL     OW16552   2.260   0.410   3.980 -0.1804 -0.1804  0.0631
 1697SOL    HW116553   2.213   0.345   3.928  1.8222 -0.1194 -1.8243
 1697SOL    HW216554   2.189   0.461   4.020  0.7747  1.6110 -0.5225
 1698SOL     OW16555   4.596   0.962   6.537  0.4483  0.0726 -0.5844
 1698SOL    HW116556   4.664   1.028   6.548  2.8002 -1.8828 -3.2896
 1698SOL    HW216557   4.569   0.960   6.629  0.9951  0.5867 -0.4164
 1699SOL     OW16558   1.468   3.286   8.453  0.1448 -0.7436 -0.2726
 1699SOL    HW116559   1.470   3.289   8.549  2.9520  1.0633 -0.3715
 1699SOL    HW216560   1.561   3.303   8.439 -0.2792  0.0392 -2.2269
 1700SOL     OW16561   1.413   4.179   5.922  0.0187 -0.3614  0.0861
 1700SOL    HW116562   1.481   4.149   5.982  1.0077 -0.6139 -1.1569
 1700SOL    HW216563   1.478   4.224   5.868 -0.2991  0.7198  0.5986
 1701SOL     OW16564   4.191   4.017   8.683 -0.1209  1.2467 -0.2869
 1701SOL    HW116565   4.225   3.993   8.770  2.2548 -0.1805 -1.6006
 1701SOL    HW216566   4.247   3.964   8.627 -0.5735 -0.2082  0.6296
 1702SOL     OW16567   1.158   3.814   7.262  0.1049 -0.2234 -0.2894
 1702SOL    HW116568   1.213   3.860   7.325  2.1504 -1.9720 -0.7993
 1702SOL    HW216569   1.138   3.730   7.305  0.9523  0.2938  1.1066
 1703SOL     OW16570   4.130   0.322   3.719 -0.1193  0.0478 -0.1225
 1703SOL    HW116571   4.159   0.234   3.743 -0.7636  0.1033  0.8809
 1703SOL    HW216572   4.090   0.311   3.633  1.7530 -0.7527 -0.8827
 1704SOL     OW16573   3.215   4.370   5.113  0.1577  0.5159  0.6478
 1704SOL    HW116574   3.140   4.310   5.114  1.1212 -0.6864  1.8384
 1704SOL    HW216575   3.277   4.308   5.074 -2.6924 -0.4927 -2.2084
 1705SOL     OW16576   3.089   2.344   4.036 -0.0958  0.0240  0.4521
 1705SOL    HW116577   3.056   2.266   3.990 -0.8554  0.3314  0.4759
 1705SOL    HW216578   3.175   2.349   3.995  0.2933  2.5259  1.5678
 1706SOL     OW16579   2.981   0.751  16.658 -0.3058  0.1194 -0.2264
 1706SOL    HW116580   3.037   0.771  16.733  1.3375 -2.6004 -0.7374
 1706SOL    HW216581   2.922   0.685  16.694  1.8315 -1.3890  0.5189
 1707SOL     OW16582   1.476   4.299   9.892 -0.4011 -0.1766  0.3359
 1707SOL    HW116583   1.389   4.308   9.853 -0.8032 -1.8575  0.8405
 1707SOL    HW216584   1.521   4.374   9.853 -2.3317  1.7273  1.7185
 1708SOL     OW16585   0.427   0.191   8.207  0.1833 -0.2311 -0.2935
 1708SOL    HW116586   0.517   0.186   8.176 -0.2103 -0.8866 -1.3022
 1708SOL    HW216587   0.422   0.283   8.235 -0.9394 -1.1229  2.4481
 1709SOL     OW16588   0.392   4.583   3.744 -0.2603  0.8818  0.4177
 1709SOL    HW116589   0.388   4.506   3.688  0.3922  1.4574 -0.4322
 1709SOL    HW216590   0.315   4.639   3.737 -1.4338 -0.7051  0.6214
 1710SOL     OW16591   4.105   2.704   5.815 -0.2656 -0.4111 -0.1373
 1710SOL    HW116592   4.017   2.707   5.854  1.0738  1.0590  2.7627
 1710SOL    HW216593   4.154   2.751   5.881  0.6384  0.0601 -1.1434
 1711SOL     OW16594   1.299   4.464   6.214  0.2807  0.1873 -0.5211
 1711SOL    HW116595   1.284   4.556   6.191  0.0602  0.5531  1.1048
 1711SOL    HW216596   1.219   4.425   6.178 -0.6487  1.4029  0.2151
 1712SOL     OW16597   4.701   1.385   1.777  0.2943 -0.5311 -0.1055
 1712SOL    HW116598   4.672   1.324   1.709  1.3262 -2.1447  0.8889
 1712SOL    HW216599   4.680   1.464   1.727 -3.0469 -0.1094  1.9924
 1713SOL     OW16600   2.304   2.010   5.261  0.6621 -0.0564 -0.3730
 1713SOL    HW116601   2.209   1.998   5.254  0.8154  0.2496 -3.1318
 1713SOL    HW216602   2.329   1.921   5.285  1.0270  0.6373  1.7529
 1714SOL     OW16603   0.805   3.233  14.350 -0.0130 -0.4524  0.0900
 1714SOL    HW116604   0.871   3.283  14.399 -0.2173  1.5244 -1.7084
 1714SOL    HW216605   0.745   3.305  14.332  0.2830  0.3938  2.4212
 1715SOL     OW16606   1.923   1.056   2.446  0.0948 -0.2473 -0.0660
 1715SOL    HW116607   1.881   1.082   2.364  1.7187  0.4631 -0.6759
 1715SOL    HW216608   1.859   1.091   2.508 -0.1305  1.5333 -1.2753
 1716SOL     OW16609   4.039   1.835   9.967 -0.4578 -0.1727  0.5825
 1716SOL    HW116610   4.079   1.777   9.903  3.5907  1.6070  1.5088
 1716SOL    HW216611   3.977   1.872   9.904  2.1837  1.7694 -0.8743
 1717SOL     OW16612   1.273   1.446  12.353 -0.0198  0.0867 -0.2725
 1717SOL    HW116613   1.200   1.429  12.294  1.6069 -1.8504 -1.6958
 1717SOL    HW216614   1.320   1.514  12.303 -2.6978  2.0649 -0.1015
 1718SOL     OW16615   4.655   0.732   4.688 -0.4313 -0.3307  0.4577
 1718SOL    HW116616   4.712   0.661   4.659 -2.1922 -0.9888 -1.3753
 1718SOL    HW216617   4.572   0.699   4.654  0.4368 -0.3942 -1.5953
 1719SOL     OW16618   4.277   1.702  15.504 -0.1808 -0.2114 -0.1640
 1719SOL    HW116619   4.307   1.645  15.575 -1.4468  2.6265  2.6874
 1719SOL    HW216620   4.344   1.689  15.437 -0.4894  0.0529 -0.5222
 1720SOL     OW16621   2.477   1.222   7.610 -0.1292 -0.4767 -0.7823
 1720SOL    HW116622   2.507   1.149   7.555 -0.0601 -0.9657 -0.0886
 1720SOL    HW216623   2.562   1.237   7.651  0.0046 -2.1730 -0.4314
 1721SOL     OW16624   3.987   0.129   4.372  0.5199  0.1073 -0.4548
 1721SOL    HW116625   4.024   0.057   4.320  0.7082  1.7026 -2.5714
 1721SOL    HW216626   3.897   0.099   4.382  0.3889  1.3761  1.9586
 1722SOL     OW16627   3.476   2.320   4.938  0.2848 -0.2529 -0.0786
 1722SOL    HW116628   3.425   2.366   5.004  0.4349 -0.3859  0.1305
 1722SOL    HW216629   3.566   2.319   4.971  0.8990 -0.6802 -1.7254
 1723SOL     OW16630   4.412   2.794   9.205 -0.0526  0.1691 -0.2743
 1723SOL    HW116631   4.414   2.795   9.300 -2.0998 -0.0851 -0.2329
 1723SOL    HW216632   4.497   2.753   9.190 -0.9075 -0.8435 -2.3732
 1724SOL     OW16633   2.845   3.791  14.550 -0.3518 -0.1681 -0.1141
 1724SOL    HW116634   2.818   3.732  14.479 -1.1406  0.2398 -0.1517
 1724SOL    HW216635   2.788   3.867  14.539 -0.4804 -0.2929 -0.3211
 1725SOL     OW16636   0.506   3.618   5.988  0.4145  0.0984 -0.2619
 1725SOL    HW116637   0.578   3.558   6.009 -0.3729 -1.2654 -1.4716
 1725SOL    HW216638   0.455   3.562   5.929 -0.4944  1.2092 -0.5329
 1726SOL     OW16639   4.453   1.372   5.619 -0.1616 -0.3190 -0.0595
 1726SOL    HW116640   4.477   1.353   5.709  0.5071  1.6131  0.1789
 1726SOL    HW216641   4.531   1.351   5.567 -0.2272 -1.3142  0.2592
 1727SOL     OW16642   1.206   0.794   2.091  0.4077 -0.1835  0.1842
 1727SOL    HW116643   1.284   0.743   2.114  0.7417  1.1699  2.0908
 1727SOL    HW216644   1.145   0.751   2.150  1.1391 -2.1592 -0.4807
 1728SOL     OW16645   3.031   1.379  11.743 -0.3619  0.6897 -0.1695
 1728SOL    HW116646   3.078   1.307  11.700  0.9532  1.1567  0.4897
 1728SOL    HW216647   2.939   1.358  11.726  0.3686  0.4488 -3.8582
 1729SOL     OW16648   1.877   3.175   2.774 -0.1922  0.0581 -0.1209
 1729SOL    HW116649   1.864   3.204   2.864  0.5665  1.5364 -0.4861
 1729SOL    HW216650   1.824   3.240   2.728  0.8284  1.8928  1.3209
 1730SOL     OW16651   1.241   3.056  11.199  0.1234 -0.5362 -0.7440
 1730SOL    HW116652   1.171   3.078  11.260  0.8310  1.6655 -0.7104
 1730SOL    HW216653   1.217   3.111  11.125  1.6194  1.0371 -0.0749
 1731SOL     OW16654   2.169   0.900   2.238  0.1108 -0.1906  0.5119
 1731SOL    HW116655   2.092   0.909   2.182 -0.0866 -1.1561  0.6161
 1731SOL    HW216656   2.167   0.987   2.278  2.3344 -0.4002  1.0926
 1732SOL     OW16657   1.925   4.022   6.299  0.6166  0.5141  0.0280
 1732SOL    HW116658   1.926   3.967   6.221 -0.2590 -1.6747  1.5408
 1732SOL    HW216659   1.985   3.975   6.357  1.2032  2.0502  0.6513
 1733SOL     OW16660   3.612   1.960   6.968 -0.0744  0.1053 -0.1775
 1733SOL    HW116661   3.531   1.934   6.923 -0.7082  0.7733  0.5915
 1733SOL    HW216662   3.581   2.017   7.038 -0.7081  0.4110 -0.7089
 1734SOL     OW16663   4.270   0.624   2.422  0.5651  0.3279  0.4111
 1734SOL    HW116664   4.238   0.553   2.367  1.3236  0.7813 -0.6103
 1734SOL    HW216665   4.309   0.681   2.356  2.1519 -0.0521  1.0222
 1735SOL     OW16666   4.028   0.756   0.602  0.1860  0.6316 -0.6414
 1735SOL    HW116667   4.075   0.839   0.594  0.9931 -0.0995 -3.7816
 1735SOL    HW216668   3.950   0.767   0.547 -1.1301 -0.3750  1.0289
 1736SOL     OW16669   4.451   1.508   7.167 -0.4488 -0.1006  0.1482
 1736SOL    HW116670   4.472   1.534   7.257  3.4019  1.3300 -1.1794
 1736SOL    HW216671   4.530   1.462   7.137 -2.2449 -1.6112 -2.3071
 1737SOL     OW16672   3.489   2.447  13.338  0.5883 -0.0751  0.6059
 1737SOL    HW116673   3.462   2.361  13.304  0.4947  0.5764 -0.9613
 1737SOL    HW216674   3.559   2.477  13.279  0.0738  0.4046  0.2443
 1738SOL     OW16675   1.455   2.082   8.613  0.2222  0.3415 -0.1080
 1738SOL    HW116676   1.531   2.045   8.568  0.8036  0.8077  0.4738
 1738SOL    HW216677   1.391   2.016   8.587  1.5293 -1.2407  0.6794
 1739SOL     OW16678   3.267   3.390   6.406 -0.2795 -0.9100  0.4260
 1739SOL    HW116679   3.244   3.410   6.496 -1.2449  0.5476 -0.1560
 1739SOL    HW216680   3.185   3.349   6.377  0.8864 -2.1595 -1.1671
 1740SOL     OW16681   1.225   1.143  15.937 -0.3276 -0.3084 -0.0867
 1740SOL    HW116682   1.268   1.073  15.987  1.4059 -0.9887 -2.5404
 1740SOL    HW216683   1.159   1.173  16.000 -0.3851  0.1775 -0.3840
 1741SOL     OW16684   0.709   3.979   2.496  0.0753  0.2586 -0.3047
 1741SOL    HW116685   0.764   3.957   2.571 -1.2590  1.5403  1.0631
 1741SOL    HW216686   0.722   3.901   2.442 -1.0992 -0.4243  0.3855
 1742SOL     OW16687   2.704   0.633  15.120  0.1697 -0.1206  0.1206
 1742SOL    HW116688   2.751   0.708  15.157  1.6234 -0.4379 -1.0800
 1742SOL    HW216689   2.737   0.629  15.030 -1.1630 -0.3892 -0.3600
 1743SOL     OW16690   1.274   4.716   6.173  0.0162 -0.0133 -0.5842
 1743SOL    HW116691   1.329   4.717   6.252 -1.4339  0.8361  0.4070
 1743SOL    HW216692   1.188   0.030   6.196 -0.4309 -1.1556 -0.5133
 1744SOL     OW16693   1.341   2.998   0.801  0.1247  0.2312  0.2601
 1744SOL    HW116694   1.285   3.070   0.829 -0.9947  0.8040 -3.3721
 1744SOL    HW216695   1.323   2.949   0.881 -0.1999  0.7576  0.5087
 1745SOL     OW16696   1.468   3.139   6.644 -0.3209 -0.7953 -0.1380
 1745SOL    HW116697   1.525   3.064   6.625  1.1465 -0.1421  1.6391
 1745SOL    HW216698   1.454   3.129   6.738 -0.8619  0.3719 -0.0978
 1746SOL     OW16699   0.864   1.530   2.487  0.0772 -0.2498  1.3591
 1746SOL    HW116700   0.775   1.563   2.477  0.4958  0.1004 -1.1964
 1746SOL    HW216701   0.908   1.590   2.427 -1.4646 -2.3205 -1.7909
 1747SOL     OW16702   3.984   0.528   3.832 -0.6334  0.3940  0.4801
 1747SOL    HW116703   4.071   0.542   3.870 -1.5313  0.4797  2.5071
 1747SOL    HW216704   4.001   0.449   3.781  1.2954  0.0042  1.7427
 1748SOL     OW16705   1.466   1.057   5.928 -0.2291  0.3518 -0.6146
 1748SOL    HW116706   1.382   1.096   5.902  0.2909  0.8201 -1.5616
 1748SOL    HW216707   1.444   1.037   6.020 -1.4970 -0.1215 -1.0139
 1749SOL     OW16708   4.103   1.364   9.927  0.5942  0.1540 -0.3327
 1749SOL    HW116709   4.189   1.371   9.968  0.7708 -2.6828 -0.2517
 1749SOL    HW216710   4.053   1.353  10.008 -0.6592  0.7467 -1.0303
 1750SOL     OW16711   3.975   3.090   9.425  0.1555 -0.6869  0.2902
 1750SOL    HW116712   4.021   3.164   9.385 -0.7970 -0.4666 -0.4090
 1750SOL    HW216713   4.049   3.032   9.442  0.0718 -1.2245 -1.1173
 1751SOL     OW16714   1.522   2.339   3.598  0.1986 -0.0418 -0.4899
 1751SOL    HW116715   1.449   2.277   3.597 -1.3021  1.7159  0.4248
 1751SOL    HW216716   1.472   2.419   3.615  0.5846  0.6874 -2.8107
 1752SOL     OW16717   3.890   0.727   7.264  0.4009 -0.1788  0.8155
 1752SOL    HW116718   3.935   0.682   7.192 -0.3593 -2.2069  1.6243
 1752SOL    HW216719   3.964   0.779   7.295  2.8534 -1.6600 -2.4609
 1753SOL     OW16720   0.779   3.431   3.211  0.1830  0.8738 -0.1480
 1753SOL    HW116721   0.794   3.458   3.120 -0.2187  0.5351 -0.3128
 1753SOL    HW216722   0.700   3.383   3.186  0.1369  0.1491  1.3898
 1754SOL     OW16723   0.688   3.007   7.209  0.1543 -0.7496 -0.0163
 1754SOL    HW116724   0.619   3.064   7.242 -0.8874 -1.8399 -0.3244
 1754SOL    HW216725   0.680   2.929   7.265 -0.1331 -0.2005  0.7034
 1755SOL     OW16726   1.980   4.413   9.621 -0.5944 -0.1267 -0.3447
 1755SOL    HW116727   2.049   4.346   9.615 -0.0684  0.2330  1.5381
 1755SOL    HW216728   1.902   4.364   9.597 -0.7309 -0.4472  0.7424
 1756SOL     OW16729   2.266   4.661   4.004  0.2822  0.0470  0.2167
 1756SOL    HW116730   2.266   4.573   4.043 -3.4668  0.4700  1.0905
 1756SOL    HW216731   2.178   4.695   4.016  0.0897 -1.2542  2.6484
 1757SOL     OW16732   1.193   4.578  15.278  0.3023 -0.0741  0.3315
 1757SOL    HW116733   1.245   4.551  15.202 -0.4066 -0.2430 -0.0929
 1757SOL    HW216734   1.206   4.672  15.283 -2.1558  0.2256  0.9777
 1758SOL     OW16735   2.907   3.396   8.550  0.6142  0.1903 -0.9016
 1758SOL    HW116736   2.942   3.435   8.630 -0.2766 -1.3225  0.2174
 1758SOL    HW216737   2.822   3.357   8.571 -0.9133  2.6981 -2.4950
 1759SOL     OW16738   2.395   0.491  12.015 -0.2427 -0.0694  0.2798
 1759SOL    HW116739   2.473   0.510  12.067 -0.0064 -0.2428 -0.0167
 1759SOL    HW216740   2.437   0.478  11.930  1.2928 -0.4955  1.1069
 1760SOL     OW16741   3.458   3.537   3.157 -0.6147 -0.1071  0.4206
 1760SOL    HW116742   3.421   3.551   3.244  0.6828  4.3883  0.2747
 1760SOL    HW216743   3.425   3.610   3.105 -2.5865 -1.0364  0.3698
 1761SOL     OW16744   1.755   4.303  16.312  0.4216  0.5059 -0.6986
 1761SOL    HW116745   1.718   4.341  16.232  0.7584 -0.0678 -1.1330
 1761SOL    HW216746   1.747   4.208  16.303  0.1810  0.3583  1.1238
 1762SOL     OW16747   3.629   1.695  17.131 -0.0572 -0.0365  0.2318
 1762SOL    HW116748   3.608   1.608  17.166 -1.7582  0.1448 -0.3209
 1762SOL    HW216749   3.571   1.697  17.055 -0.4099 -1.5802  0.4608
 1763SOL     OW16750   3.656   3.458   0.681  0.0064 -0.4649  0.5706
 1763SOL    HW116751   3.562   3.456   0.697 -0.1820 -3.3499 -1.0530
 1763SOL    HW216752   3.665   3.365   0.663 -0.2267 -0.2771 -0.5188
 1764SOL     OW16753   3.916   3.420   2.170 -0.2119 -0.0003 -0.2698
 1764SOL    HW116754   4.004   3.437   2.203 -0.0993 -1.4601  0.1766
 1764SOL    HW216755   3.874   3.505   2.155 -1.1692 -0.0601  1.9951
 1765SOL     OW16756   1.305   2.046   8.172 -0.1622 -0.2988  0.1739
 1765SOL    HW116757   1.252   2.097   8.233 -0.7809 -2.9458  1.8496
 1765SOL    HW216758   1.323   2.113   8.106  0.7092 -1.9325 -1.2739
 1766SOL     OW16759   4.150   0.808  13.811 -0.5606 -0.0456 -0.2823
 1766SOL    HW116760   4.063   0.806  13.770  0.3844 -0.4840 -2.2284
 1766SOL    HW216761   4.185   0.884  13.767  0.9693  0.2480  1.4300
 1767SOL     OW16762   3.846   2.779  11.150 -0.0614 -0.1381  0.5842
 1767SOL    HW116763   3.853   2.738  11.064 -1.1347 -0.1635  0.5056
 1767SOL    HW216764   3.907   2.853  11.145  0.7912 -0.9461 -1.1267
 1768SOL     OW16765   2.703   4.610   4.925 -0.0876 -0.0274 -0.3309
 1768SOL    HW116766   2.783   4.570   4.892  0.4146 -0.3874  1.2822
 1768SOL    HW216767   2.733   4.700   4.938  1.5595 -0.3873 -1.6160
 1769SOL     OW16768   4.670   2.013   4.498  0.3285 -0.0187  1.0308
 1769SOL    HW116769   4.657   1.940   4.559 -1.6310 -1.5497 -1.2134
 1769SOL    HW216770   4.607   1.980   4.433 -1.2375 -0.2430  2.6599
 1770SOL     OW16771   4.132   1.835   5.259 -0.3330 -0.3022 -0.2993
 1770SOL    HW116772   4.069   1.850   5.329 -0.4916 -1.2433 -0.2479
 1770SOL    HW216773   4.209   1.821   5.315  0.0021  0.1826 -0.6325
 1771SOL     OW16774   0.064   2.998  10.099  0.7603  0.0710  0.3974
 1771SOL    HW116775   0.045   2.905  10.094 -1.7755  0.5573  1.0633
 1771SOL    HW216776   0.017   3.036  10.025  0.8579  0.6128  0.6140
 1772SOL     OW16777   3.890   0.759  13.714  0.5021 -0.7124 -0.1736
 1772SOL    HW116778   3.913   0.789  13.626 -0.9791  0.1504 -0.2841
 1772SOL    HW216779   3.811   0.713  13.685 -0.3128  1.0952 -0.8335
 1773SOL     OW16780   2.077   3.004  11.654 -0.0098  0.0594  0.1352
 1773SOL    HW116781   2.136   2.968  11.588  1.4602 -0.4862  1.7484
 1773SOL    HW216782   2.140   3.049  11.711 -2.2912  1.6564  1.4005
 1774SOL     OW16783   4.379   1.712   8.014  0.6984  0.9840  0.0824
 1774SOL    HW116784   4.319   1.782   7.987 -0.3081 -0.1498 -0.6289
 1774SOL    HW216785   4.390   1.723   8.108  0.0849  0.2549  0.2432
 1775SOL     OW16786   0.997   3.405   9.346  0.0333 -0.0419 -0.1708
 1775SOL    HW116787   0.999   3.317   9.311 -1.2636  0.7308 -2.1668
 1775SOL    HW216788   0.908   3.435   9.327  0.6282  1.8823 -0.0239
 1776SOL     OW16789   2.417   4.523   7.580  0.3958  0.0226 -0.0539
 1776SOL    HW116790   2.491   4.521   7.640  1.0628  0.0742 -0.8726
 1776SOL    HW216791   2.362   4.583   7.630 -1.1349 -0.7889 -0.7241
 1777SOL     OW16792   0.491   0.383   6.510  0.2343 -0.2456  0.2390
 1777SOL    HW116793   0.532   0.458   6.466 -1.6848  0.7738  0.1894
 1777SOL    HW216794   0.481   0.402   6.604 -3.4273  0.6024 -0.3242
 1778SOL     OW16795   2.423   3.524   1.489  0.2273  0.1676 -0.3686
 1778SOL    HW116796   2.452   3.603   1.443 -0.4415 -1.2907 -3.2321
 1778SOL    HW216797   2.494   3.470   1.455  0.9382 -0.7084  2.5496
 1779SOL     OW16798   1.275   3.590   4.865  0.2436 -0.2432  0.1806
 1779SOL    HW116799   1.251   3.672   4.908  0.2057 -0.7068  1.0405
 1779SOL    HW216800   1.369   3.603   4.857  0.5747 -1.3880  2.1834
 1780SOL     OW16801   2.001   4.648   1.056 -0.0245  0.1481 -0.0469
 1780SOL    HW116802   1.938   4.697   1.003 -0.6885  0.0787  0.6758
 1780SOL    HW216803   1.985   4.562   1.015 -1.8828 -0.8982  2.8988
 1781SOL     OW16804   1.526   3.616   6.178 -0.0594 -0.2242  0.2016
 1781SOL    HW116805   1.524   3.536   6.125 -1.6667  1.9384 -2.9607
 1781SOL    HW216806   1.456   3.672   6.145 -1.9649 -2.4245  0.5314
 1782SOL     OW16807   0.538   2.704   2.863 -0.6594  0.2910  0.1789
 1782SOL    HW116808   0.546   2.613   2.892 -0.3957  0.1635 -0.3082
 1782SOL    HW216809   0.567   2.746   2.944  0.4520 -0.7052  0.3001
 1783SOL     OW16810   2.916   2.358   0.794 -0.0321  0.4760 -0.0997
 1783SOL    HW116811   2.998   2.379   0.840  1.1638  0.2981 -2.1253
 1783SOL    HW216812   2.856   2.342   0.867 -0.3827 -1.2683 -0.7828
 1784SOL     OW16813   2.086   1.091   5.683 -0.1035  0.5298 -0.1178
 1784SOL    HW116814   2.039   1.020   5.640 -1.9728  2.1374 -0.6979
 1784SOL    HW216815   2.108   1.149   5.610  0.8586 -0.1558 -0.3837
 1785SOL     OW16816   4.688   3.321   6.259 -0.6144  0.5450  0.3349
 1785SOL    HW116817   4.604   3.328   6.305 -1.1273  0.2060 -0.5609
 1785SOL    HW216818   4.669   3.386   6.192 -0.3385 -0.0326 -0.2987
 1786SOL     OW16819   4.051   1.947  14.460  0.1993  0.1227 -0.0351
 1786SOL    HW116820   4.089   2.028  14.424 -0.7893  0.5231 -0.1863
 1786SOL    HW216821   4.014   1.919  14.376  1.1830  1.5127 -0.9406
 1787SOL     OW16822   0.844   4.626   4.455  0.3417 -0.3289  0.0580
 1787SOL    HW116823   0.793   4.647   4.376 -0.6612  1.7639  1.2642
 1787SOL    HW216824   0.877   4.544   4.419 -0.0969  0.7480 -2.8661
 1788SOL     OW16825   1.043   2.970  14.139 -0.3669 -0.3732  0.7956
 1788SOL    HW116826   1.065   2.882  14.110  0.8987  0.4814 -0.8787
 1788SOL    HW216827   0.948   2.965  14.146 -0.4589  0.7807  0.4664
 1789SOL     OW16828   0.003   0.650   6.185 -0.6455  0.0682 -0.0546
 1789SOL    HW116829   0.016   0.638   6.279  1.5137 -0.8862 -0.4775
 1789SOL    HW216830   4.653   0.715   6.186 -1.6324 -0.9949 -1.0068
 1790SOL     OW16831   1.883   3.110   6.732  0.1800  0.2351  0.2795
 1790SOL    HW116832   1.976   3.093   6.713  0.7747  2.3946  1.2458
 1790SOL    HW216833   1.848   3.120   6.643 -2.2752 -0.7470  1.1695
 1791SOL     OW16834   3.447   1.839   6.788 -0.2716 -0.3890  0.2088
 1791SOL    HW116835   3.412   1.752   6.808 -0.1172 -0.2664  1.0258
 1791SOL    HW216836   3.518   1.823   6.726 -1.5256  2.5992 -1.9580
 1792SOL     OW16837   0.053   1.605   7.129  0.2496  0.1997 -0.1135
 1792SOL    HW116838   0.142   1.618   7.161 -0.9139  1.2693  2.7109
 1792SOL    HW216839   0.009   1.682   7.164  1.0954  0.2345  0.8732
 1793SOL     OW16840   4.695   1.783   6.672  0.3152  0.3136 -0.7614
 1793SOL    HW116841   4.697   1.821   6.760 -1.6266  0.2721 -0.6934
 1793SOL    HW216842   4.601   1.782   6.655  0.1397 -1.0378  0.2842
 1794SOL     OW16843   0.316   4.580  13.840 -0.0804 -0.1229 -0.0392
 1794SOL    HW116844   0.253   4.520  13.879 -0.2755  0.8866  1.2156
 1794SOL    HW216845   0.343   4.553  13.752 -0.1618 -0.5251  0.0625
 1795SOL     OW16846   1.894   2.256   7.370 -0.4624  0.0040 -0.1398
 1795SOL    HW116847   1.916   2.163   7.378  1.7765  0.5139 -0.4602
 1795SOL    HW216848   1.897   2.281   7.462  1.0896  0.3984 -0.2911
 1796SOL     OW16849   2.847   2.619  10.169  0.4003  0.2109  0.1024
 1796SOL    HW116850   2.770   2.677  10.169 -0.5303 -1.0259  0.7745
 1796SOL    HW216851   2.802   2.536  10.186 -1.0783  0.9475 -0.1439
 1797SOL     OW16852   3.897   1.559   4.576 -0.1813  0.2688 -0.3104
 1797SOL    HW116853   3.900   1.472   4.616 -1.1056 -0.3703 -1.6165
 1797SOL    HW216854   3.990   1.582   4.579  0.8656 -3.9411  0.1964
 1798SOL     OW16855   3.009   0.114   4.973  0.2283  0.2513 -0.0851
 1798SOL    HW116856   3.085   0.083   4.924 -0.6464 -1.0926 -0.5807
 1798SOL    HW216857   2.949   0.127   4.900  0.7240 -0.7188 -0.6640
 1799SOL     OW16858   2.794   0.599  16.780 -0.1373 -0.2259  0.2694
 1799SOL    HW116859   2.755   0.512  16.787 -1.6991  0.3131 -1.6934
 1799SOL    HW216860   2.790   0.622  16.873  1.5983 -1.9000  0.7701
 1800SOL     OW16861   1.839   0.976   6.104 -0.7090 -0.5234 -0.0660
 1800SOL    HW116862   1.915   0.929   6.069 -0.8265 -0.6531 -0.1479
 1800SOL    HW216863   1.769   0.937   6.051  1.0293 -0.8638 -2.1005
 1801SOL     OW16864   0.257   2.808  14.425 -0.2458  0.0926 -0.3601
 1801SOL    HW116865   0.351   2.828  14.428 -0.7145  1.8761  2.5115
 1801SOL    HW216866   0.266   2.717  14.453  1.2347  0.5672  0.7150
 1802SOL     OW16867   2.111   1.163   4.370 -0.3560  0.3956 -0.6004
 1802SOL    HW116868   2.126   1.075   4.337 -0.7646  0.2565 -0.4217
 1802SOL    HW216869   2.029   1.153   4.418  1.0116  0.7426  1.8399
 1803SOL     OW16870   0.373   2.505   8.705 -0.2249  0.3263  0.1000
 1803SOL    HW116871   0.422   2.539   8.630  0.5763 -3.4195 -1.0862
 1803SOL    HW216872   0.298   2.454   8.672 -0.6742  3.3873 -3.5722
 1804SOL     OW16873   4.634   2.452   2.140 -0.5263  0.5939  0.1218
 1804SOL    HW116874   4.626   2.484   2.050  0.2611 -1.3427 -0.6327
 1804SOL    HW216875   4.704   2.387   2.130 -1.1275 -0.0466  0.1293
 1805SOL     OW16876   3.872   3.130  14.342 -0.3543 -0.6532 -0.1002
 1805SOL    HW116877   3.835   3.099  14.424 -0.3714  1.0610  0.5497
 1805SOL    HW216878   3.940   3.191  14.371 -1.6693  0.8202 -0.0816
 1806SOL     OW16879   1.368   2.671  11.181 -0.1865 -0.1853 -0.8965
 1806SOL    HW116880   1.413   2.754  11.169  1.0756 -0.5350  1.2256
 1806SOL    HW216881   1.404   2.644  11.266  1.0159  0.2402 -1.2750
 1807SOL     OW16882   2.742   3.635   8.092  0.2666 -0.2747 -0.1926
 1807SOL    HW116883   2.690   3.676   8.162 -0.3310  0.3102 -0.9790
 1807SOL    HW216884   2.673   3.590   8.043  0.7064  0.2208 -1.2658
 1808SOL     OW16885   1.014   1.285   8.106 -0.1203  0.0585  0.3339
 1808SOL    HW116886   0.997   1.229   8.031 -0.5266  0.9540 -0.2355
 1808SOL    HW216887   1.052   1.361   8.062 -0.9748 -1.3979 -2.9221
 1809SOL     OW16888   3.386   1.738  14.267 -0.4675  0.1693  0.1019
 1809SOL    HW116889   3.336   1.665  14.304 -1.7881  0.7352 -0.5553
 1809SOL    HW216890   3.458   1.695  14.221  1.2682  0.2913  2.7065
 1810SOL     OW16891   2.392   0.374  14.617  0.4481 -0.5182  0.2182
 1810SOL    HW116892   2.372   0.318  14.542 -0.3136  0.5873 -0.4010
 1810SOL    HW216893   2.444   0.316  14.672 -0.2056 -0.1236  1.2597
 1811SOL     OW16894   1.282   0.169   4.410  0.0469  0.3196 -0.3211
 1811SOL    HW116895   1.328   0.170   4.493  1.7435 -0.4268 -1.2517
 1811SOL    HW216896   1.191   0.170   4.439 -0.1616 -2.1675 -0.8787
 1812SOL     OW16897   1.695   0.187   7.730 -0.2981 -0.1640 -0.3845
 1812SOL    HW116898   1.615   0.178   7.781  0.2929  1.0619  0.7628
 1812SOL    HW216899   1.677   0.157   7.641 -2.4892  2.5270 -0.8142
 1813SOL     OW16900   2.596   0.374  10.998  0.3426  0.0976 -0.0647
 1813SOL    HW116901   2.569   0.465  11.008  2.4397  0.4698  2.2113
 1813SOL    HW216902   2.668   0.376  10.934 -1.7103 -0.3347 -2.3853
 1814SOL     OW16903   2.249   3.827   5.863  0.2109  0.4555  1.0285
 1814SOL    HW116904   2.310   3.835   5.790 -0.2957 -0.5642  0.4934
 1814SOL    HW216905   2.174   3.791   5.818  0.4543  0.0613  0.9349
 1815SOL     OW16906   1.747   3.486   1.967  0.3193 -0.2730  0.5031
 1815SOL    HW116907   1.824   3.539   1.986 -0.7416  1.0623  1.0448
 1815SOL    HW216908   1.713   3.524   1.886  0.5023  1.0888  1.0652
 1816SOL     OW16909   0.764   4.574   7.198 -0.1278 -0.1546 -0.2445
 1816SOL    HW116910   0.760   4.569   7.102  0.5889 -2.1737 -0.1764
 1816SOL    HW216911   0.695   4.511   7.217  1.2584 -0.8394  2.4494
 1817SOL     OW16912   0.564   2.230   0.758  0.2763 -0.2663  0.2163
 1817SOL    HW116913   0.483   2.272   0.728  0.1719 -0.3801  0.3402
 1817SOL    HW216914   0.531   2.161   0.815 -1.0261  1.6016  1.7353
 1818SOL     OW16915   3.011   1.319   7.016  0.5785 -0.1672 -0.6600
 1818SOL    HW116916   2.924   1.359   7.005  0.6749 -0.2824 -1.7737
 1818SOL    HW216917   3.060   1.373   6.954  1.4082 -1.5755 -1.2222
 1819SOL     OW16918   4.251   1.582  17.231  1.1822  0.0302 -0.5854
 1819SOL    HW116919   4.328   1.638  17.221  1.6195 -0.5328 -0.3855
 1819SOL    HW216920   4.201   1.626  17.300  0.4852  0.2713 -1.2526
 1820SOL     OW16921   1.772   0.035   8.486 -0.1243 -0.2440  0.0788
 1820SOL    HW116922   1.749   0.070   8.572  2.1121 -1.0446  1.0103
 1820SOL    HW216923   1.689   0.010   8.447  0.2411 -2.6374  0.7948
 1821SOL     OW16924   0.925   2.953   3.439  0.3725 -0.5279  0.3052
 1821SOL    HW116925   1.016   2.981   3.430  0.4289 -1.0536 -0.6950
 1821SOL    HW216926   0.881   3.019   3.387  2.8849  0.8093 -0.1208
 1822SOL     OW16927   4.089   4.523   8.387  0.0103 -0.0314  0.0828
 1822SOL    HW116928   4.049   4.518   8.474  1.2162 -0.6506  0.6118
 1822SOL    HW216929   4.014   4.509   8.330  0.8376 -1.2906 -0.6888
 1823SOL     OW16930   0.478   2.525  15.986  0.1562  0.1296  0.2182
 1823SOL    HW116931   0.454   2.489  15.901 -0.8151  0.7408  0.2237
 1823SOL    HW216932   0.497   2.614  15.959 -2.2129  1.7035  3.6350
 1824SOL     OW16933   1.431   2.437   9.880 -0.2390 -0.2342 -0.7500
 1824SOL    HW116934   1.519   2.471   9.899 -0.7795  0.5643  0.3542
 1824SOL    HW216935   1.431   2.447   9.785 -2.8852  0.3196 -0.7025
 1825SOL     OW16936   2.454   3.928   6.016 -0.0891  0.0728  0.5246
 1825SOL    HW116937   2.415   3.881   6.090 -0.9266  1.5260  0.9962
 1825SOL    HW216938   2.382   3.916   5.955 -0.6435 -0.3838  1.2632
 1826SOL     OW16939   3.310   0.876  14.189  0.1753 -0.1459 -0.5221
 1826SOL    HW116940   3.339   0.920  14.109 -1.8903  0.1730 -1.0966
 1826SOL    HW216941   3.328   0.783  14.172 -0.6474 -0.4321  0.1605
 1827SOL     OW16942   2.742   0.690   2.448 -0.0215 -0.1895  0.2933
 1827SOL    HW116943   2.710   0.625   2.510 -0.7262 -0.3555 -0.2401
 1827SOL    HW216944   2.673   0.756   2.450 -0.7805 -0.9602 -0.1524
 1828SOL     OW16945   3.790   2.104  14.296  0.1534 -0.1396  0.4438
 1828SOL    HW116946   3.702   2.092  14.261  0.7334 -0.7401 -0.7964
 1828SOL    HW216947   3.788   2.043  14.370 -0.7092 -0.1247  0.4378
 1829SOL     OW16948   1.150   0.325   4.228  0.4175 -0.0033 -0.8382
 1829SOL    HW116949   1.181   0.369   4.149  0.7565  1.0169 -0.1466
 1829SOL    HW216950   1.232   0.298   4.271 -1.1921 -1.8527  1.0845
 1830SOL     OW16951   0.002   1.801   2.043 -0.0138  0.3230  0.0464
 1830SOL    HW116952   4.661   1.744   1.997  3.1216 -1.7635 -1.5804
 1830SOL    HW216953   0.018   1.875   1.985 -0.4048 -0.5045 -1.1236
 1831SOL     OW16954   3.085   4.162   1.856  0.2963  0.5456 -0.6647
 1831SOL    HW116955   3.112   4.072   1.874 -1.1131  0.2207 -0.1849
 1831SOL    HW216956   3.061   4.198   1.941 -0.0203 -0.1992 -0.4384
 1832SOL     OW16957   0.046   3.777   3.287  0.5579 -0.0254 -0.5455
 1832SOL    HW116958   4.694   3.837   3.304 -0.1713 -1.0697 -0.0079
 1832SOL    HW216959   0.062   3.797   3.195 -1.3291  0.4985 -0.7624
 1833SOL     OW16960   1.154   3.897   2.125 -0.0461  0.2867 -0.2651
 1833SOL    HW116961   1.060   3.888   2.141  0.5574 -1.9698  1.9511
 1833SOL    HW216962   1.185   3.842   2.196 -3.6723 -1.1122  0.2660
 1834SOL     OW16963   4.361   2.015   2.475 -0.0918 -0.1135 -0.2726
 1834SOL    HW116964   4.368   2.073   2.399  0.5039 -0.3109 -0.3675
 1834SOL    HW216965   4.292   2.053   2.529 -0.5352  1.0571 -1.6634
 1835SOL     OW16966   3.788   2.936  11.544  0.3495  0.4779 -0.4410
 1835SOL    HW116967   3.724   2.986  11.493  1.3965 -0.8149 -3.0137
 1835SOL    HW216968   3.783   2.847  11.510 -2.0258 -0.0281  1.2611
 1836SOL     OW16969   0.403   4.583   2.039  0.0692 -0.1243  0.0697
 1836SOL    HW116970   0.456   4.607   1.963  1.0432  0.2343  0.8636
 1836SOL    HW216971   0.349   4.661   2.049 -1.1997 -0.7037 -2.1833
 1837SOL     OW16972   1.293   3.456   2.168  0.2149  0.0079  0.0689
 1837SOL    HW116973   1.308   3.550   2.176 -0.1929 -0.0507  1.5241
 1837SOL    HW216974   1.383   3.431   2.144 -0.6840 -2.2671 -0.9509
 1838SOL     OW16975   3.400   4.617  10.062 -0.1647  0.2523  0.0654
 1838SOL    HW116976   3.479   4.650  10.105 -0.0167  0.4434 -0.3617
 1838SOL    HW216977   3.446   4.542  10.025 -0.3949  0.4277 -0.5786
 1839SOL     OW16978   3.440   2.882  12.478 -0.4214  0.0598 -0.0427
 1839SOL    HW116979   3.530   2.893  12.447 -0.3014 -0.9787 -0.0827
 1839SOL    HW216980   3.403   2.964  12.448  0.8894  0.2412 -1.1832
 1840SOL     OW16981   0.200   2.277   6.229  0.3808 -0.4866  0.0844
 1840SOL    HW116982   0.197   2.259   6.323 -2.6090  0.9139  0.2475
 1840SOL    HW216983   0.106   2.283   6.213  0.5681 -0.5179 -1.0632
 1841SOL     OW16984   3.428   0.202  13.955 -0.9208 -0.3635  0.1744
 1841SOL    HW116985   3.389   0.265  13.894 -0.0379  0.0226  0.0002
 1841SOL    HW216986   3.504   0.171  13.905 -2.4873 -0.7957 -1.9287
 1842SOL     OW16987   2.211   3.485   4.906  0.4352 -0.3897 -0.2077
 1842SOL    HW116988   2.280   3.509   4.968 -1.1727  1.6493  0.7788
 1842SOL    HW216989   2.246   3.402   4.874  2.3915 -0.9632  3.3890
 1843SOL     OW16990   2.917   3.430  12.235  0.0414  0.1258  0.1820
 1843SOL    HW116991   2.899   3.422  12.329 -1.3969 -0.6878 -0.1617
 1843SOL    HW216992   2.982   3.500  12.241  1.1355 -0.8869 -0.0784
 1844SOL     OW16993   0.230   3.931   4.418 -0.2443 -0.0446 -0.0285
 1844SOL    HW116994   0.291   3.885   4.360 -0.0985 -0.7795  0.6999
 1844SOL    HW216995   0.235   3.872   4.494  1.9668  1.7896  1.2569
 1845SOL     OW16996   2.770   2.204   8.430 -0.3358  0.0707 -0.5791
 1845SOL    HW116997   2.815   2.121   8.443  1.6997  0.9733 -1.8070
 1845SOL    HW216998   2.844   2.261   8.452 -0.6494  0.5523 -0.7673
 1846SOL     OW16999   1.102   3.903  15.688 -0.6839 -0.2225 -0.6281
 1846SOL    HW117000   1.149   3.947  15.618  1.4269 -0.9905  0.3069
 1846SOL    HW217001   1.031   3.966  15.699 -1.0636 -0.9339  1.0157
 1847SOL     OW17002   0.428   4.500   3.233 -0.4625 -0.2684  0.5897
 1847SOL    HW117003   0.397   4.409   3.225 -2.0956  0.1963  1.5286
 1847SOL    HW217004   0.366   4.554   3.184  0.0691 -2.1912 -2.1640
 1848SOL     OW17005   1.002   1.231  13.322  0.0690  0.1404  0.0442
 1848SOL    HW117006   1.064   1.164  13.292 -0.0483 -0.4317  1.0764
 1848SOL    HW217007   0.919   1.187  13.306  0.4256 -0.0830 -1.2129
 1849SOL     OW17008   4.673   2.807  12.261  0.5443  0.2330 -0.2946
 1849SOL    HW117009   4.689   2.892  12.302 -0.9612 -0.8259  2.4835
 1849SOL    HW217010   4.680   2.743  12.332  1.5432 -0.1093 -0.7062
 1850SOL     OW17011   4.589   2.913   7.830  0.6655 -0.2538  0.3879
 1850SOL    HW117012   4.676   2.921   7.791  0.3600  0.9590 -0.0510
 1850SOL    HW217013   4.576   3.005   7.853  0.1602 -0.3697  0.5737
 1851SOL     OW17014   1.933   1.754   6.334 -0.6966  0.5974 -0.3008
 1851SOL    HW117015   2.006   1.807   6.367 -1.0074  0.6453  0.2936
 1851SOL    HW217016   1.860   1.815   6.326 -0.5850  0.6931 -0.6130
 1852SOL     OW17017   1.322   4.084   0.573  0.5381  0.2156  0.3303
 1852SOL    HW117018   1.307   4.003   0.523 -3.1855  0.0742  1.7098
 1852SOL    HW217019   1.418   4.083   0.566  0.5344 -1.1642  0.3677
 1853SOL     OW17020   4.148   0.135   6.563  0.2809 -0.1302  0.1815
 1853SOL    HW117021   4.237   0.168   6.577  0.1241  0.7566 -0.9597
 1853SOL    HW217022   4.153   0.048   6.603 -2.3644  0.1091  1.0479
 1854SOL     OW17023   3.661   3.796   2.971 -0.0324  0.3763  0.1839
 1854SOL    HW117024   3.613   3.734   2.916  3.1805  1.2367 -3.5839
 1854SOL    HW217025   3.715   3.844   2.908 -0.7959 -0.1537 -0.8714
 1855SOL     OW17026   3.852   0.775   6.425 -0.1826 -0.2917  0.7838
 1855SOL    HW117027   3.768   0.759   6.383  0.7540  1.2157 -1.6726
 1855SOL    HW217028   3.824   0.763   6.516  1.0092 -2.0118  0.9254
 1856SOL     OW17029   4.004   1.604   9.363  0.1667  0.0859 -0.7000
 1856SOL    HW117030   3.946   1.678   9.344 -0.2808 -0.0687  0.0419
 1856SOL    HW217031   3.977   1.581   9.452  1.7095  1.6777  0.1880
 1857SOL     OW17032   3.542   3.315   0.441 -0.1025 -0.2170  0.2951
 1857SOL    HW117033   3.583   3.267   0.369 -0.9649 -0.8998  0.2579
 1857SOL    HW217034   3.598   3.392   0.445  1.3820 -1.1749 -1.6100
 1858SOL     OW17035   1.143   3.910   9.012  0.3602  0.4167  0.3496
 1858SOL    HW117036   1.064   3.857   9.001  1.1396 -0.7330  0.2238
 1858SOL    HW217037   1.113   3.992   8.974  3.7009  2.2454  1.6902
 1859SOL     OW17038   3.029   2.947   4.550  0.3595 -0.2022 -0.1792
 1859SOL    HW117039   2.954   2.992   4.589 -1.6587 -2.6443 -1.2519
 1859SOL    HW217040   2.981   2.869   4.522 -0.2685 -0.4926  1.7529
 1860SOL     OW17041   0.949   3.182  15.297  0.3161 -0.2156  0.3979
 1860SOL    HW117042   0.990   3.118  15.238 -1.1090 -0.6435 -0.1337
 1860SOL    HW217043   0.999   3.181  15.378  0.4057 -1.9933  0.3260
 1861SOL     OW17044   3.640   0.897   9.325  0.1429  0.6512 -0.0791
 1861SOL    HW117045   3.734   0.913   9.326  0.1658  0.4113  1.5191
 1861SOL    HW217046   3.609   0.984   9.349  0.2722  0.9214 -0.8882
 1862SOL     OW17047   3.310   4.119   7.533  0.1182  0.8087  0.1818
 1862SOL    HW117048   3.345   4.173   7.462 -2.5330 -0.6936 -2.2931
 1862SOL    HW217049   3.308   4.031   7.496 -1.3706  0.8366  0.1884
 1863SOL     OW17050   4.368   4.216   5.033 -0.1610  0.3136 -0.0117
 1863SOL    HW117051   4.432   4.242   5.099  0.4200  0.5566 -0.6641
 1863SOL    HW217052   4.422   4.215   4.953 -0.2303 -0.6929 -0.0497
 1864SOL     OW17053   2.169   2.351   1.615  0.3893 -0.4160  0.0049
 1864SOL    HW117054   2.154   2.268   1.662  2.1859  0.1347  1.5658
 1864SOL    HW217055   2.210   2.307   1.542 -1.5967 -1.1780 -0.6619
 1865SOL     OW17056   0.522   1.481   5.652 -0.6655 -0.2960 -0.4834
 1865SOL    HW117057   0.445   1.537   5.644  1.3467  2.7935  1.6978
 1865SOL    HW217058   0.591   1.537   5.617  0.6361 -1.9426 -0.5796
 1866SOL     OW17059   2.821   3.751  17.086  0.6166  0.0775 -0.3539
 1866SOL    HW117060   2.789   3.841  17.089 -1.5920 -0.7140 -0.6338
 1866SOL    HW217061   2.866   3.740  17.170 -0.4389 -0.7292  0.1138
 1867SOL     OW17062   2.434   3.344   9.456  0.4102  0.0101  0.4525
 1867SOL    HW117063   2.495   3.335   9.382  1.0426  2.2443  0.6908
 1867SOL    HW217064   2.366   3.392   9.408  0.3746 -0.3147  0.1753
 1868SOL     OW17065   1.996   4.065  15.675 -0.3812 -0.0331  0.7503
 1868SOL    HW117066   2.073   4.009  15.668 -0.5353 -0.3614  1.6619
 1868SOL    HW217067   1.929   3.997  15.688  0.0289 -0.6505 -0.3688
 1869SOL     OW17068   4.194   2.286   4.307  0.6702  0.4688  0.5427
 1869SOL    HW117069   4.137   2.354   4.344  2.0151  1.6730  0.4112
 1869SOL    HW217070   4.279   2.318   4.338  1.1809 -0.4344  0.0695
 1870SOL     OW17071   3.709   4.111   3.599 -0.0019  0.0613  0.2287
 1870SOL    HW117072   3.757   4.033   3.573 -0.3333  0.0053 -0.2100
 1870SOL    HW217073   3.774   4.141   3.663  0.4792 -0.7550  0.1212
 1871SOL     OW17074   3.292   3.415  12.299  0.0130  0.6127 -0.2016
 1871SOL    HW117075   3.355   3.485  12.315 -0.4270  0.9208  0.1667
 1871SOL    HW217076   3.340   3.332  12.296 -1.2303 -0.1609  1.6032
 1872SOL     OW17077   2.031   1.044   7.625  0.0138  0.5291  0.4216
 1872SOL    HW117078   2.117   1.061   7.664 -0.2558  1.4259  0.6211
 1872SOL    HW217079   1.973   1.117   7.646 -0.9325  0.7649 -2.9998
 1873SOL     OW17080   1.691   1.710   9.208 -0.0261  0.1985 -0.5789
 1873SOL    HW117081   1.769   1.713   9.152 -0.4432 -0.0614 -1.1821
 1873SOL    HW217082   1.686   1.615   9.208  2.4012  0.0776  0.4851
 1874SOL     OW17083   0.989   2.289   2.201 -0.0571  0.3173 -0.3415
 1874SOL    HW117084   1.004   2.203   2.240  0.0063 -0.6881 -2.5718
 1874SOL    HW217085   0.941   2.341   2.265  0.3946  0.9776 -0.5460
 1875SOL     OW17086   2.363   4.173   6.832 -0.2278  0.1956  0.8350
 1875SOL    HW117087   2.329   4.262   6.825  1.2648  0.6527 -0.5562
 1875SOL    HW217088   2.295   4.111   6.805 -0.3584 -0.2405  2.1506
 1876SOL     OW17089   2.584   2.913   4.379  0.1146 -0.4946 -0.4519
 1876SOL    HW117090   2.539   2.831   4.360 -3.3183  1.0305  1.1146
 1876SOL    HW217091   2.629   2.887   4.459 -1.2359  0.9360  0.7819
 1877SOL     OW17092   2.219   2.476   8.114  0.4551  0.2567  0.9328
 1877SOL    HW117093   2.189   2.457   8.025 -0.4484 -1.3885  1.5795
 1877SOL    HW217094   2.146   2.432   8.158 -0.5910 -1.2894 -2.3313
 1878SOL     OW17095   2.691   1.608  15.220  0.2791  0.1977  0.3838
 1878SOL    HW117096   2.645   1.669  15.277 -0.1156 -0.7128  1.0450
 1878SOL    HW217097   2.776   1.650  15.207  1.8152 -2.3804  2.0027
 1879SOL     OW17098   0.517   4.157   3.372 -0.1663  0.3652  0.1383
 1879SOL    HW117099   0.442   4.112   3.412  0.0392 -0.0048  0.1126
 1879SOL    HW217100   0.488   4.164   3.282 -1.1898 -1.6770  0.2870
 1880SOL     OW17101   1.065   1.309   5.641  0.3601  0.3749  0.0644
 1880SOL    HW117102   1.008   1.313   5.564 -0.9900 -0.8721  0.9991
 1880SOL    HW217103   1.146   1.348   5.608 -0.7572  1.9427 -0.8371
 1881SOL     OW17104   4.004   0.607   7.023  0.0835 -0.0536  0.2796
 1881SOL    HW117105   4.026   0.519   6.994  0.1040  0.6221 -1.7387
 1881SOL    HW217106   4.053   0.661   6.962  1.6965  0.3124  1.8810
 1882SOL     OW17107   2.571   2.510   3.104 -0.2273  0.3736 -0.1302
 1882SOL    HW117108   2.623   2.523   3.183  0.8724 -2.0710 -0.4474
 1882SOL    HW217109   2.486   2.496   3.147 -1.4307 -0.6951 -2.8567
 1883SOL     OW17110   4.510   1.894   1.435  0.1232 -0.5714 -0.7217
 1883SOL    HW117111   4.526   1.981   1.400 -1.4131  0.1434  0.3606
 1883SOL    HW217112   4.599   1.862   1.421  0.2303 -0.2499 -0.7536
 1884SOL     OW17113   1.650   3.335   4.687 -0.3748  0.5524  0.2868
 1884SOL    HW117114   1.714   3.378   4.631  1.1113 -0.9618  0.8547
 1884SOL    HW217115   1.638   3.251   4.643 -0.0936 -0.5289  2.2861
 1885SOL     OW17116   2.438   3.045   7.895  0.4613 -0.2686  0.3895
 1885SOL    HW117117   2.475   2.964   7.858  0.4515 -0.6638  1.2218
 1885SOL    HW217118   2.407   3.016   7.981 -1.8100  0.0347 -0.3221
 1886SOL     OW17119   0.641   3.901   4.784 -0.1142 -0.2880 -0.0310
 1886SOL    HW117120   0.555   3.863   4.802  0.2923 -0.8173  0.8358
 1886SOL    HW217121   0.630   3.969   4.718  0.2543  1.9903  2.2944
 1887SOL     OW17122   1.079   0.800   4.983 -0.4953 -0.4230  0.3478
 1887SOL    HW117123   1.087   0.871   4.920  2.0731  0.1566  1.3259
 1887SOL    HW217124   1.040   0.849   5.056  1.2759  1.5359 -0.0473
 1888SOL     OW17125   4.678   2.376   7.843  0.6532 -0.5135 -0.1564
 1888SOL    HW117126   4.665   2.457   7.793  2.3922  1.7619  3.0593
 1888SOL    HW217127   4.659   2.408   7.932 -1.1033  0.2507 -0.8012
 1889SOL     OW17128   0.829   1.741   6.174 -0.2692 -0.1776  0.2853
 1889SOL    HW117129   0.880   1.674   6.129 -0.7472 -0.6394  0.4329
 1889SOL    HW217130   0.772   1.773   6.105  2.1517  1.4596 -0.9574
 1890SOL     OW17131   4.658   4.105   5.345  0.5304  0.2120 -0.7686
 1890SOL    HW117132   4.648   4.018   5.384 -2.0867 -0.0564 -1.9649
 1890SOL    HW217133   0.031   4.105   5.328  0.7028 -0.3782  0.2023
 1891SOL     OW17134   2.399   3.319  10.879  0.1446  0.2262  0.3255
 1891SOL    HW117135   2.451   3.249  10.919  2.5402  0.7087 -1.9764
 1891SOL    HW217136   2.454   3.397  10.883  1.5009 -0.6513 -1.3787
 1892SOL     OW17137   3.544   2.967   9.378  0.2906  0.1891  0.3411
 1892SOL    HW117138   3.622   2.913   9.388 -0.0858 -0.3570  0.2913
 1892SOL    HW217139   3.520   2.968   9.471 -1.0744  0.9627 -0.0174
 1893SOL     OW17140   3.331   3.969   2.501 -0.0489  0.4794  0.6261
 1893SOL    HW117141   3.400   3.994   2.440 -1.3922  3.6543  0.4327
 1893SOL    HW217142   3.336   4.045   2.558  1.5052  0.7919  0.0619
 1894SOL     OW17143   4.330   1.863   1.622 -0.2273  0.0892 -0.8664
 1894SOL    HW117144   4.371   1.913   1.693  2.0178  0.2572 -2.2943
 1894SOL    HW217145   4.398   1.866   1.556 -1.2191  2.3782 -1.7901
 1895SOL     OW17146   2.114   2.481  16.099  0.5845 -0.1444  0.3629
 1895SOL    HW117147   2.030   2.438  16.087 -0.2216  1.3991  0.3964
 1895SOL    HW217148   2.164   2.400  16.090  0.1251 -0.4481  0.5792
 1896SOL     OW17149   3.680   0.662   8.565  0.0198  0.3243  0.1857
 1896SOL    HW117150   3.767   0.678   8.527 -0.5781  2.0912 -0.4285
 1896SOL    HW217151   3.686   0.567   8.558  1.1003  0.3640  0.5998
 1897SOL     OW17152   2.915   0.958   1.983  0.1252  0.0903  0.0941
 1897SOL    HW117153   2.838   0.914   1.949 -0.6345  1.4465  0.0690
 1897SOL    HW217154   2.991   0.905   1.955  0.7165  0.8110  0.3338
 1898SOL     OW17155   1.075   1.305   1.058 -0.4139 -0.5528  0.8845
 1898SOL    HW117156   1.143   1.369   1.076  0.3877 -1.2872  0.4516
 1898SOL    HW217157   1.083   1.264   1.144 -1.0704 -1.1253  0.6790
 1899SOL     OW17158   1.037   0.154   3.163 -0.0693  0.6749 -0.3033
 1899SOL    HW117159   1.072   0.212   3.231  0.8884  0.5608 -0.6964
 1899SOL    HW217160   0.959   0.204   3.141  0.5174  1.1047 -1.4163
 1900SOL     OW17161   0.973   2.503  10.502 -0.1144 -0.4744  0.1258
 1900SOL    HW117162   0.900   2.452  10.468 -1.0652  0.8725  0.1391
 1900SOL    HW217163   0.924   2.579  10.534 -1.6804 -0.4341 -2.4423
 1901SOL     OW17164   1.043   0.680   5.970  0.0647  0.3856  0.0530
 1901SOL    HW117165   1.031   0.737   5.895  1.6121  1.1954  0.4157
 1901SOL    HW217166   1.042   0.593   5.929 -3.0510  0.9612 -1.0558
 1902SOL     OW17167   4.705   2.092  16.578 -0.0901  0.4096  0.0345
 1902SOL    HW117168   4.712   2.136  16.663  0.4208  1.6432 -0.6424
 1902SOL    HW217169   4.682   2.165  16.521 -2.0540  0.0218  0.3382
 1903SOL     OW17170   2.659   4.282  11.506  0.4318 -0.0642  0.1678
 1903SOL    HW117171   2.708   4.224  11.446 -0.3196 -2.2657  1.6697
 1903SOL    HW217172   2.631   4.352  11.447  0.2779 -0.2799 -0.0196
 1904SOL     OW17173   4.021   0.151   6.173 -0.0230 -0.1144  0.1624
 1904SOL    HW117174   3.947   0.200   6.209 -0.6171 -1.4745  0.7989
 1904SOL    HW217175   3.972   0.078   6.135 -0.1258 -0.5910  1.2138
 1905SOL     OW17176   3.958   3.917   8.843 -0.3628 -0.5640  0.2843
 1905SOL    HW117177   3.882   3.889   8.792 -0.2180 -0.8171  0.2101
 1905SOL    HW217178   4.002   3.975   8.781  0.9088 -0.6622  1.0882
 1906SOL     OW17179   2.378   3.640  15.299 -0.1381  0.5273  0.5027
 1906SOL    HW117180   2.409   3.618  15.211 -1.1994 -0.0954  0.2878
 1906SOL    HW217181   2.305   3.578  15.293  1.1424 -1.0718  1.3680
 1907SOL     OW17182   1.473   0.581   3.692  0.2178  0.2484  0.5265
 1907SOL    HW117183   1.567   0.590   3.677  0.1680  2.2750  1.3532
 1907SOL    HW217184   1.460   0.505   3.748  2.0861 -1.3332 -1.2268
 1908SOL     OW17185   0.593   3.849   3.996 -1.0229 -0.5650 -0.3092
 1908SOL    HW117186   0.555   3.885   4.076  0.8500  3.2144 -1.1059
 1908SOL    HW217187   0.675   3.898   3.987 -0.6666 -0.9706  0.7978
 1909SOL     OW17188   3.115   0.963   4.527 -0.4809  0.5968  0.7181
 1909SOL    HW117189   3.177   0.902   4.489  0.3919  1.5815  0.5635
 1909SOL    HW217190   3.087   1.009   4.448  0.6184 -3.2477 -1.8597
 1910SOL     OW17191   1.867   1.776   5.543 -0.0858  0.4807 -0.0136
 1910SOL    HW117192   1.854   1.691   5.501  0.2377 -0.1212  1.1179
 1910SOL    HW217193   1.837   1.754   5.631 -1.2032  2.4547  0.0958
 1911SOL     OW17194   0.085   4.549   8.443  0.1209 -0.1261  0.1446
 1911SOL    HW117195   0.130   4.589   8.517  1.5381  2.0154 -1.8756
 1911SOL    HW217196   0.035   4.479   8.485  1.8103 -1.4574 -0.0733
 1912SOL     OW17197   2.881   1.484   7.752  0.3886  0.1383 -0.6978
 1912SOL    HW117198   2.792   1.517   7.743  0.4767  0.7949  0.8055
 1912SOL    HW217199   2.916   1.485   7.663  1.7824 -0.1325 -0.1430
 1913SOL     OW17200   1.682   0.177   3.986  0.2173  0.5359 -0.5618
 1913SOL    HW117201   1.675   0.081   3.991 -1.2064  0.5954 -1.2830
 1913SOL    HW217202   1.655   0.192   4.077  2.1422  1.1017 -0.0793
 1914SOL     OW17203   0.354   0.754   7.378  0.2781 -0.0667 -0.1284
 1914SOL    HW117204   0.310   0.828   7.418 -0.9037 -0.9048  0.1228
 1914SOL    HW217205   0.442   0.779   7.405  0.6602  0.3390 -1.7087
 1915SOL     OW17206   1.731   2.982   8.463  0.0352  0.0344  0.2186
 1915SOL    HW117207   1.788   2.908   8.485 -1.4474 -0.0926  3.4912
 1915SOL    HW217208   1.779   3.016   8.387  0.2278 -3.3289 -1.1631
 1916SOL     OW17209   3.615   1.349  16.917 -0.1496 -0.3921 -0.2224
 1916SOL    HW117210   3.555   1.289  16.874 -0.2663 -2.4401  2.8286
 1916SOL    HW217211   3.556   1.418  16.947  0.6374  0.1190  0.1757
 1917SOL     OW17212   1.648   3.346   6.340  1.2738 -0.0508  0.0857
 1917SOL    HW117213   1.708   3.411   6.378 -0.4706  2.2544 -1.1029
 1917SOL    HW217214   1.702   3.318   6.266 -0.6189  0.1062 -1.3349
 1918SOL     OW17215   2.311   1.040   1.993 -0.3912 -0.0650 -0.4351
 1918SOL    HW117216   2.313   0.995   1.909 -0.6657  0.9348 -0.9714
 1918SOL    HW217217   2.350   0.967   2.041 -0.0930 -0.0888 -0.7089
 1919SOL     OW17218   2.550   0.385   1.862  0.1139 -0.5714  0.0916
 1919SOL    HW117219   2.638   0.361   1.889  0.6259  1.3580  0.1459
 1919SOL    HW217220   2.522   0.308   1.813  0.0281  0.0254 -0.7970
 1920SOL     OW17221   1.908   1.756   6.649  0.0976  0.3618 -0.5893
 1920SOL    HW117222   1.822   1.796   6.646  1.4461  3.2550 -0.1839
 1920SOL    HW217223   1.952   1.840   6.637  0.8658  0.0918  0.2994
 1921SOL     OW17224   1.063   2.479   5.443 -0.4978  0.3905 -0.1087
 1921SOL    HW117225   1.028   2.564   5.414  0.4391  0.8028 -0.0334
 1921SOL    HW217226   1.021   2.423   5.379 -1.0550 -1.1048  1.5656
 1922SOL     OW17227   3.074   4.232   8.334  0.8344  0.3796 -1.2302
 1922SOL    HW117228   3.139   4.216   8.403  0.7387 -0.2625 -1.2859
 1922SOL    HW217229   3.117   4.307   8.293  0.1617  0.8062 -1.1447
 1923SOL     OW17230   4.038   1.494   0.766 -0.3768 -0.8035 -0.0443
 1923SOL    HW117231   3.988   1.549   0.706  1.1012  1.4363  0.7851
 1923SOL    HW217232   4.026   1.527   0.855  1.9895  0.6765 -0.2992
 1924SOL     OW17233   0.964   3.445   1.720  0.5541  0.4110  0.0656
 1924SOL    HW117234   0.935   3.356   1.740  1.6206  0.5639  2.3789
 1924SOL    HW217235   0.940   3.458   1.629  0.3911  0.2164  0.0823
 1925SOL     OW17236   2.682   4.545  10.109 -0.3026  0.1726 -0.2846
 1925SOL    HW117237   2.775   4.524  10.116 -0.0732  0.8276 -1.2850
 1925SOL    HW217238   2.669   4.560  10.202 -0.6233  1.4145 -0.5283
 1926SOL     OW17239   2.440   0.029   4.969  0.1747  0.1619  0.2792
 1926SOL    HW117240   2.503   4.680   4.949  0.1087  0.1256  0.2013
 1926SOL    HW217241   2.420   0.073   4.886 -0.9703 -2.0433 -0.5843
 1927SOL     OW17242   1.746   0.398   3.851 -0.3655  0.0072 -0.2956
 1927SOL    HW117243   1.783   0.380   3.764  1.5524  1.6575  0.1730
 1927SOL    HW217244   1.730   0.317   3.900 -2.6987 -0.2925 -1.5445
 1928SOL     OW17245   3.513   3.962   8.981  0.0595  0.1375 -0.0714
 1928SOL    HW117246   3.532   3.951   9.075 -0.5543  0.7900  0.1309
 1928SOL    HW217247   3.419   3.975   8.986  0.1389 -0.3003  2.5882
 1929SOL     OW17248   1.605   3.486   5.767  0.0647 -0.3690  0.0368
 1929SOL    HW117249   1.670   3.540   5.810 -1.0614  0.7977  0.2821
 1929SOL    HW217250   1.552   3.451   5.839  0.5279 -2.1446 -0.4743
 1930SOL     OW17251   0.067   0.534   0.065  0.1800  0.3732 -0.8622
 1930SOL    HW117252   0.135   0.471   0.086 -0.6976 -0.2465  0.1083
 1930SOL    HW217253   4.713   0.492   0.108 -0.1939  0.9800 -0.9295
 1931SOL     OW17254   3.363   1.036   2.202 -0.1165  0.4576 -0.3691
 1931SOL    HW117255   3.287   0.977   2.194 -0.0567  0.4006 -0.5253
 1931SOL    HW217256   3.348   1.102   2.134 -2.5213  1.4921  1.1775
 1932SOL     OW17257   1.443   4.416   3.723 -0.6188 -1.0716  0.3367
 1932SOL    HW117258   1.362   4.459   3.750 -0.4365 -0.4023 -0.1801
 1932SOL    HW217259   1.421   4.418   3.630 -0.7595 -1.6297  0.3600
 1933SOL     OW17260   3.339   4.100   4.712  0.6952  0.7776 -0.4262
 1933SOL    HW117261   3.426   4.062   4.701  1.1675  2.0627 -1.0361
 1933SOL    HW217262   3.272   4.032   4.721  2.9457 -1.4924 -0.6749
 1934SOL     OW17263   0.258   0.379   3.009  0.0204  0.1643 -0.2435
 1934SOL    HW117264   0.321   0.439   2.968  0.0122  0.3447  0.0127
 1934SOL    HW217265   0.214   0.433   3.074 -2.1690 -0.7516 -0.9855
 1935SOL     OW17266   4.221   3.287  12.723  0.0685  0.0643 -0.3880
 1935SOL    HW117267   4.224   3.194  12.703  0.2653 -0.0482  0.1773
 1935SOL    HW217268   4.242   3.289  12.816 -0.2975  3.1225 -0.3772
 1936SOL     OW17269   3.771   2.517   7.585 -0.0678 -1.7200 -0.1684
 1936SOL    HW117270   3.758   2.588   7.521  2.1376 -1.4649 -0.3448
 1936SOL    HW217271   3.791   2.568   7.664 -2.0655 -1.3065  0.0649
 1937SOL     OW17272   2.814   0.774   9.808  0.0237  0.0737  0.0249
 1937SOL    HW117273   2.818   0.678   9.816  2.0211  0.2417  0.9714
 1937SOL    HW217274   2.859   0.794   9.726  1.0215 -0.9369  0.3251
 1938SOL     OW17275   1.241   1.635   5.669  0.2250  0.4408 -0.3491
 1938SOL    HW117276   1.175   1.696   5.635  2.0343  3.1888  1.0999
 1938SOL    HW217277   1.245   1.584   5.587  0.5345 -0.7359  0.4007
 1939SOL     OW17278   1.062   2.710   2.281  0.3877 -0.0525  0.2540
 1939SOL    HW117279   1.013   2.743   2.356 -0.4897 -2.7983  0.8971
 1939SOL    HW217280   1.088   2.792   2.239 -0.2800 -0.5464 -1.0841
 1940SOL     OW17281   1.807   1.496   5.426  0.2151 -0.4794 -0.2011
 1940SOL    HW117282   1.864   1.443   5.481  1.3248  1.0311  0.0747
 1940SOL    HW217283   1.717   1.462   5.434  0.3866 -1.3418 -1.8869
 1941SOL     OW17284   3.902   3.433   6.833  0.0253  0.1212 -0.3422
 1941SOL    HW117285   3.875   3.525   6.834  1.6180  0.5999 -2.2344
 1941SOL    HW217286   3.831   3.392   6.784  0.2945 -2.7269  1.5969
 1942SOL     OW17287   3.562   1.066  13.768  0.2296  0.1404 -0.1876
 1942SOL    HW117288   3.517   0.997  13.817  1.7847 -2.6211 -2.5691
 1942SOL    HW217289   3.642   1.076  13.820  0.3704 -1.7175 -0.0414
 1943SOL     OW17290   0.257   0.545   8.073 -0.3722  0.1780 -0.0664
 1943SOL    HW117291   0.208   0.476   8.117 -2.4319  2.3847  1.0460
 1943SOL    HW217292   0.258   0.523   7.979  1.8757  1.6057 -0.3791
 1944SOL     OW17293   0.783   4.369   8.980 -0.2372 -0.8187 -0.0369
 1944SOL    HW117294   0.838   4.444   9.001  1.2818 -1.1147 -2.9337
 1944SOL    HW217295   0.768   4.375   8.886 -0.1565  1.2072  0.0829
 1945SOL     OW17296   4.298   1.301   7.844 -0.2621 -0.1171  0.5130
 1945SOL    HW117297   4.222   1.277   7.897 -0.0959 -2.2523 -0.2155
 1945SOL    HW217298   4.291   1.394   7.822  0.7519 -0.7391 -2.4389
 1946SOL     OW17299   2.798   3.670   5.426 -0.1569 -0.5452  0.0197
 1946SOL    HW117300   2.754   3.591   5.395 -1.8438 -0.9415  3.5349
 1946SOL    HW217301   2.735   3.694   5.493  1.0348 -1.2444  1.3960
 1947SOL     OW17302   2.652   1.387   3.010 -0.4395  0.0195  0.2626
 1947SOL    HW117303   2.625   1.457   3.070  1.0787 -1.7315  2.9768
 1947SOL    HW217304   2.704   1.446   2.955  0.6186 -2.1611 -1.0446
 1948SOL     OW17305   4.338   4.161   4.729  0.7084 -0.2519 -0.1014
 1948SOL    HW117306   4.305   4.251   4.733  0.4793 -0.3716  0.6415
 1948SOL    HW217307   4.297   4.135   4.646  1.7053  2.0291 -1.3038
 1949SOL     OW17308   4.067   3.241   2.464  0.0494 -0.4734  0.2182
 1949SOL    HW117309   4.111   3.210   2.385  0.2233  2.3805 -0.8044
 1949SOL    HW217310   4.038   3.159   2.504 -2.2148  0.0288 -0.3926
 1950SOL     OW17311   0.996   3.364   0.363 -0.4302 -0.0304  0.0221
 1950SOL    HW117312   1.034   3.363   0.450  3.0094  0.7395 -1.4823
 1950SOL    HW217313   0.988   3.277   0.323 -0.7609  0.7864 -1.7269
 1951SOL     OW17314   1.891   1.526  14.863 -0.0451 -0.3757  0.3411
 1951SOL    HW117315   1.820   1.484  14.911  0.4683  0.2811  1.6734
 1951SOL    HW217316   1.868   1.508  14.772 -1.2075  2.6644  0.0359
 1952SOL     OW17317   2.441   3.457   7.379  0.0283  0.1946 -0.5638
 1952SOL    HW117318   2.509   3.520   7.404 -0.5715  1.0884 -1.1663
 1952SOL    HW217319   2.465   3.433   7.289 -0.6151 -1.4904 -0.2905
 1953SOL     OW17320   2.541   1.535   3.983  0.7608 -0.1578 -0.1525
 1953SOL    HW117321   2.589   1.454   3.998 -0.9751 -1.0535  0.5289
 1953SOL    HW217322   2.503   1.539   4.071  0.3726 -2.1546 -0.2384
 1954SOL     OW17323   3.967   0.679  14.950  0.8983  0.6758  0.3242
 1954SOL    HW117324   3.873   0.676  14.966  1.0874  1.7204  1.5785
 1954SOL    HW217325   3.978   0.684  14.855  0.4616  0.0929  0.2444
 1955SOL     OW17326   1.228   3.296   5.002 -0.5114  0.1468 -0.2389
 1955SOL    HW117327   1.257   3.385   4.979 -0.5012  0.1432 -0.2400
 1955SOL    HW217328   1.241   3.249   4.920  0.1956 -1.2935  0.6920
 1956SOL     OW17329   2.569   0.027   8.306 -0.6079  0.0635  0.7785
 1956SOL    HW117330   2.481   0.014   8.271 -0.9715 -1.1033  2.1174
 1956SOL    HW217331   2.606   4.660   8.300  0.9175  0.7546  0.0682
 1957SOL     OW17332   1.208   0.765   0.069 -0.3024  0.0258  0.7677
 1957SOL    HW117333   1.199   0.670   0.073 -0.2989 -0.0658 -1.3742
 1957SOL    HW217334   1.299   0.775   0.095 -0.9602  0.6255  2.8215
 1958SOL     OW17335   1.722   1.382   3.243  0.0255 -0.6097 -0.3901
 1958SOL    HW117336   1.647   1.378   3.183 -1.4354 -1.1352  1.4351
 1958SOL    HW217337   1.739   1.476   3.235 -1.2163 -0.3536 -0.1569
 1959SOL     OW17338   1.463   0.488   8.571 -0.1808 -0.3055  0.7591
 1959SOL    HW117339   1.481   0.561   8.511 -0.4367 -0.2527  0.7482
 1959SOL    HW217340   1.369   0.479   8.558  0.1315 -2.5775  0.0172
 1960SOL     OW17341   1.010   1.134   8.360 -0.8797 -0.7376  0.2754
 1960SOL    HW117342   0.993   1.200   8.292  1.1090  0.4245  0.8969
 1960SOL    HW217343   1.009   1.176   8.446  0.9818  0.3789 -0.2394
 1961SOL     OW17344   1.673   3.752   5.875 -0.2427 -0.0146  0.1699
 1961SOL    HW117345   1.582   3.765   5.850 -0.4380 -0.1485  0.8198
 1961SOL    HW217346   1.720   3.829   5.845  0.7472  1.0215  4.3805
 1962SOL     OW17347   0.463   1.181   6.135 -0.5967 -0.8881  0.6689
 1962SOL    HW117348   0.475   1.275   6.149 -0.3160 -0.6997 -0.7903
 1962SOL    HW217349   0.431   1.187   6.045  0.5526  1.3397  0.4218
 1963SOL     OW17350   1.749   1.145   2.247  0.1138  0.3007  0.2175
 1963SOL    HW117351   1.682   1.094   2.202  1.3849 -0.0492 -1.2860
 1963SOL    HW217352   1.719   1.229   2.214 -0.3685  0.3726  0.8314
 1964SOL     OW17353   0.599   3.184   6.185  0.1677 -0.1186 -0.0489
 1964SOL    HW117354   0.650   3.164   6.264  0.2109  2.5085  0.6068
 1964SOL    HW217355   0.532   3.245   6.217  1.2160  0.4377  1.1094
 1965SOL     OW17356   0.845   0.556   3.425  0.2270 -0.0544  0.3229
 1965SOL    HW117357   0.922   0.525   3.378  0.0366 -1.7139  1.0826
 1965SOL    HW217358   0.838   0.500   3.503 -1.3752 -0.0590  0.1758
 1966SOL     OW17359   1.888   3.404   8.673  0.1727 -0.2139  0.6730
 1966SOL    HW117360   1.950   3.462   8.715  0.0088  0.5037 -0.0797
 1966SOL    HW217361   1.946   3.330   8.655  1.1012  0.3944  1.2005
 1967SOL     OW17362   3.771   0.229   2.800 -0.3158 -0.3873  0.3394
 1967SOL    HW117363   3.691   0.239   2.749  0.7133 -0.4237 -1.2814
 1967SOL    HW217364   3.810   0.312   2.774  1.3720 -0.7667  1.6587
 1968SOL     OW17365   2.473   1.043  13.805 -0.0342  0.7830 -0.2062
 1968SOL    HW117366   2.402   1.105  13.789 -0.6554  0.7652  2.6054
 1968SOL    HW217367   2.454   0.994  13.885 -0.4547 -1.0156 -1.4079
 1969SOL     OW17368   3.559   2.796   2.580  0.4369  0.5600  0.6164
 1969SOL    HW117369   3.598   2.876   2.544 -1.1890  0.8043 -0.6014
 1969SOL    HW217370   3.561   2.819   2.673 -2.7257 -2.1322  1.3396
 1970SOL     OW17371   3.450   0.670   7.334  0.4183 -0.4119 -0.1523
 1970SOL    HW117372   3.537   0.660   7.373  0.9081  0.3885 -1.0395
 1970SOL    HW217373   3.434   0.764   7.331 -1.4464 -0.7303  0.2230
 1971SOL     OW17374   2.203   4.129   8.156 -0.0997 -0.5924  0.5217
 1971SOL    HW117375   2.239   4.085   8.079 -2.0992 -2.7368  0.8417
 1971SOL    HW217376   2.217   4.053   8.212  0.2580 -2.2163 -1.7577
 1972SOL     OW17377   1.184   3.347   6.279  0.2872 -0.7393  0.1894
 1972SOL    HW117378   1.202   3.412   6.348  0.2194  0.0462 -0.5311
 1972SOL    HW217379   1.147   3.410   6.216 -0.5593 -0.3196  1.0949
 1973SOL     OW17380   0.502   2.672   7.079  0.5317 -0.5443  0.0449
 1973SOL    HW117381   0.427   2.699   7.132  2.1663  2.9325  0.5869
 1973SOL    HW217382   0.515   2.737   7.010 -1.6235  0.5743  0.6766
 1974SOL     OW17383   0.513   2.040   3.468  0.0003  0.7378  0.3212
 1974SOL    HW117384   0.536   2.132   3.483 -2.2917  1.4117 -0.3679
 1974SOL    HW217385   0.454   2.051   3.393  0.4352  1.6115  0.1050
 1975SOL     OW17386   0.373   2.860   6.265 -0.3017  0.3808 -0.2581
 1975SOL    HW117387   0.441   2.794   6.254  0.3600  1.1231 -0.6715
 1975SOL    HW217388   0.314   2.801   6.310 -1.5066  1.5714 -0.2816
 1976SOL     OW17389   0.413   1.633   7.947  0.5239  0.2049 -0.2298
 1976SOL    HW117390   0.385   1.720   7.916 -1.1631 -0.0668  0.5368
 1976SOL    HW217391   0.507   1.654   7.948  0.4132  0.7798 -1.6233
 1977SOL     OW17392   3.757   3.898   2.366 -0.8372 -0.0060 -0.1972
 1977SOL    HW117393   3.684   3.958   2.350 -0.7424  0.8741  2.7961
 1977SOL    HW217394   3.737   3.844   2.289 -1.7915 -1.0594  0.7863
 1978SOL     OW17395   2.035   0.010   1.949  0.6598 -0.2180 -0.6787
 1978SOL    HW117396   2.061   0.065   1.875 -0.1192  1.0778  0.0223
 1978SOL    HW217397   2.057   0.058   2.028  0.5487  0.1624 -0.8807
 1979SOL     OW17398   0.620   2.874   0.210 -0.1385 -0.2056 -0.5810
 1979SOL    HW117399   0.534   2.911   0.230 -0.4018 -2.0005  1.6388
 1979SOL    HW217400   0.671   2.953   0.190  0.3382 -1.2112 -3.3238
 1980SOL     OW17401   1.036   0.448   1.287 -0.6116 -0.6560 -0.8098
 1980SOL    HW117402   1.131   0.440   1.293 -0.7309 -0.7413  0.8006
 1980SOL    HW217403   1.004   0.360   1.304  1.0539 -1.2448 -0.6942
 1981SOL     OW17404   2.183   4.498   0.487 -0.2733  0.0215 -0.2733
 1981SOL    HW117405   2.136   4.419   0.514  0.5533 -0.1307  0.6951
 1981SOL    HW217406   2.152   4.502   0.396 -2.7254  0.8569  0.5944
 1982SOL     OW17407   2.198   0.422   1.830  0.3652 -0.1598  0.2424
 1982SOL    HW117408   2.187   0.335   1.791 -2.5590  0.4347 -0.2945
 1982SOL    HW217409   2.280   0.413   1.878  0.1634  0.8745  0.7958
 1983SOL     OW17410   1.285   1.441   9.362  0.4826  0.1546 -0.5221
 1983SOL    HW117411   1.291   1.450   9.267 -2.6573 -2.9128 -1.0154
 1983SOL    HW217412   1.215   1.506   9.375 -0.5053 -1.1612  0.6580
 1984SOL     OW17413   0.136   4.035   9.104 -0.2223  0.5118 -0.5569
 1984SOL    HW117414   0.203   4.088   9.060  0.6876  0.3834  0.6929
 1984SOL    HW217415   0.166   4.055   9.193 -0.2010 -1.0951 -0.2131
 1985SOL     OW17416   4.267   1.086   0.287 -0.1245  0.3175 -0.1749
 1985SOL    HW117417   4.282   1.172   0.246  0.5321 -0.6440 -1.9587
 1985SOL    HW217418   4.342   1.038   0.253  0.6599  2.7609 -1.9410
 1986SOL     OW17419   0.091   0.118   2.967  0.0405 -0.2000 -0.4276
 1986SOL    HW117420   0.053   0.146   3.050 -1.8492 -0.4272 -1.2027
 1986SOL    HW217421   0.175   0.085   2.999 -0.5812 -3.2713 -1.9782
 1987SOL     OW17422   0.531   4.090   5.116 -0.4252 -0.0636 -0.3535
 1987SOL    HW117423   0.473   4.077   5.041  0.7348  0.3666 -1.3157
 1987SOL    HW217424   0.616   4.122   5.087 -0.7884  0.8226 -0.4637
 1988SOL     OW17425   4.718   1.603   8.539 -0.0678  0.0064 -0.0729
 1988SOL    HW117426   0.084   1.619   8.578  0.9484 -1.3981 -1.7902
 1988SOL    HW217427   4.664   1.675   8.573  2.1725  1.0009  1.4306
 1989SOL     OW17428   3.998   3.193   6.324 -0.1595 -0.5178 -0.7176
 1989SOL    HW117429   4.067   3.235   6.271 -1.0519  1.3011 -0.4356
 1989SOL    HW217430   3.927   3.243   6.283  0.8266  0.1961 -1.5713
 1990SOL     OW17431   2.567   3.138  12.302  0.4691 -0.3431 -0.1976
 1990SOL    HW117432   2.516   3.107  12.227 -1.0995 -1.2731  1.2365
 1990SOL    HW217433   2.504   3.132  12.374  0.5404  2.0563  0.0407
 1991SOL     OW17434   2.560   1.241  12.912 -0.0493 -0.5324  0.2906
 1991SOL    HW117435   2.608   1.321  12.933  1.0421 -1.7912  2.6548
 1991SOL    HW217436   2.617   1.193  12.853  2.0847  1.3445  0.8234
 1992SOL     OW17437   2.496   3.109   0.706 -0.3570  0.4075 -0.0417
 1992SOL    HW117438   2.522   3.131   0.795  0.3548  1.1755 -0.4381
 1992SOL    HW217439   2.403   3.134   0.710  0.1604  2.4874 -1.0884
 1993SOL     OW17440   3.558   4.284   8.311 -0.3798 -0.2709 -0.0989
 1993SOL    HW117441   3.632   4.276   8.370 -1.4076  0.5508  1.2878
 1993SOL    HW217442   3.492   4.316   8.373 -0.3219  1.4857 -0.9427
 1994SOL     OW17443   2.458   0.799   2.444 -0.1661  0.3107  0.1472
 1994SOL    HW117444   2.476   0.859   2.516  0.4920 -1.5454  1.5202
 1994SOL    HW217445   2.444   0.860   2.371  0.0740  0.3649  0.1452
 1995SOL     OW17446   0.824   0.134   8.733  0.1849  0.1766 -0.6872
 1995SOL    HW117447   0.867   0.054   8.703  0.4497 -0.6571  1.9150
 1995SOL    HW217448   0.741   0.100   8.764  0.3997 -2.2925 -2.8482
 1996SOL     OW17449   1.955   1.809   4.228  0.0092 -0.6593 -0.1822
 1996SOL    HW117450   2.033   1.786   4.280  0.2180  0.6214  0.0754
 1996SOL    HW217451   1.992   1.828   4.142  0.6510 -1.4897 -0.0988
 1997SOL     OW17452   1.897   4.483   3.919 -0.0863  0.0745 -0.1514
 1997SOL    HW117453   1.938   4.451   3.999  1.2912  1.3303 -0.3396
 1997SOL    HW217454   1.892   4.406   3.862  1.0291 -0.3000  0.2589
 1998SOL     OW17455   4.363   0.051   1.334  0.6060  0.4122 -0.4489
 1998SOL    HW117456   4.282   0.008   1.361 -0.1649  2.1776  0.0784
 1998SOL    HW217457   4.428   4.715   1.375  0.6777  0.3232 -0.6904
 1999SOL     OW17458   0.133   3.518  10.819 -0.3027  0.1678 -0.0753
 1999SOL    HW117459   0.080   3.576  10.873 -0.0022  0.0980  0.2953
 1999SOL    HW217460   0.160   3.458  10.888 -0.6263  1.2146  0.9584
 2000SOL     OW17461   4.195   2.898   4.689  0.1916 -0.2600  0.0145
 2000SOL    HW117462   4.131   2.828   4.697 -0.3333  0.4021  1.6936
 2000SOL    HW217463   4.259   2.873   4.755  0.1485 -0.7287 -0.1200
 2001SOL     OW17464   4.371   0.102  17.244  0.8689  0.0241  0.5013
 2001SOL    HW117465   4.329   0.149  17.172 -0.3477 -0.6366  0.7759
 2001SOL    HW217466   4.417   0.029  17.204 -0.4787 -1.0972  0.9713
 2002SOL     OW17467   4.346   1.092   2.521  0.0454  0.6165  0.5393
 2002SOL    HW117468   4.262   1.086   2.475  0.3595  2.4548 -0.2874
 2002SOL    HW217469   4.407   1.098   2.447 -1.7612  1.3774 -0.8999
 2003SOL     OW17470   2.487   1.928  14.820  0.1973 -0.1988  0.2700
 2003SOL    HW117471   2.514   2.002  14.765 -1.5834  0.1214 -0.1929
 2003SOL    HW217472   2.396   1.911  14.796 -0.0824  1.7550 -0.1046
 2004SOL     OW17473   1.222   0.742   8.737 -0.2930  0.0896 -0.3252
 2004SOL    HW117474   1.164   0.799   8.788 -0.3335  0.4390 -0.7580
 2004SOL    HW217475   1.170   0.729   8.658 -0.2990 -2.4113  0.1151
 2005SOL     OW17476   4.107   1.098   3.699  0.2493 -0.5747 -0.7432
 2005SOL    HW117477   4.067   1.050   3.772 -0.7383  0.1831 -0.7876
 2005SOL    HW217478   4.070   1.055   3.622  0.9661 -2.8389  0.1595
 2006SOL     OW17479   3.262   4.300   3.691  0.2666  0.1882 -0.1787
 2006SOL    HW117480   3.356   4.305   3.673  0.1726  1.5340 -0.2805
 2006SOL    HW217481   3.229   4.266   3.608 -0.5746  1.4843 -0.3638
 2007SOL     OW17482   2.499   0.946   8.166 -0.5173 -0.4482  0.5363
 2007SOL    HW117483   2.548   0.870   8.198  1.0868  0.6326  0.6650
 2007SOL    HW217484   2.421   0.941   8.221 -1.1987  1.5850 -0.2350
 2008SOL     OW17485   0.742   2.767   2.106  0.3145  0.1550 -0.0686
 2008SOL    HW117486   0.686   2.803   2.038 -0.7770  1.5773  1.5728
 2008SOL    HW217487   0.697   2.798   2.185 -0.8059  0.2729 -0.7550
 2009SOL     OW17488   3.848   3.976   9.135 -0.0742 -0.4151 -0.1695
 2009SOL    HW117489   3.864   3.966   9.041  2.2052 -1.9514  0.3727
 2009SOL    HW217490   3.936   3.974   9.173  0.5266 -1.0715 -1.6145
 2010SOL     OW17491   1.141   2.419   8.619  0.4232 -0.2760 -0.0263
 2010SOL    HW117492   1.092   2.479   8.562  0.0374 -0.7397 -0.1822
 2010SOL    HW217493   1.233   2.446   8.613  0.5310 -0.5933  0.2278
 2011SOL     OW17494   0.200   1.778   9.402 -0.6372 -0.3631 -0.0344
 2011SOL    HW117495   0.273   1.720   9.422 -1.1806 -1.7923 -2.2084
 2011SOL    HW217496   0.205   1.836   9.478 -1.4751 -0.4764  0.1135
 2012SOL     OW17497   0.807   1.053   7.765  0.1013  0.0439  0.2568
 2012SOL    HW117498   0.892   1.014   7.784 -0.2494 -0.5970  0.5420
 2012SOL    HW217499   0.836   1.140   7.738  0.0608 -0.5949 -1.8475
 2013SOL     OW17500   0.471   1.058   4.174  0.0202  0.4182 -0.2834
 2013SOL    HW117501   0.480   0.964   4.187  3.1340  0.5169 -1.6355
 2013SOL    HW217502   0.551   1.069   4.122  0.6202 -2.0279  0.1544
 2014SOL     OW17503   1.474   0.204   2.966  0.3673  0.4519  0.2976
 2014SOL    HW117504   1.461   0.130   2.907  0.9510 -1.0526  2.0800
 2014SOL    HW217505   1.394   0.256   2.960 -1.0579 -1.7090  0.5788
 2015SOL     OW17506   2.450   0.712   6.356 -0.4210  0.2080 -0.6094
 2015SOL    HW117507   2.461   0.801   6.323 -0.7967  0.4923  0.0400
 2015SOL    HW217508   2.521   0.706   6.420 -0.9738 -0.5376 -0.0710
 2016SOL     OW17509   3.958   3.301   5.505  0.3934 -0.0630 -0.2716
 2016SOL    HW117510   3.979   3.361   5.433 -1.0011 -2.4644 -2.6912
 2016SOL    HW217511   3.957   3.216   5.459  2.1036  0.0409 -0.5124
 2017SOL     OW17512   1.401   1.834   3.148  0.0578  0.1531 -0.6149
 2017SOL    HW117513   1.485   1.848   3.105  1.6187 -1.6829  1.8394
 2017SOL    HW217514   1.354   1.770   3.094 -0.3701 -0.6670  0.7391
 2018SOL     OW17515   1.967   1.498   7.990  0.0432  0.0445 -0.1174
 2018SOL    HW117516   1.910   1.422   7.991 -1.3223  1.0702  0.0265
 2018SOL    HW217517   2.044   1.448   8.016  0.3996  0.2321 -0.8300
 2019SOL     OW17518   2.177   1.031   8.831  0.2120 -0.2924  0.3477
 2019SOL    HW117519   2.169   0.969   8.903  2.2978 -2.2530 -1.1229
 2019SOL    HW217520   2.192   1.115   8.876 -0.5036 -0.5721  1.1091
 2020SOL     OW17521   1.685   0.536  11.919 -0.2834  0.1467 -0.1824
 2020SOL    HW117522   1.657   0.597  11.987 -1.4273 -2.5987  1.7676
 2020SOL    HW217523   1.729   0.465  11.966  0.1863  1.3428  1.1723
 2021SOL     OW17524   1.187   1.100   7.666 -0.5594 -0.0323  0.2091
 2021SOL    HW117525   1.279   1.094   7.692 -0.6561  0.9695  0.7725
 2021SOL    HW217526   1.198   1.125   7.574 -0.3799  0.2315  0.3029
 2022SOL     OW17527   2.722   1.645   5.459  0.3117 -0.2886  0.5569
 2022SOL    HW117528   2.795   1.591   5.488  0.5162  0.4924  1.4695
 2022SOL    HW217529   2.663   1.639   5.534 -0.1799 -0.6309  0.1445
 2023SOL     OW17530   0.803   2.719   1.767  0.1978 -0.0344 -0.0781
 2023SOL    HW117531   0.792   2.797   1.821  0.2729 -0.3372  0.3666
 2023SOL    HW217532   0.844   2.662   1.831  0.1112 -0.6441 -0.5686
 2024SOL     OW17533   4.577   1.653   9.575  0.2487  0.0400  0.7079
 2024SOL    HW117534   4.586   1.688   9.663 -1.5971 -0.5915  1.1486
 2024SOL    HW217535   4.652   1.594   9.579 -0.0945 -0.5797 -1.4583
 2025SOL     OW17536   2.414   1.751   1.666  0.2020  0.0293  0.6905
 2025SOL    HW117537   2.464   1.676   1.634  1.0818  0.2179  1.6219
 2025SOL    HW217538   2.476   1.806   1.714  2.3871 -0.6503 -1.3499
 2026SOL     OW17539   3.222   3.636   2.252  0.1958  0.1863 -0.4999
 2026SOL    HW117540   3.214   3.581   2.330  1.4103 -0.2598 -0.6887
 2026SOL    HW217541   3.224   3.571   2.182 -1.9850  1.2484 -1.5553
 2027SOL     OW17542   4.291   2.443  10.720 -0.0927  0.0693  0.2536
 2027SOL    HW117543   4.351   2.418  10.789 -0.0692  1.3088  0.6802
 2027SOL    HW217544   4.349   2.412  10.650  0.5278 -1.2042  1.3336
 2028SOL     OW17545   1.255   3.978   8.204 -0.5410  0.3541 -0.0793
 2028SOL    HW117546   1.159   3.982   8.197 -0.3990  2.5478 -0.6060
 2028SOL    HW217547   1.275   3.987   8.111 -0.2458 -0.2218 -0.0767
 2029SOL     OW17548   3.529   2.457  14.594  0.4672  0.1182  0.5519
 2029SOL    HW117549   3.527   2.508  14.513 -2.2362 -1.0471 -0.1346
 2029SOL    HW217550   3.597   2.393  14.571  0.3514  0.1403  0.1480
 2030SOL     OW17551   0.792   3.056  13.060 -0.0366  0.6430  0.3039
 2030SOL    HW117552   0.805   2.970  13.100  0.9259 -0.1768 -1.7817
 2030SOL    HW217553   0.799   3.116  13.134  0.5463  0.5005  0.3641
 2031SOL     OW17554   3.589   4.599   0.278  0.1308 -0.0696 -0.0871
 2031SOL    HW117555   3.522   4.572   0.342 -0.2779  0.6438 -0.2203
 2031SOL    HW217556   3.666   4.563   0.322 -1.2692 -3.0457 -0.0481
 2032SOL     OW17557   3.479   4.551   6.155 -0.1977  0.2289 -0.3740
 2032SOL    HW117558   3.515   4.502   6.082  0.7583  2.2010 -1.2240
 2032SOL    HW217559   3.443   4.483   6.212  1.9681 -1.3391 -0.8736
 2033SOL     OW17560   3.294   2.549   0.872 -0.4805 -0.1242  1.1158
 2033SOL    HW117561   3.238   2.474   0.891  0.6451 -1.2945 -0.1913
 2033SOL    HW217562   3.237   2.599   0.813  0.7662 -3.2464 -2.7206
 2034SOL     OW17563   2.658   3.956  16.844  0.0607 -0.6767  0.0574
 2034SOL    HW117564   2.673   3.862  16.854  0.1199 -0.6067  0.6237
 2034SOL    HW217565   2.600   3.947  16.769  1.2874 -0.3824 -0.9386
 2035SOL     OW17566   2.380   3.305   4.530  0.2455 -0.1675 -0.0689
 2035SOL    HW117567   2.309   3.252   4.566  0.9932  0.4697  2.3635
 2035SOL    HW217568   2.380   3.263   4.444 -1.5345  1.0189 -0.6328
 2036SOL     OW17569   1.213   3.840   4.952  0.1166 -0.3191 -0.3556
 2036SOL    HW117570   1.273   3.838   5.027 -1.6068 -1.9685  0.9853
 2036SOL    HW217571   1.136   3.791   4.981  0.7088 -1.3187 -0.4905
 2037SOL     OW17572   1.073   1.203  14.542 -0.3828  0.0392 -0.0054
 2037SOL    HW117573   1.033   1.212  14.628  0.0645  2.0127 -0.0032
 2037SOL    HW217574   1.135   1.132  14.560  1.4887  1.4884 -0.6497
 2038SOL     OW17575   1.676   3.363   9.334 -0.3003 -0.1190  0.4395
 2038SOL    HW117576   1.608   3.426   9.310  0.1288  0.4259  0.6528
 2038SOL    HW217577   1.669   3.366   9.429 -0.8851 -1.4223  0.4382
 2039SOL     OW17578   1.003   4.461   7.989 -0.3407 -0.6293 -0.1968
 2039SOL    HW117579   1.093   4.451   7.959  0.1770 -1.0667  1.5005
 2039SOL    HW217580   0.996   4.422   8.077 -0.4919 -1.1746 -0.4471
 2040SOL     OW17581   2.109   1.051   2.640  0.1282  0.6541 -0.1786
 2040SOL    HW117582   2.049   1.056   2.565 -0.6269  0.1996  0.3937
 2040SOL    HW217583   2.059   1.019   2.715  2.1597 -1.6453  0.1990
 2041SOL     OW17584   3.047   3.206  17.022 -0.2259  0.1069 -0.2327
 2041SOL    HW117585   3.115   3.263  16.987  0.6861 -0.5261  0.5216
 2041SOL    HW217586   3.009   3.171  16.941 -2.5046  0.4899  0.6485
 2042SOL     OW17587   0.186   2.330  14.120  0.3297 -0.5114  0.4162
 2042SOL    HW117588   0.230   2.413  14.101  0.9378 -0.9885 -0.2693
 2042SOL    HW217589   0.117   2.361  14.179 -0.8458  0.8376 -1.6926
 2043SOL     OW17590   2.468   4.325   1.390  0.2429  0.5691  0.0317
 2043SOL    HW117591   2.554   4.293   1.417 -0.9384 -2.0868  0.6903
 2043SOL    HW217592   2.486   4.296   1.301  2.2916  0.9393  0.3297
 2044SOL     OW17593   2.315   3.097   3.716  0.2073 -0.2970 -0.0980
 2044SOL    HW117594   2.326   3.192   3.713  0.0493 -0.4254 -4.7126
 2044SOL    HW217595   2.403   3.063   3.698  0.7049  1.4451 -0.9482
 2045SOL     OW17596   2.590   2.892  14.456 -0.1792 -0.2006 -0.0930
 2045SOL    HW117597   2.600   2.923  14.546  3.8524 -1.1524 -0.1724
 2045SOL    HW217598   2.495   2.886  14.444 -0.5641  1.5523  2.1449
 2046SOL     OW17599   0.777   1.997   3.251 -0.5487 -0.2896 -0.8616
 2046SOL    HW117600   0.698   2.047   3.272 -0.1359 -0.3134  0.8263
 2046SOL    HW217601   0.752   1.954   3.170 -1.9729 -0.1302 -0.5063
 2047SOL     OW17602   1.961   1.299   7.206 -0.2914  0.1038 -0.4777
 2047SOL    HW117603   1.973   1.392   7.224  0.0881 -0.3788  1.7550
 2047SOL    HW217604   1.981   1.282   7.114 -0.7326  0.2779 -0.6050
 2048SOL     OW17605   2.192   3.962   7.531  0.1293  0.3332  0.0995
 2048SOL    HW117606   2.137   3.950   7.609  0.4934 -0.7153  0.1983
 2048SOL    HW217607   2.272   3.914   7.553 -0.1304  0.0470  0.4158
 2049SOL     OW17608   4.568   1.217   6.342 -0.0236  0.4702 -0.0673
 2049SOL    HW117609   4.614   1.244   6.262  2.1584 -1.9218  0.3736
 2049SOL    HW217610   4.644   1.198   6.398 -1.3116  3.2693  2.6284
 2050SOL     OW17611   1.073   4.395   6.037 -0.3310  0.0084  0.4412
 2050SOL    HW117612   1.101   4.384   5.946  0.7407  3.3477  0.3897
 2050SOL    HW217613   0.987   4.352   6.044 -0.4904  0.1289 -0.7892
 2051SOL     OW17614   2.318   2.872  11.805 -0.4819 -0.6980  0.0510
 2051SOL    HW117615   2.343   2.896  11.895 -2.3400  1.8992 -0.1297
 2051SOL    HW217616   2.235   2.825  11.815 -0.9779  0.4879  1.5927
 2052SOL     OW17617   2.825   0.781   8.814 -0.2342  0.1827 -0.7494
 2052SOL    HW117618   2.828   0.737   8.899  1.6314  0.0981 -0.8508
 2052SOL    HW217619   2.760   0.726   8.769  1.0675 -2.1485  0.1961
 2053SOL     OW17620   1.299   1.586   2.436  0.2642 -0.6940  0.1843
 2053SOL    HW117621   1.372   1.591   2.374  0.6319  1.0069  0.7439
 2053SOL    HW217622   1.258   1.507   2.401  1.2716 -0.8020 -0.7411
 2054SOL     OW17623   4.516   0.306  15.205 -0.4154  0.1534  0.1047
 2054SOL    HW117624   4.481   0.264  15.283  1.4974 -0.3681  0.6964
 2054SOL    HW217625   4.550   0.381  15.254 -0.3296  0.7265 -0.8359
 2055SOL     OW17626   0.635   2.442   4.751 -0.1981  0.6166 -0.1167
 2055SOL    HW117627   0.696   2.502   4.710  1.6959 -1.9654 -1.0907
 2055SOL    HW217628   0.675   2.357   4.731  0.2852  0.9937 -0.7460
 2056SOL     OW17629   1.030   2.197  10.684  0.2594 -0.2637 -0.2016
 2056SOL    HW117630   1.066   2.280  10.715 -0.0830  0.2009 -1.0633
 2056SOL    HW217631   1.029   2.218  10.590 -1.7965  1.7427  0.2905
 2057SOL     OW17632   2.904   3.793   7.695  0.0867  0.3843  0.6262
 2057SOL    HW117633   2.964   3.815   7.767  0.8232 -0.1757  0.1829
 2057SOL    HW217634   2.942   3.706   7.685 -0.2047  0.6316 -2.5577
 2058SOL     OW17635   1.960   4.270   1.201  0.3727  0.1049 -0.0226
 2058SOL    HW117636   2.025   4.270   1.271  0.3671 -1.1800 -0.0243
 2058SOL    HW217637   1.889   4.231   1.251  0.7358 -0.8588 -0.2722
 2059SOL     OW17638   4.008   0.473  17.677  0.0415  0.7010 -0.4708
 2059SOL    HW117639   4.100   0.446  17.674 -0.5671 -1.6655  1.6339
 2059SOL    HW217640   3.959   0.392   0.003 -0.2161  1.0354  0.8240
 2060SOL     OW17641   4.613   1.460   3.080 -0.1491 -0.5762  0.6892
 2060SOL    HW117642   4.663   1.392   3.036 -1.6527 -0.1099 -1.7487
 2060SOL    HW217643   4.529   1.454   3.034 -0.0263 -0.3263  0.4314
 2061SOL     OW17644   1.466   2.775   2.757  0.0179 -0.3938  0.3061
 2061SOL    HW117645   1.431   2.844   2.814  1.1655  0.5600 -0.1228
 2061SOL    HW217646   1.462   2.700   2.816 -0.4835 -1.0817 -0.6054
 2062SOL     OW17647   4.623   2.362   1.021  0.2164  0.4737 -0.2908
 2062SOL    HW117648   4.558   2.396   1.083 -0.4092  1.4606 -1.4925
 2062SOL    HW217649   4.598   2.271   1.039 -1.6207  1.2237  0.9899
 2063SOL     OW17650   0.386   1.395  15.563 -0.2594 -0.4913 -0.0918
 2063SOL    HW117651   0.304   1.444  15.553  0.9139  1.8536  1.6627
 2063SOL    HW217652   0.445   1.459  15.523  0.6713 -1.6575 -0.5654
 2064SOL     OW17653   3.918   3.030   5.829  0.2945  0.5894 -0.8633
 2064SOL    HW117654   3.859   3.094   5.869  0.0675 -0.5880  0.6904
 2064SOL    HW217655   3.974   3.080   5.770  1.6992 -0.2559 -0.2440
 2065SOL     OW17656   1.515   4.533   0.288  0.2442  0.2613 -0.1289
 2065SOL    HW117657   1.448   4.573   0.233  1.4879  0.0561 -1.7808
 2065SOL    HW217658   1.574   4.488   0.228  1.1959 -0.5418  1.4018
 2066SOL     OW17659   1.089   2.538  14.409  0.3618 -0.9000 -0.5853
 2066SOL    HW117660   1.062   2.627  14.430 -0.0159 -0.8084 -1.4736
 2066SOL    HW217661   1.006   2.493  14.426  0.3312 -0.9264 -0.8129
 2067SOL     OW17662   4.390   3.651  17.196 -0.4577 -0.0436  0.1296
 2067SOL    HW117663   4.450   3.669  17.124 -0.2071 -0.2767  0.2799
 2067SOL    HW217664   4.442   3.593  17.252  0.8547  0.4003 -0.6381
 2068SOL     OW17665   3.745   0.677   3.901  0.4522 -0.6626  0.1397
 2068SOL    HW117666   3.828   0.649   3.863  1.1814  1.3258  0.2406
 2068SOL    HW217667   3.732   0.757   3.850 -0.1772 -1.2617 -0.6091
 2069SOL     OW17668   2.584   0.127  10.812 -0.2450 -0.3549 -0.1371
 2069SOL    HW117669   2.570   0.195  10.878  0.6898 -1.7115  1.4454
 2069SOL    HW217670   2.537   0.058  10.859  1.0187 -1.9330 -1.1955
 2070SOL     OW17671   0.948   3.667   5.327  0.4323  0.1030  0.5560
 2070SOL    HW117672   0.911   3.687   5.413 -0.1538 -0.5961  0.4604
 2070SOL    HW217673   0.991   3.583   5.343 -2.4699 -1.4883  0.0237
 2071SOL     OW17674   2.823   2.688  15.166 -0.4165 -0.0469 -1.0369
 2071SOL    HW117675   2.830   2.693  15.262  1.6134  1.8152 -1.2903
 2071SOL    HW217676   2.783   2.772  15.144  0.3858  0.7717  0.5951
 2072SOL     OW17677   2.223   0.137  15.596  0.4069 -0.4814 -0.1970
 2072SOL    HW117678   2.212   0.186  15.677  0.7797 -0.6215 -0.0625
 2072SOL    HW217679   2.132   0.122  15.573  0.3219 -0.9068  0.4224
 2073SOL     OW17680   0.514   3.805  16.612 -0.1213 -0.0647 -0.2154
 2073SOL    HW117681   0.498   3.831  16.703  0.2482  0.8391 -0.4130
 2073SOL    HW217682   0.555   3.880  16.570  0.3207 -0.2053 -0.0317
 2074SOL     OW17683   4.310   2.228   4.605  0.1152 -0.6479  0.1353
 2074SOL    HW117684   4.371   2.272   4.664 -0.0808  0.7597 -0.7268
 2074SOL    HW217685   4.341   2.260   4.521 -1.6753 -1.1634 -0.7255
 2075SOL     OW17686   1.269   2.902   5.394 -0.0462 -0.0894  0.5478
 2075SOL    HW117687   1.252   2.996   5.385  1.9379  0.3449  1.2959
 2075SOL    HW217688   1.181   2.873   5.369 -1.3345  2.7905  1.7163
 2076SOL     OW17689   4.270   3.348  15.036 -0.1249 -0.5320  0.3793
 2076SOL    HW117690   4.256   3.441  15.050  0.9266 -0.0644 -1.6920
 2076SOL    HW217691   4.365   3.355  15.022 -0.2030 -1.0654 -0.4394
 2077SOL     OW17692   3.114   0.554  12.248 -0.3717  0.2754 -0.2782
 2077SOL    HW117693   3.172   0.585  12.317  2.8200 -0.6378 -2.5727
 2077SOL    HW217694   3.045   0.620  12.258 -0.5383 -0.3416  2.5923
 2078SOL     OW17695   3.994   4.280   5.383  0.6569  0.1904 -0.2031
 2078SOL    HW117696   3.930   4.209   5.373 -0.0946  0.4054  2.9190
 2078SOL    HW217697   3.970   4.337   5.310 -0.5617  0.3162  0.2853
 2079SOL     OW17698   3.378   4.659  14.735  0.2136  0.2702  0.2158
 2079SOL    HW117699   3.393   4.566  14.722  1.6340  0.5344 -0.0446
 2079SOL    HW217700   3.336   4.688  14.654 -0.2430  0.8995  0.6764
 2080SOL     OW17701   1.720   1.632   7.651 -0.5795 -0.6028  0.4173
 2080SOL    HW117702   1.705   1.717   7.608 -1.1846  0.0440  1.8856
 2080SOL    HW217703   1.800   1.646   7.701 -0.7835  1.5036  0.1840
 2081SOL     OW17704   4.163   3.574   3.137 -0.2693 -0.2988 -0.0099
 2081SOL    HW117705   4.089   3.538   3.088  0.2972 -0.7847 -0.5064
 2081SOL    HW217706   4.238   3.567   3.078 -1.2401  2.1703 -1.5521
 2082SOL     OW17707   1.400   1.537   1.413  0.0776  0.2285 -0.3483
 2082SOL    HW117708   1.305   1.527   1.403 -0.2620  1.2959  1.8735
 2082SOL    HW217709   1.438   1.473   1.353 -1.6529 -0.9447 -0.1960
 2083SOL     OW17710   1.952   2.218   5.511  0.1219  0.3996  0.5829
 2083SOL    HW117711   1.974   2.137   5.465  1.4394 -0.6029  2.9773
 2083SOL    HW217712   1.862   2.238   5.483 -0.1672  0.2956  1.4044
 2084SOL     OW17713   0.557   2.744   3.307 -0.5322 -0.1039 -0.5368
 2084SOL    HW117714   0.531   2.788   3.388  0.1623 -2.0233  0.7290
 2084SOL    HW217715   0.471   2.728   3.266  0.0059 -0.4180 -1.5402
 2085SOL     OW17716   0.299   0.100   7.025 -0.4483  0.0323 -0.0104
 2085SOL    HW117717   0.329   0.056   7.104  1.1436 -0.4159 -0.8609
 2085SOL    HW217718   0.242   0.033   6.986 -0.9372  1.9512 -2.6052
 2086SOL     OW17719   1.008   2.295   5.641  0.2744 -0.3760 -0.0624
 2086SOL    HW117720   1.020   2.349   5.563  3.1571  2.1399  2.1551
 2086SOL    HW217721   1.071   2.224   5.634 -0.3097 -0.7126 -2.0394
 2087SOL     OW17722   2.686   0.391   3.281 -0.1423 -0.1719 -0.3121
 2087SOL    HW117723   2.618   0.438   3.328  0.2643 -0.1768  0.2878
 2087SOL    HW217724   2.751   0.462   3.276 -2.5530  2.0943  0.7916
 2088SOL     OW17725   0.563   3.433   8.746 -0.4421 -0.1118 -0.0470
 2088SOL    HW117726   0.492   3.419   8.808 -1.0553  0.6546 -0.5699
 2088SOL    HW217727   0.565   3.361   8.682 -1.1672  2.1450 -2.6032
 2089SOL     OW17728   2.236   4.314   2.231  0.3143  0.2695 -0.7343
 2089SOL    HW117729   2.305   4.262   2.190 -0.1564 -1.2458  0.3870
 2089SOL    HW217730   2.263   4.397   2.190 -0.2136  1.8719  2.1408
 2090SOL     OW17731   2.119   3.341   5.292  0.5388  0.3172  0.0856
 2090SOL    HW117732   2.036   3.293   5.291  0.0984  1.0978 -3.6251
 2090SOL    HW217733   2.169   3.292   5.357  0.9578 -0.2319 -0.6461
 2091SOL     OW17734   2.300   1.512   6.271 -0.0739  0.2830 -0.4986
 2091SOL    HW117735   2.320   1.580   6.334  2.3391 -0.7848 -0.0925
 2091SOL    HW217736   2.219   1.474   6.304  0.0981 -0.2910 -0.7184
 2092SOL     OW17737   2.213   3.281   7.439 -0.3661  0.1705 -0.5641
 2092SOL    HW117738   2.148   3.334   7.392  1.0870  2.4342 -0.0309
 2092SOL    HW217739   2.294   3.327   7.415  0.4831 -0.6762  0.7019
 2093SOL     OW17740   0.880   3.325   6.645 -0.2751  0.0153  0.2258
 2093SOL    HW117741   0.884   3.410   6.602  0.4318 -0.5223 -0.7783
 2093SOL    HW217742   0.822   3.345   6.719 -0.6205 -2.5882  0.6730
 2094SOL     OW17743   1.634   2.930  12.867  0.3723  0.0092 -0.9486
 2094SOL    HW117744   1.694   2.889  12.806  0.7052  0.5451 -0.9845
 2094SOL    HW217745   1.605   3.007  12.817  1.6935  1.9787  1.3237
 2095SOL     OW17746   1.853   0.795  13.477  0.0636  0.2729  0.5343
 2095SOL    HW117747   1.864   0.724  13.541  0.4029 -1.1141 -1.0661
 2095SOL    HW217748   1.883   0.753  13.397 -0.2940  0.1258  0.4813
 2096SOL     OW17749   4.443   3.778   4.263 -0.9363  0.3088  0.0633
 2096SOL    HW117750   4.521   3.820   4.227 -0.7446 -0.0820  0.0241
 2096SOL    HW217751   4.488   3.697   4.285 -0.3833  0.1975 -1.4680
 2097SOL     OW17752   3.760   3.108   6.787  0.1104  0.1564  0.5810
 2097SOL    HW117753   3.695   3.177   6.805 -1.4705 -1.0181 -0.6925
 2097SOL    HW217754   3.738   3.112   6.694  1.9806  0.1193  0.1517
 2098SOL     OW17755   3.454   1.543   4.496 -0.7476 -0.2403  0.6744
 2098SOL    HW117756   3.391   1.475   4.523 -0.2778 -0.6596  0.7104
 2098SOL    HW217757   3.397   1.591   4.436  0.0073  0.1138  0.2416
 2099SOL     OW17758   4.411   3.561  16.848 -0.0928 -0.1539 -0.6224
 2099SOL    HW117759   4.321   3.582  16.875  0.3466 -0.5210  1.1191
 2099SOL    HW217760   4.441   3.507  16.922 -0.8472 -0.6478 -0.6767
 2100SOL     OW17761   2.052   2.134   1.780  0.1477  0.1745  0.9647
 2100SOL    HW117762   2.105   2.135   1.860  0.7837  0.3447  0.5384
 2100SOL    HW217763   1.971   2.102   1.821  0.2600 -1.3744 -0.0226
 2101SOL     OW17764   0.225   2.844   3.862 -0.2626 -0.6743  0.6075
 2101SOL    HW117765   0.262   2.897   3.792  0.6256 -2.7818 -0.5255
 2101SOL    HW217766   0.162   2.793   3.812 -0.3919 -0.7079  0.8061
 2102SOL     OW17767   2.544   2.103   4.119 -0.4573 -0.1368 -0.0997
 2102SOL    HW117768   2.602   2.110   4.194  0.1864  1.3064 -0.7504
 2102SOL    HW217769   2.469   2.138   4.167  0.2703  0.3278  0.6806
 2103SOL     OW17770   0.907   3.191   7.722 -0.2852  0.4866  0.2715
 2103SOL    HW117771   0.931   3.264   7.665  0.0653  0.8429  0.8792
 2103SOL    HW217772   0.952   3.214   7.804 -1.6932 -1.3481  1.5478
 2104SOL     OW17773   4.502   2.996  17.034  0.1810  0.6174  0.0067
 2104SOL    HW117774   4.468   3.065  16.978  2.6586  0.2820 -1.8698
 2104SOL    HW217775   4.438   2.930  17.005  1.5133 -1.1040  1.0035
 2105SOL     OW17776   4.449   4.703  15.963  0.2871 -0.2518  0.1843
 2105SOL    HW117777   4.362   0.013  15.988  0.2140 -1.4705  1.4328
 2105SOL    HW217778   4.470   4.631  16.022  2.0377 -0.5038 -0.7373
 2106SOL     OW17779   0.751   1.964   8.718 -0.5682  0.7576  0.1647
 2106SOL    HW117780   0.662   1.964   8.682 -0.4060  1.3606 -0.2379
 2106SOL    HW217781   0.783   2.047   8.683 -1.2899  1.1771  0.5062
 2107SOL     OW17782   0.362   0.179   1.867  0.6044 -0.1173  0.3314
 2107SOL    HW117783   0.358   0.109   1.802  0.7495  1.4472 -1.3535
 2107SOL    HW217784   0.453   0.210   1.867  0.2714  0.8693 -1.4657
 2108SOL     OW17785   1.734   4.689   2.798  1.0057 -0.1368 -0.2695
 2108SOL    HW117786   1.737   0.003   2.709  2.4444  0.9293  0.1976
 2108SOL    HW217787   1.642   4.690   2.824  1.3505 -0.1348  0.9408
 2109SOL     OW17788   3.742   2.442   8.618  0.0616  0.2671  0.5069
 2109SOL    HW117789   3.684   2.512   8.647 -1.2599  0.5195 -2.7194
 2109SOL    HW217790   3.678   2.376   8.591  0.5781  1.1711 -2.8655
 2110SOL     OW17791   4.353   4.383   3.425 -0.2377 -0.1178 -0.2318
 2110SOL    HW117792   4.302   4.430   3.359 -0.0799  0.2153 -0.1156
 2110SOL    HW217793   4.303   4.303   3.436 -2.7196  1.3808 -0.7112
 2111SOL     OW17794   2.150   3.413   6.248 -0.1839  0.0137 -0.0499
 2111SOL    HW117795   2.145   3.346   6.316 -1.7604  2.3894  2.1760
 2111SOL    HW217796   2.130   3.365   6.168  0.4967  0.7948 -0.6845
 2112SOL     OW17797   0.763   0.624   6.684 -0.1127 -0.2975  0.3901
 2112SOL    HW117798   0.792   0.578   6.605 -0.7970  1.9445 -1.1665
 2112SOL    HW217799   0.808   0.577   6.754  1.5544 -1.3500 -1.3811
 2113SOL     OW17800   0.346   3.254  16.157 -0.5557 -0.4674  0.2008
 2113SOL    HW117801   0.305   3.323  16.104  0.1476 -1.3837 -1.5114
 2113SOL    HW217802   0.344   3.302  16.240 -0.7163 -2.2991  1.2554
 2114SOL     OW17803   1.750   0.886  13.910  0.2767 -0.1121  0.4025
 2114SOL    HW117804   1.719   0.879  14.001 -1.3374  1.0994 -0.0638
 2114SOL    HW217805   1.717   0.804  13.874 -2.1889  2.6457 -3.6754
 2115SOL     OW17806   1.977   2.032   4.928  0.0561 -0.0539  0.4991
 2115SOL    HW117807   2.053   2.058   4.875  0.4792  1.2951  1.7684
 2115SOL    HW217808   1.900   2.059   4.878  0.6250  1.5631  0.4795
 2116SOL     OW17809   0.273   1.190   3.180 -0.2398  0.4203  0.3725
 2116SOL    HW117810   0.271   1.126   3.251 -1.4657 -0.8589 -0.8394
 2116SOL    HW217811   0.358   1.231   3.198  2.3557 -4.2311 -1.0921
 2117SOL     OW17812   2.343   1.329   1.988 -0.2180  0.1923 -0.1898
 2117SOL    HW117813   2.282   1.362   2.054 -0.2836  3.0890 -1.6796
 2117SOL    HW217814   2.329   1.236   2.002  1.5610  0.3650  2.6130
 2118SOL     OW17815   0.826   3.533   9.129  0.6787  0.1224  0.3829
 2118SOL    HW117816   0.862   3.487   9.054  0.2372  3.3336 -1.8250
 2118SOL    HW217817   0.732   3.535   9.112  1.1557  0.3663 -2.1967
 2119SOL     OW17818   1.651   2.663   1.338 -0.7687 -0.6078 -0.0150
 2119SOL    HW117819   1.624   2.572   1.350  0.2457 -0.9400 -0.3123
 2119SOL    HW217820   1.580   2.709   1.292 -1.8222 -3.3200 -1.0997
 2120SOL     OW17821   3.539   3.235  14.402  0.4716 -0.2044 -0.5292
 2120SOL    HW117822   3.563   3.306  14.341  0.0681 -0.0572 -0.5169
 2120SOL    HW217823   3.572   3.158  14.357  0.3818  0.1614 -1.2273
 2121SOL     OW17824   2.133   1.182   3.799  0.4826  0.4250 -0.1286
 2121SOL    HW117825   2.086   1.138   3.870 -0.1794  1.1375 -0.1249
 2121SOL    HW217826   2.142   1.105   3.742  0.5934  0.3175  0.0324
 2122SOL     OW17827   4.590   0.461   2.265 -0.3852 -0.0447 -0.0465
 2122SOL    HW117828   4.676   0.488   2.232  0.1673 -2.4023 -0.5395
 2122SOL    HW217829   4.534   0.501   2.199 -0.0531  0.5073  0.0103
 2123SOL     OW17830   0.316   2.806  12.768 -0.7314  0.0199 -0.0262
 2123SOL    HW117831   0.287   2.879  12.822 -1.5334 -0.6278  0.4165
 2123SOL    HW217832   0.299   2.737  12.832  0.9335 -0.4141 -0.0661
 2124SOL     OW17833   3.971   2.555  16.190  0.5849 -0.1782  0.5836
 2124SOL    HW117834   4.002   2.638  16.152  0.6489 -0.4706  0.0005
 2124SOL    HW217835   3.882   2.566  16.158  1.7849  2.0685 -1.9855
 2125SOL     OW17836   3.872   4.608   3.445 -0.0548 -0.2003 -0.1880
 2125SOL    HW117837   3.856   4.669   3.517 -0.9324  0.9479 -1.3853
 2125SOL    HW217838   3.785   4.583   3.415 -0.1591  0.3589 -0.3411
 2126SOL     OW17839   1.048   3.326   4.438 -0.4712  0.3152  0.2094
 2126SOL    HW117840   0.957   3.302   4.420 -0.0337  0.1519 -1.8721
 2126SOL    HW217841   1.029   3.386   4.509 -3.4447 -0.4930  0.0959
 2127SOL     OW17842   2.557   2.941   5.271  0.2335 -0.3277  0.1677
 2127SOL    HW117843   2.585   2.924   5.181  0.8783 -1.7921  0.6504
 2127SOL    HW217844   2.640   2.921   5.314  0.2723  2.1239  1.2466
 2128SOL     OW17845   1.520   3.463   4.253  0.2231 -0.3510  0.4188
 2128SOL    HW117846   1.439   3.442   4.299 -0.9251  2.3134 -0.3999
 2128SOL    HW217847   1.590   3.410   4.291  0.9794 -0.0022 -0.4956
 2129SOL     OW17848   2.851   3.954   8.335 -0.1782  0.2482  0.5539
 2129SOL    HW117849   2.843   3.991   8.423 -0.7102  0.0272  0.6014
 2129SOL    HW217850   2.784   4.005   8.290 -1.5371 -1.5978  0.4800
 2130SOL     OW17851   4.300   3.706   5.992 -0.6439 -0.2019  0.2011
 2130SOL    HW117852   4.263   3.628   5.951  2.2455 -1.8351  0.7079
 2130SOL    HW217853   4.391   3.701   5.963 -0.6461 -2.7636  0.7006
 2131SOL     OW17854   1.855   0.364  12.045  0.4501  0.1092 -0.5034
 2131SOL    HW117855   1.837   0.276  12.011 -0.1096  0.5981 -1.4774
 2131SOL    HW217856   1.950   0.361  12.050  0.3359  0.0501  1.9135
 2132SOL     OW17857   4.226   4.282   7.105  0.0176 -0.4873 -0.3357
 2132SOL    HW117858   4.278   4.359   7.128 -2.1769  0.5043  1.3110
 2132SOL    HW217859   4.171   4.310   7.031 -1.2817  0.9935  1.2109
 2133SOL     OW17860   0.993   0.115   4.283  0.1492  0.0415 -0.1747
 2133SOL    HW117861   1.047   0.193   4.267  0.4697 -0.0356  0.5316
 2133SOL    HW217862   0.955   0.129   4.369 -0.0448  0.2583 -0.2965
 2134SOL     OW17863   2.084   3.719   5.679 -1.0394  0.5293  0.3976
 2134SOL    HW117864   1.994   3.687   5.685 -0.3116 -1.3794  1.1716
 2134SOL    HW217865   2.099   3.689   5.589 -0.7194  1.6630  0.0777
 2135SOL     OW17866   3.224   3.250   2.092  0.3352  0.0792  0.1090
 2135SOL    HW117867   3.148   3.289   2.135  1.0697  3.3710 -1.6287
 2135SOL    HW217868   3.249   3.319   2.030  1.2056  0.7315  1.1666
 2136SOL     OW17869   4.575   0.344   9.477 -0.3517 -0.0095 -0.0869
 2136SOL    HW117870   4.485   0.376   9.485 -0.8806 -1.1302 -1.5215
 2136SOL    HW217871   4.623   0.389   9.547 -1.6666 -0.7055  1.2480
 2137SOL     OW17872   0.384   4.644   8.309  0.3125  0.3658  0.5321
 2137SOL    HW117873   0.384   0.014   8.278 -0.9683 -0.1677 -1.0529
 2137SOL    HW217874   0.309   4.652   8.367 -0.0807 -1.6555  0.2993
 2138SOL     OW17875   0.545   1.480   2.303 -0.6825  0.1732  0.0244
 2138SOL    HW117876   0.456   1.504   2.277 -1.0427  0.2976  1.3550
 2138SOL    HW217877   0.551   1.551   2.367  0.8847 -0.6841  0.8138
 2139SOL     OW17878   2.242   2.852  11.473 -0.6056 -0.0156  0.2363
 2139SOL    HW117879   2.272   2.853  11.382  0.7516  1.1426  0.6904
 2139SOL    HW217880   2.189   2.772  11.476 -0.1799 -0.3796 -2.0498
 2140SOL     OW17881   0.119   1.768   3.568 -0.3655 -0.4398 -0.0480
 2140SOL    HW117882   0.196   1.819   3.594  0.7666 -2.5835  0.8638
 2140SOL    HW217883   0.119   1.707   3.642  0.0796  0.5642  0.7784
 2141SOL     OW17884   0.224   3.506   4.989  0.2325 -0.5957 -0.1532
 2141SOL    HW117885   0.164   3.433   5.004 -0.1682  0.0148  1.2070
 2141SOL    HW217886   0.274   3.516   5.070  1.3888  0.3886 -0.9905
 2142SOL     OW17887   2.003   4.221  13.141 -0.3799  0.4184  0.1942
 2142SOL    HW117888   2.044   4.280  13.079  2.5000 -0.0603  1.6141
 2142SOL    HW217889   2.074   4.181  13.192 -0.4317  0.6463  0.4449
 2143SOL     OW17890   2.879   3.188   9.759  0.1092  0.5701  0.5432
 2143SOL    HW117891   2.870   3.273   9.802 -1.0548  0.5234  0.3768
 2143SOL    HW217892   2.852   3.122   9.824 -2.7300  0.5644 -0.6671
 2144SOL     OW17893   2.482   2.091   2.522 -0.0573 -0.0915 -0.4604
 2144SOL    HW117894   2.506   2.181   2.541  2.4954 -1.6854  3.8409
 2144SOL    HW217895   2.546   2.056   2.460  1.3642  1.2089  0.2993
 2145SOL     OW17896   2.670   2.710   7.385 -0.1823  0.0415  0.2937
 2145SOL    HW117897   2.629   2.647   7.325  2.3731  0.4512 -1.9223
 2145SOL    HW217898   2.603   2.777   7.394 -0.7845  0.0231 -3.7630
 2146SOL     OW17899   4.684   2.840   4.344 -0.8603 -0.1655  0.0623
 2146SOL    HW117900   4.640   2.863   4.426  0.8287  0.6007  0.7574
 2146SOL    HW217901   4.672   2.916   4.287  2.0751 -1.3454 -2.1491
 2147SOL     OW17902   3.892   1.406  13.229 -0.0062  0.3558 -0.4212
 2147SOL    HW117903   3.980   1.417  13.193  1.6227 -1.6420  2.8869
 2147SOL    HW217904   3.903   1.428  13.321 -0.9243 -1.6457  0.1741
 2148SOL     OW17905   1.367   2.338  10.134  0.2247  0.5339 -0.1664
 2148SOL    HW117906   1.362   2.371  10.044  1.1442 -1.7052 -1.0552
 2148SOL    HW217907   1.381   2.416  10.187 -1.7822  0.2973  0.7059
 2149SOL     OW17908   3.060   3.947  13.648  0.0520  0.2255 -0.6769
 2149SOL    HW117909   3.086   3.998  13.571 -0.2083 -0.3698 -1.1461
 2149SOL    HW217910   3.140   3.899  13.672  0.7164  0.7889 -1.7512
 2150SOL     OW17911   2.026   4.510   4.927  0.4430  0.1626  0.2233
 2150SOL    HW117912   1.960   4.568   4.891  0.9454  0.2742 -0.5241
 2150SOL    HW217913   2.035   4.443   4.859  0.2610  1.6575 -1.2643
 2151SOL     OW17914   4.237   1.303   4.409  0.3158  0.3876  0.3013
 2151SOL    HW117915   4.158   1.350   4.382 -1.2878 -2.9518 -0.7463
 2151SOL    HW217916   4.292   1.380   4.423 -3.3295  2.7881  1.6916
 2152SOL     OW17917   0.889   3.983   5.041 -0.0463  0.4047 -0.4521
 2152SOL    HW117918   0.858   4.072   5.024 -2.6535 -0.5312 -0.5344
 2152SOL    HW217919   0.976   3.991   5.079  0.0805 -3.7535  0.1785
 2153SOL     OW17920   2.089   2.911  17.545 -0.2246  0.3060 -0.5501
 2153SOL    HW117921   2.069   2.817  17.550 -1.5020  0.4583 -2.5803
 2153SOL    HW217922   2.031   2.940  17.474 -1.4380 -0.9827 -0.0887
 2154SOL     OW17923   3.593   4.323   2.528  0.1456  0.3499  0.6465
 2154SOL    HW117924   3.530   4.359   2.591  0.8087 -0.6009  1.8592
 2154SOL    HW217925   3.677   4.360   2.555 -0.2926  1.4122  0.5582
 2155SOL     OW17926   0.614   3.172   8.036 -0.1137 -0.0819  0.0619
 2155SOL    HW117927   0.535   3.218   8.007 -0.6508 -1.1018 -0.0884
 2155SOL    HW217928   0.635   3.114   7.963 -0.7225  0.8222 -0.8264
 2156SOL     OW17929   4.436   1.409   0.807 -0.3161 -0.5188  0.0770
 2156SOL    HW117930   4.474   1.327   0.775  1.8665 -0.4707  2.5512
 2156SOL    HW217931   4.406   1.447   0.724 -0.4577 -0.6432  0.0705
 2157SOL     OW17932   3.806   3.269   1.680  0.0449  0.2734 -0.3557
 2157SOL    HW117933   3.820   3.292   1.772 -0.8991 -1.0511  0.1161
 2157SOL    HW217934   3.801   3.358   1.645  0.2843  1.0410  1.5451
 2158SOL     OW17935   3.715   4.186   8.942  0.5839  0.7109  0.2759
 2158SOL    HW117936   3.630   4.184   8.898  0.2468  2.0902  0.8755
 2158SOL    HW217937   3.704   4.110   9.000 -1.3598  1.2526  0.6162
 2159SOL     OW17938   1.720   0.736   8.639  0.3436  0.0663 -0.0159
 2159SOL    HW117939   1.773   0.801   8.685  1.6840 -0.2297 -1.1729
 2159SOL    HW217940   1.793   0.696   8.594 -0.6401 -2.5395  0.7331
 2160SOL     OW17941   0.840   0.516   4.203 -0.5408  0.6306 -0.4984
 2160SOL    HW117942   0.862   0.466   4.281 -0.8638  0.9407 -0.2063
 2160SOL    HW217943   0.744   0.513   4.203 -0.5619  1.6280  0.8491
 2161SOL     OW17944   3.898   3.086  13.975 -0.0463  0.1477  0.1059
 2161SOL    HW117945   3.935   3.006  14.011 -1.7284 -0.8072 -0.3014
 2161SOL    HW217946   3.830   3.052  13.916  1.2171 -0.5515 -0.9441
 2162SOL     OW17947   0.156   3.166   0.393  0.5346 -0.0405 -0.1001
 2162SOL    HW117948   0.126   3.169   0.302  1.8076 -0.6319 -0.5386
 2162SOL    HW217949   0.196   3.081   0.409  0.7893 -0.1796 -1.5517
 2163SOL     OW17950   2.329   1.130   8.636 -0.1514 -0.7888 -0.0704
 2163SOL    HW117951   2.272   1.108   8.710 -0.2212  0.4686  0.2614
 2163SOL    HW217952   2.402   1.070   8.651  1.0986  0.3394 -1.6312
 2164SOL     OW17953   3.457   2.700   4.994  0.0705  0.5575  0.5908
 2164SOL    HW117954   3.523   2.764   4.967 -0.1380 -0.3961 -2.1621
 2164SOL    HW217955   3.478   2.636   4.926  0.5576 -0.0612  1.3284
 2165SOL     OW17956   1.017   3.058   6.688  0.1288  0.1544 -0.1161
 2165SOL    HW117957   0.952   3.120   6.657 -1.3295 -2.2469 -1.8654
 2165SOL    HW217958   1.099   3.092   6.653  1.2811 -0.1813  2.2349
 2166SOL     OW17959   0.250   1.423   4.815  0.1714 -0.5261 -0.0184
 2166SOL    HW117960   0.196   1.420   4.894 -0.5948 -1.1269 -0.5645
 2166SOL    HW217961   0.197   1.491   4.773  1.7051  1.8400  1.8477
 2167SOL     OW17962   4.673   3.600   8.531 -0.5686 -0.0261  0.3868
 2167SOL    HW117963   4.685   3.517   8.484 -0.0304 -0.6070  1.5543
 2167SOL    HW217964   0.002   3.590   8.612  1.3241  1.3890 -0.5988
 2168SOL     OW17965   2.583   3.243   2.964 -0.4869 -0.5059  0.9044
 2168SOL    HW117966   2.625   3.157   2.956  3.0914  1.1406  1.9869
 2168SOL    HW217967   2.589   3.281   2.877  0.3670 -0.1447  1.1249
 2169SOL     OW17968   0.782   4.587   7.903 -0.0038 -0.3717  0.1211
 2169SOL    HW117969   0.807   4.675   7.932  0.6832 -0.0010 -1.5539
 2169SOL    HW217970   0.849   4.546   7.958 -1.5606 -1.0381  1.5003
 2170SOL     OW17971   3.725   3.187   8.738 -0.0782  0.0875 -0.6262
 2170SOL    HW117972   3.817   3.209   8.747 -0.2740  0.6838 -0.0615
 2170SOL    HW217973   3.723   3.150   8.649 -0.8541  0.6714 -0.8602
 2171SOL     OW17974   2.965   1.249  12.555 -0.3268 -0.2383 -0.6008
 2171SOL    HW117975   2.991   1.335  12.523 -1.1806  0.9181  1.7776
 2171SOL    HW217976   3.049   1.219  12.589 -0.5582 -2.1887 -1.7916
 2172SOL     OW17977   2.439   2.062  15.646  0.0553  0.2531 -0.5722
 2172SOL    HW117978   2.386   2.067  15.726  1.4912  1.5549  0.3000
 2172SOL    HW217979   2.395   2.129  15.594 -0.2216 -0.7163 -1.5775
 2173SOL     OW17980   0.670   2.053   6.070 -0.5336  0.1295 -0.0284
 2173SOL    HW117981   0.663   2.025   5.979 -0.8323 -2.4124  0.7783
 2173SOL    HW217982   0.601   2.117   6.082 -1.8707 -0.8773 -2.3193
 2174SOL     OW17983   3.880   0.756   5.354  0.4156  0.1033 -0.1849
 2174SOL    HW117984   3.940   0.713   5.415  0.0434 -0.5246 -0.2643
 2174SOL    HW217985   3.940   0.796   5.291  0.0696 -0.9381 -1.1519
 2175SOL     OW17986   0.559   4.253   5.899  0.0622  0.4815  0.3825
 2175SOL    HW117987   0.545   4.210   5.815  2.1253 -0.7737  0.6730
 2175SOL    HW217988   0.468   4.277   5.915 -0.3938 -1.6235  0.9426
 2176SOL     OW17989   4.479   1.748   6.992  0.0469  0.4701 -0.5668
 2176SOL    HW117990   4.385   1.750   6.979 -0.0297  0.0207 -0.0541
 2176SOL    HW217991   4.484   1.677   7.055 -1.1551  0.2191 -0.7637
 2177SOL     OW17992   2.178   0.762   5.573  0.2989 -0.3903 -0.3208
 2177SOL    HW117993   2.199   0.670   5.587  2.1165  0.3907  2.2545
 2177SOL    HW217994   2.171   0.785   5.666  1.5025  1.7068 -0.7437
 2178SOL     OW17995   4.504   2.554   1.615 -0.2283  0.7204  0.4131
 2178SOL    HW117996   4.455   2.562   1.533 -2.1501 -0.2000  1.4659
 2178SOL    HW217997   4.561   2.631   1.612  1.6834 -0.6952  1.0566
 2179SOL     OW17998   0.515   2.849  14.392 -0.6794 -0.2455 -0.3938
 2179SOL    HW117999   0.562   2.801  14.460  0.5359  3.1938  1.2110
 2179SOL    HW218000   0.564   2.930  14.376  0.3892 -0.4878  1.6518
 2180SOL     OW18001   2.924   2.709   4.460 -0.7240 -0.0740 -0.3043
 2180SOL    HW118002   2.938   2.628   4.508 -1.1455  1.2215  2.0178
 2180SOL    HW218003   2.861   2.672   4.397 -0.4872  1.5369 -1.4882
 2181SOL     OW18004   3.815   4.520   7.424 -0.2474 -0.1937  0.0460
 2181SOL    HW118005   3.847   4.453   7.486 -0.1250 -1.1025 -0.9934
 2181SOL    HW218006   3.781   4.472   7.349  1.7153 -0.5062 -0.6485
 2182SOL     OW18007   4.079   2.846   6.861 -0.1288  0.1206  0.1364
 2182SOL    HW118008   4.094   2.929   6.817 -0.8644 -0.5612 -1.3892
 2182SOL    HW218009   4.011   2.799   6.813 -2.1344  1.9764  1.1804
 2183SOL     OW18010   4.251   4.298   2.423  0.6691 -0.0232  0.1783
 2183SOL    HW118011   4.240   4.207   2.450  2.6931 -0.0283  1.0087
 2183SOL    HW218012   4.339   4.297   2.386 -0.3363  3.0946 -2.3266
 2184SOL     OW18013   1.599   1.869  14.221 -0.0282 -0.1396  0.0143
 2184SOL    HW118014   1.668   1.931  14.243 -0.8819  0.1838  1.7522
 2184SOL    HW218015   1.642   1.797  14.175 -2.7366 -2.0417  0.4477
 2185SOL     OW18016   0.342   2.246   1.523 -0.1172 -0.7512  0.2181
 2185SOL    HW118017   0.315   2.321   1.470 -0.8307 -0.9945  0.2424
 2185SOL    HW218018   0.407   2.284   1.582 -0.6195 -0.2931  0.4760
 2186SOL     OW18019   3.311   4.253   6.074 -0.5150  0.0250 -0.0829
 2186SOL    HW118020   3.350   4.337   6.048  0.0525  0.0184  0.7236
 2186SOL    HW218021   3.250   4.233   6.004  1.0494 -0.7637 -1.2041
 2187SOL     OW18022   1.392   4.613   6.678 -0.5413  0.2309  0.2202
 2187SOL    HW118023   1.400   4.528   6.634  0.7642  0.7453 -0.5363
 2187SOL    HW218024   1.299   4.632   6.667 -0.6638  0.0468  0.9196
 2188SOL     OW18025   3.774   1.197   0.959 -0.0868  0.7030  0.0178
 2188SOL    HW118026   3.745   1.122   0.906 -1.1237  1.0805  0.0500
 2188SOL    HW218027   3.866   1.181   0.982 -0.6067  0.4612  1.8829
 2189SOL     OW18028   0.151   1.511   6.725 -0.0368  0.2656  0.5448
 2189SOL    HW118029   0.126   1.602   6.734 -1.7811 -0.2087  0.5343
 2189SOL    HW218030   0.198   1.510   6.642 -1.3458 -0.4612 -0.1961
 2190SOL     OW18031   0.362   1.167   9.063 -0.4442 -0.0066 -0.1502
 2190SOL    HW118032   0.407   1.251   9.059 -0.2446 -0.0850  0.5292
 2190SOL    HW218033   0.413   1.122   9.130  1.7106  1.2820 -0.9509
 2191SOL     OW18034   4.494   2.376  10.888  0.7474  0.1839 -0.3648
 2191SOL    HW118035   4.581   2.357  10.925  0.6384  0.9158  0.2623
 2191SOL    HW218036   4.445   2.413  10.961  0.8186 -0.9911  0.2831
 2192SOL     OW18037   4.706   4.184   6.816  0.6781 -0.1476  0.1723
 2192SOL    HW118038   4.679   4.115   6.756  1.9004 -0.2114 -0.2988
 2192SOL    HW218039   4.623   4.225   6.841 -0.3621 -2.8551  1.2042
 2193SOL     OW18040   1.887   3.362   1.206 -0.6608 -0.0613 -0.7749
 2193SOL    HW118041   1.804   3.398   1.235  0.1811  2.1044 -1.0246
 2193SOL    HW218042   1.859   3.274   1.180 -0.9378 -0.4295  0.7457
 2194SOL     OW18043   2.245   4.308   9.676 -0.1251 -0.3304  0.1644
 2194SOL    HW118044   2.290   4.352   9.605  0.4515 -2.0366 -0.5229
 2194SOL    HW218045   2.271   4.364   9.749 -1.6921 -2.2707  2.2316
 2195SOL     OW18046   4.096   3.240   1.216  0.2640  0.2417 -0.3577
 2195SOL    HW118047   4.106   3.170   1.152 -4.7209 -1.8391  1.0988
 2195SOL    HW218048   4.125   3.198   1.297 -1.5143 -2.1894 -0.9885
 2196SOL     OW18049   3.300   2.634   2.975  0.1276 -0.1619  0.5308
 2196SOL    HW118050   3.231   2.688   3.013  0.1854  1.1371 -1.2237
 2196SOL    HW218051   3.246   2.584   2.914 -0.4071  0.0567  0.8244
 2197SOL     OW18052   1.116   4.263   5.637  0.3579 -0.1061 -0.6055
 2197SOL    HW118053   1.183   4.307   5.585  0.6200 -0.4903 -0.5968
 2197SOL    HW218054   1.040   4.296   5.589 -0.7166  0.9132  1.8043
 2198SOL     OW18055   3.367   0.499   6.460 -0.0363  0.1867  0.1012
 2198SOL    HW118056   3.395   0.520   6.370 -0.6678  2.6619  0.4882
 2198SOL    HW218057   3.322   0.415   6.452  2.2360 -1.0945  0.7945
 2199SOL     OW18058   2.899   2.206   2.098 -0.0588 -0.2336  0.3272
 2199SOL    HW118059   2.872   2.217   2.007 -2.5102  0.2410  1.1104
 2199SOL    HW218060   2.986   2.247   2.097  0.2243 -0.8587 -1.4666
 2200SOL     OW18061   4.508   2.020  10.327 -0.3951 -0.4801 -0.1188
 2200SOL    HW118062   4.422   2.030  10.286  0.1039  0.3468 -0.9505
 2200SOL    HW218063   4.490   2.017  10.421  0.7441 -2.0459  0.0581
 2201SOL     OW18064   0.399   3.806   8.400  0.0315 -0.1039  0.3989
 2201SOL    HW118065   0.372   3.897   8.414 -1.9148 -0.8355  1.3925
 2201SOL    HW218066   0.441   3.814   8.314 -0.0885  0.2647  0.3742
 2202SOL     OW18067   3.530   3.584  12.376  0.5758  0.8485  0.2423
 2202SOL    HW118068   3.559   3.587  12.467  0.4058  1.4033  0.2827
 2202SOL    HW218069   3.612   3.566  12.329  0.3606 -1.1282  0.6276
 2203SOL     OW18070   4.399   1.479   4.948  0.5660 -0.4535 -0.5077
 2203SOL    HW118071   4.386   1.570   4.920  0.9681 -0.3614 -0.3999
 2203SOL    HW218072   4.363   1.478   5.036 -1.9116 -0.7939 -1.5220
 2204SOL     OW18073   0.864   2.530   4.043  0.4139 -0.6506  0.0906
 2204SOL    HW118074   0.947   2.552   4.001 -0.3692  2.9343  0.4122
 2204SOL    HW218075   0.812   2.602   4.008  0.9962  0.4021  1.4049
 2205SOL     OW18076   3.371   0.465   2.998 -0.1837 -0.3524  0.1272
 2205SOL    HW118077   3.301   0.402   2.980 -1.0531  0.8716 -0.7545
 2205SOL    HW218078   3.448   0.407   2.996  1.1692  1.4664 -0.9103
 2206SOL     OW18079   1.815   0.372   2.229 -0.3790 -0.2970 -0.5137
 2206SOL    HW118080   1.803   0.467   2.221  1.5112 -0.2395 -2.5257
 2206SOL    HW218081   1.908   0.360   2.210 -0.1071 -2.1943  1.9580
 2207SOL     OW18082   3.324   3.347   1.029  0.1933 -0.2228  0.4629
 2207SOL    HW118083   3.371   3.264   1.020 -1.0170 -0.8219 -0.3127
 2207SOL    HW218084   3.262   3.323   1.097 -0.6626 -0.5753 -0.4337
 2208SOL     OW18085   2.039   0.891   4.748 -0.1922 -0.5702 -0.4577
 2208SOL    HW118086   1.989   0.957   4.701  1.4173  2.7153  2.4426
 2208SOL    HW218087   1.976   0.836   4.795 -0.3067  2.4607  2.9586
 2209SOL     OW18088   1.756   4.222   9.521 -0.0258  0.8094  0.1342
 2209SOL    HW118089   1.693   4.182   9.461 -1.0874 -0.5672  2.1605
 2209SOL    HW218090   1.818   4.148   9.527  1.7702  2.2291 -0.9818
 2210SOL     OW18091   0.208   2.665   7.915  0.3173 -0.2628  0.1031
 2210SOL    HW118092   0.230   2.573   7.930  0.7374 -0.1371  0.2645
 2210SOL    HW218093   0.126   2.662   7.965 -0.2424  1.3149 -0.7358
 2211SOL     OW18094   4.447   3.681   8.361  0.0092  0.2050  0.4916
 2211SOL    HW118095   4.492   3.658   8.442 -0.9740 -0.9415  0.7158
 2211SOL    HW218096   4.369   3.624   8.364 -0.1206  0.4204  1.3509
 2212SOL     OW18097   4.543   1.564   5.999  0.2468  0.1264  0.2319
 2212SOL    HW118098   4.499   1.480   5.983  0.9758 -0.2296  0.0908
 2212SOL    HW218099   4.609   1.528   6.058 -1.8600 -0.7124  2.1151
 2213SOL     OW18100   1.012   4.253   2.223  0.4286 -0.2918 -0.6533
 2213SOL    HW118101   1.010   4.277   2.130  0.4965 -0.0461 -0.5897
 2213SOL    HW218102   0.924   4.218   2.238 -0.0210 -0.6751 -4.1389
 2214SOL     OW18103   4.561   4.313   5.206  0.0726  0.3291  0.1000
 2214SOL    HW118104   4.578   4.400   5.242 -0.4105 -0.2002  1.5904
 2214SOL    HW218105   4.613   4.253   5.259 -0.5567  2.4134  3.0586
 2215SOL     OW18106   4.696   0.130   5.109 -0.5583  0.0116  0.1759
 2215SOL    HW118107   4.645   0.071   5.164 -1.6905 -1.2821 -2.2398
 2215SOL    HW218108   0.048   0.159   5.164 -0.2266  1.4952 -1.0359
 2216SOL     OW18109   1.007   3.538   3.314 -0.0138  0.2796 -0.6644
 2216SOL    HW118110   0.924   3.510   3.276 -0.1079 -1.1307  0.5682
 2216SOL    HW218111   0.986   3.538   3.408 -0.1827  1.0997 -0.7025
 2217SOL     OW18112   0.009   1.971   9.326  0.5188  0.2327 -0.3647
 2217SOL    HW118113   0.075   2.021   9.279  1.3460 -0.9117 -0.4173
 2217SOL    HW218114   0.062   1.911   9.379  0.4233  0.1096 -0.4090
 2218SOL     OW18115   2.426   1.265   2.398 -0.1099 -0.3461  0.0207
 2218SOL    HW118116   2.400   1.218   2.477 -2.4054  1.3203  0.2491
 2218SOL    HW218117   2.520   1.249   2.391 -0.5964 -3.0938 -0.3209
 2219SOL     OW18118   4.651   3.880   4.115 -0.0338  0.0296  0.5392
 2219SOL    HW118119   4.716   3.830   4.066 -0.9315 -0.4592 -0.1411
 2219SOL    HW218120   4.634   3.958   4.062 -1.0807  1.1315  2.4788
 2220SOL     OW18121   0.702   3.269   0.968  0.8830  0.3776 -0.0479
 2220SOL    HW118122   0.743   3.204   0.911  0.3814  0.8624 -0.9551
 2220SOL    HW218123   0.739   3.352   0.939 -1.6666  1.6889  0.4114
 2221SOL     OW18124   1.628   0.208  10.479  0.2099 -0.5381  0.0230
 2221SOL    HW118125   1.696   0.185  10.542  0.9393  0.2143 -0.4860
 2221SOL    HW218126   1.656   0.281  10.423 -1.3298  0.4458  0.5503
 2222SOL     OW18127   3.682   1.434   1.183  0.1414  0.0683  0.3437
 2222SOL    HW118128   3.622   1.386   1.240 -0.5890 -1.4467 -1.7084
 2222SOL    HW218129   3.764   1.408   1.225  1.5085  1.5889 -1.3674
 2223SOL     OW18130   0.975   2.376   5.170 -0.0565 -0.0746  0.1253
 2223SOL    HW118131   1.051   2.421   5.132  0.7055 -0.2662  1.4521
 2223SOL    HW218132   0.911   2.373   5.098  1.0425 -0.4905 -0.8279
 2224SOL     OW18133   0.191   0.067   3.674  0.1759  0.0185 -0.0462
 2224SOL    HW118134   0.172   0.072   3.768  0.6842 -1.0022  0.0997
 2224SOL    HW218135   0.112   0.109   3.639  0.0236 -0.9425 -0.8432
 2225SOL     OW18136   0.756   4.491   7.647 -0.5521  0.4599  0.1077
 2225SOL    HW118137   0.834   4.534   7.614 -1.2567  1.5022 -0.2167
 2225SOL    HW218138   0.759   4.532   7.733 -0.5692  0.7636 -0.0356
 2226SOL     OW18139   2.039   0.866   8.058 -0.0876 -0.1576  0.1840
 2226SOL    HW118140   1.966   0.915   8.095 -0.7994 -1.3989  0.4277
 2226SOL    HW218141   2.092   0.856   8.137  0.5600 -2.4680 -0.5373
 2227SOL     OW18142   0.063   2.504   0.872 -0.2049  0.4232  0.1073
 2227SOL    HW118143   4.714   2.446   0.903 -1.6004  0.1469 -3.5257
 2227SOL    HW218144   0.053   2.496   0.777  2.0196  0.6911 -0.1559
 2228SOL     OW18145   3.614   3.719   8.211  0.1893  0.4259 -0.0097
 2228SOL    HW118146   3.582   3.736   8.123  2.3547  0.3871 -0.8216
 2228SOL    HW218147   3.576   3.792   8.260 -1.6783 -1.2824  1.0660
 2229SOL     OW18148   0.979   0.889  15.035 -0.7081  0.1136 -0.5902
 2229SOL    HW118149   1.013   0.898  15.124 -0.9294 -0.5433 -0.4410
 2229SOL    HW218150   0.955   0.796  15.033 -1.7614  0.3772 -0.4933
 2230SOL     OW18151   4.600   2.753   2.857 -0.1743 -0.4874 -0.2864
 2230SOL    HW118152   4.585   2.739   2.763 -0.8400  3.5016 -0.8048
 2230SOL    HW218153   4.683   2.800   2.845 -0.9181  0.7925 -0.4670
 2231SOL     OW18154   3.426   3.972   7.131  0.0933  0.1061 -0.6211
 2231SOL    HW118155   3.432   3.954   7.037 -1.8756  0.4233 -0.8149
 2231SOL    HW218156   3.347   4.025   7.139 -0.9279 -1.6447  0.7612
 2232SOL     OW18157   4.314   1.140  17.337  0.3346  0.3772  0.0807
 2232SOL    HW118158   4.402   1.104  17.343  0.3787  0.3914 -0.4947
 2232SOL    HW218159   4.272   1.119  17.421  1.6709 -0.3199  0.5745
 2233SOL     OW18160   4.201   2.536  16.438 -0.2606  0.0896  0.0722
 2233SOL    HW118161   4.195   2.616  16.386 -0.9756  0.1099  0.1931
 2233SOL    HW218162   4.268   2.564  16.500 -1.5272  0.3497  1.3196
 2234SOL     OW18163   4.195   2.189  10.048  0.3975  0.5624 -0.3200
 2234SOL    HW118164   4.225   2.171   9.959 -2.5197 -0.5772 -1.0569
 2234SOL    HW218165   4.100   2.193  10.036  0.3631  0.9293  0.0813
 2235SOL     OW18166   2.580   2.519   6.624 -0.0478  0.4583  0.0037
 2235SOL    HW118167   2.562   2.501   6.531  1.5958  0.8285 -0.3785
 2235SOL    HW218168   2.618   2.434   6.646  0.2180  0.2069 -1.3916
 2236SOL     OW18169   0.676   0.633  15.035  0.7801 -0.2529 -0.3038
 2236SOL    HW118170   0.768   0.621  15.060  0.2882  0.7606  1.9732
 2236SOL    HW218171   0.657   0.552  14.987  1.2828 -1.3944  1.3993
 2237SOL     OW18172   1.229   1.989   8.935 -0.5671  0.0747  0.1024
 2237SOL    HW118173   1.299   2.052   8.950 -0.0468 -0.4848  0.0473
 2237SOL    HW218174   1.167   2.042   8.885  0.4224  2.6612  1.6190
 2238SOL     OW18175   2.489   1.324   2.759 -0.0463  0.0181  0.0796
 2238SOL    HW118176   2.559   1.289   2.815 -0.3258 -1.5302 -0.5727
 2238SOL    HW218177   2.449   1.257   2.705  0.2868  0.0035 -0.1468
 2239SOL     OW18178   3.484   2.134   5.390  0.6965  0.0607  1.0653
 2239SOL    HW118179   3.408   2.157   5.338  1.4032  0.8059  0.3655
 2239SOL    HW218180   3.429   2.094   5.457 -0.7405  1.1241  0.5102
 2240SOL     OW18181   1.249   2.981  12.011 -0.3237 -0.1336 -0.2538
 2240SOL    HW118182   1.269   2.891  12.037  4.0258  1.6082  2.4588
 2240SOL    HW218183   1.238   3.024  12.095 -1.2671  0.0718 -0.4884
 2241SOL     OW18184   2.026   4.402   5.669  0.2361  0.6347 -0.1573
 2241SOL    HW118185   2.035   4.328   5.729 -0.5302  1.5148  1.0499
 2241SOL    HW218186   2.039   4.361   5.583 -0.4595 -1.2104  0.6214
 2242SOL     OW18187   0.660   0.657  14.031 -0.3863 -0.0246 -0.5236
 2242SOL    HW118188   0.738   0.606  14.012 -0.7789 -0.8540  0.0899
 2242SOL    HW218189   0.647   0.699  13.946 -0.5668 -1.4030 -1.1779
 2243SOL     OW18190   0.593   1.494   5.114  0.4439  0.2860  0.0066
 2243SOL    HW118191   0.552   1.434   5.051 -1.5998  0.9531  0.6964
 2243SOL    HW218192   0.678   1.453   5.127  0.4500  0.7596  1.3877
 2244SOL     OW18193   1.067   1.919  12.535 -0.1041  0.7102 -0.5307
 2244SOL    HW118194   1.148   1.931  12.585 -3.4151  0.0058  5.0857
 2244SOL    HW218195   1.016   1.996  12.558  2.3938  1.8754  1.1036
 2245SOL     OW18196   3.403   1.354   0.925  0.2272 -0.1360 -0.0952
 2245SOL    HW118197   3.474   1.317   0.977 -1.2858  0.2041  2.1911
 2245SOL    HW218198   3.454   1.382   0.849  1.9770  0.4562  1.2930
 2246SOL     OW18199   3.032   0.802   7.516 -0.0583  0.1754  0.1765
 2246SOL    HW118200   2.939   0.820   7.518 -0.5470 -2.3659  0.4457
 2246SOL    HW218201   3.067   0.830   7.600  1.0159  2.2073 -0.9371
 2247SOL     OW18202   1.196   3.300   3.329 -0.1112 -0.0198  0.3506
 2247SOL    HW118203   1.140   3.362   3.282 -1.7228 -1.2901  0.5870
 2247SOL    HW218204   1.253   3.358   3.380  1.6063 -2.1974  0.8759
 2248SOL     OW18205   0.637   1.638   3.010  0.3269  0.3193  0.3790
 2248SOL    HW118206   0.663   1.565   3.067 -1.1274 -0.9905 -0.6326
 2248SOL    HW218207   0.690   1.605   2.937  0.0765  0.3603  0.1789
 2249SOL     OW18208   0.418   1.170   5.858  0.6260 -0.2009  0.3453
 2249SOL    HW118209   0.476   1.192   5.785  0.5290 -1.6602 -0.1572
 2249SOL    HW218210   0.360   1.106   5.817  0.8992 -0.0865 -0.2159
 2250SOL     OW18211   4.571   3.396  12.566 -0.0743 -0.2714  0.1702
 2250SOL    HW118212   4.533   3.482  12.548  1.8955  0.6319  0.3221
 2250SOL    HW218213   4.653   3.404  12.517  0.1649 -0.4629  0.5355
 2251SOL     OW18214   3.192   1.170   5.958  0.0919 -0.2769 -0.1162
 2251SOL    HW118215   3.162   1.186   5.868  0.5359 -3.9015 -0.9344
 2251SOL    HW218216   3.110   1.177   6.007  0.1921  1.6115 -0.2327
 2252SOL     OW18217   4.555   4.110   6.133 -0.0925 -0.8402 -0.0476
 2252SOL    HW118218   4.491   4.180   6.116 -1.3707 -1.9284  0.3322
 2252SOL    HW218219   4.563   4.125   6.227  1.9712 -0.3724 -0.2947
 2253SOL     OW18220   3.644   3.778   7.184 -0.6988  0.0524 -0.2876
 2253SOL    HW118221   3.708   3.819   7.126 -2.4870  1.1358 -1.5333
 2253SOL    HW218222   3.574   3.844   7.185 -1.0191 -0.3180  1.1523
 2254SOL     OW18223   1.758   3.171   3.674  0.0355 -0.8113 -0.1223
 2254SOL    HW118224   1.787   3.190   3.585  0.7739  0.4752  0.3891
 2254SOL    HW218225   1.838   3.134   3.712 -1.2489 -3.2651  0.2166
 2255SOL     OW18226   1.598   3.013  12.397  0.0854 -0.0090 -0.3474
 2255SOL    HW118227   1.598   2.956  12.320 -2.0639 -0.1501 -0.2370
 2255SOL    HW218228   1.515   2.984  12.436  0.2519 -1.3633 -0.9838
 2256SOL     OW18229   3.234   0.425   5.447  0.1849 -1.2353  0.3488
 2256SOL    HW118230   3.228   0.405   5.541 -2.0649  2.0609  0.9260
 2256SOL    HW218231   3.264   0.516   5.441 -1.2485 -0.8529 -0.9879
 2257SOL     OW18232   0.146   2.231   2.914  0.0275  0.0730 -0.4260
 2257SOL    HW118233   0.146   2.148   2.961  0.0205  0.4824  0.2880
 2257SOL    HW218234   0.083   2.278   2.969 -0.5692 -0.7778 -0.3882
 2258SOL     OW18235   0.439   4.524   6.218 -0.4231 -0.3470  0.6267
 2258SOL    HW118236   0.346   4.504   6.212 -0.3718  0.0189 -1.2840
 2258SOL    HW218237   0.475   4.491   6.301  2.2829  1.2093  0.1042
 2259SOL     OW18238   0.896   4.256  11.878  0.4604  0.0151  0.4678
 2259SOL    HW118239   0.865   4.248  11.968  0.0674 -1.2651  0.2216
 2259SOL    HW218240   0.851   4.336  11.853 -0.3355 -0.8683 -0.9507
 2260SOL     OW18241   0.685   0.752   1.717 -0.1986 -0.5875  0.0866
 2260SOL    HW118242   0.685   0.668   1.670  1.8504 -0.3408 -0.3349
 2260SOL    HW218243   0.688   0.809   1.641  1.6324 -1.9035 -0.8222
 2261SOL     OW18244   2.851   3.342   8.950 -0.4646 -0.1526  0.8809
 2261SOL    HW118245   2.908   3.265   8.949 -1.7639 -1.0963  0.1158
 2261SOL    HW218246   2.852   3.360   9.044  0.5149 -1.2032  1.0746
 2262SOL     OW18247   0.229   2.051   9.195  0.1621  0.0843  0.0731
 2262SOL    HW118248   0.313   2.029   9.155  0.0883 -0.8911  0.4605
 2262SOL    HW218249   0.224   2.143   9.167 -1.5352  0.5616  1.8942
 2263SOL     OW18250   1.427   0.018   5.944  0.6971 -0.8181  0.2950
 2263SOL    HW118251   1.374   0.006   6.023 -1.2329 -1.3146 -1.0600
 2263SOL    HW218252   1.419   4.657   5.894 -1.9460  0.4992 -1.4167
 2264SOL     OW18253   2.259   1.135   0.866  0.4442 -0.5281 -0.0942
 2264SOL    HW118254   2.304   1.128   0.782  0.5980 -0.7233  0.0021
 2264SOL    HW218255   2.205   1.055   0.866  1.5096 -1.2532  0.7304
 2265SOL     OW18256   2.815   2.926  17.241  0.0339  0.5898  0.8898
 2265SOL    HW118257   2.769   2.912  17.324 -0.5481 -0.9270  0.3047
 2265SOL    HW218258   2.799   2.849  17.186 -0.5226  1.6434 -0.4375
 2266SOL     OW18259   0.163   1.229   1.941 -0.2122  0.1236 -0.6343
 2266SOL    HW118260   0.083   1.184   1.969 -0.9720  1.8040 -0.1474
 2266SOL    HW218261   0.120   1.291   1.882 -1.6525 -0.8260 -0.5807
 2267SOL     OW18262   0.975   1.341  14.323  0.1908 -0.5709  0.2941
 2267SOL    HW118263   0.997   1.296  14.405 -1.0740 -0.3698  0.7353
 2267SOL    HW218264   1.052   1.398  14.315  1.2064 -1.5467  3.1292
 2268SOL     OW18265   1.136   2.435   4.946 -0.0209 -0.2945 -0.7011
 2268SOL    HW118266   1.193   2.454   4.871  1.1024 -1.4823 -0.1290
 2268SOL    HW218267   1.063   2.393   4.900 -0.9653 -0.4894  0.9770
 2269SOL     OW18268   2.796   3.746  15.434 -0.0469  0.5367 -0.2644
 2269SOL    HW118269   2.860   3.804  15.475 -2.4206  2.0388  1.3103
 2269SOL    HW218270   2.848   3.695  15.372  1.8928  1.2305  0.8092
 2270SOL     OW18271   0.918   0.842   7.472  0.0137 -0.4262 -0.0067
 2270SOL    HW118272   0.862   0.766   7.459 -0.0740 -0.3496 -0.0843
 2270SOL    HW218273   0.999   0.798   7.445  1.7692  1.9282  1.4213
 2271SOL     OW18274   2.365   2.915   8.152  0.6864 -0.7875  0.0123
 2271SOL    HW118275   2.434   2.869   8.199  1.9366  1.4873  0.4381
 2271SOL    HW218276   2.292   2.855   8.165  0.6160 -0.8258 -0.5859
 2272SOL     OW18277   0.716   1.322   2.739  0.0070 -0.0399  0.2123
 2272SOL    HW118278   0.688   1.294   2.652 -2.3530 -1.9392  1.5625
 2272SOL    HW218279   0.754   1.409   2.742 -1.1385  0.5486 -2.7087
 2273SOL     OW18280   2.385   2.570  11.990  0.5355  0.1896  0.4606
 2273SOL    HW118281   2.336   2.522  12.057 -1.1984  0.4977 -0.5917
 2273SOL    HW218282   2.329   2.549  11.915  1.9547 -1.2415 -0.1984
 2274SOL     OW18283   3.125   4.278   4.361 -0.0528  0.3311  0.3057
 2274SOL    HW118284   3.053   4.288   4.299  1.4440 -2.8373 -2.0079
 2274SOL    HW218285   3.092   4.212   4.422 -2.9449  1.4390 -0.0777
 2275SOL     OW18286   2.888   0.306   2.448 -0.4322 -0.1109  0.1199
 2275SOL    HW118287   2.819   0.337   2.507  1.1347 -1.6490  2.7808
 2275SOL    HW218288   2.840   0.235   2.407 -0.7576 -1.1273  2.2696
 2276SOL     OW18289   2.381   3.739  14.645  0.6705  1.4203 -0.1592
 2276SOL    HW118290   2.346   3.814  14.596 -0.7318  1.1170  0.3801
 2276SOL    HW218291   2.321   3.720  14.717  2.5038  0.0576  1.0157
 2277SOL     OW18292   1.696   3.545   1.286 -0.1205 -0.2117  0.1716
 2277SOL    HW118293   1.603   3.529   1.267  0.3137 -1.0105 -1.2661
 2277SOL    HW218294   1.713   3.633   1.253 -1.0973  1.1099  3.1880
 2278SOL     OW18295   3.524   0.802   4.960  0.0579  0.1690 -0.7387
 2278SOL    HW118296   3.485   0.775   5.044  1.1900 -2.0182 -0.8963
 2278SOL    HW218297   3.610   0.761   4.967  0.7361  1.9880  1.5251
 2279SOL     OW18298   1.864   3.049  12.991  0.4185 -0.0438 -0.7830
 2279SOL    HW118299   1.821   2.984  12.936  0.5357 -2.1138  1.5554
 2279SOL    HW218300   1.802   3.072  13.060  1.5749 -0.1205  0.2841
 2280SOL     OW18301   4.661   0.552   0.475  0.1337  0.1233 -0.4741
 2280SOL    HW118302   4.672   0.485   0.543  1.7663  2.1080  1.2140
 2280SOL    HW218303   4.566   0.559   0.478  0.3379  1.1714  3.6055
 2281SOL     OW18304   1.917   2.728   2.452  0.4946  0.1179 -0.5011
 2281SOL    HW118305   1.909   2.644   2.497 -1.2817  0.4095 -0.2813
 2281SOL    HW218306   1.860   2.717   2.376  2.4087  2.9571 -2.3800
 2282SOL     OW18307   2.195   4.584   1.245 -0.5771  0.2030  0.3278
 2282SOL    HW118308   2.116   4.620   1.207 -0.2481  1.5002  0.8689
 2282SOL    HW218309   2.160   4.540   1.323  1.6530  1.4110  2.0292
 2283SOL     OW18310   0.939   2.541   7.697 -0.2608  0.0346  0.4342
 2283SOL    HW118311   1.017   2.556   7.643  1.2245 -2.7134  1.8379
 2283SOL    HW218312   0.938   2.616   7.757  0.0818 -0.6400  1.2778
 2284SOL     OW18313   3.810   1.577   7.145  0.3919  0.3067 -0.5212
 2284SOL    HW118314   3.716   1.568   7.158  0.3949 -3.4845 -3.0514
 2284SOL    HW218315   3.822   1.575   7.050 -0.3017  2.5828 -0.6736
 2285SOL     OW18316   2.613   2.570   8.951  0.0647  0.5319  0.1666
 2285SOL    HW118317   2.620   2.475   8.954  1.2559  0.6013 -0.6960
 2285SOL    HW218318   2.665   2.598   9.026  3.8406  1.2542 -2.7644
 2286SOL     OW18319   2.220   0.296  16.537 -0.3039 -0.0911  0.0800
 2286SOL    HW118320   2.176   0.232  16.594  1.4762 -0.2217  1.2979
 2286SOL    HW218321   2.290   0.316  16.599  0.3404  0.5091 -0.8672
 2287SOL     OW18322   3.089   0.193  14.058  1.0716 -0.5279 -0.3095
 2287SOL    HW118323   3.153   0.149  14.114 -0.1040  0.5791  1.8922
 2287SOL    HW218324   3.113   0.285  14.068  1.0129 -0.4193 -1.1573
 2288SOL     OW18325   3.961   0.034  13.047  0.1050 -0.0640  0.1603
 2288SOL    HW118326   3.917   0.014  13.130  0.9635 -1.4803  0.2798
 2288SOL    HW218327   3.889   0.069  12.996 -0.6326 -0.8592  0.6632
 2289SOL     OW18328   3.366   0.766   6.355  0.3617 -0.1013  0.2599
 2289SOL    HW118329   3.289   0.823   6.363  0.7655  0.4715  0.0064
 2289SOL    HW218330   3.373   0.724   6.441  0.9377 -0.9791 -0.2159
 2290SOL     OW18331   3.856   3.197   4.748 -0.1102 -0.0602 -0.6347
 2290SOL    HW118332   3.856   3.284   4.789  0.5934 -0.9310  1.2239
 2290SOL    HW218333   3.950   3.182   4.763 -0.6473 -1.3443  1.3755
 2291SOL     OW18334   1.811   0.118   5.130  0.2697  0.1484  0.3996
 2291SOL    HW118335   1.753   0.192   5.149 -0.4515 -0.6225  1.2645
 2291SOL    HW218336   1.865   0.103   5.207  0.2740 -2.6291 -0.1434
 2292SOL     OW18337   2.372   4.460  13.948  0.5906 -0.6828 -0.3206
 2292SOL    HW118338   2.461   4.493  13.940 -0.2444  0.8993 -2.7725
 2292SOL    HW218339   2.400   4.369  13.952  1.3523 -0.5292 -2.7600
 2293SOL     OW18340   0.905   3.967   7.239 -0.2189 -0.5698 -0.4041
 2293SOL    HW118341   0.831   3.948   7.296 -1.0129  1.1681 -0.8514
 2293SOL    HW218342   0.951   3.884   7.248 -1.5674 -1.3398 -0.6731
 2294SOL     OW18343   0.024   0.237   7.001  0.2929 -0.2757  0.0520
 2294SOL    HW118344   0.081   0.268   6.930  2.6344  0.0355  2.0609
 2294SOL    HW218345   0.018   0.146   6.974 -1.3993  0.4329 -1.9905
 2295SOL     OW18346   1.085   2.204   7.010 -0.4851 -0.2173 -0.3764
 2295SOL    HW118347   1.012   2.218   7.071 -0.0873  1.0685 -0.1910
 2295SOL    HW218348   1.158   2.246   7.056 -2.0708  2.7531 -0.5317
 2296SOL     OW18349   2.837   0.267   5.746  0.0548  0.6171 -0.3916
 2296SOL    HW118350   2.849   0.187   5.796  0.3022  1.4057  0.8050
 2296SOL    HW218351   2.804   0.333   5.807 -1.0273 -0.9800  0.7475
 2297SOL     OW18352   2.070   1.956   5.478  0.1900  0.9052  0.2005
 2297SOL    HW118353   2.144   1.898   5.497 -0.5528 -0.8723 -2.2480
 2297SOL    HW218354   1.997   1.896   5.492  0.8235  0.4996  1.8059
 2298SOL     OW18355   0.073   3.951   5.608 -0.0905  0.3834 -0.6314
 2298SOL    HW118356   0.011   3.904   5.552  0.6198 -0.7585 -0.4742
 2298SOL    HW218357   0.120   3.876   5.645 -3.5553 -0.9186  1.2396
 2299SOL     OW18358   0.446   1.370   6.836  0.2151 -0.4749  0.2812
 2299SOL    HW118359   0.535   1.337   6.847  0.7450  0.5849 -0.8545
 2299SOL    HW218360   0.450   1.464   6.820 -2.0085 -0.8066 -2.1892
 2300SOL     OW18361   0.547   2.074   2.560 -0.0953  0.5639 -0.0209
 2300SOL    HW118362   0.503   2.069   2.645 -1.1372 -0.2112 -0.6104
 2300SOL    HW218363   0.608   2.146   2.577 -0.1979  0.8081 -0.6807
 2301SOL     OW18364   0.385   2.478   5.558  0.3466 -0.5236 -0.4501
 2301SOL    HW118365   0.459   2.503   5.504  2.5036  2.0831  3.7965
 2301SOL    HW218366   0.372   2.387   5.529  0.7796 -1.2977  1.8355
 2302SOL     OW18367   2.618   1.653   9.851 -0.2930  0.6043 -0.6850
 2302SOL    HW118368   2.679   1.726   9.867  0.2845  0.1609 -0.8438
 2302SOL    HW218369   2.683   1.594   9.812 -0.1856  0.5064 -0.3550
 2303SOL     OW18370   3.248   0.718   4.018 -0.5816  0.0527  0.7513
 2303SOL    HW118371   3.238   0.637   4.068  0.7242  1.7231  3.7422
 2303SOL    HW218372   3.301   0.682   3.947  0.4006  0.3815  1.3229
 2304SOL     OW18373   1.477   4.587   0.763 -0.0532 -0.0897 -0.5275
 2304SOL    HW118374   1.477   4.594   0.668  0.7604  0.2852 -0.4997
 2304SOL    HW218375   1.484   4.681   0.778 -0.6135 -0.4163  1.7786
 2305SOL     OW18376   0.733   4.034   6.987 -0.6587  0.4211  0.0611
 2305SOL    HW118377   0.798   4.018   7.055 -1.1214  0.3384  0.4840
 2305SOL    HW218378   0.710   3.946   6.958  2.7784  0.2773 -2.2666
 2306SOL     OW18379   0.574   3.195   8.548  0.3068 -0.2450 -0.4126
 2306SOL    HW118380   0.489   3.166   8.515 -0.6778  1.2818  0.7950
 2306SOL    HW218381   0.630   3.175   8.472  0.1043  1.5068 -1.0197
 2307SOL     OW18382   2.762   1.522  14.013 -0.8468  0.2976  0.1079
 2307SOL    HW118383   2.790   1.432  14.030 -0.0700  0.3248 -0.9972
 2307SOL    HW218384   2.667   1.516  14.002 -0.8446 -1.6354  1.1357
 2308SOL     OW18385   2.207   4.013   0.567 -0.7149  0.1554  0.1494
 2308SOL    HW118386   2.156   3.939   0.532  0.9720 -1.6741  1.5738
 2308SOL    HW218387   2.186   4.009   0.660  0.1475 -2.2261  0.2418
 2309SOL     OW18388   0.782   2.251   3.052  0.1045  0.5589  0.0300
 2309SOL    HW118389   0.866   2.280   3.085  0.9861 -1.3977 -0.5007
 2309SOL    HW218390   0.811   2.179   2.995 -3.4149  0.0239 -1.1312
 2310SOL     OW18391   0.606   1.400  14.920  0.1616 -0.0976 -0.1485
 2310SOL    HW118392   0.669   1.438  14.858  0.0494  0.7279  0.2539
 2310SOL    HW218393   0.530   1.457  14.918 -0.9944 -1.6232  0.5791
 2311SOL     OW18394   2.850   3.542   9.632  0.6747 -0.8955  0.3578
 2311SOL    HW118395   2.761   3.576   9.639  1.2804  0.4768  1.5630
 2311SOL    HW218396   2.901   3.617   9.665  1.1607 -1.3868  0.7193
 2312SOL     OW18397   2.953   1.561   6.820  0.1716 -0.0789 -0.0173
 2312SOL    HW118398   2.991   1.588   6.736 -0.9167  0.5638 -0.3029
 2312SOL    HW218399   2.881   1.510   6.784  0.6957 -0.3146 -0.7351
 2313SOL     OW18400   2.331   4.252   4.821 -0.6155 -0.8904  0.3641
 2313SOL    HW118401   2.297   4.180   4.874 -0.9046  0.7525  2.4231
 2313SOL    HW218402   2.243   4.278   4.794 -0.8784 -2.0662  0.1106
 2314SOL     OW18403   0.431   0.617   0.167  0.2234  1.0923 -0.0103
 2314SOL    HW118404   0.452   0.606   0.075 -0.2429 -0.2798  0.0454
 2314SOL    HW218405   0.381   0.699   0.173  2.8554  2.6920 -0.2193
 2315SOL     OW18406   1.218   2.556   1.763 -0.0779  0.4153 -0.7423
 2315SOL    HW118407   1.211   2.603   1.847 -1.9272 -1.6671  0.2600
 2315SOL    HW218408   1.264   2.477   1.792 -2.1755  0.1640  1.9428
 2316SOL     OW18409   0.581   3.473   2.686 -0.0275  0.2634 -0.4817
 2316SOL    HW118410   0.635   3.526   2.628  0.0354 -0.2195 -0.8690
 2316SOL    HW218411   0.581   3.390   2.638 -2.1118 -0.5757  0.9294
 2317SOL     OW18412   1.640   4.524   9.802 -0.2640 -0.6202  0.2672
 2317SOL    HW118413   1.692   4.603   9.811  1.9223 -1.8661 -1.4425
 2317SOL    HW218414   1.713   4.464   9.813 -0.9457 -1.4820  0.1399
 2318SOL     OW18415   4.194   2.190   3.176  0.1643  0.0378 -0.6309
 2318SOL    HW118416   4.154   2.232   3.252  0.6508  1.3481 -1.1020
 2318SOL    HW218417   4.161   2.101   3.187  0.4827  0.1990  1.6301
 2319SOL     OW18418   4.474   1.390   7.475  0.5167  0.5493  0.6406
 2319SOL    HW118419   4.398   1.346   7.513 -1.1393  2.4271 -0.5043
 2319SOL    HW218420   4.538   1.319   7.464  0.5601  0.1592  3.4005
 2320SOL     OW18421   2.421   2.394   7.560 -0.0811  0.3691 -0.1020
 2320SOL    HW118422   2.360   2.445   7.505  0.3830 -0.0577 -1.0082
 2320SOL    HW218423   2.358   2.362   7.624  0.1575 -1.3755 -0.7406
 2321SOL     OW18424   0.246   1.070  11.711  0.0685  0.0037  0.2747
 2321SOL    HW118425   0.210   1.137  11.768  1.6217  0.9633  0.1229
 2321SOL    HW218426   0.195   1.084  11.631  4.0220 -0.3750 -2.2998
 2322SOL     OW18427   0.969   4.655   2.161  0.7616  0.1352 -0.3545
 2322SOL    HW118428   0.918   4.612   2.092 -0.0533  0.7682 -0.1501
 2322SOL    HW218429   0.905   4.675   2.229 -0.9301  1.2039 -2.2330
 2323SOL     OW18430   2.483   3.043  14.107 -0.2775 -0.2540 -0.9054
 2323SOL    HW118431   2.396   3.076  14.130  0.0077  0.4886 -0.8737
 2323SOL    HW218432   2.479   2.949  14.093 -4.5684  0.1419 -2.2596
 2324SOL     OW18433   3.970   0.020   3.168 -0.8262 -0.2583  0.1811
 2324SOL    HW118434   4.035   0.055   3.106 -0.3808 -3.2865 -1.0589
 2324SOL    HW218435   3.910   0.095   3.164 -0.3066  0.0585 -1.8370
 2325SOL     OW18436   1.598   1.695   1.524 -0.1818 -0.1290 -0.8457
 2325SOL    HW118437   1.560   1.715   1.609 -2.0219  1.4646 -2.0502
 2325SOL    HW218438   1.516   1.676   1.478  0.0542  0.4219 -1.4993
 2326SOL     OW18439   0.616   1.060  10.254  0.8653  0.1047  0.3423
 2326SOL    HW118440   0.628   1.127  10.186 -3.4877  0.7535  0.2486
 2326SOL    HW218441   0.624   1.115  10.333 -0.5939  0.1047  0.4817
 2327SOL     OW18442   1.918   4.173   6.678 -0.2995  0.1229  0.2541
 2327SOL    HW118443   1.892   4.108   6.612  2.6052  0.7293 -1.5015
 2327SOL    HW218444   1.995   4.126   6.711  0.6297  2.2398  1.0998
 2328SOL     OW18445   2.888   1.139   4.029  0.1824 -0.7363 -0.1822
 2328SOL    HW118446   2.901   1.075   4.099  1.8605 -0.9936 -0.7333
 2328SOL    HW218447   2.842   1.079   3.970 -2.8307 -0.4054  1.8148
 2329SOL     OW18448   4.144   0.654   3.059  0.5863 -0.3399 -0.6174
 2329SOL    HW118449   4.231   0.695   3.069  0.3002  0.0165  0.4705
 2329SOL    HW218450   4.124   0.695   2.975  1.2496  2.2510  0.4807
 2330SOL     OW18451   3.597   3.460  14.239  0.5605 -1.1044 -0.1635
 2330SOL    HW118452   3.594   3.420  14.152 -2.6081 -1.2890  0.0447
 2330SOL    HW218453   3.524   3.522  14.242  2.0384  0.5478  1.9146
 2331SOL     OW18454   0.249   3.160   5.109  0.2260  0.0598 -0.3928
 2331SOL    HW118455   0.190   3.209   5.051 -0.1796  0.1216  0.0739
 2331SOL    HW218456   0.220   3.070   5.091  0.2592 -0.0856  0.3112
 2332SOL     OW18457   0.659   3.649  13.682  0.3787 -0.6968 -0.0767
 2332SOL    HW118458   0.690   3.739  13.688  0.9881 -0.8838 -0.3893
 2332SOL    HW218459   0.739   3.600  13.666 -0.1477 -1.4079 -0.5283
 2333SOL     OW18460   0.758   1.059  14.986  0.1786  0.9890 -0.1759
 2333SOL    HW118461   0.836   1.011  15.016 -0.9100 -1.7934 -1.8346
 2333SOL    HW218462   0.694   0.989  14.974 -1.2092  2.1405  0.4955
 2334SOL     OW18463   2.531   1.858   7.816  0.4427 -0.3386  0.0436
 2334SOL    HW118464   2.591   1.897   7.879  1.0846 -1.3861  0.0964
 2334SOL    HW218465   2.589   1.833   7.744 -0.6447 -3.7965  0.3304
 2335SOL     OW18466   4.414   0.611   4.637  0.1892 -0.2995  0.1304
 2335SOL    HW118467   4.367   0.679   4.588 -1.1746  0.1560  2.0600
 2335SOL    HW218468   4.384   0.632   4.725 -3.5889  1.0447 -1.4743
 2336SOL     OW18469   2.148   4.218   1.838  0.5152  0.0436  0.2228
 2336SOL    HW118470   2.095   4.290   1.870  0.0764 -0.3994  0.5012
 2336SOL    HW218471   2.159   4.242   1.746 -3.6357  2.4663  0.4016
 2337SOL     OW18472   1.291   2.460  16.608  0.0952 -0.5044 -0.2410
 2337SOL    HW118473   1.216   2.412  16.572  1.3594 -2.5374 -0.2277
 2337SOL    HW218474   1.256   2.534  16.656  1.6178  1.1044 -1.5823
 2338SOL     OW18475   2.606   3.749  11.885 -0.0369 -0.0352  0.1161
 2338SOL    HW118476   2.644   3.694  11.954  0.9323  0.4510 -0.0290
 2338SOL    HW218477   2.514   3.750  11.911 -0.0063  2.1675  0.1173
 2339SOL     OW18478   2.987   1.044  11.545 -1.0801 -0.4338 -0.1853
 2339SOL    HW118479   3.012   0.971  11.488 -0.6112 -0.0564 -0.4655
 2339SOL    HW218480   2.892   1.044  11.554 -1.1214 -0.8497 -0.6154
 2340SOL     OW18481   0.538   3.425   4.756  0.8534 -0.6002 -0.3811
 2340SOL    HW118482   0.572   3.338   4.776 -1.4190 -1.5621 -0.7684
 2340SOL    HW218483   0.546   3.454   4.848  0.6008 -0.3160 -0.4482
 2341SOL     OW18484   4.088   1.383   1.606 -0.7459  0.4058  0.3410
 2341SOL    HW118485   4.132   1.301   1.580 -1.6530  0.4011 -1.2228
 2341SOL    HW218486   4.119   1.437   1.533  2.2577 -2.5499 -0.5898
 2342SOL     OW18487   1.199   2.444   2.464 -0.7221 -0.2032  0.0903
 2342SOL    HW118488   1.202   2.473   2.373 -0.8509  0.5798  0.3422
 2342SOL    HW218489   1.236   2.511   2.521  1.5039 -2.0324  0.8193
 2343SOL     OW18490   3.496   3.265  12.165  0.4565  0.1996 -0.5858
 2343SOL    HW118491   3.586   3.238  12.148  0.5487 -0.0939  0.3905
 2343SOL    HW218492   3.485   3.343  12.110 -1.9667 -0.1801 -0.6651
 2344SOL     OW18493   3.297   0.546  13.107 -0.5490 -0.2814  0.0875
 2344SOL    HW118494   3.304   0.528  13.013  4.3885  1.1451  0.2156
 2344SOL    HW218495   3.302   0.460  13.149  1.7344 -0.5060 -0.6501
 2345SOL     OW18496   1.934   1.166  10.952 -0.2692 -0.0979  0.0506
 2345SOL    HW118497   1.854   1.178  10.902  0.7449  3.1819 -0.7407
 2345SOL    HW218498   1.953   1.248  10.996  0.8372 -0.2471 -0.1430
 2346SOL     OW18499   0.877   1.944  13.669 -0.3192  0.4279  0.3022
 2346SOL    HW118500   0.912   2.033  13.674  1.2922 -0.2612  1.5504
 2346SOL    HW218501   0.887   1.925  13.762 -0.0264  0.6982  0.3283
 2347SOL     OW18502   0.178   4.189   2.928  0.2732  0.5418  0.1582
 2347SOL    HW118503   0.178   4.096   2.905  0.8561  0.4319  0.5961
 2347SOL    HW218504   0.213   4.242   2.857  0.5004  1.5016  0.9776
 2348SOL     OW18505   2.731   4.101   3.983 -0.2398  0.4098 -0.0594
 2348SOL    HW118506   2.712   4.195   3.990  1.5124  0.8291 -1.0325
 2348SOL    HW218507   2.658   4.065   4.033 -1.6898  2.0286 -1.0083
 2349SOL     OW18508   4.614   2.029   8.689 -0.3142  0.6812 -0.2429
 2349SOL    HW118509   4.553   2.102   8.699 -2.1210 -0.8812  0.0552
 2349SOL    HW218510   4.618   2.026   8.593 -0.5990 -0.1299 -0.2288
 2350SOL     OW18511   1.786   0.949   8.104  0.2413 -0.3135 -0.7545
 2350SOL    HW118512   1.776   1.042   8.124  0.9484 -0.4846  0.3681
 2350SOL    HW218513   1.794   0.909   8.190 -1.5908  0.1824 -0.3488
 2351SOL     OW18514   4.575   4.162   4.837  0.5026 -0.2530  0.0233
 2351SOL    HW118515   4.614   4.084   4.798  0.5426 -0.2668  0.0908
 2351SOL    HW218516   4.506   4.172   4.772  0.6307  0.4479 -0.0069
 2352SOL     OW18517   0.141   1.728   4.589 -0.1144 -0.2583  0.2227
 2352SOL    HW118518   0.180   1.772   4.513 -1.1372 -1.3207 -0.9250
 2352SOL    HW218519   0.050   1.703   4.572  0.3092 -0.6323 -1.5325
 2353SOL     OW18520   3.142   2.393   5.971  0.1126 -0.1327  0.6229
 2353SOL    HW118521   3.122   2.373   6.063 -1.0978  0.5205  0.4990
 2353SOL    HW218522   3.061   2.429   5.937 -0.6069 -2.0616  0.2724
 2354SOL     OW18523   0.673   1.181   1.790 -0.0515  0.8652 -0.0477
 2354SOL    HW118524   0.594   1.223   1.823  0.5172  0.9786  1.1887
 2354SOL    HW218525   0.679   1.207   1.698 -1.1082 -0.9834 -0.6264
 2355SOL     OW18526   0.307   0.338   6.285 -0.2218 -0.3089 -0.4851
 2355SOL    HW118527   0.350   0.274   6.341 -0.7640 -0.0738  0.2077
 2355SOL    HW218528   0.294   0.411   6.345 -1.2360 -1.0203  0.1518
 2356SOL     OW18529   3.175   4.321   9.476  0.5704  0.2842 -0.1149
 2356SOL    HW118530   3.120   4.243   9.472  1.3031 -0.2966  1.2305
 2356SOL    HW218531   3.264   4.289   9.488 -0.2457 -1.8678  0.1856
 2357SOL     OW18532   2.137   3.707   3.919 -0.1313  0.1003  0.4428
 2357SOL    HW118533   2.127   3.675   3.829  1.4009  2.3065 -0.5199
 2357SOL    HW218534   2.081   3.652   3.973 -2.2457  2.9914  1.2040
 2358SOL     OW18535   2.103   3.350  11.459 -0.3948  0.1102 -0.1646
 2358SOL    HW118536   2.104   3.389  11.547 -0.2075 -0.7036  0.1958
 2358SOL    HW218537   2.158   3.274  11.474 -1.5268 -0.5926  0.4456
 2359SOL     OW18538   4.210   2.188   6.209 -0.1633 -0.4962  0.4301
 2359SOL    HW118539   4.167   2.188   6.124 -0.7117 -3.3997  0.6951
 2359SOL    HW218540   4.261   2.108   6.200 -1.8003 -1.4276 -0.5647
 2360SOL     OW18541   2.664   4.169  17.007  0.4075  0.5238  0.3582
 2360SOL    HW118542   2.669   4.106  16.934 -0.0156 -0.7081  1.3949
 2360SOL    HW218543   2.701   4.120  17.080  0.1095 -1.3518 -0.7477
 2361SOL     OW18544   3.303   4.307   7.982 -0.5777 -0.4624 -0.1944
 2361SOL    HW118545   3.273   4.269   7.899 -0.3150 -0.2801 -0.3723
 2361SOL    HW218546   3.273   4.238   8.041  1.7734  0.3934  1.9959
 2362SOL     OW18547   0.051   3.237  16.246  0.2031 -0.5182 -0.2389
 2362SOL    HW118548   0.146   3.230  16.260  0.2798  0.7213 -0.1483
 2362SOL    HW218549   0.039   3.163  16.187  0.4396 -0.8650  0.1492
 2363SOL     OW18550   0.917   0.947  17.116 -0.3731  0.5215 -0.4619
 2363SOL    HW118551   0.886   0.939  17.026  0.5731 -1.1754 -0.6432
 2363SOL    HW218552   0.853   0.889  17.157  0.0369 -1.2017 -2.2747
 2364SOL     OW18553   3.053   2.810   6.807  0.2028 -0.4859  0.1255
 2364SOL    HW118554   2.961   2.802   6.833  0.0691 -0.1413 -0.2409
 2364SOL    HW218555   3.062   2.905   6.820  2.3047 -0.1965 -3.4295
 2365SOL     OW18556   3.351   3.173   4.009  0.2875 -0.1560  0.1093
 2365SOL    HW118557   3.439   3.172   4.048 -0.1133 -0.0517  1.0243
 2365SOL    HW218558   3.298   3.154   4.087 -0.0233 -0.6876 -0.2314
 2366SOL     OW18559   3.481   2.489   5.350  0.1595  0.3202 -0.6179
 2366SOL    HW118560   3.512   2.436   5.423  0.6269  1.3187 -0.1055
 2366SOL    HW218561   3.557   2.544   5.331 -0.3828  1.4399  0.4934
 2367SOL     OW18562   2.525   4.075   5.369  0.2488 -0.0964 -0.3810
 2367SOL    HW118563   2.463   4.145   5.388  0.8524  0.0654  0.9420
 2367SOL    HW218564   2.475   3.997   5.343 -0.9127  0.6349 -0.3062
 2368SOL     OW18565   1.180   2.507  15.732  0.3620 -0.1482  0.1171
 2368SOL    HW118566   1.269   2.487  15.703  0.4444 -0.2723  0.4610
 2368SOL    HW218567   1.179   2.460  15.815  2.1425 -0.6469 -0.1447
 2369SOL     OW18568   0.761   2.514   9.317  0.3676 -0.5103 -0.1294
 2369SOL    HW118569   0.711   2.459   9.256 -0.5694  1.5975 -1.2559
 2369SOL    HW218570   0.787   2.444   9.378 -1.8102 -0.3017  1.0333
 2370SOL     OW18571   3.033   0.414   8.767  0.2086  0.0349 -0.1570
 2370SOL    HW118572   3.050   0.471   8.842 -1.7831 -0.6463  0.8177
 2370SOL    HW218573   3.108   0.354   8.768 -0.5794 -0.9574  0.0217
 2371SOL     OW18574   0.530   3.427  11.116  0.2396 -0.1858 -0.3348
 2371SOL    HW118575   0.616   3.419  11.157  0.8191  1.7191 -1.1811
 2371SOL    HW218576   0.481   3.482  11.176 -0.5536 -0.3086 -0.8761
 2372SOL     OW18577   0.363   3.042   9.978  0.9811  0.1578  0.2493
 2372SOL    HW118578   0.431   3.006   9.922  1.5377  0.7201  0.5585
 2372SOL    HW218579   0.321   3.085   9.904  0.4618  0.6853  0.8516
 2373SOL     OW18580   1.646   0.911   4.960  0.3440 -0.0283  0.7634
 2373SOL    HW118581   1.699   0.873   4.890 -0.7182  0.4940 -0.3246
 2373SOL    HW218582   1.580   0.955   4.905 -0.7497 -0.4079  1.7781
 2374SOL     OW18583   0.109   3.962   6.199  0.5459 -0.3626  0.1574
 2374SOL    HW118584   0.028   3.932   6.159 -0.6088  1.2783  1.2667
 2374SOL    HW218585   0.163   3.883   6.213  1.3189  0.1817  0.2709
 2375SOL     OW18586   1.745   3.972   6.581 -0.2133 -0.4195  0.2099
 2375SOL    HW118587   1.708   3.886   6.560  1.0111 -0.7800 -0.4843
 2375SOL    HW218588   1.715   3.975   6.672 -1.6004 -0.8508 -0.2340
 2376SOL     OW18589   1.188   0.585   6.684  0.4139 -0.2131 -0.2725
 2376SOL    HW118590   1.267   0.596   6.736 -0.1692  0.1231  0.5370
 2376SOL    HW218591   1.193   0.666   6.633 -2.1858 -0.5650 -1.1069
 2377SOL     OW18592   4.418   1.108   7.288  0.0657  0.0052 -0.6085
 2377SOL    HW118593   4.504   1.124   7.328 -0.4916  1.5855 -0.0275
 2377SOL    HW218594   4.407   1.015   7.308 -3.3095  0.5008 -0.1765
 2378SOL     OW18595   0.407   0.830   1.390  0.1569 -0.4163 -0.1580
 2378SOL    HW118596   0.473   0.772   1.351 -0.5598 -0.4584 -1.3259
 2378SOL    HW218597   0.456   0.852   1.468  0.2050  0.5500 -0.4650
 2379SOL     OW18598   4.641   1.799   3.853 -0.9589  0.3139  0.2053
 2379SOL    HW118599   4.705   1.735   3.821 -0.1715  0.7178  0.9529
 2379SOL    HW218600   4.578   1.808   3.781 -1.2333 -1.4401  0.2386
 2380SOL     OW18601   2.603   3.690   9.663  0.4117 -0.4117  0.4701
 2380SOL    HW118602   2.614   3.772   9.614  1.7751 -1.3001 -0.6921
 2380SOL    HW218603   2.567   3.724   9.745  0.8391 -1.1145  0.9510
 2381SOL     OW18604   3.349   3.067   3.020  0.1433  1.0152 -0.1589
 2381SOL    HW118605   3.438   3.062   2.986  0.2435  3.7237 -0.2746
 2381SOL    HW218606   3.304   3.026   2.946 -0.4007  1.3311 -0.0054
 2382SOL     OW18607   0.017   1.989   8.395 -0.1945 -0.4769  0.3064
 2382SOL    HW118608   0.096   1.936   8.409  0.5325 -0.3223 -3.2841
 2382SOL    HW218609   0.006   1.967   8.303 -0.3317  0.8322  0.0072
 2383SOL     OW18610   3.589   1.090   2.961  0.0290 -0.0530 -0.0547
 2383SOL    HW118611   3.510   1.066   2.913 -1.7896 -0.9055  3.3785
 2383SOL    HW218612   3.591   1.031   3.036 -0.3033 -0.2152 -0.1711
 2384SOL     OW18613   3.850   2.663   5.997  0.0361  0.4850 -0.2811
 2384SOL    HW118614   3.759   2.647   6.023  0.1570 -0.5271 -0.4854
 2384SOL    HW218615   3.893   2.587   6.037 -0.7928  0.4459  0.5508
 2385SOL     OW18616   3.078   2.000   7.281  0.4614  0.0637 -0.4435
 2385SOL    HW118617   3.092   2.089   7.314  1.4732 -0.7663  1.4254
 2385SOL    HW218618   3.154   1.958   7.323 -0.7630  0.2256  1.9333
 2386SOL     OW18619   3.081   3.273   0.113 -0.1548  0.3654 -0.0356
 2386SOL    HW118620   3.149   3.209   0.094  0.2990  0.8843 -0.1540
 2386SOL    HW218621   3.121   3.335   0.052  1.4180 -0.0956  0.5256
 2387SOL     OW18622   0.823   2.117  10.824 -0.2528 -0.2873  0.4024
 2387SOL    HW118623   0.891   2.160  10.773  0.4658  0.6995  2.2196
 2387SOL    HW218624   0.767   2.188  10.855  1.6500  0.3894  2.3153
 2388SOL     OW18625   2.087   1.307   5.179  0.2411  0.3547 -0.2257
 2388SOL    HW118626   2.031   1.246   5.130 -1.6389 -0.4315  2.8590
 2388SOL    HW218627   2.042   1.298   5.263 -1.4905  1.1927 -1.0561
 2389SOL     OW18628   4.484   3.312  15.813 -0.0814  0.4680 -0.1130
 2389SOL    HW118629   4.537   3.381  15.852  2.6064 -0.8878 -1.3726
 2389SOL    HW218630   4.452   3.357  15.734 -1.2345  2.2493  1.3836
 2390SOL     OW18631   0.954   2.648  12.036 -0.3487  0.5150 -0.1126
 2390SOL    HW118632   0.972   2.709  11.964 -0.7915 -0.5180 -1.0894
 2390SOL    HW218633   1.037   2.665  12.081  0.6260  1.2601 -2.1377
 2391SOL     OW18634   1.140   0.893   3.838  0.0207  0.8904 -0.2495
 2391SOL    HW118635   1.124   0.857   3.926 -1.7604  3.0870  0.3322
 2391SOL    HW218636   1.232   0.871   3.822  0.1748  0.5679  1.0183
 2392SOL     OW18637   1.225   3.696   5.566 -0.1428  0.0270 -0.1807
 2392SOL    HW118638   1.138   3.736   5.569 -0.6531 -1.1780  0.6553
 2392SOL    HW218639   1.201   3.607   5.542 -2.1192  0.3921  0.4370
 2393SOL     OW18640   3.703   2.416   8.996 -0.3882 -0.2959  0.8477
 2393SOL    HW118641   3.770   2.484   9.003 -2.3993  2.0054 -2.4155
 2393SOL    HW218642   3.743   2.330   9.009 -1.7797 -1.4417 -2.2931
 2394SOL     OW18643   3.925   0.929   0.039  0.4332  0.1639 -0.2141
 2394SOL    HW118644   3.951   1.002   0.095  1.8799 -0.8302  0.4028
 2394SOL    HW218645   3.847   0.903   0.089  1.1161  1.0770  1.3247
 2395SOL     OW18646   3.065   2.011  13.214 -0.6187  0.0117 -0.1822
 2395SOL    HW118647   3.113   2.050  13.287  0.2828 -0.0215 -0.7566
 2395SOL    HW218648   3.005   1.956  13.264 -1.4053 -0.9980 -2.2250
 2396SOL     OW18649   0.572   2.825   4.032 -0.2958 -0.6394 -0.2564
 2396SOL    HW118650   0.523   2.751   3.998  0.7203 -0.8871 -1.1973
 2396SOL    HW218651   0.662   2.816   3.999  0.1941  3.9071 -0.1686
 2397SOL     OW18652   1.497   1.191   5.153  0.7849  0.3478  0.2816
 2397SOL    HW118653   1.460   1.103   5.161  1.5624  0.0468  0.6015
 2397SOL    HW218654   1.563   1.185   5.222  0.2897 -0.6979  0.6677
 2398SOL     OW18655   0.395   2.197   4.781  0.0435  0.1672 -0.5001
 2398SOL    HW118656   0.361   2.114   4.748 -1.2060 -0.2957  1.9350
 2398SOL    HW218657   0.483   2.172   4.810  0.5822  2.5317 -0.0841
 2399SOL     OW18658   3.850   4.285   3.950 -0.5942 -0.2595  1.0924
 2399SOL    HW118659   3.866   4.366   3.902  1.1003 -1.5278 -0.4772
 2399SOL    HW218660   3.850   4.218   3.881 -0.4490 -0.5976  1.4183
 2400SOL     OW18661   1.010   2.114   0.042 -0.0796  0.6080 -0.2298
 2400SOL    HW118662   1.085   2.092   0.097 -0.3929  1.4382  0.5296
 2400SOL    HW218663   0.934   2.111   0.100 -0.5062 -1.6078 -0.8709
 2401SOL     OW18664   0.147   4.550   0.602  0.8569  0.2479 -0.0337
 2401SOL    HW118665   0.181   4.480   0.547 -0.9981 -0.9911  0.3981
 2401SOL    HW218666   0.182   4.534   0.690  0.5197 -0.9024 -0.1062
 2402SOL     OW18667   0.578   0.666   2.465 -0.0095 -0.4760 -0.8389
 2402SOL    HW118668   0.587   0.586   2.516  1.1389 -1.0951 -2.0207
 2402SOL    HW218669   0.643   0.732   2.489 -0.9966  0.1445  0.1205
 2403SOL     OW18670   1.854   2.736   0.515  0.3384 -0.3613  0.7045
 2403SOL    HW118671   1.796   2.664   0.539 -2.9500  1.6577 -1.2971
 2403SOL    HW218672   1.812   2.818   0.539 -0.6372  0.3141 -3.2279
 2404SOL     OW18673   4.070   3.541  16.058  0.3027 -0.0896  0.3503
 2404SOL    HW118674   4.136   3.582  16.002  1.7230 -1.2687  1.1282
 2404SOL    HW218675   4.080   3.581  16.145 -0.2771 -2.5787  1.5932
 2405SOL     OW18676   2.064   4.537   2.204  0.4763 -0.6718  0.5585
 2405SOL    HW118677   2.127   4.478   2.246 -0.6034 -1.6076  0.8712
 2405SOL    HW218678   2.116   4.575   2.134  0.5935 -0.0345  0.9851
 2406SOL     OW18679   0.444   4.188   3.113 -0.3905  0.3160  0.3601
 2406SOL    HW118680   0.450   4.107   3.062  0.6226  0.6219 -0.0051
 2406SOL    HW218681   0.402   4.242   3.046 -1.1578  0.9730  1.3848
 2407SOL     OW18682   3.445   3.652   6.728 -0.1455 -0.8782 -0.0816
 2407SOL    HW118683   3.461   3.640   6.821 -1.0369  0.0465  0.1951
 2407SOL    HW218684   3.515   3.607   6.680  0.0692 -0.6785  0.0435
 2408SOL     OW18685   3.165   2.547  14.175  0.2059  0.5385  0.5308
 2408SOL    HW118686   3.233   2.542  14.108 -0.7247  0.4526 -0.3934
 2408SOL    HW218687   3.098   2.567  14.110 -0.1837 -0.5594  0.5957
 2409SOL     OW18688   1.619   1.785   8.024  0.3224 -0.4348 -0.0297
 2409SOL    HW118689   1.714   1.789   8.012  0.6704  0.5578  2.9588
 2409SOL    HW218690   1.607   1.776   8.118  0.3779  0.6431  0.0855
 2410SOL     OW18691   3.167   3.206   9.488  0.1224  0.0848  0.3341
 2410SOL    HW118692   3.132   3.294   9.498 -1.4682 -0.5298  0.1399
 2410SOL    HW218693   3.257   3.212   9.455  0.2847 -1.4590  0.4734
 2411SOL     OW18694   4.248   1.619   9.266 -0.5007 -0.0287 -0.0663
 2411SOL    HW118695   4.233   1.544   9.208 -0.1264 -1.0625  1.1676
 2411SOL    HW218696   4.162   1.628   9.307 -1.4762  1.9621 -2.5487
 2412SOL     OW18697   3.892   3.383   2.609  0.0280  0.1596  0.4114
 2412SOL    HW118698   3.942   3.338   2.542 -1.4314 -0.6107 -0.1710
 2412SOL    HW218699   3.938   3.463   2.633  1.3400 -0.3260 -0.5415
 2413SOL     OW18700   1.575   3.383   6.765 -0.1990  0.2779 -0.1883
 2413SOL    HW118701   1.635   3.329   6.714 -1.3004  1.7912 -3.1148
 2413SOL    HW218702   1.553   3.442   6.693 -3.1932  0.4208  0.8448
 2414SOL     OW18703   1.340   2.953   0.375 -0.0714 -0.7712  0.3868
 2414SOL    HW118704   1.421   2.905   0.354  0.3240  0.3039 -0.5072
 2414SOL    HW218705   1.281   2.918   0.308  0.0153 -0.3090  0.0714
 2415SOL     OW18706   3.528   1.870   5.120  0.2555  0.4345 -0.5409
 2415SOL    HW118707   3.454   1.855   5.178  0.1580 -0.3091 -0.8571
 2415SOL    HW218708   3.575   1.933   5.175  0.5082 -0.8166  0.6712
 2416SOL     OW18709   0.076   1.219   2.993 -0.0620 -0.2661  0.3105
 2416SOL    HW118710   0.165   1.227   3.028  0.2004 -0.4424 -0.3085
 2416SOL    HW218711   0.095   1.240   2.901 -0.8163  0.7262  0.3849
 2417SOL     OW18712   2.057   3.536  15.876 -0.4800  1.1802  0.2200
 2417SOL    HW118713   2.078   3.570  15.789  0.2806  0.5819  0.1802
 2417SOL    HW218714   2.113   3.462  15.897 -1.1835  0.8472  0.9503
 2418SOL     OW18715   4.618   3.893   4.985 -0.6488 -0.6285  0.4558
 2418SOL    HW118716   4.566   3.817   4.958 -0.0770 -1.1026  0.6960
 2418SOL    HW218717   4.542   3.948   5.005  1.8059  2.6161  0.7117
 2419SOL     OW18718   2.425   3.407   7.113  0.2156  0.2488 -0.0676
 2419SOL    HW118719   2.349   3.422   7.057 -0.3408 -1.3249  0.2767
 2419SOL    HW218720   2.402   3.315   7.124 -1.6790  0.7564  0.2315
 2420SOL     OW18721   2.226   3.452  17.178 -0.0448  0.3266 -0.2783
 2420SOL    HW118722   2.203   3.374  17.228  0.3734 -0.0766 -0.7214
 2420SOL    HW218723   2.139   3.492  17.178 -0.0769  0.2542  0.0681
 2421SOL     OW18724   3.356   0.068   6.241 -0.0163 -0.0703 -0.7772
 2421SOL    HW118725   3.264   0.054   6.220 -0.2133 -0.4443  0.3216
 2421SOL    HW218726   3.399   4.714   6.199 -1.2200 -2.6919  2.6101
 2422SOL     OW18727   3.625   2.579  17.257 -0.7798 -0.5105  0.0356
 2422SOL    HW118728   3.638   2.490  17.290 -1.7068 -0.8897 -0.6156
 2422SOL    HW218729   3.575   2.614  17.330 -0.6330 -1.6876  0.6974
 2423SOL     OW18730   2.084   0.367   5.399  0.1943 -0.1853 -0.0582
 2423SOL    HW118731   2.054   0.455   5.420  0.6810 -0.1562  0.5122
 2423SOL    HW218732   2.082   0.330   5.488  0.0294 -0.7481 -0.2982
 2424SOL     OW18733   2.184   3.308  12.602  0.1654 -0.4768 -0.6031
 2424SOL    HW118734   2.139   3.327  12.520 -0.5561  1.7419  0.2927
 2424SOL    HW218735   2.262   3.262  12.571 -0.1395  0.0417 -2.1269
 2425SOL     OW18736   4.070   1.740  17.423 -0.3425  0.0115  0.0610
 2425SOL    HW118737   3.998   1.696  17.378 -2.7411  2.2951  1.6599
 2425SOL    HW218738   4.088   1.685  17.499 -0.4997  2.3446  1.7918
 2426SOL     OW18739   3.020   2.255   5.310 -0.4010  0.6459 -0.1904
 2426SOL    HW118740   3.069   2.180   5.275 -0.8966 -0.4744  1.5387
 2426SOL    HW218741   3.087   2.293   5.367  1.2985  1.6505 -2.8608
 2427SOL     OW18742   1.735   0.593   5.239 -0.0016  0.2718 -0.3416
 2427SOL    HW118743   1.772   0.544   5.165  1.2937 -2.4302  2.0688
 2427SOL    HW218744   1.657   0.538   5.246 -0.8976  1.3075 -2.2755
 2428SOL     OW18745   1.979   0.190   6.808  0.7169 -0.1008 -0.1282
 2428SOL    HW118746   2.040   0.169   6.879  0.3869 -0.1736  0.1319
 2428SOL    HW218747   1.987   0.285   6.793 -0.9392 -0.2234 -1.6816
 2429SOL     OW18748   1.085   3.250   9.952  0.0020  0.1869 -0.8573
 2429SOL    HW118749   1.098   3.156   9.964 -0.0087  0.1291 -1.2915
 2429SOL    HW218750   0.990   3.253   9.967 -0.3101 -0.3200 -2.6622
 2430SOL     OW18751   1.791   4.276   1.871 -0.0514 -0.2097  0.7754
 2430SOL    HW118752   1.868   4.328   1.895 -0.9007  1.2266  0.3635
 2430SOL    HW218753   1.722   4.292   1.936 -0.8658 -1.2531  0.1583
 2431SOL     OW18754   2.020   1.132   6.710 -0.2937  0.0790  0.3089
 2431SOL    HW118755   1.969   1.087   6.643 -0.5156  0.2587  0.3542
 2431SOL    HW218756   2.039   1.216   6.669 -2.7093  0.3313 -0.3037
 2432SOL     OW18757   2.984   4.670  15.866 -0.2828 -0.2614 -0.0534
 2432SOL    HW118758   2.972   4.706  15.778 -1.2695  0.1434  0.2489
 2432SOL    HW218759   2.896   4.675  15.903 -1.0759  1.0041 -2.1477
 2433SOL     OW18760   4.499   2.628   4.056  0.2095 -0.4630 -0.1859
 2433SOL    HW118761   4.446   2.593   3.985 -0.1148 -3.3872  1.5089
 2433SOL    HW218762   4.558   2.556   4.078  1.8499  0.6725 -0.8741
 2434SOL     OW18763   3.894   2.451   6.672  0.6462 -0.2712 -0.4218
 2434SOL    HW118764   3.863   2.398   6.745  3.5286 -2.6612 -0.9371
 2434SOL    HW218765   3.968   2.403   6.636  0.2935 -1.0505 -0.1127
 2435SOL     OW18766   1.169   2.513   3.959  0.5896  0.0808 -0.4260
 2435SOL    HW118767   1.225   2.436   3.947  0.5192 -0.0667  0.1744
 2435SOL    HW218768   1.227   2.580   3.995 -1.4745  1.9194 -0.4912
 2436SOL     OW18769   3.297   2.681   4.678  0.4300 -0.2339  0.1672
 2436SOL    HW118770   3.375   2.720   4.638  1.8459 -1.4468  1.7360
 2436SOL    HW218771   3.332   2.598   4.711 -0.5363 -0.0121  1.7608
 2437SOL     OW18772   0.899   2.328   5.898  0.2404 -0.0367 -0.1297
 2437SOL    HW118773   0.816   2.307   5.856 -0.7342  0.9416  1.3163
 2437SOL    HW218774   0.962   2.291   5.836  0.9478  2.5258 -0.9231
 2438SOL     OW18775   3.520   3.096  15.562 -0.4768  0.2155  0.3069
 2438SOL    HW118776   3.494   3.109  15.653 -3.0429 -0.4344 -0.3577
 2438SOL    HW218777   3.614   3.096  15.581 -0.6906 -0.5951  1.4103
 2439SOL     OW18778   4.209   0.441   1.054 -0.9723  0.9266 -0.3709
 2439SOL    HW118779   4.295   0.458   1.092 -1.8483 -0.9906  2.5369
 2439SOL    HW218780   4.223   0.351   1.023  0.3844  1.5166 -1.4834
 2440SOL     OW18781   1.116   1.672   9.422  0.0513 -0.0926  0.1787
 2440SOL    HW118782   1.037   1.617   9.420 -1.6151  2.2881  0.6787
 2440SOL    HW218783   1.082   1.737   9.361 -1.3159 -0.9484  0.0202
 2441SOL     OW18784   3.677   1.036   8.346  0.1410 -0.5493  0.4357
 2441SOL    HW118785   3.664   0.942   8.360  0.9440 -1.0909 -2.5728
 2441SOL    HW218786   3.587   1.064   8.364 -0.0847 -0.4980 -0.7887
 2442SOL     OW18787   3.780   0.895  14.924 -0.3453 -0.4087  0.7947
 2442SOL    HW118788   3.809   0.838  14.853  1.2589  1.8648 -0.3740
 2442SOL    HW218789   3.823   0.976  14.898 -3.1848  0.1519 -2.2148
 2443SOL     OW18790   3.532   3.761   8.822  0.2209  0.2883 -0.3495
 2443SOL    HW118791   3.626   3.761   8.804  0.4652  2.1861  1.0259
 2443SOL    HW218792   3.536   3.835   8.882 -1.2117  0.3421 -0.3202
 2444SOL     OW18793   4.682   2.421   9.032 -0.0111 -0.1772 -0.5740
 2444SOL    HW118794   4.715   2.508   9.054  2.0836 -0.9889 -0.5766
 2444SOL    HW218795   4.607   2.436   8.974  0.2697 -2.6638 -1.5947
 2445SOL     OW18796   2.257   2.615  17.435  0.6435  0.1801  0.6026
 2445SOL    HW118797   2.203   2.541  17.407 -0.6906  1.5037 -0.3418
 2445SOL    HW218798   2.340   2.577  17.465 -0.6436 -2.3453  0.9581
 2446SOL     OW18799   2.800   3.211   7.560 -0.7750  0.1567 -0.2137
 2446SOL    HW118800   2.710   3.242   7.559 -0.0145  2.4915  2.6936
 2446SOL    HW218801   2.834   3.257   7.637 -0.8645 -1.0940  0.5730
 2447SOL     OW18802   1.514   4.522  11.366 -0.0447 -0.4861  0.2617
 2447SOL    HW118803   1.522   4.441  11.417 -0.2928 -0.4071  0.4242
 2447SOL    HW218804   1.452   4.578  11.413  0.1521 -0.5518  0.5990
 2448SOL     OW18805   1.940   4.262   2.186  0.4755 -0.5450  0.1728
 2448SOL    HW118806   1.956   4.347   2.145 -2.3051 -0.1403 -0.0581
 2448SOL    HW218807   2.030   4.231   2.195 -0.3212 -2.0369  2.8881
 2449SOL     OW18808   4.581   1.332   5.355 -0.5782  0.2022  0.3629
 2449SOL    HW118809   4.591   1.360   5.264  2.8218 -3.0157 -0.2674
 2449SOL    HW218810   4.603   1.239   5.344 -1.8407  0.1923 -2.1327
 2450SOL     OW18811   0.837   4.621  12.133 -0.4413 -0.2116 -0.5866
 2450SOL    HW118812   0.768   4.665  12.183  2.7197  0.5290  3.1462
 2450SOL    HW218813   0.876   4.564  12.200  1.1193 -1.4473 -2.5666
 2451SOL     OW18814   4.628   0.689   8.205 -0.0967  0.3884 -0.0773
 2451SOL    HW118815   4.534   0.702   8.197 -0.8389 -2.5523  3.4661
 2451SOL    HW218816   4.658   0.751   8.139  0.5518 -1.5501 -1.6207
 2452SOL     OW18817   4.395   2.146   2.045 -0.1408  0.6697 -0.1443
 2452SOL    HW118818   4.311   2.190   2.047 -1.1820 -1.3104 -0.2131
 2452SOL    HW218819   4.376   2.054   2.028 -1.3980  0.5051  2.2598
 2453SOL     OW18820   2.159   1.554  14.824  0.1766  0.3573  0.2998
 2453SOL    HW118821   2.171   1.571  14.917 -0.2222 -0.1076  0.4386
 2453SOL    HW218822   2.066   1.533  14.819  0.1182  0.8130 -0.4721
 2454SOL     OW18823   2.973   3.323  16.064 -0.8783 -0.7564 -1.0433
 2454SOL    HW118824   3.027   3.366  16.131 -1.7074 -2.1129  0.4993
 2454SOL    HW218825   2.914   3.397  16.045 -2.0629 -1.4733 -0.1715
 2455SOL     OW18826   1.760   2.438   8.239  0.1846 -0.4502  0.1829
 2455SOL    HW118827   1.731   2.476   8.156  0.8219 -1.7695 -0.6418
 2455SOL    HW218828   1.684   2.389   8.269 -0.4571  0.0797 -0.5534
 2456SOL     OW18829   0.566   4.600   5.978  0.0980 -0.1823  1.0373
 2456SOL    HW118830   0.533   4.524   5.929 -1.3280  0.5988  0.7678
 2456SOL    HW218831   0.541   4.576   6.067 -1.2550 -1.6798  0.2702
 2457SOL     OW18832   1.150   3.861   5.265 -0.3616 -0.2263  0.2467
 2457SOL    HW118833   1.138   3.823   5.352  2.2529 -3.3853 -0.7613
 2457SOL    HW218834   1.158   3.779   5.215  0.7629  1.3552 -2.1409
 2458SOL     OW18835   1.401   1.195  12.286 -0.1935 -0.1308  0.0796
 2458SOL    HW118836   1.480   1.209  12.339  0.3949  2.6471 -1.5304
 2458SOL    HW218837   1.355   1.270  12.324  1.4396  0.2345  1.3544
 2459SOL     OW18838   2.888   1.086   8.006  0.2065 -0.6628  0.0500
 2459SOL    HW118839   2.963   1.115   8.057 -0.7616  1.6093  0.2120
 2459SOL    HW218840   2.872   1.164   7.953 -1.9325 -0.7108  0.6097
 2460SOL     OW18841   2.500   1.530   8.382  0.3998  0.4196 -0.4248
 2460SOL    HW118842   2.559   1.543   8.457 -0.9482  0.6213  0.5909
 2460SOL    HW218843   2.476   1.440   8.403 -0.2009  0.5126 -0.7374
 2461SOL     OW18844   4.293   4.652   8.300 -0.2810 -0.1284  0.3519
 2461SOL    HW118845   4.342   4.680   8.378  0.7816  0.4003 -0.5093
 2461SOL    HW218846   4.226   4.600   8.345 -0.4973  0.1338  0.3306
 2462SOL     OW18847   0.035   3.722   6.998  0.4755  0.1650  0.2073
 2462SOL    HW118848   0.003   3.702   6.909 -0.5647  1.2874  0.3324
 2462SOL    HW218849   0.052   3.816   6.995  0.2704  0.1298 -2.1336
 2463SOL     OW18850   1.977   1.225   6.040 -0.2271  0.1071 -0.0323
 2463SOL    HW118851   1.927   1.146   6.017 -2.1685  0.8552  1.5912
 2463SOL    HW218852   1.959   1.233   6.134 -0.1443  0.8180 -0.0828
 2464SOL     OW18853   3.417   0.678   4.257  0.0617 -0.3308  0.3660
 2464SOL    HW118854   3.354   0.640   4.318 -2.6867  3.4858 -0.1078
 2464SOL    HW218855   3.457   0.601   4.218 -0.5905 -0.5549  0.1444
 2465SOL     OW18856   3.507   3.374   7.663  0.4431  0.2497  0.3897
 2465SOL    HW118857   3.462   3.433   7.724 -1.6634 -0.4634 -0.4690
 2465SOL    HW218858   3.508   3.426   7.583  1.6940  0.2028  0.3781
 2466SOL     OW18859   2.133   0.534   7.750  0.3843 -0.7177  0.0462
 2466SOL    HW118860   2.138   0.611   7.807  0.1129 -0.7505  0.1154
 2466SOL    HW218861   2.038   0.522   7.747  0.6794 -2.8313 -0.4191
 2467SOL     OW18862   3.092   4.021   4.770 -0.4100 -0.0288 -0.4799
 2467SOL    HW118863   3.051   4.107   4.783  1.9139  0.7775  1.4911
 2467SOL    HW218864   3.046   3.967   4.834 -0.8076 -3.3539 -3.5369
 2468SOL     OW18865   4.434   2.294  10.512 -0.7672  0.0451  0.1455
 2468SOL    HW118866   4.524   2.276  10.487 -1.0708 -1.1414 -0.1253
 2468SOL    HW218867   4.404   2.206  10.488  2.4264 -0.7028 -1.0208
 2469SOL     OW18868   3.941   3.720  11.997  0.2456 -0.6929  0.0376
 2469SOL    HW118869   4.008   3.652  12.004  3.4313  2.3405 -1.1922
 2469SOL    HW218870   3.979   3.768  11.924  0.4630 -0.0690  0.5709
 2470SOL     OW18871   3.454   3.920   5.290  0.1214 -0.1061 -0.0072
 2470SOL    HW118872   3.375   3.971   5.309  0.4275 -0.3404  1.9834
 2470SOL    HW218873   3.426   3.849   5.232 -3.4446  0.9769  0.3660
 2471SOL     OW18874   3.369   0.860  17.184 -0.3825  0.0678 -0.2864
 2471SOL    HW118875   3.317   0.868  17.104 -0.5102  0.8852 -0.1173
 2471SOL    HW218876   3.460   0.860  17.155 -0.7556  1.2561 -1.4484
 2472SOL     OW18877   1.106   3.494   6.066  0.1497  0.2374 -0.8656
 2472SOL    HW118878   1.084   3.445   5.986 -1.3877 -1.0530  0.3441
 2472SOL    HW218879   1.173   3.558   6.041  1.4139  0.0838  2.1209
 2473SOL     OW18880   1.544   3.154   5.503  0.1789 -0.1201  0.1034
 2473SOL    HW118881   1.515   3.193   5.421  0.1132 -3.7952 -1.5937
 2473SOL    HW218882   1.464   3.121   5.545  0.2791  0.6233  0.8729
 2474SOL     OW18883   1.412   2.401  13.070 -0.2121  0.4560  0.1923
 2474SOL    HW118884   1.367   2.319  13.050 -0.8507  0.8995 -0.2236
 2474SOL    HW218885   1.471   2.413  12.996  0.3512  0.7845  0.6943
 2475SOL     OW18886   0.489   3.083   4.048  0.1610 -0.6277  0.0769
 2475SOL    HW118887   0.446   3.096   4.132  0.4496 -0.3044  0.1723
 2475SOL    HW218888   0.510   2.989   4.048 -0.1829 -0.7080  1.5144
 2476SOL     OW18889   2.300   2.190   5.456 -0.2926  0.3760 -0.3939
 2476SOL    HW118890   2.276   2.136   5.531 -2.9309  0.8916 -0.8750
 2476SOL    HW218891   2.289   2.130   5.383  0.1962 -0.1119 -0.0669
 2477SOL     OW18892   1.233   3.601   4.209 -0.6381 -0.4889 -0.2868
 2477SOL    HW118893   1.272   3.657   4.276 -0.9253 -1.2580  0.5216
 2477SOL    HW218894   1.210   3.665   4.142  0.3677  0.1928  0.0123
 2478SOL     OW18895   2.601   4.043   4.927 -0.3990  0.3875  0.6586
 2478SOL    HW118896   2.634   4.117   4.876 -2.6345  1.5752  0.9643
 2478SOL    HW218897   2.658   4.046   5.004 -0.2757  0.4291  0.5671
 2479SOL     OW18898   2.282   1.721   5.287  0.0322  0.0720  0.3071
 2479SOL    HW118899   2.253   1.655   5.350 -0.8417 -0.8281 -1.0659
 2479SOL    HW218900   2.375   1.698   5.287  0.1885  0.6896  1.9772
 2480SOL     OW18901   0.351   3.500   3.349 -0.6052  0.0921  0.5730
 2480SOL    HW118902   0.339   3.468   3.438 -0.6646 -0.0910  0.5001
 2480SOL    HW218903   0.404   3.578   3.362  0.7183 -0.7703  0.3676
 2481SOL     OW18904   2.510   4.608   5.394 -0.2780  0.2595 -0.4248
 2481SOL    HW118905   2.499   4.672   5.324  1.4824  0.2269 -0.7409
 2481SOL    HW218906   2.599   4.633   5.421 -0.9408  2.6696 -0.4794
 2482SOL     OW18907   3.909   0.546   0.358  0.1931  0.5153  0.2550
 2482SOL    HW118908   3.863   0.623   0.392  0.6411  0.4877  0.9208
 2482SOL    HW218909   3.900   0.485   0.432  0.4960 -1.4076 -1.2900
 2483SOL     OW18910   2.850   2.504   7.177 -0.5605 -0.5065  0.4562
 2483SOL    HW118911   2.780   2.530   7.117 -2.7238 -1.6173  2.5399
 2483SOL    HW218912   2.911   2.577   7.162 -1.2739 -0.0961 -0.5157
 2484SOL     OW18913   2.228   2.939   3.384  0.8269  0.3410  0.6137
 2484SOL    HW118914   2.168   2.993   3.334  1.1594 -0.2146 -0.3725
 2484SOL    HW218915   2.281   3.007   3.424  1.7678  0.5111 -0.9676
 2485SOL     OW18916   1.810   3.836   2.734 -0.3585  0.2107  0.6913
 2485SOL    HW118917   1.741   3.882   2.782 -0.9679  0.2171 -0.1958
 2485SOL    HW218918   1.815   3.890   2.656  0.5989 -0.7344  0.0999
 2486SOL     OW18919   1.046   0.879  11.319 -0.3674 -0.1204  0.2979
 2486SOL    HW118920   1.043   0.833  11.235  0.8186 -0.9635  0.7118
 2486SOL    HW218921   1.129   0.922  11.298  0.7163 -2.1535  0.4217
 2487SOL     OW18922   0.640   0.960   5.998  0.4335 -0.0500 -0.4458
 2487SOL    HW118923   0.643   0.944   5.904 -0.6306 -2.3981 -0.1006
 2487SOL    HW218924   0.548   0.987   6.007  1.0790  1.5081  1.4170
 2488SOL     OW18925   1.346   1.445   5.208 -0.1148  0.0434 -0.3628
 2488SOL    HW118926   1.405   1.371   5.195 -0.7407 -0.1621 -1.9925
 2488SOL    HW218927   1.268   1.409   5.166 -0.5020  0.9825 -0.4515
 2489SOL     OW18928   3.581   3.438   3.406 -0.0922  0.0537  0.1006
 2489SOL    HW118929   3.606   3.428   3.314  1.9283 -2.4029  0.8830
 2489SOL    HW218930   3.507   3.498   3.396 -0.3865 -0.1993  0.7990
 2490SOL     OW18931   2.591   1.048  12.090  0.0502 -0.5126 -0.8352
 2490SOL    HW118932   2.582   1.030  12.183  3.2167 -0.1516 -0.4758
 2490SOL    HW218933   2.685   1.063  12.086 -0.1094  0.7553  0.1361
 2491SOL     OW18934   4.182   2.277   7.769  0.0779  0.8406  0.0495
 2491SOL    HW118935   4.165   2.232   7.686 -3.8171  0.9905  0.7817
 2491SOL    HW218936   4.253   2.333   7.737 -0.0179 -1.4971 -4.2904
 2492SOL     OW18937   0.571   1.241   8.162 -0.1971 -0.0470  0.1779
 2492SOL    HW118938   0.501   1.294   8.125 -0.4991 -0.1149  0.6628
 2492SOL    HW218939   0.616   1.309   8.213 -0.0302 -1.3169  1.7319
 2493SOL     OW18940   4.056   2.958  11.439 -0.4423  0.2104  0.3080
 2493SOL    HW118941   4.058   3.053  11.431 -0.8833  0.0456 -1.6892
 2493SOL    HW218942   3.971   2.940  11.479 -1.4101  2.2860 -0.8586
 2494SOL     OW18943   1.175   0.356   7.121  0.5101  0.3144 -0.0860
 2494SOL    HW118944   1.146   0.335   7.032  1.9803 -0.5197 -0.3795
 2494SOL    HW218945   1.246   0.417   7.101  1.4828 -0.5879  0.6056
 2495SOL     OW18946   1.445   1.504   6.299  0.2888  0.2738  0.5941
 2495SOL    HW118947   1.537   1.489   6.279 -0.6689 -3.6411 -1.0119
 2495SOL    HW218948   1.428   1.550   6.217  0.7521  0.7808  0.7856
 2496SOL     OW18949   1.937   3.658   1.992  0.3785 -0.3829  0.6726
 2496SOL    HW118950   2.014   3.697   1.951 -0.4419 -0.4863 -0.9600
 2496SOL    HW218951   1.914   3.724   2.057 -0.9267 -1.6583  1.5082
 2497SOL     OW18952   2.161   2.706   8.889  0.1524  0.4248 -0.4296
 2497SOL    HW118953   2.108   2.700   8.968  1.1644  1.8635  0.3537
 2497SOL    HW218954   2.099   2.713   8.816  0.8171  0.1592 -1.0197
 2498SOL     OW18955   0.379   1.839   4.913  0.4204 -0.3125  0.1674
 2498SOL    HW118956   0.385   1.821   4.819 -0.5559  3.9108 -0.6916
 2498SOL    HW218957   0.300   1.788   4.932  0.9996 -0.7312  1.4679
 2499SOL     OW18958   2.518   1.117   4.601  0.1996  0.0407 -0.0940
 2499SOL    HW118959   2.478   1.052   4.658 -0.9527  0.1408 -0.7911
 2499SOL    HW218960   2.442   1.168   4.574 -0.2671 -1.1627 -1.0412
 2500SOL     OW18961   4.268   2.130  10.307  0.1257 -0.3647 -0.5126
 2500SOL    HW118962   4.232   2.132  10.218  0.0913 -0.4354 -0.5003
 2500SOL    HW218963   4.207   2.062  10.336  0.6805 -1.3924 -1.7834
 2501SOL     OW18964   2.767   1.329   5.102 -0.1981 -0.0984  0.2223
 2501SOL    HW118965   2.777   1.280   5.184 -1.0149 -0.6536 -0.0068
 2501SOL    HW218966   2.857   1.320   5.072 -0.3354  2.6383 -1.0177
 2502SOL     OW18967   2.045   3.569   5.457  0.1376 -1.1096  0.1387
 2502SOL    HW118968   1.963   3.570   5.408  0.8793 -1.0694 -1.0950
 2502SOL    HW218969   2.095   3.503   5.410 -0.5594 -1.1470 -0.5420
 2503SOL     OW18970   3.040   4.498  11.377  0.2230 -0.7151 -0.1289
 2503SOL    HW118971   2.953   4.534  11.358 -0.0485 -1.0630  0.4655
 2503SOL    HW218972   3.015   4.445  11.453  0.6250 -0.4304  0.2013
 2504SOL     OW18973   1.667   4.103   7.227  0.5076  0.6667 -0.1662
 2504SOL    HW118974   1.683   4.184   7.178 -1.4212  0.4207 -1.1857
 2504SOL    HW218975   1.739   4.046   7.200  0.3972  0.0210  0.8855
 2505SOL     OW18976   1.255   3.624   3.151  0.2367 -0.7679  0.2860
 2505SOL    HW118977   1.183   3.600   3.209 -0.0533  1.1695  0.7076
 2505SOL    HW218978   1.328   3.565   3.174 -0.9887 -2.6225 -0.5874
 2506SOL     OW18979   1.792   2.119   1.338  0.2172  0.4710 -0.2887
 2506SOL    HW118980   1.716   2.061   1.342  0.1661  0.6255  0.9750
 2506SOL    HW218981   1.856   2.080   1.398 -0.1240 -1.5910 -1.2496
 2507SOL     OW18982   2.054   3.806   0.471  0.4247  0.2549  0.0215
 2507SOL    HW118983   2.054   3.744   0.544  1.0101  1.3078  0.9213
 2507SOL    HW218984   1.965   3.801   0.437  1.2163 -0.2924 -1.9939
 2508SOL     OW18985   2.629   4.408  15.836 -0.6070  0.4988  0.4898
 2508SOL    HW118986   2.628   4.440  15.926  1.3413 -0.6440  0.9091
 2508SOL    HW218987   2.678   4.479  15.793  0.2174  0.8654  2.0573
 2509SOL     OW18988   1.053   4.061   6.868  0.3291 -0.1659  0.8695
 2509SOL    HW118989   1.034   4.104   6.951  0.6234 -0.5831  1.1539
 2509SOL    HW218990   0.966   4.070   6.829  0.7531 -2.5265 -0.6483
 2510SOL     OW18991   4.444   0.874  17.662 -0.3392 -0.4790  0.2665
 2510SOL    HW118992   4.453   0.966  17.636  2.3258 -0.9548 -0.4824
 2510SOL    HW218993   4.519   0.874   0.037  0.3099 -0.2971 -0.5446
 2511SOL     OW18994   0.818   1.971  12.729  0.5453  0.6048 -0.5832
 2511SOL    HW118995   0.732   2.007  12.707 -0.4477 -1.6778 -0.4101
 2511SOL    HW218996   0.876   2.036  12.690 -1.3312  1.5482 -1.8324
 2512SOL     OW18997   4.591   0.561  13.678  0.4200 -0.3104 -0.2680
 2512SOL    HW118998   4.535   0.552  13.755  0.1657 -1.5551 -0.5964
 2512SOL    HW218999   4.674   0.533  13.716  0.2598  0.5665  0.7366
 2513SOL     OW19000   0.774   1.258  16.537 -0.1331  0.3247  0.3553
 2513SOL    HW119001   0.679   1.260  16.540 -0.2214 -1.6234 -0.5288
 2513SOL    HW219002   0.797   1.176  16.581 -1.6789  0.8121  2.0258
 2514SOL     OW19003   4.613   0.724  15.712 -0.1788 -0.0086  0.2388
 2514SOL    HW119004   4.618   0.678  15.796 -0.8630  2.4816  1.6482
 2514SOL    HW219005   4.521   0.706  15.692 -0.1035 -0.7392  0.5284
 2515SOL     OW19006   0.251   2.558   1.070  0.2143  1.0440  0.4630
 2515SOL    HW119007   0.170   2.598   1.101  1.0300  3.0465  0.0214
 2515SOL    HW219008   0.221   2.485   1.015 -3.6247  2.0867  1.1656
 2516SOL     OW19009   1.134   0.423   3.662  0.0653 -0.4817  0.2409
 2516SOL    HW119010   1.091   0.499   3.703 -0.6462 -0.4995 -0.4593
 2516SOL    HW219011   1.224   0.423   3.693 -0.4758 -1.3239  1.8372
 2517SOL     OW19012   0.506   4.059   6.496  0.3386 -0.2652 -0.2028
 2517SOL    HW119013   0.468   4.043   6.410 -1.2107  1.8445  0.1105
 2517SOL    HW219014   0.577   4.116   6.466 -0.6842  0.6592 -0.8387
 2518SOL     OW19015   3.548   0.429   0.522 -0.3556  0.6220 -0.5192
 2518SOL    HW119016   3.552   0.520   0.494 -2.8188  1.4391  1.8009
 2518SOL    HW219017   3.640   0.404   0.516 -0.4038 -0.3946  3.0333
 2519SOL     OW19018   1.512   3.699   0.493 -0.1052  0.5341 -0.0370
 2519SOL    HW119019   1.595   3.674   0.452  0.1552 -0.1353  0.9162
 2519SOL    HW219020   1.537   3.739   0.576 -0.1507  1.5900 -0.5316
 2520SOL     OW19021   1.304   2.123   1.288 -0.8552 -0.0727 -0.2547
 2520SOL    HW119022   1.321   2.208   1.247  0.3836 -0.2583 -0.1010
 2520SOL    HW219023   1.243   2.149   1.358 -0.8883  2.8431 -1.3508
 2521SOL     OW19024   1.029   0.526   9.046  0.0091  0.2371 -0.0682
 2521SOL    HW119025   0.967   0.595   9.022 -0.5909  0.0863  1.0423
 2521SOL    HW219026   0.991   0.459   8.990 -1.5717  0.3885  0.8249
 2522SOL     OW19027   2.211   2.886   9.190 -0.0840 -0.0201 -0.6442
 2522SOL    HW119028   2.158   2.820   9.234 -0.9356  0.1340 -1.4445
 2522SOL    HW219029   2.240   2.937   9.267  0.5203 -1.8348  0.3390
 2523SOL     OW19030   0.109   1.119   6.183  0.4055  0.1715 -0.4616
 2523SOL    HW119031   0.081   1.113   6.092 -3.4620 -0.0576  0.7723
 2523SOL    HW219032   0.168   1.044   6.192  0.7118  0.1287 -2.8004
 2524SOL     OW19033   1.406   0.606  10.269  0.1055  0.3049 -0.0880
 2524SOL    HW119034   1.459   0.590  10.347  0.5167  1.5300 -0.1206
 2524SOL    HW219035   1.470   0.612  10.198  1.6168  1.5886  1.3846
 2525SOL     OW19036   0.459   2.119  14.968 -0.0765 -0.2125 -0.1394
 2525SOL    HW119037   0.507   2.202  14.968 -1.4867  0.6012 -1.6671
 2525SOL    HW219038   0.521   2.056  14.929 -0.6151 -1.3682  0.8696
 2526SOL     OW19039   1.921   3.786   1.697 -0.7919 -0.2058  0.5219
 2526SOL    HW119040   1.988   3.796   1.764 -0.8065  0.3764  0.4515
 2526SOL    HW219041   1.852   3.760   1.758 -0.4866 -0.5674  0.7049
 2527SOL     OW19042   0.178   4.086  14.989  0.2438 -0.3945  0.2512
 2527SOL    HW119043   0.092   4.057  15.021 -1.7470  2.9270 -2.1041
 2527SOL    HW219044   0.155   4.085  14.896 -0.3561  0.3530  0.3821
 2528SOL     OW19045   2.013   3.083   3.685 -0.3644  0.3023  0.5003
 2528SOL    HW119046   2.065   3.151   3.727 -2.9113  2.0557  0.7951
 2528SOL    HW219047   2.082   3.023   3.655 -1.0216 -1.7953  3.1953
 2529SOL     OW19048   2.737   2.470   9.159 -0.1522  0.1454 -0.1481
 2529SOL    HW119049   2.685   2.466   9.239  0.9222  0.9726  0.5848
 2529SOL    HW219050   2.822   2.473   9.203 -0.7563  0.7900  0.9819
 2530SOL     OW19051   4.482   4.210  11.176 -0.0464  0.3732  0.1526
 2530SOL    HW119052   4.512   4.209  11.085  0.8430  0.9317  0.4377
 2530SOL    HW219053   4.439   4.125  11.181  1.3947 -0.2872  1.1663
 2531SOL     OW19054   1.610   3.102  14.715 -0.5376  0.2601 -0.2491
 2531SOL    HW119055   1.586   3.182  14.668 -0.5080  1.4261  1.6626
 2531SOL    HW219056   1.525   3.080  14.753 -1.8096  2.1348 -1.9889
 2532SOL     OW19057   4.190   3.007   2.753  0.1407  0.3648 -0.0040
 2532SOL    HW119058   4.132   2.989   2.679  0.7209 -1.2903 -0.0672
 2532SOL    HW219059   4.201   2.920   2.792 -0.5080  0.2908  0.0204
 2533SOL     OW19060   2.537   4.158   7.633  0.3124 -0.5345 -0.1682
 2533SOL    HW119061   2.498   4.189   7.715 -1.5602  1.1602 -1.6921
 2533SOL    HW219062   2.469   4.173   7.567  1.3168  0.8408 -0.9010
 2534SOL     OW19063   0.776   2.658   0.158  0.0795  0.3563 -0.4244
 2534SOL    HW119064   0.724   2.587   0.194  1.5812 -0.6442 -0.2396
 2534SOL    HW219065   0.723   2.737   0.170 -2.1485 -1.0567 -1.0375
 2535SOL     OW19066   3.787   3.586   1.869 -0.1347 -0.2655 -0.1162
 2535SOL    HW119067   3.725   3.639   1.819  2.1797  2.2913 -0.3101
 2535SOL    HW219068   3.729   3.515   1.896  1.4182 -2.3756 -2.2544
 2536SOL     OW19069   1.712   0.995   3.921  0.3143 -0.6267 -0.0108
 2536SOL    HW119070   1.635   1.050   3.933  3.1723  2.9377  2.1959
 2536SOL    HW219071   1.685   0.905   3.934 -0.6027 -0.5020 -1.1121
 2537SOL     OW19072   2.954   1.255  15.043  0.6638  0.1305 -0.6855
 2537SOL    HW119073   2.895   1.263  15.118 -1.6091 -0.8729 -2.3555
 2537SOL    HW219074   2.982   1.165  15.054 -0.0994 -0.3399 -2.4347
 2538SOL     OW19075   0.126   2.779   8.483  0.8616  0.0549 -0.3348
 2538SOL    HW119076   0.195   2.769   8.418  0.3999  0.2350 -0.8465
 2538SOL    HW219077   0.171   2.826   8.554  0.1508  0.4799 -0.1739
 2539SOL     OW19078   3.687   0.905   5.464  0.3954 -0.0381 -0.3361
 2539SOL    HW119079   3.745   0.956   5.522 -2.1392  2.1757  0.2429
 2539SOL    HW219080   3.753   0.843   5.432  0.5026  0.0883 -0.3590
 2540SOL     OW19081   1.953   3.194  12.732 -0.3624 -0.5146 -0.1969
 2540SOL    HW119082   1.913   3.171  12.816 -1.3608 -0.4448 -0.6548
 2540SOL    HW219083   2.041   3.222  12.757 -0.9892 -0.4466  1.9465
 2541SOL     OW19084   3.499   1.132   2.418  0.2624  0.4332  0.2532
 2541SOL    HW119085   3.459   1.099   2.337  1.7589  1.3828 -0.8560
 2541SOL    HW219086   3.423   1.182   2.448 -0.6994 -0.7219 -0.2150
 2542SOL     OW19087   2.303   4.678   7.793  0.2540 -0.2913  0.0221
 2542SOL    HW119088   2.353   4.698   7.873  1.0988  0.6312 -0.7275
 2542SOL    HW219089   2.261   4.594   7.808 -2.0283  0.7015 -0.9374
 2543SOL     OW19090   4.488   0.938   8.836  0.0210  0.2935  0.1394
 2543SOL    HW119091   4.573   0.899   8.856  0.4612  1.1381 -0.0782
 2543SOL    HW219092   4.451   0.862   8.792 -0.5797  0.1420  0.9041
 2544SOL     OW19093   0.604   3.655   7.342 -0.6406 -0.3306  0.4836
 2544SOL    HW119094   0.542   3.659   7.415 -1.7709  1.3881 -0.5631
 2544SOL    HW219095   0.676   3.708   7.375  0.1773 -1.1331 -0.0290
 2545SOL     OW19096   2.681   4.503   8.282 -0.3190  0.0530 -0.2573
 2545SOL    HW119097   2.598   4.456   8.286 -0.2476 -0.1490 -1.1261
 2545SOL    HW219098   2.740   4.449   8.334  0.0416  2.9141  2.3334
 2546SOL     OW19099   0.762   3.097   4.577 -0.3440 -0.0792 -0.4802
 2546SOL    HW119100   0.822   3.131   4.644  0.4946 -1.3529 -0.5802
 2546SOL    HW219101   0.682   3.108   4.628 -0.3502  0.2188 -0.5565
 2547SOL     OW19102   0.747   2.227   1.562 -0.1281 -0.0668  0.2066
 2547SOL    HW119103   0.797   2.297   1.521  1.0743 -0.8476  0.3278
 2547SOL    HW219104   0.666   2.274   1.581  1.1725  2.9287 -1.7351
 2548SOL     OW19105   3.100   3.937   3.327  0.0174 -0.0253 -0.6470
 2548SOL    HW119106   3.074   3.943   3.419 -0.1633  1.5768 -0.7975
 2548SOL    HW219107   3.029   3.885   3.289  2.1474 -0.2895 -4.2664
 2549SOL     OW19108   2.909   4.639   5.713  0.4782 -0.0692  0.0514
 2549SOL    HW119109   2.859   4.615   5.792  0.1386  0.2223 -0.0719
 2549SOL    HW219110   2.836   4.655   5.653 -0.5742 -1.7103  0.8829
 2550SOL     OW19111   2.585   2.636   4.075 -0.4059 -0.2892  0.5653
 2550SOL    HW119112   2.550   2.557   4.033 -1.3949 -0.0250  0.8951
 2550SOL    HW219113   2.644   2.671   4.008 -0.4991 -0.6052  0.3178
 2551SOL     OW19114   4.082   0.555  13.620  0.5059 -0.2120 -0.2157
 2551SOL    HW119115   4.013   0.597  13.672  2.3527  2.0621  0.3954
 2551SOL    HW219116   4.138   0.629  13.598 -0.3030 -0.4941 -3.2316
 2552SOL     OW19117   4.242   1.150   1.199  0.1797  0.4406 -0.3646
 2552SOL    HW119118   4.280   1.231   1.234  0.1253  0.6325 -0.7510
 2552SOL    HW219119   4.153   1.145   1.235  0.7831  1.2419  1.2537
 2553SOL     OW19120   2.099   3.497   0.345 -0.4913 -0.1524  0.1107
 2553SOL    HW119121   2.122   3.519   0.435 -0.5177 -0.3906  0.1745
 2553SOL    HW219122   2.173   3.528   0.292 -1.0682 -0.0353 -0.6115
 2554SOL     OW19123   3.906   1.283   3.740  0.1741 -0.6449 -0.2695
 2554SOL    HW119124   3.984   1.229   3.750  1.4920  1.2948 -0.0592
 2554SOL    HW219125   3.937   1.368   3.710 -1.5034 -0.3380 -1.1250
 2555SOL     OW19126   1.179   3.827  11.779  0.2540 -0.1620  0.0011
 2555SOL    HW119127   1.103   3.881  11.757 -0.3513 -1.5925 -1.4740
 2555SOL    HW219128   1.132   3.771  11.841 -1.2287 -0.6357 -1.5638
 2556SOL     OW19129   2.904   0.364   6.702 -0.3679  0.6123 -0.4960
 2556SOL    HW119130   2.856   0.420   6.763  0.2034  1.1854 -0.5627
 2556SOL    HW219131   2.946   0.309   6.768  1.8910  1.9921 -0.7748
 2557SOL     OW19132   3.213   3.493   4.439  0.1639  0.3303  0.2213
 2557SOL    HW119133   3.156   3.416   4.437 -0.8580  1.0437  1.7738
 2557SOL    HW219134   3.300   3.457   4.425 -0.1090  0.5163 -1.9951
 2558SOL     OW19135   0.589   1.540  15.475  0.5162 -0.2401 -0.3463
 2558SOL    HW119136   0.552   1.618  15.434  0.0977  0.6319  1.7146
 2558SOL    HW219137   0.656   1.577  15.533 -0.3506  1.0362 -0.1711
 2559SOL     OW19138   1.510   4.169  14.672  0.1176  0.0433  0.2999
 2559SOL    HW119139   1.560   4.202  14.597 -3.1258  0.4206 -1.7144
 2559SOL    HW219140   1.522   4.239  14.737  0.3409  0.2976 -0.0171
 2560SOL     OW19141   1.541   0.376  16.969  0.1269 -0.5439 -0.2435
 2560SOL    HW119142   1.580   0.441  17.027 -1.0392  0.2303 -0.3287
 2560SOL    HW219143   1.623   0.341  16.932  0.3310  0.8125 -1.0436
 2561SOL     OW19144   0.868   3.005   8.502 -0.1162  0.2315 -0.1624
 2561SOL    HW119145   0.880   3.061   8.578 -0.7401  1.0650 -0.6743
 2561SOL    HW219146   0.804   3.059   8.456  0.2046 -0.1031 -1.0163
 2562SOL     OW19147   3.609   2.712   5.224 -0.1220 -0.7550 -0.4305
 2562SOL    HW119148   3.546   2.783   5.234  0.5787 -0.1162 -0.5427
 2562SOL    HW219149   3.572   2.668   5.147 -0.4941  2.3770 -2.0675
 2563SOL     OW19150   4.176   3.472   9.123  0.2222 -0.0162 -0.2245
 2563SOL    HW119151   4.188   3.564   9.102  0.3594 -0.2749 -1.3125
 2563SOL    HW219152   4.215   3.420   9.053 -0.9147 -1.6080  0.3249
 2564SOL     OW19153   1.342   1.932   0.577 -0.4418 -0.5438 -0.4205
 2564SOL    HW119154   1.361   1.961   0.666 -4.0267  0.1738  0.1132
 2564SOL    HW219155   1.344   2.020   0.540  1.4536 -0.2512  0.4073
 2565SOL     OW19156   4.228   3.055   7.537 -0.2736  0.1859 -0.5585
 2565SOL    HW119157   4.211   3.109   7.459  0.8477  0.7894 -0.3918
 2565SOL    HW219158   4.149   3.060   7.591 -1.4311  0.9993 -2.2850
 2566SOL     OW19159   0.132   4.027   8.581  0.5813 -0.2831  0.1707
 2566SOL    HW119160   0.079   4.006   8.505  0.2754  0.2547  0.2362
 2566SOL    HW219161   0.096   3.964   8.643 -1.3644 -1.1888 -1.9139
 2567SOL     OW19162   1.829   2.026  14.336  0.0721 -0.2434  0.2002
 2567SOL    HW119163   1.792   2.081  14.405  0.5128  0.3931 -0.0636
 2567SOL    HW219164   1.818   2.084  14.260  0.2506 -0.8977 -0.3312
 2568SOL     OW19165   1.299   0.927   9.046  0.2313  0.6436 -0.6483
 2568SOL    HW119166   1.225   0.872   9.071  0.7305 -0.4353 -1.5644
 2568SOL    HW219167   1.270   1.003   8.995 -1.4028  1.4901  1.5437
 2569SOL     OW19168   4.652   4.406   3.881  0.0808 -0.1612 -0.1242
 2569SOL    HW119169   4.625   4.491   3.914  1.5147 -0.3426  1.5182
 2569SOL    HW219170   0.011   4.427   3.832  0.0713 -1.4660 -0.7217
 2570SOL     OW19171   3.614   2.908   3.380  0.3122 -0.1749  0.0111
 2570SOL    HW119172   3.681   2.935   3.318 -0.1700  0.2007 -0.3436
 2570SOL    HW219173   3.648   2.931   3.466 -4.0053  0.0184  1.6685
 2571SOL     OW19174   3.164   0.049   0.198  0.3764  0.3804  1.0572
 2571SOL    HW119175   3.221   4.699   0.170 -0.3970 -0.2563  1.0896
 2571SOL    HW219176   3.077   0.010   0.208 -0.7995  3.2017  1.9949
 2572SOL     OW19177   2.909   2.528   5.536 -0.5090 -0.0988  0.2887
 2572SOL    HW119178   2.906   2.433   5.536  3.3073 -0.2162  1.5073
 2572SOL    HW219179   2.817   2.550   5.518 -0.2018  1.6387  0.7848
 2573SOL     OW19180   3.244   0.280   2.098 -0.5844 -0.3579 -0.1463
 2573SOL    HW119181   3.308   0.288   2.169 -0.9721 -0.7383  0.2480
 2573SOL    HW219182   3.282   0.335   2.030  0.4355  0.3031  0.9708
 2574SOL     OW19183   1.113   3.795  16.671 -0.3556 -0.2874  0.1635
 2574SOL    HW119184   1.204   3.777  16.694  0.7096  1.6031 -2.5817
 2574SOL    HW219185   1.064   3.749  16.739  0.9363 -2.2779 -0.2505
 2575SOL     OW19186   4.712   4.541   6.182 -0.2694 -1.1946 -0.0518
 2575SOL    HW119187   0.054   4.613   6.184 -1.9672  0.2596  1.3837
 2575SOL    HW219188   4.643   4.575   6.124  1.0459  1.0086 -0.3596
 2576SOL     OW19189   3.485   4.711   1.298 -0.2102 -0.0835  0.6224
 2576SOL    HW119190   3.446   4.657   1.229 -0.0885 -0.6641  0.9991
 2576SOL    HW219191   3.574   4.680   1.281  0.0687  1.1794 -0.1601
 2577SOL     OW19192   0.789   1.704  10.729 -0.4148  0.0288 -0.4411
 2577SOL    HW119193   0.778   1.767  10.800 -1.4743  0.3637 -0.9096
 2577SOL    HW219194   0.710   1.713  10.675 -1.3401  1.0367  1.0677
 2578SOL     OW19195   3.341   4.347   2.297 -0.8245 -0.2946 -0.1507
 2578SOL    HW119196   3.386   4.358   2.380 -0.3308  0.6354 -0.5422
 2578SOL    HW219197   3.417   4.337   2.240 -1.4979 -1.3093 -0.8930
 2579SOL     OW19198   2.007   2.587   1.566  0.1355  0.2613  0.1839
 2579SOL    HW119199   1.973   2.613   1.652 -0.0899  0.2664  0.0909
 2579SOL    HW219200   2.061   2.510   1.584 -0.4956 -0.5317 -1.3433
 2580SOL     OW19201   4.677   2.422   4.142  0.4463 -0.6833  0.1972
 2580SOL    HW119202   0.016   2.483   4.185  1.3405 -1.6277  0.2844
 2580SOL    HW219203   4.656   2.370   4.219  1.7005 -0.7559  0.4869
 2581SOL     OW19204   1.283   1.008   2.565  0.0868 -0.1987 -0.1701
 2581SOL    HW119205   1.256   0.921   2.594 -1.9626  1.4285  2.8311
 2581SOL    HW219206   1.247   1.021   2.477 -2.5599  0.1994  0.9550
 2582SOL     OW19207   2.902   3.741   1.950  0.3620 -0.5761  0.3848
 2582SOL    HW119208   2.978   3.701   1.992 -0.2617 -1.5916  0.5326
 2582SOL    HW219209   2.860   3.663   1.915  0.8207 -1.3191  1.5073
 2583SOL     OW19210   0.555   0.665  15.280  0.5326 -0.0758  0.1436
 2583SOL    HW119211   0.471   0.635  15.246 -0.8165  0.6366  2.9183
 2583SOL    HW219212   0.606   0.643  15.202 -0.3988 -0.3540 -0.3796
 2584SOL     OW19213   1.314   3.819   4.412  0.2479  0.5564 -0.1586
 2584SOL    HW119214   1.278   3.874   4.482  0.0494 -1.5905  1.4080
 2584SOL    HW219215   1.386   3.774   4.457  0.9663  3.3113  1.4578
 2585SOL     OW19216   4.219   4.291  10.266  0.3468  0.2186  0.0897
 2585SOL    HW119217   4.228   4.199  10.288  0.7938  0.5092  1.1064
 2585SOL    HW219218   4.298   4.333  10.300  0.7134  0.1653 -0.6918
 2586SOL     OW19219   0.220   3.573   4.358  0.1964 -0.7628 -0.3289
 2586SOL    HW119220   0.170   3.637   4.306  0.4623  1.0096  1.5836
 2586SOL    HW219221   0.148   3.523   4.397  0.4514 -1.4849 -0.7919
 2587SOL     OW19222   3.956   0.466   3.135 -0.5999  0.6793  0.5180
 2587SOL    HW119223   4.029   0.510   3.092 -1.6486  0.8299 -1.1065
 2587SOL    HW219224   3.896   0.540   3.145 -0.6969  0.9063 -1.8702
 2588SOL     OW19225   2.828   2.496  10.475 -0.4711  0.4632 -0.1160
 2588SOL    HW119226   2.880   2.573  10.500  0.5254 -0.8735  1.9237
 2588SOL    HW219227   2.892   2.437  10.436  0.9573  1.7685  0.2430
 2589SOL     OW19228   1.782   3.915  16.907 -0.2664  0.0852  0.6446
 2589SOL    HW119229   1.696   3.932  16.947 -0.3236 -1.4458  1.1594
 2589SOL    HW219230   1.773   3.903  16.813  1.1800 -0.9324  0.6498
 2590SOL     OW19231   1.781   3.958   6.876 -0.6347  0.6547 -0.0023
 2590SOL    HW119232   1.856   3.941   6.819 -1.0311  1.2581 -0.7039
 2590SOL    HW219233   1.776   3.871   6.916  3.2977  0.3782 -0.1015
 2591SOL     OW19234   1.444   2.437   0.553 -0.0291  0.1732 -0.8790
 2591SOL    HW119235   1.492   2.517   0.569 -0.0507  0.2613 -1.2671
 2591SOL    HW219236   1.356   2.467   0.531 -0.9918 -1.5326  0.6082
 2592SOL     OW19237   1.444   1.422  11.213 -0.7390  0.1568  0.4318
 2592SOL    HW119238   1.530   1.379  11.208 -0.6395  0.3794  0.2402
 2592SOL    HW219239   1.433   1.431  11.308 -0.7372  0.4920  0.4011
 2593SOL     OW19240   0.454   0.854   6.992 -0.2844  0.1576 -0.3342
 2593SOL    HW119241   0.484   0.815   6.910 -1.7156 -1.9694  0.1502
 2593SOL    HW219242   0.521   0.807   7.042  3.7608  3.4066 -2.6514
 2594SOL     OW19243   1.562   3.402   2.155  0.0556  0.6525  0.5447
 2594SOL    HW119244   1.581   3.308   2.144 -1.0079  0.5869 -0.8304
 2594SOL    HW219245   1.626   3.436   2.092 -2.4728  1.0922 -1.7618
 2595SOL     OW19246   2.757   3.464  17.104 -0.1123 -0.2117  0.3672
 2595SOL    HW119247   2.693   3.482  17.173 -2.5903  1.3638 -2.3411
 2595SOL    HW219248   2.780   3.375  17.129  2.5049  1.3777  3.6398
 2596SOL     OW19249   2.378   4.034   0.367  0.3002  1.1498  0.0354
 2596SOL    HW119250   2.311   3.983   0.321  0.2668  0.6793  0.5993
 2596SOL    HW219251   2.347   4.025   0.457  0.6720 -0.5407  0.0086
 2597SOL     OW19252   4.060   1.534   5.597 -0.5224 -0.0006  0.2086
 2597SOL    HW119253   4.092   1.612   5.641  0.3489  1.1060 -2.3788
 2597SOL    HW219254   3.972   1.520   5.632 -0.9144  1.1548 -0.3189
 2598SOL     OW19255   1.752   2.852  13.718 -0.7061 -0.6329 -0.1857
 2598SOL    HW119256   1.683   2.919  13.720  0.9248  1.0527  0.3249
 2598SOL    HW219257   1.779   2.866  13.809  0.2655  1.5584 -0.8210
 2599SOL     OW19258   0.662   3.101   6.622 -0.1654  0.0424 -0.6658
 2599SOL    HW119259   0.596   3.032   6.621  0.1183 -0.2106 -2.1854
 2599SOL    HW219260   0.706   3.096   6.537 -1.7310  0.2395 -1.4888
 2600SOL     OW19261   3.000   1.328   8.906 -0.4242 -0.4176 -0.4446
 2600SOL    HW119262   2.936   1.396   8.885 -1.3451 -1.0278  0.3758
 2600SOL    HW219263   2.968   1.282   8.984 -0.8923 -1.8403 -1.4660
 2601SOL     OW19264   4.598   3.221   8.190  0.9581  0.3335  0.0183
 2601SOL    HW119265   4.536   3.165   8.144  1.6183  0.4870 -1.0649
 2601SOL    HW219266   4.681   3.190   8.153  1.0158 -1.1795  1.4508
 2602SOL     OW19267   0.212   3.732   4.055 -0.0808  0.7773  0.4145
 2602SOL    HW119268   0.159   3.657   4.029  0.9102  0.0976  0.3555
 2602SOL    HW219269   0.203   3.779   3.973  0.9629  0.2122 -0.0163
 2603SOL     OW19270   1.348   1.962   9.715  0.2744  0.2899 -0.4425
 2603SOL    HW119271   1.357   2.053   9.687 -0.7075  1.6310  3.4915
 2603SOL    HW219272   1.439   1.944   9.739  0.2240  2.7912  1.6369
 2604SOL     OW19273   1.205   1.539   5.424 -0.6127 -0.2669  0.1566
 2604SOL    HW119274   1.118   1.575   5.404 -0.5197 -0.3932 -0.4598
 2604SOL    HW219275   1.243   1.516   5.340  0.2035  0.5162  0.3019
 2605SOL     OW19276   4.588   2.869   7.316 -0.1664 -0.1570  0.5993
 2605SOL    HW119277   4.502   2.860   7.358  0.4492 -0.8795  1.7091
 2605SOL    HW219278   4.566   2.866   7.223 -2.8343  2.7736  1.1303
 2606SOL     OW19279   3.478   0.070   7.914  0.2065  0.4894 -0.2292
 2606SOL    HW119280   3.390   0.033   7.921  0.8585 -0.1871  4.5492
 2606SOL    HW219281   3.535   4.715   7.919  0.1804  0.4192 -1.0623
 2607SOL     OW19282   1.103   1.405  11.115  0.1524 -0.1093 -0.4740
 2607SOL    HW119283   1.087   1.465  11.188  0.8283  1.1609 -1.3663
 2607SOL    HW219284   1.088   1.323  11.161 -1.4680  0.5174  0.1336
 2608SOL     OW19285   3.429   4.203  12.539 -0.1748 -0.0217 -0.0474
 2608SOL    HW119286   3.333   4.205  12.529 -0.2452 -1.4268  0.4586
 2608SOL    HW219287   3.445   4.114  12.567 -0.9891  0.1931  1.1291
 2609SOL     OW19288   2.389   2.419   1.928  0.7260 -0.0688  0.1609
 2609SOL    HW119289   2.445   2.474   1.874 -0.7648 -0.3668 -1.7252
 2609SOL    HW219290   2.452   2.359   1.968  0.3485 -1.0315 -0.6866
 2610SOL     OW19291   3.448   0.938   6.687 -0.3111 -0.6218  0.3995
 2610SOL    HW119292   3.512   0.927   6.758 -1.3471  1.4786  1.6610
 2610SOL    HW219293   3.510   0.974   6.624  1.1640  2.1237  3.3770
 2611SOL     OW19294   3.231   1.699   5.918  0.4749  0.2809 -0.8723
 2611SOL    HW119295   3.214   1.704   5.824 -0.9277 -0.3415 -0.6453
 2611SOL    HW219296   3.283   1.778   5.929  1.0806  0.0496 -2.0310
 2612SOL     OW19297   3.967   2.236   8.130  0.1749 -0.4885 -0.1194
 2612SOL    HW119298   4.023   2.160   8.151  1.6417  1.0361  1.5623
 2612SOL    HW219299   3.933   2.200   8.049 -1.1917 -0.8846  0.6270
 2613SOL     OW19300   4.447   1.777   2.530 -0.3908  0.0409  0.2396
 2613SOL    HW119301   4.443   1.738   2.442  0.2384  0.7456 -0.0994
 2613SOL    HW219302   4.432   1.867   2.501  0.3584 -0.6628 -2.3511
 2614SOL     OW19303   4.512   4.487   2.703 -0.2661 -0.6510 -0.1626
 2614SOL    HW119304   4.434   4.434   2.717  0.1518 -0.7887  1.6701
 2614SOL    HW219305   4.569   4.455   2.773  0.9183 -0.6970 -1.1513
 2615SOL     OW19306   1.804   4.673  10.127 -0.8853  0.4769  0.0047
 2615SOL    HW119307   1.788   0.013  10.055 -1.2363  1.3049  0.7817
 2615SOL    HW219308   1.730   4.684  10.187 -0.5552  0.2967  0.4461
 2616SOL     OW19309   1.042   1.826   6.702 -0.4231  0.4230 -0.4415
 2616SOL    HW119310   0.963   1.849   6.652  0.2889  1.2708 -1.1735
 2616SOL    HW219311   1.065   1.909   6.744  1.1671 -0.9357  1.3589
 2617SOL     OW19312   4.050   2.214   3.408 -0.3285 -0.3340  0.3430
 2617SOL    HW119313   4.046   2.305   3.437  2.3016  0.1457 -0.8054
 2617SOL    HW219314   3.967   2.215   3.361  1.2637 -0.1919 -2.4745
 2618SOL     OW19315   1.422   0.760   6.367 -0.3746  0.4853  0.5640
 2618SOL    HW119316   1.427   0.713   6.284  3.0968  0.3184  0.8624
 2618SOL    HW219317   1.505   0.730   6.405  0.0040  1.7149  0.7098
 2619SOL     OW19318   2.986   0.739   4.820  0.1362 -0.2273 -0.3626
 2619SOL    HW119319   2.964   0.754   4.912 -0.2450 -0.8186 -0.3602
 2619SOL    HW219320   3.055   0.805   4.812  0.9077 -1.1045 -0.9898
 2620SOL     OW19321   1.236   3.331   8.294 -0.2314 -0.0104 -0.4977
 2620SOL    HW119322   1.178   3.272   8.342 -0.0609  1.0100  0.9860
 2620SOL    HW219323   1.317   3.340   8.345 -0.8729  2.5597  0.0797
 2621SOL     OW19324   4.400   3.747   5.680  0.5007 -0.2551 -0.0879
 2621SOL    HW119325   4.331   3.685   5.656  0.3141  0.8682 -2.4716
 2621SOL    HW219326   4.455   3.764   5.604  1.2119 -1.4876  0.1436
 2622SOL     OW19327   1.164   0.805   7.333 -0.2829 -0.0795 -0.3042
 2622SOL    HW119328   1.146   0.890   7.293  0.8257  0.9892  1.4171
 2622SOL    HW219329   1.167   0.747   7.257  0.4568 -1.2542  0.6047
 2623SOL     OW19330   2.806   2.897   8.997 -0.1754 -0.3485  0.0836
 2623SOL    HW119331   2.876   2.959   8.979 -0.8906  0.6615  0.8397
 2623SOL    HW219332   2.811   2.889   9.092 -5.0672 -0.9449  0.2990
 2624SOL     OW19333   3.492   2.336   9.997 -0.1863  0.0894  0.2035
 2624SOL    HW119334   3.529   2.358  10.082  0.2525 -3.1020  0.8044
 2624SOL    HW219335   3.401   2.366  10.003 -1.1272 -2.4951 -1.2411
 2625SOL     OW19336   0.975   0.563  16.271  0.4033 -0.6673 -0.3206
 2625SOL    HW119337   1.034   0.549  16.197 -1.5890 -1.7503 -1.7059
 2625SOL    HW219338   1.016   0.517  16.343  1.6682  1.1988  0.1577
 2626SOL     OW19339   1.699   3.696   3.085 -0.3683  0.4554  0.0741
 2626SOL    HW119340   1.694   3.747   3.004  0.8115  0.2727 -0.1025
 2626SOL    HW219341   1.772   3.737   3.132  1.0950 -0.8376 -1.0682
 2627SOL     OW19342   3.011   4.527  16.550  0.1570  0.4961 -0.0940
 2627SOL    HW119343   3.042   4.618  16.553  1.4826  0.1207 -2.0265
 2627SOL    HW219344   3.066   4.500  16.476 -1.1434 -0.4100 -0.7272
 2628SOL     OW19345   0.965   1.203   4.621  0.2020 -0.1930  0.3162
 2628SOL    HW119346   0.887   1.256   4.639 -0.7077 -1.2990 -0.3568
 2628SOL    HW219347   0.984   1.231   4.531  0.2768  1.0404  0.7231
 2629SOL     OW19348   1.875   0.486   2.580 -0.6672 -0.4338  0.0829
 2629SOL    HW119349   1.929   0.460   2.505 -0.5613 -0.5102  0.1852
 2629SOL    HW219350   1.860   0.578   2.558 -2.1343 -0.9324 -0.9754
 2630SOL     OW19351   4.641   4.410   2.935 -0.3277  0.0320 -0.4102
 2630SOL    HW119352   4.583   4.401   3.010 -1.5096 -1.5928 -1.5202
 2630SOL    HW219353   4.716   4.461   2.965  0.8402 -2.4355  0.8799
 2631SOL     OW19354   2.426   0.038   2.352 -0.0249 -0.0354  0.3748
 2631SOL    HW119355   2.493   0.054   2.286 -0.5092  0.8269  0.1022
 2631SOL    HW219356   2.386   0.122   2.331  0.5966  0.4891  1.2700
 2632SOL     OW19357   3.519   3.933   1.566  0.3544  0.1318  0.3245
 2632SOL    HW119358   3.444   3.958   1.620  0.7764 -0.6553  1.2654
 2632SOL    HW219359   3.464   3.922   1.488  0.8122  0.5947 -0.0626
 2633SOL     OW19360   3.129   0.212  15.459  0.5410  0.3395  0.7826
 2633SOL    HW119361   3.128   0.214  15.555  0.7153  2.1033  0.7536
 2633SOL    HW219362   3.192   0.283  15.446  2.5455 -1.8135 -1.2675
 2634SOL     OW19363   3.931   3.239   4.395  0.0144 -0.1781  0.3897
 2634SOL    HW119364   3.987   3.298   4.446 -0.5098  0.6981 -0.0357
 2634SOL    HW219365   3.983   3.159   4.406  0.7524  0.0601 -1.2926
 2635SOL     OW19366   2.064   3.673   6.300  0.2550 -0.0230 -0.1914
 2635SOL    HW119367   2.089   3.593   6.253 -0.7473 -0.1980 -0.4096
 2635SOL    HW219368   2.087   3.746   6.242 -1.5235 -1.4991 -2.7370
 2636SOL     OW19369   2.783   4.716   2.825 -0.0519 -0.3222  1.1401
 2636SOL    HW119370   2.736   4.635   2.844 -0.4444  0.0655  1.8167
 2636SOL    HW219371   2.873   4.690   2.807 -0.6458 -1.6351  0.0241
 2637SOL     OW19372   3.441   3.763   4.620 -0.2104  0.2869 -0.1503
 2637SOL    HW119373   3.348   3.746   4.631  0.5825 -2.2710  2.3693
 2637SOL    HW219374   3.482   3.686   4.658 -1.5547  0.3560  1.4268
 2638SOL     OW19375   3.398   1.986   6.464 -0.0991 -0.0658 -0.2872
 2638SOL    HW119376   3.485   1.966   6.430 -0.5866  1.7125 -2.5906
 2638SOL    HW219377   3.387   1.981   6.559  1.8510 -2.1431 -0.1625
 2639SOL     OW19378   1.543   1.964   1.379 -0.9429 -0.2753  0.0087
 2639SOL    HW119379   1.570   1.877   1.410  0.6287  0.3229  0.3555
 2639SOL    HW219380   1.471   1.985   1.438 -1.5078  1.6478 -1.3650
 2640SOL     OW19381   1.482   2.267   2.683  0.1975 -0.6968 -0.3737
 2640SOL    HW119382   1.549   2.302   2.742  0.9199 -0.2694 -1.4517
 2640SOL    HW219383   1.440   2.215   2.751 -2.1526  2.2148  0.4247
 2641SOL     OW19384   2.038   4.128  13.995 -0.1636  0.0780  0.0744
 2641SOL    HW119385   2.011   4.060  14.056  0.0651  0.4674  0.6115
 2641SOL    HW219386   1.956   4.152  13.951 -0.6182  0.3155  1.0471
 2642SOL     OW19387   4.104   2.162   9.026  0.0744  0.2565 -0.1620
 2642SOL    HW119388   4.152   2.245   9.038 -0.4189  0.5210 -0.0113
 2642SOL    HW219389   4.166   2.103   9.067 -0.1238  0.2825  0.1715
 2643SOL     OW19390   3.603   3.568   1.648  0.6967 -0.1007  0.3254
 2643SOL    HW119391   3.669   3.598   1.586  1.3879 -0.4460  0.8976
 2643SOL    HW219392   3.574   3.490   1.600  0.6756  0.5446 -0.6843
 2644SOL     OW19393   1.664   2.359   3.927 -0.2051  0.2649  0.1750
 2644SOL    HW119394   1.671   2.333   3.835 -1.3813  2.0434 -0.4131
 2644SOL    HW219395   1.757   2.377   3.942 -0.7199  1.8482  1.4969
 2645SOL     OW19396   0.764   4.395   4.055 -0.0281 -0.1634  0.1056
 2645SOL    HW119397   0.807   4.480   4.059  2.1340 -1.1655 -2.2134
 2645SOL    HW219398   0.673   4.418   4.035 -0.6176 -1.3107  1.4786
 2646SOL     OW19399   2.486   4.249  14.143 -0.1082 -0.3469  0.0680
 2646SOL    HW119400   2.544   4.173  14.149  0.5642  0.1986  0.4904
 2646SOL    HW219401   2.404   4.213  14.176 -1.3091  2.5996  0.2764
 2647SOL     OW19402   2.574   3.396  15.324 -0.9184  0.1799 -0.5602
 2647SOL    HW119403   2.536   3.468  15.273  0.0688 -0.2038 -1.8516
 2647SOL    HW219404   2.506   3.332  15.341 -0.9114 -0.5485 -3.3055
 2648SOL     OW19405   3.025   4.087   2.789 -0.6217 -0.1567  0.1768
 2648SOL    HW119406   3.081   4.067   2.864  0.5555  0.0939 -0.6391
 2648SOL    HW219407   3.083   4.148   2.744  2.3627 -2.2892  1.0942
 2649SOL     OW19408   3.101   3.136   3.437  0.8141  0.5670  0.7801
 2649SOL    HW119409   3.156   3.100   3.368 -0.8377 -0.9275  0.2630
 2649SOL    HW219410   3.137   3.223   3.457 -0.7574  1.2683  0.5883
 2650SOL     OW19411   0.646   3.781   6.773 -0.1760  0.3266  0.3739
 2650SOL    HW119412   0.686   3.829   6.700  3.1322  1.2571  2.8222
 2650SOL    HW219413   0.724   3.733   6.800 -0.0774 -0.6655 -1.7220
 2651SOL     OW19414   3.510   2.725  11.562 -0.2949 -0.0549 -0.3887
 2651SOL    HW119415   3.510   2.813  11.601 -1.6465 -0.5179  0.6624
 2651SOL    HW219416   3.448   2.748  11.493 -0.3470  1.1413  0.0519
 2652SOL     OW19417   4.604   3.154   4.429  0.2469  0.1322  0.6881
 2652SOL    HW119418   4.624   3.141   4.337 -1.2864 -0.4384  0.4269
 2652SOL    HW219419   4.509   3.146   4.433  0.2481  0.4219  1.3673
 2653SOL     OW19420   1.574   0.774   0.052 -0.5414  0.3999 -0.4713
 2653SOL    HW119421   1.589   0.751  17.645 -0.2482 -0.2941 -0.2558
 2653SOL    HW219422   1.598   0.866   0.062 -3.0676  1.3113 -2.9601
 2654SOL     OW19423   2.802   0.215   6.443  0.0789 -0.6629  0.2531
 2654SOL    HW119424   2.829   0.134   6.486  1.9554  0.3848  1.0530
 2654SOL    HW219425   2.750   0.247   6.517  0.9495 -1.3277  1.1625
 2655SOL     OW19426   0.815   0.056   5.901  0.1803  0.2249  0.6469
 2655SOL    HW119427   0.832   0.077   5.993 -0.9858 -1.3070  1.2084
 2655SOL    HW219428   0.742   4.716   5.913  0.8884 -0.9272 -0.7981
 2656SOL     OW19429   2.217   3.202   9.164 -0.4943  0.0557 -0.4074
 2656SOL    HW119430   2.179   3.217   9.251 -0.2920  2.4546 -0.7182
 2656SOL    HW219431   2.307   3.233   9.172  0.2351 -2.2328  0.2573
 2657SOL     OW19432   3.118   3.408   2.380  0.3409 -0.3245  0.2566
 2657SOL    HW119433   3.101   3.363   2.297 -0.7973 -1.5008  1.1358
 2657SOL    HW219434   3.044   3.380   2.434  1.6285  1.6416  3.0424
 2658SOL     OW19435   1.124   4.483   0.522 -0.5151 -0.7046 -0.0765
 2658SOL    HW119436   1.085   4.523   0.444  0.4356 -0.8129 -0.6113
 2658SOL    HW219437   1.070   4.523   0.590  0.5859 -2.3703  1.7727
 2659SOL     OW19438   1.873   3.734   9.305  0.3786  0.0474 -0.2897
 2659SOL    HW119439   1.914   3.803   9.357  0.8793 -0.9799  0.6768
 2659SOL    HW219440   1.790   3.777   9.285 -0.0271 -0.4433  0.3261
 2660SOL     OW19441   3.476   1.314   4.264 -0.0422 -0.6334  0.6249
 2660SOL    HW119442   3.528   1.392   4.245  0.9538 -1.2160  0.9661
 2660SOL    HW219443   3.543   1.279   4.323  0.7722 -0.8343 -0.4390
 2661SOL     OW19444   4.647   1.176   7.451  0.0847  0.1598  0.7574
 2661SOL    HW119445   4.711   1.229   7.498 -0.6467  0.5331  1.3387
 2661SOL    HW219446   4.693   1.092   7.445  0.5082  0.4359  0.1309
 2662SOL     OW19447   2.222   1.665   7.168  0.8433 -0.1971  0.4815
 2662SOL    HW119448   2.136   1.631   7.191  0.4118  0.2392 -0.4973
 2662SOL    HW219449   2.221   1.756   7.198  1.1149 -0.2882  0.7711
 2663SOL     OW19450   1.002   2.532  11.534 -0.0574  0.5641 -0.3604
 2663SOL    HW119451   0.941   2.520  11.462 -2.4741  0.3253  1.7202
 2663SOL    HW219452   1.065   2.462  11.518  0.2650  1.4064 -2.7360
 2664SOL     OW19453   1.513   0.615  15.893  0.2750  1.0521  0.2049
 2664SOL    HW119454   1.433   0.645  15.935 -0.1536  0.8289 -0.4555
 2664SOL    HW219455   1.492   0.522  15.883 -2.4413  1.5660  1.2648
 2665SOL     OW19456   0.035   2.880  13.012  0.0531  0.1980  0.4348
 2665SOL    HW119457   0.099   2.933  12.965  1.4747 -0.6572  1.3946
 2665SOL    HW219458   4.691   2.858  12.946 -0.3401 -2.0857  1.5657
 2666SOL     OW19459   4.323   1.264   1.455 -0.3616  0.0294 -0.0405
 2666SOL    HW119460   4.385   1.292   1.388  1.9001 -2.2498  1.0876
 2666SOL    HW219461   4.350   1.176   1.480 -0.2175 -0.1924 -0.9808
 2667SOL     OW19462   3.096   3.125   4.190 -0.5632  0.0017  1.0523
 2667SOL    HW119463   3.036   3.198   4.175  3.8355  2.9953 -1.7289
 2667SOL    HW219464   3.031   3.054   4.195 -0.1146 -0.4244  0.8873
 2668SOL     OW19465   1.959   2.752   4.945 -0.0578  0.6185 -0.1567
 2668SOL    HW119466   1.907   2.704   5.010  1.3815  0.9600  1.2582
 2668SOL    HW219467   2.015   2.819   4.985 -0.2392  0.3323  0.5843
 2669SOL     OW19468   1.905   4.259   3.764  0.0393 -0.7130  0.1802
 2669SOL    HW119469   2.000   4.252   3.756 -0.0735  2.5485 -3.8361
 2669SOL    HW219470   1.889   4.173   3.727 -0.8253 -0.5581  0.1795
 2670SOL     OW19471   0.655   0.861  13.804 -0.2244 -0.1383  0.2259
 2670SOL    HW119472   0.632   0.793  13.740  0.7411  0.2705 -0.5580
 2670SOL    HW219473   0.569   0.890  13.832 -0.4974  1.7611 -2.5330
 2671SOL     OW19474   4.590   2.434   3.811  0.0149 -0.0477 -1.0898
 2671SOL    HW119475   4.557   2.412   3.724 -1.1538 -0.0002 -0.6598
 2671SOL    HW219476   4.511   2.466   3.855  0.4942 -0.2171 -0.1023
 2672SOL     OW19477   4.038   3.481   4.598 -0.0974 -0.6763  0.2532
 2672SOL    HW119478   4.008   3.560   4.553  0.7492 -0.9454 -0.7870
 2672SOL    HW219479   4.132   3.497   4.608  0.1117 -1.5206 -0.3137
 2673SOL     OW19480   4.140   0.076  16.621 -0.2878  0.0369  0.2433
 2673SOL    HW119481   4.196   0.069  16.699 -1.6174  0.9298  1.2713
 2673SOL    HW219482   4.188   0.011  16.570 -2.0053 -1.0589  0.0332
 2674SOL     OW19483   2.563   0.023   4.080  0.0939 -0.2918  0.4521
 2674SOL    HW119484   2.572   0.118   4.091  0.9914 -0.4146  0.8143
 2674SOL    HW219485   2.472   0.007   4.057  0.9964  0.2029 -3.3905
 2675SOL     OW19486   3.060   1.278   2.362  0.1513  0.3561  0.4087
 2675SOL    HW119487   3.030   1.345   2.300 -0.5982 -1.0371 -0.7198
 2675SOL    HW219488   3.042   1.195   2.318  0.6758  0.3958  0.1137
 2676SOL     OW19489   1.158   4.240  15.725 -0.1609 -0.0922  0.2440
 2676SOL    HW119490   1.159   4.323  15.677  3.7115 -1.2336 -1.6877
 2676SOL    HW219491   1.222   4.185  15.679  0.8782  1.5858 -0.3202
 2677SOL     OW19492   3.228   3.988  12.442 -0.0582 -0.1291 -0.0949
 2677SOL    HW119493   3.291   3.930  12.399  2.4040  1.4026  1.4264
 2677SOL    HW219494   3.253   3.976  12.533  1.4908 -0.5036 -0.5708
 2678SOL     OW19495   3.803   4.578   5.541  0.7475  0.4488 -0.0121
 2678SOL    HW119496   3.813   4.672   5.554 -2.0514  0.6755  0.5189
 2678SOL    HW219497   3.829   4.563   5.450  0.8635  0.2006  0.0614
 2679SOL     OW19498   3.577   2.637   1.803  0.6778 -0.1498 -0.3344
 2679SOL    HW119499   3.530   2.610   1.882  0.7472  3.2059  0.8211
 2679SOL    HW219500   3.533   2.582   1.738 -2.3331  2.5330 -0.5639
 2680SOL     OW19501   2.477   3.905   9.157 -0.0556  0.1170  0.3328
 2680SOL    HW119502   2.411   3.883   9.091  1.5393 -0.6524 -1.0052
 2680SOL    HW219503   2.501   3.993   9.128  2.3078 -0.8490 -0.5843
 2681SOL     OW19504   4.611   1.491   4.052 -0.4961  0.5883 -0.0984
 2681SOL    HW119505   4.544   1.439   4.097 -0.7570  1.7355  0.8193
 2681SOL    HW219506   4.591   1.483   3.959  1.7990  0.8269 -0.6195
 2682SOL     OW19507   3.111   1.944   3.012 -0.8915 -0.0878 -0.3140
 2682SOL    HW119508   3.146   1.966   2.926 -1.9610 -0.0648 -0.7419
 2682SOL    HW219509   3.126   2.031   3.048 -0.2904 -0.4420  0.2927
 2683SOL     OW19510   2.699   3.195   4.414  0.2859 -0.2013  0.2847
 2683SOL    HW119511   2.722   3.177   4.505 -1.6629  2.0554  1.2025
 2683SOL    HW219512   2.655   3.115   4.385  2.2258 -0.4696 -1.9697
 2684SOL     OW19513   3.461   4.602   7.338 -0.1721  0.3772 -0.2217
 2684SOL    HW119514   3.538   4.619   7.392  0.1510 -0.4597 -0.4287
 2684SOL    HW219515   3.465   4.672   7.273  0.5144 -0.7733 -1.4141
 2685SOL     OW19516   2.234   3.358   3.125 -0.1544  0.1889  0.8430
 2685SOL    HW119517   2.167   3.293   3.145 -1.0234  1.3269  1.6156
 2685SOL    HW219518   2.301   3.298   3.093 -1.6467 -0.1726 -1.5337
 2686SOL     OW19519   3.772   4.526   0.456  0.9816 -0.6862 -0.2094
 2686SOL    HW119520   3.864   4.540   0.434  0.9208  2.2902  1.4369
 2686SOL    HW219521   3.784   4.496   0.546 -0.6510 -1.1120 -0.1355
 2687SOL     OW19522   2.731   1.736   4.511 -0.1963  0.0280 -0.2578
 2687SOL    HW119523   2.751   1.787   4.432 -1.7579 -1.5740 -1.6675
 2687SOL    HW219524   2.665   1.795   4.548  0.1537 -0.4448  1.1124
 2688SOL     OW19525   3.741   2.063   6.765  0.4889  0.3347 -0.0054
 2688SOL    HW119526   3.657   2.098   6.734  0.7181  0.8418 -0.0517
 2688SOL    HW219527   3.701   2.020   6.841 -2.0896  0.6511 -1.1701
 2689SOL     OW19528   1.932   1.090  12.159 -0.1681 -0.1274  0.4356
 2689SOL    HW119529   2.017   1.105  12.118  0.1430 -3.4454 -0.1514
 2689SOL    HW219530   1.885   1.173  12.161 -2.8165 -1.6535  1.9143
 2690SOL     OW19531   0.872   0.198   1.114 -0.3817  0.0207 -0.3182
 2690SOL    HW119532   0.889   0.111   1.079 -0.3804 -0.0637 -0.1118
 2690SOL    HW219533   0.937   0.194   1.184  0.8159 -0.2443 -1.4494
 2691SOL     OW19534   0.642   3.026   3.004 -0.6617 -0.2953  0.4722
 2691SOL    HW119535   0.677   2.938   3.013  1.1629  0.4090  0.2891
 2691SOL    HW219536   0.581   3.021   2.930  0.6100  1.5875 -0.7007
 2692SOL     OW19537   4.161   0.767   0.050  0.5676  0.4019  0.0751
 2692SOL    HW119538   4.253   0.794   0.050  0.6727  0.0368  0.6881
 2692SOL    HW219539   4.153   0.710   0.126 -0.0722  1.2047  0.6112
 2693SOL     OW19540   1.952   2.545  17.143  0.6974  0.2669  0.3510
 2693SOL    HW119541   1.875   2.493  17.119  0.9841  0.4288 -0.8957
 2693SOL    HW219542   1.964   2.497  17.226  1.9072  0.5614  0.3419
 2694SOL     OW19543   4.210   3.591   2.543 -0.6506  0.6804 -0.1220
 2694SOL    HW119544   4.221   3.685   2.524 -2.5581  1.0454  0.6115
 2694SOL    HW219545   4.141   3.598   2.608 -1.2851 -0.6977 -0.6566
 2695SOL     OW19546   3.685   1.330   6.804 -0.3766 -0.0522 -0.2444
 2695SOL    HW119547   3.689   1.401   6.868 -0.1991  0.8993 -1.3009
 2695SOL    HW219548   3.723   1.378   6.730  2.9470  0.1846  1.6054
 2696SOL     OW19549   3.022   2.435   5.110 -0.4407 -0.8604 -0.2838
 2696SOL    HW119550   3.017   2.354   5.161 -2.0397  0.8098  2.2632
 2696SOL    HW219551   3.115   2.454   5.120 -0.8107  0.6137  0.4054
 2697SOL     OW19552   1.681   2.187   6.474 -0.0865 -0.1174  0.5049
 2697SOL    HW119553   1.659   2.096   6.495  0.1558 -0.5523 -1.1589
 2697SOL    HW219554   1.652   2.190   6.383  0.6236  0.6980  0.3096
 2698SOL     OW19555   1.188   2.961  12.279 -0.1120 -0.1536 -0.5257
 2698SOL    HW119556   1.186   3.055  12.295  0.5007 -0.1953 -0.2156
 2698SOL    HW219557   1.235   2.937  12.359 -0.8397  0.0550 -0.0438
 2699SOL     OW19558   3.344   0.192   3.281 -0.6453 -0.2032  0.3377
 2699SOL    HW119559   3.370   0.264   3.338 -0.5514  0.7558 -0.9275
 2699SOL    HW219560   3.251   0.180   3.302 -0.6123  1.4238  1.4147
 2700SOL     OW19561   0.776   4.642  15.504  0.1850  0.6479  0.5668
 2700SOL    HW119562   0.714   4.673  15.571  0.4873  0.1685  1.0693
 2700SOL    HW219563   0.827   4.588  15.563  0.4244 -0.9485 -1.1192
 2701SOL     OW19564   4.328   0.184   7.318  0.0874 -0.7915 -0.3256
 2701SOL    HW119565   4.270   0.112   7.297 -2.0074  0.9677 -0.5850
 2701SOL    HW219566   4.269   0.259   7.321 -1.8435 -2.2538 -2.1379
 2702SOL     OW19567   2.404   2.786  14.037 -0.0309  0.3796  0.1606
 2702SOL    HW119568   2.417   2.763  13.945 -2.0303 -1.7558  0.4349
 2702SOL    HW219569   2.398   2.695  14.064 -1.8836  0.6150  0.4770
 2703SOL     OW19570   4.316   1.834   5.487 -0.2036  0.2172 -0.7800
 2703SOL    HW119571   4.401   1.802   5.515 -1.8402 -1.1876  2.5536
 2703SOL    HW219572   4.257   1.789   5.548  2.5132  0.1428  1.7993
 2704SOL     OW19573   2.937   0.574   6.490  0.5877  0.2106 -0.0083
 2704SOL    HW119574   2.961   0.518   6.416  2.5667  0.7923  0.1818
 2704SOL    HW219575   2.924   0.500   6.549  1.7530 -0.0422 -0.0623
 2705SOL     OW19576   4.388   1.176   8.929  0.2186  0.0901  0.1256
 2705SOL    HW119577   4.442   1.099   8.914  0.4061 -0.1616  2.0750
 2705SOL    HW219578   4.315   1.160   8.869  0.1057 -2.4736  0.9621
 2706SOL     OW19579   4.667   0.893  12.847  0.2288 -0.3944 -0.8305
 2706SOL    HW119580   0.028   0.863  12.808  0.6599  0.7311 -0.7861
 2706SOL    HW219581   4.681   0.882  12.941 -0.7912  1.4811 -0.4658
 2707SOL     OW19582   1.703   3.231   1.893 -0.2813 -0.2386  0.1357
 2707SOL    HW119583   1.627   3.190   1.934  0.1798 -0.8773  0.3424
 2707SOL    HW219584   1.694   3.320   1.927 -0.6206  0.3001 -1.3369
 2708SOL     OW19585   4.023   3.324   9.683 -0.3143  0.1055  0.4027
 2708SOL    HW119586   4.013   3.400   9.740 -1.3654 -0.4310  0.9182
 2708SOL    HW219587   3.987   3.354   9.600 -1.3326 -0.6619  0.5680
 2709SOL     OW19588   3.057   0.182   3.301  0.0690 -0.0640 -0.6338
 2709SOL    HW119589   3.027   0.271   3.321  0.6953  0.5141 -2.2535
 2709SOL    HW219590   3.071   0.153   3.392 -0.2282  1.0852 -0.2273
 2710SOL     OW19591   3.695   0.339   5.620  0.2238 -0.4360 -0.1939
 2710SOL    HW119592   3.693   0.430   5.590 -1.5254  0.2332  1.9453
 2710SOL    HW219593   3.651   0.356   5.703 -0.2847  1.4781 -0.8464
 2711SOL     OW19594   3.130   2.295  15.491 -0.1189  0.0152  0.2423
 2711SOL    HW119595   3.153   2.279  15.583 -0.4587  0.8128  0.4712
 2711SOL    HW219596   3.036   2.276  15.490  0.0718 -0.8621 -0.1002
 2712SOL     OW19597   4.289   1.790   9.483 -0.6522 -0.4461 -0.3599
 2712SOL    HW119598   4.251   1.876   9.466 -0.7427 -0.9326 -2.5900
 2712SOL    HW219599   4.309   1.761   9.394  2.3423 -0.5056  0.3260
 2713SOL     OW19600   2.832   0.823   7.775 -0.2457 -0.3254  0.5228
 2713SOL    HW119601   2.925   0.844   7.777 -0.1422 -0.8299  1.0103
 2713SOL    HW219602   2.819   0.804   7.868  0.0178  1.0996  0.8568
 2714SOL     OW19603   3.596   3.489   1.249 -0.1180  0.4651 -0.2860
 2714SOL    HW119604   3.675   3.541   1.233  1.7070 -1.6950  1.6738
 2714SOL    HW219605   3.602   3.419   1.184 -2.3133  1.6234 -1.7348
 2715SOL     OW19606   2.822   1.889   7.032 -0.3643  0.0388  0.4716
 2715SOL    HW119607   2.808   1.866   7.124 -2.2955  0.3738  0.2669
 2715SOL    HW219608   2.794   1.981   7.031 -0.2508  0.0674 -0.0594
 2716SOL     OW19609   2.271   0.453  10.797  0.3147  0.3051 -0.6415
 2716SOL    HW119610   2.219   0.464  10.875 -1.3656 -1.4542 -1.5269
 2716SOL    HW219611   2.357   0.473  10.833 -0.6763  0.8614  1.3584
 2717SOL     OW19612   0.535   4.268   3.706  0.1697 -0.1253 -0.3017
 2717SOL    HW119613   0.474   4.258   3.633 -2.0611  0.2710  1.5300
 2717SOL    HW219614   0.484   4.281   3.786  1.4728  1.2400  0.2966
 2718SOL     OW19615   1.852   2.666   1.812 -0.0102  0.5351 -0.0430
 2718SOL    HW119616   1.807   2.585   1.834 -1.0707  1.4649  1.1999
 2718SOL    HW219617   1.796   2.698   1.741  0.0208 -0.3588 -0.4767
 2719SOL     OW19618   4.514   1.079   0.185 -0.4125  0.1757  0.5919
 2719SOL    HW119619   4.591   1.040   0.227  0.4700  1.0990 -0.1556
 2719SOL    HW219620   4.554   1.136   0.120 -0.1813 -1.3421 -0.5799
 2720SOL     OW19621   2.311   2.474  15.820  0.2171 -0.2059 -0.2545
 2720SOL    HW119622   2.223   2.491  15.852  1.2386  1.3408  1.6513
 2720SOL    HW219623   2.356   2.493  15.901  0.2060  1.3340 -0.6082
 2721SOL     OW19624   2.991   1.217   6.211 -0.1074  0.3461 -0.4951
 2721SOL    HW119625   3.036   1.141   6.248  0.1231  0.1360 -1.1986
 2721SOL    HW219626   2.917   1.190   6.157 -0.5342  1.4025 -0.4430
 2722SOL     OW19627   3.958   1.738   3.161  0.0964  0.1854 -0.2469
 2722SOL    HW119628   3.882   1.681   3.150  1.5397 -1.7646 -0.1401
 2722SOL    HW219629   4.022   1.673   3.190 -2.4950 -1.8072  1.0112
 2723SOL     OW19630   0.790   3.424   2.312  0.2414  0.1906  0.3763
 2723SOL    HW119631   0.881   3.451   2.307  0.5709 -0.9783  0.1694
 2723SOL    HW219632   0.801   3.339   2.353  1.1147  0.0747 -0.1101
 2724SOL     OW19633   3.056   2.033   3.585 -0.2587  0.1365 -0.3838
 2724SOL    HW119634   3.053   2.056   3.492 -0.8848 -0.0871 -0.4187
 2724SOL    HW219635   3.068   2.122   3.620 -0.5163 -0.4525  1.1682
 2725SOL     OW19636   2.094   3.276  12.325  0.1610 -0.2785 -0.5417
 2725SOL    HW119637   2.150   3.297  12.250 -0.9642 -0.6600 -1.4902
 2725SOL    HW219638   2.145   3.195  12.336 -1.1867 -0.8756  1.2479
 2726SOL     OW19639   2.637   2.393   7.334  0.7202  0.1766 -0.2183
 2726SOL    HW119640   2.724   2.432   7.327  0.2407  1.1326 -0.8423
 2726SOL    HW219641   2.643   2.341   7.414 -1.3326  1.1337  0.5686
 2727SOL     OW19642   3.469   3.004  15.309 -0.5135 -0.1090 -0.2792
 2727SOL    HW119643   3.464   3.033  15.401 -4.1049  0.9545 -0.8184
 2727SOL    HW219644   3.559   3.031  15.292  0.3543 -2.4111  0.5381
 2728SOL     OW19645   1.063   2.038   2.629 -0.4367 -0.0260  0.3474
 2728SOL    HW119646   1.076   1.958   2.578 -0.3333  0.0115  0.3135
 2728SOL    HW219647   1.141   2.087   2.603 -0.8783  0.6134  0.2462
 2729SOL     OW19648   3.521   3.867   4.954  0.0141  0.1736  0.4417
 2729SOL    HW119649   3.540   3.798   5.017 -0.3046 -0.9341 -0.6513
 2729SOL    HW219650   3.429   3.844   4.937  0.4274 -0.1835 -1.3261
 2730SOL     OW19651   3.219   2.019   2.763 -0.2134 -0.1461 -0.6181
 2730SOL    HW119652   3.178   2.093   2.717 -1.1858  0.6898  1.5467
 2730SOL    HW219653   3.307   2.017   2.727  0.1745 -0.6040  0.3361
 2731SOL     OW19654   4.306   0.634   0.804  0.0292  0.4600 -0.3905
 2731SOL    HW119655   4.370   0.688   0.850  0.6501 -0.2101 -0.4780
 2731SOL    HW219656   4.236   0.631   0.869 -0.4118 -2.0950 -0.9977
 2732SOL     OW19657   3.848   2.401  11.450 -0.1449  0.4399 -0.1763
 2732SOL    HW119658   3.892   2.388  11.534  0.8407  0.4389 -0.6835
 2732SOL    HW219659   3.883   2.327  11.400 -0.8369 -1.0050  1.4875
 2733SOL     OW19660   1.279   0.394   2.292  0.1893 -0.1159  0.9007
 2733SOL    HW119661   1.293   0.317   2.346 -1.9972  0.2547  2.0022
 2733SOL    HW219662   1.298   0.366   2.202  1.7126 -0.1954  1.2518
 2734SOL     OW19663   1.617   1.060   7.070 -0.5814  0.2529 -0.6472
 2734SOL    HW119664   1.549   1.098   7.014 -0.6386  1.1086 -0.0085
 2734SOL    HW219665   1.610   0.966   7.055  1.8271  0.3231 -2.2230
 2735SOL     OW19666   2.173   3.349   1.828  1.1724 -0.4356 -0.5653
 2735SOL    HW119667   2.093   3.313   1.865  0.1379 -0.2950 -2.6759
 2735SOL    HW219668   2.225   3.270   1.816 -0.9749 -1.6788 -1.6352
 2736SOL     OW19669   0.023   4.614   7.158  0.2026  0.3087 -0.5375
 2736SOL    HW119670   4.681   4.678   7.189 -0.7585  0.1890 -2.2302
 2736SOL    HW219671   0.018   4.542   7.222  1.0815  0.7807  0.0632
 2737SOL     OW19672   3.257   3.351  13.359  0.2654 -0.3613 -0.1306
 2737SOL    HW119673   3.340   3.378  13.319 -0.0604 -0.8617 -1.1302
 2737SOL    HW219674   3.216   3.312  13.282  1.8477 -1.7881 -0.2390
 2738SOL     OW19675   2.289   1.732  15.954  0.2633 -0.2852  0.6387
 2738SOL    HW119676   2.303   1.662  15.889  0.5800  0.3404  0.0340
 2738SOL    HW219677   2.301   1.679  16.033  0.8345 -1.9992 -0.5974
 2739SOL     OW19678   0.202   2.061  14.011  0.6097 -0.6346  0.1384
 2739SOL    HW119679   0.203   1.995  14.081 -1.0618  0.5087  1.2256
 2739SOL    HW219680   0.200   2.144  14.057 -0.6645 -1.6631  1.9403
 2740SOL     OW19681   0.905   0.217   1.959  0.5440 -0.0643  0.1754
 2740SOL    HW119682   0.925   0.303   1.995  0.0195  0.3640 -0.5542
 2740SOL    HW219683   0.942   0.160   2.026 -1.6452 -1.0291  0.5558
 2741SOL     OW19684   3.318   0.717   8.583  0.1770 -0.3047  0.4609
 2741SOL    HW119685   3.328   0.628   8.615  2.0666 -0.7354 -1.3123
 2741SOL    HW219686   3.303   0.773   8.659  0.5685 -0.7738  0.8782
 2742SOL     OW19687   1.379   2.640   0.828  0.2423 -0.1272  0.3592
 2742SOL    HW119688   1.399   2.667   0.918 -0.3531 -1.7671  0.9873
 2742SOL    HW219689   1.445   2.571   0.818  1.0556  0.9635 -1.8539
 2743SOL     OW19690   2.966   1.077  10.976  0.0420  0.2656  0.2208
 2743SOL    HW119691   2.885   1.040  10.943  0.7654 -0.5521 -0.6319
 2743SOL    HW219692   2.967   1.169  10.949  0.2757  0.1778 -0.0757
 2744SOL     OW19693   1.210   4.587  12.571  1.0320  0.2221 -0.1318
 2744SOL    HW119694   1.173   4.602  12.483 -0.7344  2.1223  0.9184
 2744SOL    HW219695   1.210   4.676  12.607  0.5275  0.2953 -0.3096
 2745SOL     OW19696   0.565   2.637   1.641  0.3016 -0.1981  0.2136
 2745SOL    HW119697   0.575   2.685   1.559 -1.5038  5.0338  3.0830
 2745SOL    HW219698   0.639   2.669   1.693  1.0741 -0.7160 -0.5788
 2746SOL     OW19699   0.957   3.114   2.522 -0.0664  0.4568 -0.4808
 2746SOL    HW119700   0.925   3.134   2.434 -1.1326  1.3031  0.1024
 2746SOL    HW219701   1.042   3.080   2.493 -0.4347 -1.9900  1.3041
 2747SOL     OW19702   0.368   0.425   2.406 -0.2524 -0.4352  0.1444
 2747SOL    HW119703   0.364   0.330   2.410 -0.3802 -0.4385 -0.0496
 2747SOL    HW219704   0.457   0.443   2.378 -0.3450  0.0893  0.1693
 2748SOL     OW19705   2.298   0.530   6.884  0.0546 -0.1002  0.1611
 2748SOL    HW119706   2.292   0.485   6.800 -1.1432 -1.6567  1.0658
 2748SOL    HW219707   2.221   0.587   6.878  0.4041  0.0437 -2.8166
 2749SOL     OW19708   1.887   0.085   3.776  0.0333 -0.1277  0.4252
 2749SOL    HW119709   1.820   0.149   3.752  0.4024 -0.8869 -2.5683
 2749SOL    HW219710   1.831   0.008   3.789  0.5349 -0.5932 -0.1826
 2750SOL     OW19711   2.416   3.681   4.513 -0.3820  0.3252 -0.0677
 2750SOL    HW119712   2.456   3.616   4.571 -2.3773 -0.9091 -0.0824
 2750SOL    HW219713   2.469   3.758   4.531  0.4754  0.1409 -1.7536
 2751SOL     OW19714   4.114   2.661  11.275 -0.2812 -0.1193  0.2832
 2751SOL    HW119715   4.113   2.636  11.183  0.3709  0.9168 -0.0050
 2751SOL    HW219716   4.073   2.746  11.262 -1.4748 -0.5002  1.4421
 2752SOL     OW19717   3.043   3.822   6.166  0.4278 -0.3822  0.2943
 2752SOL    HW119718   3.063   3.912   6.141 -0.6674 -0.3831 -0.5937
 2752SOL    HW219719   3.052   3.789   6.076  2.4383 -0.0529  0.3897
 2753SOL     OW19720   3.362   1.214   5.378  0.3598  0.0290 -0.3344
 2753SOL    HW119721   3.333   1.141   5.432 -0.3297  0.0120 -0.7156
 2753SOL    HW219722   3.273   1.243   5.355 -0.4353 -3.0070 -1.1709
 2754SOL     OW19723   3.525   2.509   4.324  0.1055 -0.0388  0.0148
 2754SOL    HW119724   3.539   2.433   4.268 -0.0882 -0.9869  1.2578
 2754SOL    HW219725   3.432   2.503   4.345  0.0206  1.9503  0.2303
 2755SOL     OW19726   4.255   3.689  10.256 -0.1368 -0.2260 -0.8211
 2755SOL    HW119727   4.255   3.684  10.160  0.3307  1.6761 -0.9236
 2755SOL    HW219728   4.266   3.599  10.288 -1.9260 -0.2964 -0.4365
 2756SOL     OW19729   1.626   2.514  14.543  0.2597  0.4462  0.0210
 2756SOL    HW119730   1.551   2.543  14.491  0.9477  0.5393 -0.9119
 2756SOL    HW219731   1.615   2.569  14.620  0.1978  0.4219  0.0296
 2757SOL     OW19732   2.691   2.389  16.929  0.0235  0.0776 -0.7685
 2757SOL    HW119733   2.777   2.387  16.886  0.3838 -1.4147  0.0125
 2757SOL    HW219734   2.635   2.450  16.881 -1.0540 -0.3728 -0.0714
 2758SOL     OW19735   2.774   2.961   8.321 -0.5152  0.3772  0.2902
 2758SOL    HW119736   2.856   2.937   8.278 -1.1575 -1.6314  0.1436
 2758SOL    HW219737   2.754   2.873   8.353 -1.7349 -0.3635 -2.4908
 2759SOL     OW19738   4.104   2.424   8.325 -0.4030 -0.1123  0.0551
 2759SOL    HW119739   4.189   2.398   8.360 -1.6454 -0.3925  2.8243
 2759SOL    HW219740   4.099   2.376   8.242  1.5671 -2.1415  1.0954
 2760SOL     OW19741   3.027   2.784   4.052 -0.1912  0.4516 -0.4234
 2760SOL    HW119742   2.944   2.824   4.080  0.2836 -0.6729  2.6443
 2760SOL    HW219743   3.039   2.840   3.976 -0.8421  2.9559  1.3143
 2761SOL     OW19744   0.233   1.723   4.098  0.3327 -0.3897 -0.3334
 2761SOL    HW119745   0.224   1.767   4.182  4.3616 -2.3083  1.1279
 2761SOL    HW219746   0.262   1.794   4.041 -2.4928  0.2193 -0.9828
 2762SOL     OW19747   1.620   3.095  12.644 -0.7907  0.1195 -0.0484
 2762SOL    HW119748   1.596   3.055  12.561  0.3645  0.9623 -0.7940
 2762SOL    HW219749   1.712   3.104  12.621 -0.8490 -0.6615 -0.5875
 2763SOL     OW19750   3.194   1.868   6.287  0.1477  0.0644 -0.3780
 2763SOL    HW119751   3.230   1.786   6.253 -0.5477 -0.0582 -0.8223
 2763SOL    HW219752   3.269   1.898   6.337  0.3522 -1.5153  0.2806
 2764SOL     OW19753   3.105   1.673   2.198 -0.5706  0.2829  0.1323
 2764SOL    HW119754   3.064   1.642   2.117 -0.3937  2.4406 -0.7731
 2764SOL    HW219755   3.195   1.681   2.168 -0.6635 -0.8744 -0.4507
 2765SOL     OW19756   3.234   0.808   6.815 -0.3576  0.2208 -0.0420
 2765SOL    HW119757   3.199   0.886   6.858 -0.8830 -0.3125  0.5095
 2765SOL    HW219758   3.310   0.847   6.772 -0.5112  1.2031  0.5661
 2766SOL     OW19759   4.203   4.668   7.231 -0.5441  0.5020  0.1189
 2766SOL    HW119760   4.158   4.678   7.314 -0.6919  1.2612 -0.0481
 2766SOL    HW219761   4.140   4.635   7.166 -1.3663 -0.4327  1.4050
 2767SOL     OW19762   4.159   0.444   2.270  0.0293  0.3463  0.4474
 2767SOL    HW119763   4.185   0.427   2.180 -1.0515 -0.8553  0.3737
 2767SOL    HW219764   4.071   0.407   2.265  0.6562 -1.3724  2.0197
 2768SOL     OW19765   1.557   0.538   5.700  0.3883  0.3104  0.0486
 2768SOL    HW119766   1.511   0.484   5.765 -1.0824 -1.1340 -2.1967
 2768SOL    HW219767   1.495   0.611   5.699  0.5554  0.4586  0.5851
 2769SOL     OW19768   3.325   1.332   4.886  0.1521  0.1950  0.0459
 2769SOL    HW119769   3.332   1.408   4.944 -0.8623  0.2887  0.0478
 2769SOL    HW219770   3.289   1.372   4.807 -1.2672 -0.7475  0.2157
 2770SOL     OW19771   4.337   1.413   2.953 -0.5218  0.4530 -0.1732
 2770SOL    HW119772   4.290   1.341   2.995  0.9423  0.6395  1.8197
 2770SOL    HW219773   4.377   1.368   2.879  0.1037  0.2098  0.3108
 2771SOL     OW19774   0.443   2.570   6.615  0.0285 -0.4682 -0.6410
 2771SOL    HW119775   0.514   2.511   6.590 -0.8315 -2.4074  1.4528
 2771SOL    HW219776   0.426   2.540   6.705  1.8734  2.7751  0.7884
 2772SOL     OW19777   0.538   3.111  14.257  0.9566 -0.4459 -0.4818
 2772SOL    HW119778   0.483   3.140  14.330  3.2212 -0.3337  1.1886
 2772SOL    HW219779   0.569   3.189  14.210 -0.2208 -0.6839 -1.6500
 2773SOL     OW19780   1.765   0.655   3.706 -0.2100  0.1888 -0.1849
 2773SOL    HW119781   1.817   0.579   3.733  0.4142  0.6201 -0.1707
 2773SOL    HW219782   1.762   0.704   3.789  1.7857 -0.2458  0.1598
 2774SOL     OW19783   3.389   3.622   9.324 -0.0044 -0.1530  0.3931
 2774SOL    HW119784   3.380   3.528   9.309  3.5765 -0.3624 -0.3472
 2774SOL    HW219785   3.483   3.634   9.312 -0.2201  0.9612 -0.2039
 2775SOL     OW19786   1.056   3.242   7.946  0.7724 -0.3945 -0.9106
 2775SOL    HW119787   1.048   3.323   7.997  3.5416  1.2954 -3.1560
 2775SOL    HW219788   1.078   3.183   8.019  0.4959  1.5363  0.7309
 2776SOL     OW19789   4.084   1.209   7.086  0.4503  0.1573  0.3783
 2776SOL    HW119790   4.091   1.201   7.181  1.2952  2.2586  0.4934
 2776SOL    HW219791   4.177   1.203   7.063  0.3846 -0.7947  0.3552
 2777SOL     OW19792   2.378   3.758   5.281 -0.0255 -0.1535  0.2009
 2777SOL    HW119793   2.367   3.698   5.207 -0.2931 -0.6218  0.6266
 2777SOL    HW219794   2.439   3.709   5.336 -1.3982 -0.6615  1.2621
 2778SOL     OW19795   1.637   1.177   6.665  0.0301  0.1098 -0.3383
 2778SOL    HW119796   1.722   1.221   6.663  0.3487 -0.5128 -0.4807
 2778SOL    HW219797   1.621   1.156   6.572  0.9724  0.9926 -0.6955
 2779SOL     OW19798   4.585   0.029   5.680 -0.3709 -0.2545 -0.5137
 2779SOL    HW119799   4.507   4.697   5.661 -0.7472  0.5311 -1.1943
 2779SOL    HW219800   4.550   0.118   5.684 -0.0104 -0.0740 -1.2383
 2780SOL     OW19801   0.045   0.962  17.582 -0.2587  0.4989 -0.0406
 2780SOL    HW119802   0.066   0.918  17.499 -1.4988 -1.7701  0.8651
 2780SOL    HW219803   0.101   0.913  17.642  0.2642 -1.7706 -2.3728
 2781SOL     OW19804   4.190   0.144   3.042 -0.1575 -0.0373  0.0928
 2781SOL    HW119805   4.188   0.088   2.964  1.9468  0.2765 -0.1726
 2781SOL    HW219806   4.263   0.198   3.012  0.5288 -0.6584  0.6936
 2782SOL     OW19807   3.118   1.186   2.821 -0.1917  0.0766  0.4672
 2782SOL    HW119808   3.065   1.251   2.775  0.2675 -0.8052 -1.3312
 2782SOL    HW219809   3.044   1.126   2.833  0.9487 -1.3218  0.4680
 2783SOL     OW19810   2.224   1.462   2.213  0.2828 -0.1419 -0.1360
 2783SOL    HW119811   2.162   1.523   2.253 -0.3680  0.3287 -1.8284
 2783SOL    HW219812   2.305   1.464   2.263 -0.1527 -0.2353  0.5647
 2784SOL     OW19813   1.086   4.052   2.878 -0.6049 -0.0716  0.6923
 2784SOL    HW119814   1.158   3.989   2.874 -3.4349 -3.3685  1.2728
 2784SOL    HW219815   1.103   4.100   2.797  0.2601 -1.3093  0.1421
 2785SOL     OW19816   1.552   1.158   6.383  0.0765 -0.1917  0.9806
 2785SOL    HW119817   1.492   1.224   6.416 -0.5417 -0.4495  0.3695
 2785SOL    HW219818   1.503   1.128   6.307  0.4810 -0.5778  0.8708
 2786SOL     OW19819   2.262   2.878  10.865 -0.4575 -0.6115  0.0379
 2786SOL    HW119820   2.335   2.819  10.850  1.4353  1.6733  0.2270
 2786SOL    HW219821   2.191   2.814  10.875  0.4965 -1.6562  0.0242
 2787SOL     OW19822   4.578   3.461   2.835 -0.0642  0.3716 -0.1211
 2787SOL    HW119823   4.583   3.457   2.931  1.2147  0.3615 -0.1859
 2787SOL    HW219824   4.633   3.386   2.814 -0.7378 -0.6634  1.8041
 2788SOL     OW19825   3.012   2.688   5.337  0.3528 -0.6478  0.0522
 2788SOL    HW119826   2.992   2.620   5.402  1.3852 -0.4586  0.5572
 2788SOL    HW219827   3.018   2.634   5.258  2.5975  2.2704 -1.7568
 2789SOL     OW19828   2.987   0.789  13.910  0.1858 -0.4736 -0.0481
 2789SOL    HW119829   3.003   0.703  13.949  0.7587  0.4317  1.7376
 2789SOL    HW219830   3.076   0.821  13.898 -0.0625  0.8141  1.6001
 2790SOL     OW19831   3.201   1.143  12.618  0.1134  0.3496  0.2659
 2790SOL    HW119832   3.274   1.099  12.574  1.4007  2.3840  0.3464
 2790SOL    HW219833   3.241   1.169  12.701  1.3880 -0.0790 -0.2129
 2791SOL     OW19834   1.387   0.307   6.754  0.0823 -0.2474 -0.5672
 2791SOL    HW119835   1.300   0.305   6.794  0.6070 -0.5063  0.5772
 2791SOL    HW219836   1.380   0.372   6.684 -1.1976 -0.1258 -0.3261
 2792SOL     OW19837   0.929   4.393  15.519 -0.0339 -0.2901 -0.0403
 2792SOL    HW119838   0.924   4.424  15.429 -1.7144 -1.9599 -0.5137
 2792SOL    HW219839   1.015   4.351  15.515  0.2020  0.1924 -0.1177
 2793SOL     OW19840   2.718   3.834   6.008  0.4714 -0.0296  0.4644
 2793SOL    HW119841   2.624   3.851   6.013  0.4116  0.0803 -0.8990
 2793SOL    HW219842   2.724   3.769   5.938 -1.1198 -1.0925  1.3194
 2794SOL     OW19843   3.141   0.883  10.040 -0.1522 -0.4752  0.4156
 2794SOL    HW119844   3.180   0.839   9.965 -0.1264  0.3261 -0.0471
 2794SOL    HW219845   3.125   0.810  10.099  2.7830 -0.9367  0.6299
 2795SOL     OW19846   3.084   0.086   4.618  0.1669  0.1560  0.2034
 2795SOL    HW119847   3.156   0.026   4.640 -0.6849 -0.6582  0.8082
 2795SOL    HW219848   3.046   0.034   4.548  2.3743 -0.9414 -0.1868
 2796SOL     OW19849   0.372   2.775   8.937  0.5163 -0.0171  0.2681
 2796SOL    HW119850   0.345   2.853   8.986  2.2572 -0.3450  1.7703
 2796SOL    HW219851   0.387   2.816   8.852  2.0790 -1.5820 -0.2190
 2797SOL     OW19852   2.219   3.224   8.770 -0.1428  0.3916  0.1381
 2797SOL    HW119853   2.142   3.187   8.812 -1.5437  1.2828 -1.6272
 2797SOL    HW219854   2.261   3.138   8.764  1.0301  0.9151  0.6841
 2798SOL     OW19855   0.598   2.514  12.638  0.6781 -0.2573  0.2154
 2798SOL    HW119856   0.676   2.501  12.584 -0.2115 -0.0674 -1.0940
 2798SOL    HW219857   0.618   2.599  12.678  2.8030 -0.9461  0.6226
 2799SOL     OW19858   3.349   1.085  10.031 -0.3372  0.1324  0.5942
 2799SOL    HW119859   3.363   1.089   9.937  0.8725 -0.2708  0.7631
 2799SOL    HW219860   3.275   1.024  10.037  0.3519 -0.9941 -2.2373
 2800SOL     OW19861   0.027   3.801   8.127 -0.1035 -0.1987 -0.8123
 2800SOL    HW119862   0.076   3.853   8.064 -1.3095  1.6830 -0.1794
 2800SOL    HW219863   0.011   3.716   8.084  2.2703 -1.0675  0.0270
 2801SOL     OW19864   2.824   2.449   4.920 -0.4196  0.0445  0.6162
 2801SOL    HW119865   2.899   2.446   4.980 -0.1538 -0.5751  0.2520
 2801SOL    HW219866   2.803   2.356   4.910 -0.1484  0.1505 -0.9261
 2802SOL     OW19867   0.607   2.897   4.296 -0.1645  0.0750 -0.2692
 2802SOL    HW119868   0.525   2.938   4.325 -0.3334  0.3989 -1.2057
 2802SOL    HW219869   0.578   2.857   4.214  0.8914  0.2015 -0.7081
 2803SOL     OW19870   4.520   2.844   1.822  0.1194  0.0492  0.1329
 2803SOL    HW119871   4.578   2.885   1.758  0.5358  1.4571  1.3969
 2803SOL    HW219872   4.438   2.862   1.776 -0.8730  0.4026  2.0284
 2804SOL     OW19873   2.801   0.545  13.323  0.1452 -0.1534  0.0387
 2804SOL    HW119874   2.745   0.615  13.287  3.4106  2.3627 -0.1336
 2804SOL    HW219875   2.855   0.519  13.249 -1.8160 -1.0191 -1.0875
 2805SOL     OW19876   0.415   2.318   2.882  0.0436 -0.1764  0.7798
 2805SOL    HW119877   0.325   2.321   2.913  0.1410  0.4772  1.0153
 2805SOL    HW219878   0.412   2.230   2.845 -0.7746  0.0839  0.2462
 2806SOL     OW19879   0.487   1.448   1.111 -0.5674  0.4842 -0.5566
 2806SOL    HW119880   0.466   1.358   1.083  0.7398 -0.2624  0.8688
 2806SOL    HW219881   0.577   1.439   1.142 -0.4807  0.1431 -0.9009
 2807SOL     OW19882   2.911   4.270   4.803 -0.0666 -0.1364 -0.1075
 2807SOL    HW119883   2.872   4.259   4.717 -1.7013  0.5027  0.5602
 2807SOL    HW219884   2.979   4.330   4.771 -0.9217  0.1617 -1.3422
 2808SOL     OW19885   4.082   2.447  13.612 -0.1551  0.1326  0.3087
 2808SOL    HW119886   4.046   2.411  13.693  0.4846  1.0677  1.0078
 2808SOL    HW219887   4.161   2.483  13.652  0.2221 -1.4068  0.9635
 2809SOL     OW19888   0.863   1.122  10.092  0.4658 -0.6178 -0.4128
 2809SOL    HW119889   0.837   1.210  10.119  0.6679 -1.0212  1.0941
 2809SOL    HW219890   0.915   1.089  10.164  1.8847  2.3215 -0.1425
 2810SOL     OW19891   4.618   4.461   0.865 -0.3900 -0.1265  0.1608
 2810SOL    HW119892   4.691   4.411   0.830 -1.1369 -0.5527 -0.8033
 2810SOL    HW219893   4.598   4.519   0.792  1.8240  1.5279  0.8735
 2811SOL     OW19894   2.746   4.348   9.677 -0.6859 -0.0664  0.6418
 2811SOL    HW119895   2.670   4.346   9.735  0.4147  0.2236  2.0897
 2811SOL    HW219896   2.811   4.383   9.738  0.2226 -0.2780 -0.1942
 2812SOL     OW19897   4.385   2.039   8.160  0.7474  0.2828  0.2738
 2812SOL    HW119898   4.383   2.131   8.134  1.2750  0.0009 -0.7453
 2812SOL    HW219899   4.297   2.007   8.137  0.9253 -0.6482  0.8807
 2813SOL     OW19900   2.906   4.255   1.645  0.3566  0.0353 -0.5219
 2813SOL    HW119901   2.919   4.308   1.566 -0.0018  1.0104  0.0789
 2813SOL    HW219902   2.994   4.246   1.682  0.4550 -0.8360 -0.9813
 2814SOL     OW19903   0.586   2.839  14.695 -0.4541 -0.3067  0.3169
 2814SOL    HW119904   0.606   2.923  14.654 -3.0307  0.7030  1.1019
 2814SOL    HW219905   0.502   2.860  14.736  1.2408  2.1543  2.4871
 2815SOL     OW19906   4.043   1.208   2.863  0.7294  0.2030 -0.6246
 2815SOL    HW119907   4.120   1.161   2.896  0.4729  0.3029  0.1146
 2815SOL    HW219908   3.991   1.203   2.943  0.0498 -1.6326 -1.1825
 2816SOL     OW19909   2.132   0.442   3.304  0.3180 -0.0971 -0.3114
 2816SOL    HW119910   2.077   0.375   3.345 -1.0847  1.4753  0.3593
 2816SOL    HW219911   2.099   0.426   3.216 -1.6503  0.9694  0.2346
 2817SOL     OW19912   0.701   2.200  14.721 -0.4051 -0.4987  0.7295
 2817SOL    HW119913   0.778   2.210  14.777  0.1746  1.5455 -0.4148
 2817SOL    HW219914   0.681   2.107  14.721  1.4798 -0.9066  0.1000
 2818SOL     OW19915   3.713   1.493   4.949 -0.3807  0.3583  0.3879
 2818SOL    HW119916   3.731   1.471   5.041 -2.2960  0.9938  0.9207
 2818SOL    HW219917   3.759   1.575   4.934 -0.7429  0.2933 -1.0781
 2819SOL     OW19918   0.848   4.308   4.607 -0.3859 -0.2907  0.4617
 2819SOL    HW119919   0.890   4.352   4.534  0.2636 -1.6697 -0.0015
 2819SOL    HW219920   0.874   4.367   4.677  0.2694  0.8892 -0.7868
 2820SOL     OW19921   4.621   4.099   2.977  0.2082 -0.0378  0.4001
 2820SOL    HW119922   4.660   4.186   2.966 -0.4358  0.1560 -0.3001
 2820SOL    HW219923   4.655   4.054   2.900 -1.6475 -1.3637  0.3540
 2821SOL     OW19924   3.475   0.306   6.113 -0.3968  0.2562  0.5000
 2821SOL    HW119925   3.406   0.245   6.142 -1.1287  0.2311 -1.3179
 2821SOL    HW219926   3.436   0.390   6.136  0.9455  1.3399 -1.1865
 2822SOL     OW19927   1.594   0.440  12.315  0.4751  0.1134  0.7980
 2822SOL    HW119928   1.569   0.485  12.396 -0.5460  0.1215  0.4758
 2822SOL    HW219929   1.520   0.449  12.256  0.6843  2.5294  0.8914
 2823SOL     OW19930   1.386   4.648   9.791 -0.2531 -0.0179  0.2504
 2823SOL    HW119931   1.473   4.608   9.797 -0.2219 -0.1109 -0.9225
 2823SOL    HW219932   1.390   4.705   9.868 -3.5055 -1.5616  1.5623
 2824SOL     OW19933   4.115   2.465   4.057  0.3283  0.1070 -0.5257
 2824SOL    HW119934   4.140   2.520   4.131 -1.1927 -1.1294  0.8956
 2824SOL    HW219935   4.027   2.442   4.085  1.5906 -1.6084  2.0311
 2825SOL     OW19936   0.838   0.896   9.396  0.0000  0.6774 -0.1005
 2825SOL    HW119937   0.755   0.930   9.364 -0.8616  0.7299  2.1732
 2825SOL    HW219938   0.853   0.942   9.479 -1.5635  0.4502  0.3041
 2826SOL     OW19939   0.970   0.131   8.289  0.2609  0.6287 -0.0206
 2826SOL    HW119940   0.995   0.094   8.204  1.4078 -2.9029  1.8547
 2826SOL    HW219941   1.031   0.080   8.341  1.4601  2.3561  0.2438
 2827SOL     OW19942   2.724   1.452   6.753  0.3695 -0.2448 -0.2586
 2827SOL    HW119943   2.704   1.380   6.693  2.1054  0.0809 -1.2362
 2827SOL    HW219944   2.642   1.465   6.802  0.4938 -0.0510 -0.1007
 2828SOL     OW19945   3.838   0.235   3.094 -0.1965  0.8078 -0.1203
 2828SOL    HW119946   3.881   0.320   3.095 -0.0200  0.7210 -0.4321
 2828SOL    HW219947   3.780   0.236   3.018 -0.6435  0.2091  0.2110
 2829SOL     OW19948   0.728   1.957  10.594 -0.0811 -0.1578  0.9501
 2829SOL    HW119949   0.693   2.039  10.559  2.5439  0.0789 -1.1420
 2829SOL    HW219950   0.765   1.997  10.672  3.9349  1.5435 -1.8156
 2830SOL     OW19951   2.566   0.729   7.258  0.4270 -0.2204 -0.4933
 2830SOL    HW119952   2.558   0.824   7.251  0.4158 -0.1259  0.7981
 2830SOL    HW219953   2.562   0.712   7.352  0.3428  1.4356 -0.2027
 2831SOL     OW19954   4.161   3.289  12.203  0.4213  0.2260 -0.6870
 2831SOL    HW119955   4.129   3.202  12.226 -0.6329  0.1438 -2.4593
 2831SOL    HW219956   4.242   3.277  12.252  0.3907  2.6762 -0.0082
 2832SOL     OW19957   3.780   2.837   5.502 -0.5289 -0.2841  0.8527
 2832SOL    HW119958   3.818   2.794   5.579  1.1665  1.3377  0.9069
 2832SOL    HW219959   3.793   2.760   5.446 -0.5674 -0.8432  1.6163
 2833SOL     OW19960   2.024   2.713   3.940  0.3248 -0.4426  0.1220
 2833SOL    HW119961   2.089   2.760   3.886  1.2701 -1.0611  0.7301
 2833SOL    HW219962   1.944   2.761   3.916 -1.7022 -3.8118  0.1404
 2834SOL     OW19963   2.830   2.231  13.121  0.0089 -0.5149  0.1297
 2834SOL    HW119964   2.750   2.247  13.071 -0.4115 -2.1020  0.2934
 2834SOL    HW219965   2.907   2.203  13.073 -0.4182 -0.1151 -0.7854
 2835SOL     OW19966   1.629   1.021   4.329 -0.5090 -0.7263  0.2860
 2835SOL    HW119967   1.668   1.071   4.258 -2.2919  1.2662  0.7180
 2835SOL    HW219968   1.634   1.081   4.403 -0.2454  0.9380 -1.0910
 2836SOL     OW19969   4.520   1.825  11.979 -0.2564  0.2882  0.3319
 2836SOL    HW119970   4.575   1.789  11.909 -2.1781 -0.6652 -0.6862
 2836SOL    HW219971   4.471   1.892  11.930  0.5453  0.2500 -0.5222
 2837SOL     OW19972   4.629   2.621   7.716 -0.1516 -0.3865  0.6635
 2837SOL    HW119973   4.667   2.628   7.629 -0.0433  0.1271  0.7501
 2837SOL    HW219974   4.626   2.713   7.742  2.1163 -0.3035  0.7050
 2838SOL     OW19975   0.043   3.339   6.603 -0.9429 -0.1495 -0.1029
 2838SOL    HW119976   0.041   3.365   6.695 -0.3839  3.0003 -0.9732
 2838SOL    HW219977   0.020   3.246   6.608  1.1477 -0.7421 -1.4594
 2839SOL     OW19978   3.065   1.085   0.020 -0.1744  0.0220  0.3749
 2839SOL    HW119979   2.978   1.118   0.044  0.6634  1.5806  1.2405
 2839SOL    HW219980   3.059   0.990   0.014  1.0784  0.0149 -0.6611
 2840SOL     OW19981   0.281   2.995   0.601  0.2170 -0.6203 -0.1470
 2840SOL    HW119982   0.277   3.083   0.637  0.5566 -0.2937 -0.8921
 2840SOL    HW219983   0.211   2.951   0.649 -0.1178  0.2303  0.1327
 2841SOL     OW19984   2.996   2.942   5.721 -0.1401 -0.1982  0.0600
 2841SOL    HW119985   3.063   2.976   5.662  0.4786  0.6964  1.2858
 2841SOL    HW219986   3.023   2.851   5.728 -0.4388 -0.3277 -0.4560
 2842SOL     OW19987   2.951   2.018   6.385 -0.1056 -0.0417  0.3404
 2842SOL    HW119988   3.013   1.953   6.351  0.2166  1.1184 -1.2896
 2842SOL    HW219989   2.879   2.025   6.322 -1.2834  1.7372  1.8670
 2843SOL     OW19990   3.971   3.987   5.245  0.2331 -0.0927  0.0235
 2843SOL    HW119991   4.014   4.053   5.192  0.2898 -0.9223 -0.9575
 2843SOL    HW219992   3.883   4.025   5.255 -0.1964 -1.0331 -0.1576
 2844SOL     OW19993   2.600   4.679   1.525  0.0606 -0.1285 -0.1637
 2844SOL    HW119994   2.531   4.690   1.459  0.4191 -3.2926 -1.0725
 2844SOL    HW219995   2.613   4.585   1.515 -1.3649 -0.3726  0.3663
 2845SOL     OW19996   1.380   3.252   6.893  0.1385 -0.2435  0.2939
 2845SOL    HW119997   1.426   3.297   6.823  0.3955 -1.2347 -0.1683
 2845SOL    HW219998   1.293   3.291   6.903  0.4313  0.5648 -0.3383
 2846SOL     OW19999   0.664   3.983   8.274  0.0168 -0.1679 -0.4644
 2846SOL    HW120000   0.631   3.955   8.188 -1.3637 -0.3274  0.1219
 2846SOL    HW220001   0.595   4.043   8.304  1.4143  0.8142  0.7878
 2847SOL     OW20002   3.164   0.091  12.933  0.2217  0.0331  0.7455
 2847SOL    HW120003   3.138   0.013  12.884  1.1666 -0.1792  0.5777
 2847SOL    HW220004   3.253   0.064  12.952  0.9962  1.6423 -0.5880
 2848SOL     OW20005   1.290   0.631  16.085 -0.2415 -0.3414  0.1292
 2848SOL    HW120006   1.294   0.536  16.079  0.2322 -0.2269 -1.4035
 2848SOL    HW220007   1.304   0.647  16.178 -0.6000  0.5449  0.0321
 2849SOL     OW20008   2.889   1.719   8.303 -0.1715  0.0490  0.4592
 2849SOL    HW120009   2.984   1.711   8.300 -0.0923  1.5268 -1.0598
 2849SOL    HW220010   2.862   1.628   8.292  0.8535 -0.4841  2.4399
 2850SOL     OW20011   0.816   0.678   2.715  0.0721  0.2511 -0.5072
 2850SOL    HW120012   0.904   0.688   2.677  0.6865  0.4066  0.9450
 2850SOL    HW220013   0.790   0.769   2.702  1.2386  0.3142 -2.4852
 2851SOL     OW20014   3.626   0.126   5.924  1.0069  0.2846 -0.2265
 2851SOL    HW120015   3.586   0.170   5.999  1.4949  2.2433 -1.1237
 2851SOL    HW220016   3.700   0.085   5.969 -0.5514 -0.6206  1.5253
 2852SOL     OW20017   3.341   2.944   6.871 -0.3433 -0.0947  0.5881
 2852SOL    HW120018   3.392   2.914   6.946  0.3029 -0.1046  0.1422
 2852SOL    HW220019   3.341   3.039   6.887 -0.7999 -0.2347  1.4255
 2853SOL     OW20020   1.223   0.835   6.534 -0.3132  0.0929 -0.6006
 2853SOL    HW120021   1.213   0.929   6.517  0.4981  0.4375  0.8827
 2853SOL    HW220022   1.296   0.814   6.475  0.1944  1.1494 -0.3612
 2854SOL     OW20023   2.192   3.984   2.543 -0.4807  0.2425  0.2060
 2854SOL    HW120024   2.226   3.951   2.627 -0.3310 -2.6148 -0.9828
 2854SOL    HW220025   2.237   3.935   2.474 -2.2417  0.0461 -0.8144
 2855SOL     OW20026   4.561   3.843   1.489  0.1610 -0.2194  0.1954
 2855SOL    HW120027   4.548   3.834   1.583 -2.2311 -2.2004 -0.3173
 2855SOL    HW220028   4.653   3.866   1.480  0.1930 -0.2621  0.4263
 2856SOL     OW20029   4.383   3.056   1.020 -0.0063  0.0266 -0.0317
 2856SOL    HW120030   4.400   3.106   0.940  1.6826  0.9839  0.9103
 2856SOL    HW220031   4.467   3.063   1.065 -0.3731  0.4202  0.5893
 2857SOL     OW20032   3.204   1.710   3.087  0.4027  0.0101 -0.4364
 2857SOL    HW120033   3.157   1.792   3.071 -0.5253  0.0061  2.3511
 2857SOL    HW220034   3.258   1.748   3.157 -0.2430 -2.6736  1.5194
 2858SOL     OW20035   4.447   1.069   8.518 -0.5978 -0.1794  0.1902
 2858SOL    HW120036   4.440   1.152   8.565 -1.9885 -2.5884  4.1911
 2858SOL    HW220037   4.524   1.029   8.559  2.4048  1.5743 -3.6774
 2859SOL     OW20038   3.159   3.921  13.101  0.0103  0.1390 -0.0176
 2859SOL    HW120039   3.200   3.902  13.017 -1.9113 -0.7902 -0.7401
 2859SOL    HW220040   3.170   3.839  13.150  1.3139  0.9328  1.0431
 2860SOL     OW20041   4.094   4.128   7.472  0.1647 -0.0788  0.0957
 2860SOL    HW120042   4.165   4.097   7.528 -1.0525 -1.3736  0.9289
 2860SOL    HW220043   4.034   4.054   7.466 -0.9264  1.0173 -2.6705
 2861SOL     OW20044   2.928   2.181  10.696 -0.3125  0.6455  0.2529
 2861SOL    HW120045   2.912   2.090  10.672  1.9909  0.8021 -1.8747
 2861SOL    HW220046   2.855   2.228  10.655  0.6246  0.8837 -1.1443
 2862SOL     OW20047   3.981   0.590   1.072  0.3361  0.3583  0.1266
 2862SOL    HW120048   3.994   0.662   1.011 -2.0680  0.8967  0.2349
 2862SOL    HW220049   4.055   0.536   1.045 -0.2933 -0.1524 -0.5552
 2863SOL     OW20050   2.064   0.322  11.251 -1.0623 -0.6424 -0.3701
 2863SOL    HW120051   2.151   0.284  11.265 -0.7124  0.1693 -0.3709
 2863SOL    HW220052   2.003   0.249  11.263 -1.3758 -0.4600 -0.8706
 2864SOL     OW20053   2.254   1.143   7.148 -0.4087 -0.2129  0.3412
 2864SOL    HW120054   2.290   1.223   7.110 -1.1886 -1.1993 -2.4670
 2864SOL    HW220055   2.203   1.182   7.220 -0.1874 -2.3234  1.6385
 2865SOL     OW20056   1.096   0.835   0.823  0.5884  0.1387  0.7054
 2865SOL    HW120057   1.018   0.786   0.848  1.4217 -1.0553  0.9706
 2865SOL    HW220058   1.074   0.854   0.732  0.7395 -0.2559  0.5875
 2866SOL     OW20059   0.204   0.920   3.617 -0.1489  0.3226  0.4291
 2866SOL    HW120060   0.171   0.967   3.693 -0.9965  2.0974 -1.0111
 2866SOL    HW220061   0.277   0.876   3.659 -0.4995 -2.7292 -2.1895
 2867SOL     OW20062   1.645   3.630   3.817 -0.0614  0.4617  0.1442
 2867SOL    HW120063   1.650   3.643   3.911 -0.5637 -0.4828  0.3041
 2867SOL    HW220064   1.642   3.536   3.799 -0.2428  0.2708  1.2030
 2868SOL     OW20065   2.194   2.235   8.405 -0.6395 -0.3890 -0.0094
 2868SOL    HW120066   2.149   2.170   8.459  0.6185 -1.6804 -0.5167
 2868SOL    HW220067   2.256   2.180   8.356  0.7572  0.2936  0.9970
 2869SOL     OW20068   2.352   3.177   0.054 -0.0796 -0.2483  0.0514
 2869SOL    HW120069   2.409   3.104   0.029 -0.1804 -0.2481 -0.1804
 2869SOL    HW220070   2.410   3.247   0.026 -2.0269  0.7557 -1.4163
 2870SOL     OW20071   3.431   0.642   2.040  0.5417  0.0813  0.2150
 2870SOL    HW120072   3.364   0.696   2.082 -1.3775 -1.8704 -0.3308
 2870SOL    HW220073   3.419   0.657   1.947  1.6521  1.7463  0.3433
 2871SOL     OW20074   0.624   3.158   6.875  0.0257  0.7414 -0.0434
 2871SOL    HW120075   0.655   3.151   6.784  1.4596 -0.1369  0.5166
 2871SOL    HW220076   0.536   3.189   6.851 -0.4766 -0.4143  0.3207
 2872SOL     OW20077   4.565   1.400   2.020  0.1397  0.0248  0.8003
 2872SOL    HW120078   4.637   1.391   1.958  0.2428  3.1578  0.4698
 2872SOL    HW220079   4.540   1.310   2.043  0.2165 -0.0934  0.4264
 2873SOL     OW20080   3.071   2.963  17.143  0.1542  0.4091 -0.2562
 2873SOL    HW120081   3.057   3.048  17.100  0.1354 -0.4907 -1.9975
 2873SOL    HW220082   3.003   2.963  17.211 -0.7845  0.1389 -1.1870
 2874SOL     OW20083   1.821   2.905  11.977 -0.3999  0.0871  0.5778
 2874SOL    HW120084   1.866   2.821  11.973  1.0905  0.8676  0.5228
 2874SOL    HW220085   1.893   2.968  11.987  2.0183 -2.1793 -2.3955
 2875SOL     OW20086   1.580   1.094  16.374  0.2393 -0.5365 -0.1417
 2875SOL    HW120087   1.635   1.074  16.449  0.2714 -0.2171 -0.0801
 2875SOL    HW220088   1.561   1.187  16.388  0.9134 -0.1212 -2.0191
 2876SOL     OW20089   0.818   4.597  11.243 -0.4183  0.6591  0.4876
 2876SOL    HW120090   0.727   4.590  11.216 -0.1779 -0.7836  0.0756
 2876SOL    HW220091   0.801   4.615  11.336 -3.6984  0.4556 -0.0632
 2877SOL     OW20092   2.893   4.207   6.298  0.2475 -0.2868 -0.7559
 2877SOL    HW120093   2.873   4.301   6.295 -2.2072 -0.6750  3.2203
 2877SOL    HW220094   2.848   4.174   6.220 -0.9784 -2.0685  0.7080
 2878SOL     OW20095   3.934   4.684   4.800 -0.1615  0.0898 -0.0896
 2878SOL    HW120096   4.012   4.687   4.744 -1.2937 -0.1290 -1.6927
 2878SOL    HW220097   3.882   0.022   4.744 -0.7015  0.2618  0.5936
 2879SOL     OW20098   4.319   3.998   8.051  0.3870 -0.0790  0.1191
 2879SOL    HW120099   4.379   3.941   8.004  0.1895 -0.1078 -0.1020
 2879SOL    HW220100   4.344   3.985   8.142 -0.4988 -0.7294  0.2705
 2880SOL     OW20101   2.423   2.631  10.848 -0.2576 -0.3211 -0.1481
 2880SOL    HW120102   2.409   2.572  10.774 -3.6733  1.1121 -0.6310
 2880SOL    HW220103   2.414   2.565  10.916  0.8819  2.6899  2.9594
 2881SOL     OW20104   3.923   0.146   0.528  0.3409 -0.3356 -0.5042
 2881SOL    HW120105   4.003   0.111   0.567  1.3475  2.3926 -0.0973
 2881SOL    HW220106   3.878   0.074   0.483 -2.9269  1.6844 -0.4906
 2882SOL     OW20107   0.850   3.534   6.467  0.3118 -0.3468  0.2870
 2882SOL    HW120108   0.758   3.557   6.450  1.0652  1.3989 -1.3575
 2882SOL    HW220109   0.903   3.593   6.415  2.5436 -1.5942  1.1508
 2883SOL     OW20110   2.344   0.464   8.784 -0.1644 -0.4257 -0.2549
 2883SOL    HW120111   2.263   0.435   8.825  0.1709  1.0136  1.4327
 2883SOL    HW220112   2.316   0.482   8.695  1.0536 -0.5227 -0.6606
 2884SOL     OW20113   3.480   0.772   9.965  0.6559 -0.1711  0.4730
 2884SOL    HW120114   3.426   0.702  10.002 -0.0896 -0.9949 -2.2038
 2884SOL    HW220115   3.526   0.718   9.901 -1.0699 -0.4461 -0.5245
 2885SOL     OW20116   2.379   0.512   4.874  0.2231 -0.3356  0.3841
 2885SOL    HW120117   2.346   0.581   4.931 -0.8135 -0.8312  0.3845
 2885SOL    HW220118   2.443   0.553   4.816 -2.1420  0.7524 -1.4812
 2886SOL     OW20119   0.119   2.639   4.228 -0.1902 -0.4877  0.0027
 2886SOL    HW120120   0.062   2.682   4.291 -0.0123  1.5125 -1.1876
 2886SOL    HW220121   0.173   2.714   4.204 -0.4030 -0.9656 -2.0054
 2887SOL     OW20122   3.629   3.252   4.106 -0.3306  0.1707 -0.1693
 2887SOL    HW120123   3.709   3.292   4.072 -0.3276  0.9435  0.7492
 2887SOL    HW220124   3.663   3.166   4.127  1.3388  1.5604  2.7613
 2888SOL     OW20125   4.716   1.192  13.984  0.3868 -0.1153 -0.0810
 2888SOL    HW120126   4.627   1.227  13.978  1.2782  2.0051 -1.0911
 2888SOL    HW220127   0.050   1.266  13.956  0.8654 -0.3703  0.1858
 2889SOL     OW20128   3.106   2.877   1.392  0.3804  0.2907  0.1056
 2889SOL    HW120129   3.085   2.784   1.394 -0.9342  0.6242  1.7816
 2889SOL    HW220130   3.196   2.860   1.362 -0.4633 -0.0758 -2.1987
 2890SOL     OW20131   3.377   2.622  16.605 -0.1358  0.0258  0.8550
 2890SOL    HW120132   3.329   2.632  16.523 -1.5626 -0.2456  1.6574
 2890SOL    HW220133   3.307   2.654  16.661 -0.9146 -0.2236  0.0295
 2891SOL     OW20134   4.475   2.482   8.074  0.0744  0.3754  0.1612
 2891SOL    HW120135   4.423   2.553   8.037  0.8156  1.4552  1.1944
 2891SOL    HW220136   4.445   2.479   8.165  0.0455 -1.7429  0.0955
 2892SOL     OW20137   0.390   2.633   3.693 -0.0140  0.1245  0.4718
 2892SOL    HW120138   0.419   2.627   3.784  2.6019 -1.5345 -0.4877
 2892SOL    HW220139   0.442   2.708   3.663 -1.7901  1.4136  0.6167
 2893SOL     OW20140   1.891   2.164   3.716  0.2781  0.0967 -0.4803
 2893SOL    HW120141   1.860   2.144   3.628  0.8127 -0.0370 -0.6424
 2893SOL    HW220142   1.885   2.259   3.706  1.4579  0.2420  0.1881
 2894SOL     OW20143   2.550   3.266   8.923  0.1317 -0.6690 -0.1975
 2894SOL    HW120144   2.562   3.289   8.831 -2.6325 -2.5856 -1.0667
 2894SOL    HW220145   2.638   3.270   8.960  0.0798  1.7414 -0.3033
 2895SOL     OW20146   1.073   1.730  10.729  0.1024 -0.3316  0.8569
 2895SOL    HW120147   1.069   1.819  10.696 -2.1703 -0.1243  1.7315
 2895SOL    HW220148   0.984   1.695  10.727 -0.8059  2.1245 -1.1890
 2896SOL     OW20149   4.025   3.701   8.359  0.6580  0.3320  0.5342
 2896SOL    HW120150   4.084   3.645   8.411 -1.4516 -0.7767  1.7610
 2896SOL    HW220151   4.080   3.748   8.296  0.0926  0.1652 -0.0786
 2897SOL     OW20152   3.623   0.995   6.202 -0.5249 -0.3606  0.0419
 2897SOL    HW120153   3.528   0.987   6.201 -0.6815  1.0688  3.7891
 2897SOL    HW220154   3.636   0.905   6.234 -0.8839  0.4523  2.4865
 2898SOL     OW20155   3.815   3.513  12.336 -0.2220  0.1513  0.4103
 2898SOL    HW120156   3.822   3.420  12.355  1.6000  0.0285 -0.9538
 2898SOL    HW220157   3.908   3.524  12.356  0.0619  0.7038 -1.2258
 2899SOL     OW20158   4.683   2.209   7.100  0.0779  0.2045  0.3252
 2899SOL    HW120159   4.673   2.219   7.005 -1.3567 -1.0983  0.3297
 2899SOL    HW220160   4.625   2.278   7.132 -0.0499  0.0704  0.3865
 2900SOL     OW20161   3.586   1.736   2.972 -0.2483 -0.1840 -0.0319
 2900SOL    HW120162   3.510   1.686   2.941 -1.8382  3.3728 -1.9440
 2900SOL    HW220163   3.558   1.748   3.063 -0.4378 -3.4759  0.3551
 2901SOL     OW20164   1.928   3.090   1.787  0.3640  0.0788 -0.2615
 2901SOL    HW120165   1.848   3.049   1.753 -1.3207  2.4324  0.8459
 2901SOL    HW220166   1.924   3.168   1.732  2.5696 -1.4818 -2.6210
 2902SOL     OW20167   3.781   0.292  10.346 -0.0742 -0.0863  0.1593
 2902SOL    HW120168   3.827   0.300  10.262 -0.1006  1.1626  0.2747
 2902SOL    HW220169   3.796   0.198  10.355 -0.4815  0.0344  1.9817
 2903SOL     OW20170   2.673   3.199   7.912 -0.2657  0.3621 -0.2294
 2903SOL    HW120171   2.601   3.139   7.894  1.4670 -2.1816  1.2535
 2903SOL    HW220172   2.732   3.131   7.946 -1.0930  0.0023  0.4871
 2904SOL     OW20173   4.298   2.543   6.902 -0.0708 -0.1541 -0.0198
 2904SOL    HW120174   4.309   2.638   6.896  0.1080 -0.2259 -0.7957
 2904SOL    HW220175   4.236   2.538   6.974  0.3907  4.8054  0.7089
 2905SOL     OW20176   2.418   2.597   2.864  0.1673 -0.1709  0.5016
 2905SOL    HW120177   2.495   2.650   2.843  0.3875 -0.4702  0.5404
 2905SOL    HW220178   2.444   2.552   2.944  0.4029  0.7119  0.9232
 2906SOL     OW20179   1.726   0.430   5.499 -0.6821 -0.1504 -0.2005
 2906SOL    HW120180   1.790   0.499   5.482 -2.0107  0.6732 -1.8027
 2906SOL    HW220181   1.654   0.485   5.530 -0.9186  0.1520 -1.2858
 2907SOL     OW20182   3.949   3.989   4.632  0.4815  0.4651  0.2029
 2907SOL    HW120183   3.979   4.078   4.646 -0.1084  1.2064 -3.2299
 2907SOL    HW220184   3.857   4.000   4.610  0.0663 -1.9489  0.6529
 2908SOL     OW20185   3.581   2.228   8.539  0.1979  0.1975 -0.0102
 2908SOL    HW120186   3.627   2.165   8.484 -2.2246 -2.2261  0.7122
 2908SOL    HW220187   3.510   2.244   8.476  0.4900  1.6635  0.0361
 2909SOL     OW20188   3.240   0.630   1.804 -0.1560 -0.2442  0.0904
 2909SOL    HW120189   3.315   0.641   1.746 -0.6817  1.2597 -0.3032
 2909SOL    HW220190   3.220   0.537   1.812 -0.0326 -0.3650 -0.9934
 2910SOL     OW20191   4.186   1.461   8.378  0.0604 -0.4235 -0.1328
 2910SOL    HW120192   4.124   1.516   8.331  0.9235  0.9251  0.3183
 2910SOL    HW220193   4.237   1.433   8.302  2.3501  1.9891  0.4850
 2911SOL     OW20194   0.473   3.919   2.972  0.4040 -0.2523  0.1693
 2911SOL    HW120195   0.517   3.857   2.914 -0.8832 -1.5419  0.5822
 2911SOL    HW220196   0.550   3.974   2.985  0.3697  0.3339 -1.9969
 2912SOL     OW20197   1.607   1.940   5.505  0.3108  0.2150  0.6206
 2912SOL    HW120198   1.608   1.964   5.412 -1.9184  0.3132  0.6339
 2912SOL    HW220199   1.693   1.899   5.516 -1.2254 -3.5900 -1.6824
 2913SOL     OW20200   3.254   2.243  15.768 -0.8183  0.3456 -0.4524
 2913SOL    HW120201   3.331   2.194  15.796 -1.1546  0.3077  0.4238
 2913SOL    HW220202   3.197   2.235  15.845 -2.3794  1.6316 -1.4667
 2914SOL     OW20203   1.576   2.451   6.698 -0.1771  0.2020 -0.0859
 2914SOL    HW120204   1.626   2.495   6.630  1.1801 -0.5499  0.4396
 2914SOL    HW220205   1.643   2.441   6.765 -0.2347 -0.2335 -0.0918
 2915SOL     OW20206   3.213   1.802   3.526 -0.1827 -0.2268 -0.1285
 2915SOL    HW120207   3.267   1.841   3.594  0.3558 -1.1003 -0.0525
 2915SOL    HW220208   3.137   1.860   3.528  0.3636  0.5820 -2.5106
 2916SOL     OW20209   2.992   3.901   4.040 -0.1971 -0.4752  0.0809
 2916SOL    HW120210   2.932   3.844   4.089 -2.3668  2.0009  0.3323
 2916SOL    HW220211   2.950   3.987   4.051 -1.2729 -1.0081  0.1232
 2917SOL     OW20212   0.957   1.835   4.337  0.0264 -0.7531 -0.0166
 2917SOL    HW120213   1.015   1.763   4.358  0.0172 -0.9913 -0.7983
 2917SOL    HW220214   0.876   1.786   4.320  0.8319 -2.0695 -0.0165
 2918SOL     OW20215   2.421   2.583  13.815 -0.3583 -0.3975  0.0096
 2918SOL    HW120216   2.515   2.572  13.823  0.0197  1.8288 -1.5054
 2918SOL    HW220217   2.418   2.575  13.720 -0.5751  0.6460 -0.0667
 2919SOL     OW20218   3.461   2.258   8.212 -0.6634  0.5099 -0.0172
 2919SOL    HW120219   3.499   2.345   8.196  0.1922  0.4692  1.7607
 2919SOL    HW220220   3.399   2.282   8.281 -2.0622  1.0087 -1.4430
 2920SOL     OW20221   0.784   3.293   3.566  0.1336  0.3458  0.2007
 2920SOL    HW120222   0.784   3.266   3.658 -1.7234  1.5712  0.5682
 2920SOL    HW220223   0.877   3.309   3.553  0.1859 -0.8197 -0.8458
 2921SOL     OW20224   0.441   4.217   7.836  0.2403 -0.2713 -0.0406
 2921SOL    HW120225   0.406   4.206   7.925  0.6143 -1.1360 -0.0030
 2921SOL    HW220226   0.496   4.296   7.847  0.0391 -0.2430  0.8141
 2922SOL     OW20227   0.659   2.971   9.027 -0.4767  0.2788  0.0714
 2922SOL    HW120228   0.652   2.900   8.964 -1.6320 -0.3697  0.9305
 2922SOL    HW220229   0.621   2.923   9.100 -0.0531 -1.0255 -0.5699
 2923SOL     OW20230   1.424   0.547  12.138 -0.5074 -0.5128 -0.2950
 2923SOL    HW120231   1.432   0.535  12.043  1.9207  0.2891 -0.1927
 2923SOL    HW220232   1.497   0.608  12.149 -0.7119 -0.5424  1.2035
 2924SOL     OW20233   2.526   2.239  10.817  0.1210  0.3507  0.1724
 2924SOL    HW120234   2.494   2.313  10.869 -0.3571 -0.5057  1.1069
 2924SOL    HW220235   2.581   2.288  10.757 -0.5023  1.3788  0.4320
 2925SOL     OW20236   1.437   3.386   1.092 -0.2849 -0.1715 -0.0520
 2925SOL    HW120237   1.444   3.466   1.144  0.6989 -0.0993 -0.2858
 2925SOL    HW220238   1.463   3.319   1.155 -1.3126  0.3758  0.9472
 2926SOL     OW20239   1.799   4.034   0.250  0.2433 -0.2708  0.0597
 2926SOL    HW120240   1.745   4.071   0.181 -0.2600 -1.1038  0.0181
 2926SOL    HW220241   1.871   4.098   0.247  1.1150 -1.2053  0.9038
 2927SOL     OW20242   3.359   0.271   4.947 -0.4232  0.2244  0.8965
 2927SOL    HW120243   3.276   0.294   4.905  0.7118 -0.1461 -1.5062
 2927SOL    HW220244   3.333   0.273   5.039 -1.2850  1.0797  0.6334
 2928SOL     OW20245   3.561   1.955   7.367  0.7016  0.0260 -0.0626
 2928SOL    HW120246   3.649   1.922   7.385  1.0381  0.9699  0.0019
 2928SOL    HW220247   3.584   2.022   7.302 -1.7803 -0.8905 -1.8711
 2929SOL     OW20248   1.988   3.975   1.150 -0.2828  0.1243 -0.2895
 2929SOL    HW120249   2.071   3.927   1.157  0.6566  2.0881  1.7864
 2929SOL    HW220250   2.026   4.059   1.124 -2.6829  1.2188 -0.2096
 2930SOL     OW20251   0.208   2.644   6.021 -0.4891 -0.2736 -0.1832
 2930SOL    HW120252   0.114   2.636   6.037 -0.6983  0.9662 -0.8655
 2930SOL    HW220253   0.249   2.634   6.107 -2.1133 -0.3386  0.5705
 2931SOL     OW20254   1.384   3.997   7.094 -0.5158  0.4538  0.3016
 2931SOL    HW120255   1.317   3.948   7.046 -1.1015  0.1183  1.4576
 2931SOL    HW220256   1.406   3.948   7.174  0.0210 -1.2892 -0.8996
 2932SOL     OW20257   2.133   3.360  10.259 -0.3792  0.3807  0.0577
 2932SOL    HW120258   2.090   3.434  10.216  1.4330  1.6051  0.3461
 2932SOL    HW220259   2.152   3.404  10.342 -0.3499  1.3779 -0.4784
 2933SOL     OW20260   4.209   3.473  16.564  0.3870 -0.2231 -0.2716
 2933SOL    HW120261   4.187   3.553  16.611 -0.3864  0.8106 -2.4002
 2933SOL    HW220262   4.125   3.431  16.585 -1.1535  3.3128  0.5528
 2934SOL     OW20263   4.399   1.217   5.089  0.5844  0.0581 -0.3494
 2934SOL    HW120264   4.461   1.239   5.019  0.6919  1.1670  0.0891
 2934SOL    HW220265   4.395   1.299   5.139 -2.3919  0.4675 -1.2646
 2935SOL     OW20266   1.680   1.274   7.214 -0.6694  0.2249 -0.1647
 2935SOL    HW120267   1.772   1.256   7.229 -0.3283  0.5061 -1.9699
 2935SOL    HW220268   1.655   1.197   7.162 -0.2478 -0.3092  0.4241
 2936SOL     OW20269   0.710   1.924   3.001 -0.0485 -0.0447 -0.9796
 2936SOL    HW120270   0.777   1.924   2.932 -0.3141  1.4196 -1.2312
 2936SOL    HW220271   0.689   1.831   3.012  1.8716 -0.2848  0.7483
 2937SOL     OW20272   3.115   2.870  13.164  0.1826 -0.0274  0.3220
 2937SOL    HW120273   3.065   2.828  13.094 -0.6488 -1.5139  1.8070
 2937SOL    HW220274   3.191   2.813  13.174  0.3977  0.0247 -0.9663
 2938SOL     OW20275   1.446   3.768   4.058 -0.1961  0.5884  0.4942
 2938SOL    HW120276   1.361   3.811   4.046 -0.0808  0.4089 -0.9344
 2938SOL    HW220277   1.435   3.676   4.035 -1.1417  0.8836 -0.2609
 2939SOL     OW20278   2.088   4.095   8.478  0.0241 -0.0993 -0.2449
 2939SOL    HW120279   2.017   4.152   8.507 -0.2757 -0.8572  0.4904
 2939SOL    HW220280   2.149   4.165   8.455 -1.1329  1.0255  0.0700
 2940SOL     OW20281   2.105   0.586   3.712  0.6018  0.1841 -0.2795
 2940SOL    HW120282   2.064   0.633   3.785  1.9378 -0.8286  1.1188
 2940SOL    HW220283   2.193   0.580   3.748 -0.1226  0.8635  1.6009
 2941SOL     OW20284   0.595   1.410   3.666  0.1075 -0.1806  0.1802
 2941SOL    HW120285   0.608   1.502   3.689 -0.0870  0.2285 -1.3364
 2941SOL    HW220286   0.528   1.414   3.597  1.0584  2.0810 -0.6323
 2942SOL     OW20287   1.293   4.547   4.853 -0.2987 -0.7701 -0.1591
 2942SOL    HW120288   1.220   4.539   4.915  0.2208  1.1981  0.7292
 2942SOL    HW220289   1.252   4.516   4.773  1.1006  0.7739 -1.4653
 2943SOL     OW20290   2.245   0.273   4.836 -0.2387 -0.0311 -0.0052
 2943SOL    HW120291   2.180   0.285   4.905  0.4155 -1.5385  0.8760
 2943SOL    HW220292   2.281   0.362   4.844  0.0603 -0.2236  0.7937
 2944SOL     OW20293   2.443   0.523   5.509 -0.5868 -0.5027 -0.2945
 2944SOL    HW120294   2.406   0.492   5.591 -2.7740 -0.7829 -1.4022
 2944SOL    HW220295   2.470   0.438   5.474 -0.4256 -0.3600 -0.5191
 2945SOL     OW20296   3.652   0.888   7.310 -0.1117  0.0218 -0.1616
 2945SOL    HW120297   3.738   0.851   7.294 -0.2771 -0.7810  0.7986
 2945SOL    HW220298   3.660   0.899   7.405 -1.1664 -0.5991  0.0045
 2946SOL     OW20299   0.831   1.272   9.556 -0.3648 -0.3691 -0.1516
 2946SOL    HW120300   0.805   1.194   9.605 -1.4312  0.3856  0.4950
 2946SOL    HW220301   0.884   1.231   9.488  1.4332  1.2361  0.2958
 2947SOL     OW20302   2.311   2.035  10.641  0.0998 -0.1703  0.8018
 2947SOL    HW120303   2.253   2.009  10.570 -2.1960 -0.7650  2.9178
 2947SOL    HW220304   2.335   1.950  10.679 -1.8015 -0.8376  0.5166
 2948SOL     OW20305   0.517   1.366   6.472  0.7055  0.4107  0.6746
 2948SOL    HW120306   0.423   1.360   6.460  0.9248 -1.1373 -0.2832
 2948SOL    HW220307   0.545   1.301   6.537  1.0137 -0.2528 -0.1215
 2949SOL     OW20308   4.249   4.372   3.939 -0.3521  0.3139 -0.5944
 2949SOL    HW120309   4.262   4.278   3.947 -0.4334  0.4817  1.4305
 2949SOL    HW220310   4.257   4.389   3.845 -2.7632 -1.4616 -1.1050
 2950SOL     OW20311   3.569   3.008   6.496  0.2778 -0.7715 -0.0801
 2950SOL    HW120312   3.558   3.078   6.431  1.1350 -1.0877 -0.5539
 2950SOL    HW220313   3.481   3.009   6.535  0.1944 -1.2512 -0.2587
 2951SOL     OW20314   3.753   0.697   2.828  0.0292  0.8545 -0.5360
 2951SOL    HW120315   3.659   0.713   2.827 -0.0757  0.2096 -0.4889
 2951SOL    HW220316   3.777   0.716   2.918  2.7805  1.9539 -1.4873
 2952SOL     OW20317   0.699   0.683   3.240 -0.3438 -0.4079  0.1438
 2952SOL    HW120318   0.750   0.628   3.299  1.0726 -1.8097 -2.3777
 2952SOL    HW220319   0.730   0.769   3.268  1.3610 -0.7034 -0.8389
 2953SOL     OW20320   2.516   3.952   2.778 -0.0965 -0.4782 -0.2071
 2953SOL    HW120321   2.525   3.932   2.872  1.2177 -0.8980 -0.4193
 2953SOL    HW220322   2.583   3.895   2.740  2.6514  1.2039  2.0886
 2954SOL     OW20323   3.705   3.199  14.153 -0.1108 -0.5659  0.1993
 2954SOL    HW120324   3.755   3.200  14.072  1.6108  0.7908  1.2921
 2954SOL    HW220325   3.768   3.166  14.217 -0.9599 -0.9540  0.8339
 2955SOL     OW20326   0.751   3.219   1.947 -0.0997 -0.2021 -0.2306
 2955SOL    HW120327   0.779   3.310   1.961  0.2004 -0.3184 -0.0849
 2955SOL    HW220328   0.699   3.210   2.027 -0.5135  0.6294 -0.4039
 2956SOL     OW20329   2.342   1.906   9.922  0.4483 -0.0080 -0.2775
 2956SOL    HW120330   2.371   1.849   9.993  0.2517 -0.8916 -0.9052
 2956SOL    HW220331   2.255   1.919   9.958  0.6123  0.9183 -0.2207
 2957SOL     OW20332   1.329   0.924  16.062 -0.3085  0.4928 -0.2528
 2957SOL    HW120333   1.425   0.925  16.067 -0.3577 -1.1602  0.7176
 2957SOL    HW220334   1.314   0.830  16.059  0.2372  0.4869 -3.0323
 2958SOL     OW20335   3.422   3.998   3.677 -0.0872  0.1006 -0.3852
 2958SOL    HW120336   3.378   4.013   3.593 -2.3785  0.7491  0.9204
 2958SOL    HW220337   3.499   4.053   3.666 -0.3675  0.3912 -0.8678
 2959SOL     OW20338   2.187   2.880   1.161 -0.5240 -0.4474 -0.6438
 2959SOL    HW120339   2.180   2.862   1.255 -1.1873 -0.8483 -0.7736
 2959SOL    HW220340   2.101   2.912   1.137 -0.0227  1.6160  0.3425
 2960SOL     OW20341   0.212   1.409  17.528  0.3478 -0.1579  0.7204
 2960SOL    HW120342   0.131   1.377  17.489 -1.6562 -0.0667  4.7232
 2960SOL    HW220343   0.182   1.457  17.605 -2.1811  0.2103 -0.5188
 2961SOL     OW20344   4.637   0.206   8.501 -0.3300 -0.5651 -0.3020
 2961SOL    HW120345   4.572   0.139   8.480  0.6217 -1.3561 -0.7546
 2961SOL    HW220346   4.594   0.279   8.457 -0.8779 -0.1551  0.9224
 2962SOL     OW20347   4.551   3.164   5.622 -0.2723  0.8282 -0.4633
 2962SOL    HW120348   4.575   3.125   5.706  1.1051 -0.0094 -1.2336
 2962SOL    HW220349   4.534   3.082   5.576  2.5447  1.0609 -1.9347
 2963SOL     OW20350   3.032   0.210  13.769  0.5166  0.1943 -0.3822
 2963SOL    HW120351   3.020   0.192  13.862  1.7346  0.8893 -0.0857
 2963SOL    HW220352   2.965   0.279  13.762 -0.1366 -0.4834 -0.8047
 2964SOL     OW20353   3.410   2.862   3.700 -0.2253  0.2174 -0.8801
 2964SOL    HW120354   3.476   2.883   3.767  0.2157  0.4899 -1.4064
 2964SOL    HW220355   3.367   2.947   3.689  1.9453  1.3504 -0.6406
 2965SOL     OW20356   2.124   0.818   3.156  0.1221 -0.3029  0.2323
 2965SOL    HW120357   2.055   0.867   3.201 -1.4701  0.9005 -3.5578
 2965SOL    HW220358   2.075   0.741   3.129 -1.1753  0.9452 -0.9842
 2966SOL     OW20359   1.712   3.822   0.713 -0.0702  0.2610 -0.3605
 2966SOL    HW120360   1.709   3.888   0.781  0.3870  0.2808 -0.3610
 2966SOL    HW220361   1.797   3.835   0.670 -0.9212  2.9081 -1.2239
 2967SOL     OW20362   4.611   2.235   1.908 -0.4603 -0.2883  0.4932
 2967SOL    HW120363   4.529   2.216   1.952 -1.1166 -2.4664 -1.7471
 2967SOL    HW220364   4.641   2.145   1.895  1.5769  0.2470  1.4160
 2968SOL     OW20365   3.303   0.752  15.968  0.1734 -0.9326 -0.4234
 2968SOL    HW120366   3.391   0.756  16.006  1.9543  1.3244 -4.8303
 2968SOL    HW220367   3.249   0.815  16.015  1.0222 -1.2644  0.9956
 2969SOL     OW20368   1.439   0.793  11.526  0.6375 -0.1062 -0.7012
 2969SOL    HW120369   1.482   0.739  11.593  0.4152  0.5508 -0.0340
 2969SOL    HW220370   1.392   0.727  11.475 -0.3284  0.3027 -0.3346
 2970SOL     OW20371   1.776   2.762   8.259 -0.1994 -0.1378  0.1591
 2970SOL    HW120372   1.752   2.699   8.192 -0.3899  1.1915 -1.0175
 2970SOL    HW220373   1.853   2.797   8.214  0.0718 -0.4620  0.3672
 2971SOL     OW20374   1.103   3.824   1.024 -0.0460  0.2334  0.0558
 2971SOL    HW120375   1.038   3.780   0.969  1.6861 -0.5037 -1.3963
 2971SOL    HW220376   1.137   3.885   0.959 -0.8651  0.2213 -0.3886
 2972SOL     OW20377   2.304   1.628   5.993  0.2111  0.4280  0.5103
 2972SOL    HW120378   2.257   1.708   5.968 -0.0906  0.0929  0.0023
 2972SOL    HW220379   2.264   1.608   6.078  0.1479  0.3149  0.4542
 2973SOL     OW20380   1.087   0.108  14.205  0.3431  0.2676  0.4545
 2973SOL    HW120381   1.157   0.173  14.193  0.7536  0.6920  5.0748
 2973SOL    HW220382   1.123   0.065  14.282  0.7364 -2.4637 -1.2468
 2974SOL     OW20383   0.474   3.153   0.903  0.3822  0.0952  0.6243
 2974SOL    HW120384   0.402   3.199   0.861  2.5884  1.6835 -1.3894
 2974SOL    HW220385   0.551   3.210   0.900 -0.5814  1.3323 -0.3023
 2975SOL     OW20386   2.282   2.475   8.520  0.5480 -0.4683 -0.0858
 2975SOL    HW120387   2.343   2.459   8.592 -0.4253  0.5363  0.9585
 2975SOL    HW220388   2.261   2.389   8.482 -1.8097 -0.0359  0.2347
 2976SOL     OW20389   0.639   2.428   6.507 -0.7866 -0.2587 -0.8398
 2976SOL    HW120390   0.719   2.376   6.495 -0.2101  0.2752  0.6732
 2976SOL    HW220391   0.614   2.418   6.415  0.9235 -2.2964 -1.1007
 2977SOL     OW20392   2.939   4.331  13.571 -0.2049 -0.1129 -0.3337
 2977SOL    HW120393   2.881   4.262  13.538  1.1802 -0.1516 -2.6680
 2977SOL    HW220394   2.883   4.399  13.532 -0.8026 -1.2649 -1.4834
 2978SOL     OW20395   2.735   4.048   8.582  0.0178  0.1701 -0.7523
 2978SOL    HW120396   2.791   3.996   8.639 -1.4977 -1.3720 -0.6569
 2978SOL    HW220397   2.682   4.091   8.649 -0.1458 -2.7536  0.9873
 2979SOL     OW20398   0.952   2.188   3.286  0.4503  0.1154  0.2223
 2979SOL    HW120399   1.025   2.138   3.321  1.4403  1.6067  0.2737
 2979SOL    HW220400   0.886   2.119   3.288 -1.1677  1.8106  4.3840
 2980SOL     OW20401   0.407   1.131   6.998  0.1938  0.4052  0.2945
 2980SOL    HW120402   0.433   1.040   7.010  1.0904  0.7481  0.9756
 2980SOL    HW220403   0.468   1.162   6.931  0.1280 -0.0106  0.0452
 2981SOL     OW20404   4.213   2.446   5.704  0.1263  0.3308  0.0757
 2981SOL    HW120405   4.178   2.522   5.751  0.1776  0.3031  0.1578
 2981SOL    HW220406   4.147   2.409   5.646 -1.0045  0.1846  1.4773
 2982SOL     OW20407   1.551   3.830   5.407 -0.2844 -0.0493  0.1419
 2982SOL    HW120408   1.518   3.918   5.422  0.3233 -0.1494  2.0509
 2982SOL    HW220409   1.636   3.828   5.451 -0.4488  0.8528  0.4986
 2983SOL     OW20410   2.875   2.936   0.835  0.2306  0.2942  0.2267
 2983SOL    HW120411   2.933   2.870   0.872  0.2445 -0.0553 -0.4125
 2983SOL    HW220412   2.891   2.917   0.742 -0.6053  0.4878  0.0343
 2984SOL     OW20413   2.255   2.019  15.944  0.5076 -0.0619  0.1567
 2984SOL    HW120414   2.277   1.931  15.972 -0.5971 -0.4070 -0.1020
 2984SOL    HW220415   2.169   2.023  15.903  0.2316  0.7279  0.7897
 2985SOL     OW20416   4.678   4.534   7.921 -0.4583 -0.4080  0.4979
 2985SOL    HW120417   0.041   4.536   7.874 -0.5065  0.0383  0.4321
 2985SOL    HW220418   4.682   4.604   7.986  2.3710 -1.2718  1.2513
 2986SOL     OW20419   0.140   2.296   2.636  0.2608  0.0980 -0.4018
 2986SOL    HW120420   0.047   2.309   2.616 -0.3996  2.0277  3.8356
 2986SOL    HW220421   0.130   2.282   2.730  0.8562  0.1449 -0.3287
 2987SOL     OW20422   1.872   1.556   5.757 -0.0352 -0.3472  0.8225
 2987SOL    HW120423   1.899   1.640   5.795  0.2489  0.2670 -0.7085
 2987SOL    HW220424   1.946   1.501   5.780  2.4282  2.7546  0.2823
 2988SOL     OW20425   2.680   3.622  17.579 -0.3592 -0.1838  0.0737
 2988SOL    HW120426   2.727   3.633  17.661 -0.2261  0.1207 -0.0445
 2988SOL    HW220427   2.648   3.709  17.557 -3.6092 -1.4845 -0.3744
 2989SOL     OW20428   0.210   2.973   3.060 -0.1500 -0.2901  0.0869
 2989SOL    HW120429   0.173   3.058   3.084 -1.4780 -0.6004 -0.8876
 2989SOL    HW220430   0.153   2.953   2.987  0.0929  1.5062 -0.5997
 2990SOL     OW20431   3.181   1.524  12.705 -0.7311 -0.1900  0.1230
 2990SOL    HW120432   3.168   1.478  12.788  2.4628  0.8599  1.1833
 2990SOL    HW220433   3.263   1.564  12.733 -2.2850  1.2582  2.6305
 2991SOL     OW20434   2.332   1.432   1.688  0.1027 -0.0046 -0.2424
 2991SOL    HW120435   2.319   1.426   1.593  0.7251 -3.1020 -0.1391
 2991SOL    HW220436   2.424   1.458   1.689  0.1185 -0.1066  0.7839
 2992SOL     OW20437   4.000   3.661  11.379  0.2439  0.6646 -0.4431
 2992SOL    HW120438   3.977   3.640  11.470 -1.0649  1.0820 -0.6794
 2992SOL    HW220439   3.927   3.641  11.322 -0.0033 -1.2740  0.5697
 2993SOL     OW20440   1.968   3.606  16.869 -0.5411  0.2843 -0.2150
 2993SOL    HW120441   2.029   3.553  16.819 -0.3424  0.3397 -0.0321
 2993SOL    HW220442   2.018   3.688  16.861 -0.2446 -0.0103 -1.3008
 2994SOL     OW20443   3.511   0.119  14.881 -0.2304  0.0714 -0.1220
 2994SOL    HW120444   3.477   0.195  14.835  0.1114  0.1339 -0.2708
 2994SOL    HW220445   3.447   0.053  14.852  0.5137 -1.1898  1.1310
 2995SOL     OW20446   1.675   0.621   6.401 -0.1412  0.3391 -0.2015
 2995SOL    HW120447   1.702   0.712   6.392 -1.0435  0.5788 -0.4886
 2995SOL    HW220448   1.754   0.576   6.369 -0.1733 -1.4991  2.2709
 2996SOL     OW20449   1.389   3.508   1.346 -0.2973 -0.3066  0.3709
 2996SOL    HW120450   1.333   3.563   1.291 -1.4240  0.1059  1.9279
 2996SOL    HW220451   1.321   3.469   1.401 -0.7685 -0.3086 -0.2080
 2997SOL     OW20452   1.811   0.806   8.332 -0.2020 -0.2410  0.2219
 2997SOL    HW120453   1.853   0.868   8.392 -0.5734 -0.1259  0.3661
 2997SOL    HW220454   1.835   0.722   8.372 -0.0889  0.0521  0.7624
 2998SOL     OW20455   0.661   2.232  10.614  0.2507 -0.0843 -0.0073
 2998SOL    HW120456   0.716   2.291  10.561 -0.1181  2.0787  2.0101
 2998SOL    HW220457   0.677   2.259  10.704  0.5895  0.2939 -0.1815
 2999SOL     OW20458   4.592   1.387  11.181  0.4509 -0.0631  0.7732
 2999SOL    HW120459   4.617   1.309  11.131 -1.3913 -0.2845  0.2008
 2999SOL    HW220460   4.673   1.430  11.208  0.3018  0.7457 -0.0709
 3000SOL     OW20461   1.190   2.083   6.786 -0.5062 -0.5639 -0.0683
 3000SOL    HW120462   1.155   2.129   6.862  0.2809  2.4279 -1.5103
 3000SOL    HW220463   1.145   2.141   6.723  0.0364 -1.2391 -1.0788
 3001SOL     OW20464   4.462   2.010   7.562  0.0011  0.5004 -0.3742
 3001SOL    HW120465   4.535   2.034   7.619 -2.2950 -0.7971  3.1032
 3001SOL    HW220466   4.509   1.954   7.499  3.2229  0.4288  2.1185
 3002SOL     OW20467   4.227   2.740   2.802 -0.4540 -0.3574  0.8982
 3002SOL    HW120468   4.258   2.694   2.724 -2.5487  1.7378 -1.1552
 3002SOL    HW220469   4.142   2.698   2.813 -0.0405 -1.5462 -0.4005
 3003SOL     OW20470   0.415   3.116   7.533 -0.3372  0.3753  0.2012
 3003SOL    HW120471   0.510   3.117   7.523 -0.5274  2.9790 -1.6396
 3003SOL    HW220472   0.396   3.169   7.455  0.6700  0.7703  0.2323
 3004SOL     OW20473   2.134   2.391   5.623  0.1823 -0.1622  0.2347
 3004SOL    HW120474   2.054   2.339   5.609 -0.0248  0.8346 -2.2384
 3004SOL    HW220475   2.187   2.360   5.549  0.9829  2.3139 -0.2158
 3005SOL     OW20476   2.572   4.154   5.632  0.2304  0.0377 -0.1777
 3005SOL    HW120477   2.587   4.141   5.538 -0.2729  1.3766 -0.4444
 3005SOL    HW220478   2.566   4.249   5.640 -0.4056 -0.1016  1.0313
 3006SOL     OW20479   0.083   1.272   9.150 -0.5974  0.0127 -0.3819
 3006SOL    HW120480   0.166   1.264   9.198 -1.4318 -2.7330  0.6554
 3006SOL    HW220481   0.111   1.308   9.066  1.0851 -0.0233  0.1640
 3007SOL     OW20482   0.394   1.731   3.023  0.3014  0.0868 -0.7669
 3007SOL    HW120483   0.489   1.717   3.018  0.6582  2.2931  0.0823
 3007SOL    HW220484   0.389   1.821   3.054  1.9238  0.1194 -0.5990
 3008SOL     OW20485   0.454   1.949   9.553  0.0068 -0.3541  0.0717
 3008SOL    HW120486   0.362   1.953   9.576 -0.6061 -3.1537 -1.8269
 3008SOL    HW220487   0.496   1.879   9.604  1.0430  1.8736  2.2668
 3009SOL     OW20488   2.073   1.530   6.601  0.4349  0.2511 -0.7493
 3009SOL    HW120489   2.043   1.617   6.629  1.9726  0.6396 -0.2900
 3009SOL    HW220490   2.167   1.539   6.615  0.1129  0.1126  1.4680
 3010SOL     OW20491   3.452   0.947   5.568 -0.0285  0.1309 -0.1175
 3010SOL    HW120492   3.542   0.954   5.535  0.2087  1.0433  0.7111
 3010SOL    HW220493   3.470   0.928   5.660  0.7547  3.1090  0.3599
 3011SOL     OW20494   3.059   0.627  11.402  0.2174 -0.3341 -0.3937
 3011SOL    HW120495   2.972   0.656  11.430  1.8032  1.9271  2.1691
 3011SOL    HW220496   3.104   0.626  11.487  0.6569 -3.2328 -0.6502
 3012SOL     OW20497   3.858   2.295   6.901  0.0129  0.0492 -0.4474
 3012SOL    HW120498   3.865   2.261   6.990  1.8654 -2.3452 -1.4841
 3012SOL    HW220499   3.811   2.224   6.857 -0.5704  0.9610 -1.3050
 3013SOL     OW20500   1.923   1.768   8.087 -0.0652 -0.6748  0.4816
 3013SOL    HW120501   1.984   1.721   8.143  0.7363  0.9496  0.9697
 3013SOL    HW220502   1.930   1.847   8.140  0.5619 -0.7728  0.5388
 3014SOL     OW20503   0.494   1.088   6.378 -0.5222  0.0987 -0.1334
 3014SOL    HW120504   0.469   1.115   6.290 -2.6275  0.7234  0.6637
 3014SOL    HW220505   0.511   1.176   6.412  1.8743  1.5026 -4.9237
 3015SOL     OW20506   2.702   4.356   4.297 -0.1847  0.2532  0.1735
 3015SOL    HW120507   2.658   4.435   4.327  0.1736  0.5828 -0.1785
 3015SOL    HW220508   2.785   4.395   4.270 -0.6054  0.4626 -0.8341
 3016SOL     OW20509   4.087   2.674  17.113  0.1993  1.0348  0.2859
 3016SOL    HW120510   4.122   2.737  17.050 -0.5239 -0.4670 -1.6447
 3016SOL    HW220511   3.999   2.710  17.121 -0.1826  0.1922 -0.0690
 3017SOL     OW20512   2.709   4.631   4.326 -0.2667 -0.0660  0.1220
 3017SOL    HW120513   2.643   4.629   4.257  1.2180 -1.1605 -1.2479
 3017SOL    HW220514   2.681   4.697   4.390 -0.1750 -0.0235  0.1182
 3018SOL     OW20515   2.080   2.717  11.840 -0.5583  0.3139 -0.0656
 3018SOL    HW120516   1.997   2.695  11.882  0.9579 -2.5223  1.4764
 3018SOL    HW220517   2.054   2.725  11.748 -0.6503  0.4198 -0.0302
 3019SOL     OW20518   1.373   1.360   0.094 -0.4106  0.2593 -0.3887
 3019SOL    HW120519   1.348   1.427   0.157  0.2073  1.1166 -1.0507
 3019SOL    HW220520   1.440   1.402   0.040  1.7304 -1.9125  0.5661
 3020SOL     OW20521   4.128   1.059   5.735  0.2686 -0.0855  0.3000
 3020SOL    HW120522   4.171   0.977   5.709 -0.4860 -0.4300  0.1114
 3020SOL    HW220523   4.166   1.118   5.670  2.0816 -1.0979  0.4334
 3021SOL     OW20524   2.971   1.203  14.301  0.3460  0.2982  0.5744
 3021SOL    HW120525   3.032   1.158  14.243 -0.3077 -1.0940  0.9854
 3021SOL    HW220526   2.937   1.129  14.351  1.1391  0.4526  1.3428
 3022SOL     OW20527   0.189   4.573   7.774  0.3373  0.2775  0.3684
 3022SOL    HW120528   0.203   4.548   7.682 -1.7368  2.9353 -0.6755
 3022SOL    HW220529   0.172   4.667   7.764 -0.5979  0.0324 -0.3740
 3023SOL     OW20530   2.633   0.922   5.891 -0.1744 -0.1445 -0.0401
 3023SOL    HW120531   2.650   0.841   5.842  0.7564  1.2409 -1.9965
 3023SOL    HW220532   2.714   0.941   5.940 -1.1988 -1.2073  2.0560
 3024SOL     OW20533   3.489   4.200   3.221 -0.4933  0.6532 -0.3258
 3024SOL    HW120534   3.574   4.199   3.264  0.0304  0.8097 -1.3480
 3024SOL    HW220535   3.509   4.142   3.147 -0.7273  0.5889 -0.3396
 3025SOL     OW20536   1.529   3.163   3.836 -0.3356  0.2063 -0.1037
 3025SOL    HW120537   1.607   3.134   3.789 -0.4100 -1.0560  0.5552
 3025SOL    HW220538   1.541   3.111   3.916  1.8504  1.8688  0.6312
 3026SOL     OW20539   1.351   3.439   4.534  0.3440  0.1986 -0.4662
 3026SOL    HW120540   1.417   3.488   4.584 -0.8482 -1.3057  2.5448
 3026SOL    HW220541   1.381   3.348   4.539 -0.1778  0.0443 -0.2268
 3027SOL     OW20542   2.348   0.141   7.239  0.1041 -0.1689 -0.3715
 3027SOL    HW120543   2.351   0.090   7.159  1.3476 -1.1573  0.3082
 3027SOL    HW220544   2.430   0.189   7.255 -0.4595  0.4264  0.7273
 3028SOL     OW20545   4.249   0.006   1.080  0.1574 -0.4430  0.4223
 3028SOL    HW120546   4.307   4.653   1.061  2.6487  1.5457  0.3677
 3028SOL    HW220547   4.286   0.018   1.168 -0.4461 -3.2101  1.0640
 3029SOL     OW20548   0.483   3.102   3.235  0.3605 -0.2574 -0.1502
 3029SOL    HW120549   0.510   3.061   3.153  2.9065  1.2400 -0.0308
 3029SOL    HW220550   0.497   3.194   3.211 -0.2039 -0.1684 -0.1444
 3030SOL     OW20551   1.413   4.547   6.946 -0.1085  0.6804  0.2328
 3030SOL    HW120552   1.419   4.563   6.852  0.6892  2.0899  0.5389
 3030SOL    HW220553   1.424   4.452   6.954  1.6673  1.0280  1.9971
 3031SOL     OW20554   0.271   1.507   8.328  0.9093  0.0404 -0.0567
 3031SOL    HW120555   0.337   1.479   8.392  0.2184  0.8447  1.0172
 3031SOL    HW220556   0.208   1.436   8.343  0.3789  0.3239 -0.9710
 3032SOL     OW20557   0.623   0.453  12.349 -0.0596  0.9454 -0.1725
 3032SOL    HW120558   0.691   0.469  12.284  0.7449 -1.7306  0.0247
 3032SOL    HW220559   0.600   0.544  12.369 -0.9911  1.4617 -3.6890
 3033SOL     OW20560   1.308   0.230   3.250  0.4582 -0.3133  0.0712
 3033SOL    HW120561   1.307   0.161   3.184  0.1351  0.3128 -0.5806
 3033SOL    HW220562   1.389   0.276   3.229  0.6212 -0.0277  1.2996
 3034SOL     OW20563   4.368   2.145   8.649 -0.3459  0.0346  0.0986
 3034SOL    HW120564   4.325   2.229   8.637  0.5458  0.4240 -0.3479
 3034SOL    HW220565   4.292   2.086   8.645 -2.3617  2.5898  1.0254
 3035SOL     OW20566   1.539   2.891  15.226  0.1182  0.2681 -0.0815
 3035SOL    HW120567   1.508   2.860  15.311  0.6084 -0.8419 -0.3074
 3035SOL    HW220568   1.488   2.836  15.167 -1.3209  1.2329  0.2461
 3036SOL     OW20569   2.071   0.259  16.914 -0.0801  0.1676  0.1500
 3036SOL    HW120570   2.067   0.184  16.855 -0.1463  1.4694 -1.5014
 3036SOL    HW220571   2.104   0.209  16.988 -2.1464 -0.3149  0.7409
 3037SOL     OW20572   0.964   4.187  17.486  0.5131 -0.7499 -0.1715
 3037SOL    HW120573   0.903   4.192  17.560  2.4983 -4.8072  1.7519
 3037SOL    HW220574   0.994   4.097  17.502 -1.4816 -0.8961  2.8346
 3038SOL     OW20575   0.873   3.682  13.006 -0.2721  0.2147  0.2080
 3038SOL    HW120576   0.958   3.647  13.032 -0.9986  0.2163  2.6299
 3038SOL    HW220577   0.897   3.760  12.955 -2.6537 -0.7959 -2.3780
 3039SOL     OW20578   1.479   1.808   3.569 -0.1894 -0.0008  0.6366
 3039SOL    HW120579   1.445   1.888   3.528  0.1727  0.6686  1.6226
 3039SOL    HW220580   1.435   1.822   3.653 -0.6510  1.3655  0.1665
 3040SOL     OW20581   2.603   0.577   6.630 -0.0773 -0.3807  0.1107
 3040SOL    HW120582   2.594   0.483   6.648  0.4132 -0.5974 -0.7459
 3040SOL    HW220583   2.623   0.596   6.722  0.9729  1.2475 -0.4490
 3041SOL     OW20584   0.736   1.640   5.547 -0.2521 -0.2921 -0.6173
 3041SOL    HW120585   0.783   1.717   5.578 -1.8785  0.2165  0.6036
 3041SOL    HW220586   0.698   1.678   5.467 -0.9734 -2.3610 -1.2721
 3042SOL     OW20587   0.289   2.566  14.066  0.9885 -0.3069  0.4530
 3042SOL    HW120588   0.317   2.620  13.993  0.1191  0.9774  1.0635
 3042SOL    HW220589   0.363   2.582  14.125  1.1861 -0.4645  0.2489
 3043SOL     OW20590   3.152   0.883   5.265  0.0121  0.1527 -0.3238
 3043SOL    HW120591   3.122   0.896   5.175  1.2141  1.9218 -0.4763
 3043SOL    HW220592   3.070   0.904   5.309 -0.2882  1.1398 -1.3510
 3044SOL     OW20593   2.448   2.586   8.273  0.5157 -0.0192 -0.4779
 3044SOL    HW120594   2.418   2.527   8.343 -0.5112  0.6659 -0.3262
 3044SOL    HW220595   2.406   2.546   8.197 -1.5845  0.6183  0.3448
 3045SOL     OW20596   1.485   3.421   1.799  0.1766  0.1287  0.0225
 3045SOL    HW120597   1.398   3.460   1.800 -0.0081 -0.1940 -2.7414
 3045SOL    HW220598   1.477   3.343   1.854  1.7449 -0.2651 -0.3093
 3046SOL     OW20599   4.676   3.051   6.517 -0.3732  0.2119  0.2918
 3046SOL    HW120600   4.599   3.011   6.477 -0.5128 -1.2584  2.0229
 3046SOL    HW220601   4.707   2.972   6.561  0.7663  0.8269  0.5831
 3047SOL     OW20602   2.507   4.187   6.087 -0.2275  0.3573  0.3487
 3047SOL    HW120603   2.597   4.179   6.117 -0.0823 -0.2901 -0.2457
 3047SOL    HW220604   2.496   4.098   6.054 -0.4433  1.1220 -1.7016
 3048SOL     OW20605   4.599   4.099   8.341  0.0338 -0.4823  0.3453
 3048SOL    HW120606   4.516   4.062   8.372 -0.8838  1.5270  0.2345
 3048SOL    HW220607   4.647   4.016   8.336  0.4064 -0.1687 -1.2941
 3049SOL     OW20608   0.174   1.355   8.913  0.3562 -0.3921  0.5853
 3049SOL    HW120609   0.156   1.307   8.832  0.1068  0.2398  0.2589
 3049SOL    HW220610   0.247   1.411   8.885  0.9230 -2.3625 -1.8680
 3050SOL     OW20611   0.286   0.230   4.595 -0.1889 -0.2933  0.0478
 3050SOL    HW120612   0.309   0.323   4.592 -0.7295 -0.1583  0.1803
 3050SOL    HW220613   0.207   0.242   4.647 -2.0825 -0.7246 -2.6998
 3051SOL     OW20614   4.005   2.618   2.879  0.2784 -0.2986  0.0142
 3051SOL    HW120615   3.921   2.577   2.857  0.1562  0.1795 -0.3964
 3051SOL    HW220616   4.046   2.545   2.926 -2.6677 -1.2635  1.1405
 3052SOL     OW20617   2.522   3.029   0.257 -0.2183  0.3930  0.1066
 3052SOL    HW120618   2.429   3.045   0.274 -0.2825  0.7671 -0.5774
 3052SOL    HW220619   2.565   3.114   0.273  0.2693 -0.5648  3.7625
 3053SOL     OW20620   0.086   4.721   8.195  0.6624  0.2991  0.0487
 3053SOL    HW120621   4.711   4.718   8.187  0.9363 -2.3694 -2.3426
 3053SOL    HW220622   0.085   4.687   8.285 -1.1895  0.2644  0.0205
 3054SOL     OW20623   3.789   2.723  13.341 -0.0513  0.6318 -0.4818
 3054SOL    HW120624   3.731   2.781  13.390  0.9083  0.3669  0.9892
 3054SOL    HW220625   3.848   2.710  13.415  1.5959 -0.0366 -1.9277
 3055SOL     OW20626   3.757   2.658  17.664  0.1001  0.3006  0.0081
 3055SOL    HW120627   3.753   2.752  17.643  1.3753  0.0367 -1.4602
 3055SOL    HW220628   3.740   2.677   0.070  0.2472 -0.6100  0.2215
 3056SOL     OW20629   0.232   2.156   8.128  0.2279  0.2514  0.2810
 3056SOL    HW120630   0.286   2.086   8.093  0.5081  0.2558  0.7072
 3056SOL    HW220631   0.254   2.230   8.070  1.4875 -0.6982 -0.4478
 3057SOL     OW20632   2.076   3.239   1.409  0.1150 -0.0182  0.1057
 3057SOL    HW120633   2.043   3.264   1.495  1.4235 -1.4363  1.0138
 3057SOL    HW220634   2.018   3.298   1.361  0.0242  1.2463  1.7896
 3058SOL     OW20635   3.277   4.491   1.077 -0.2876  0.1523 -0.0571
 3058SOL    HW120636   3.193   4.520   1.041 -0.1788  0.5243 -0.0063
 3058SOL    HW220637   3.252   4.456   1.163  0.3018  1.3714  0.6044
 3059SOL     OW20638   2.554   4.619   2.553  0.6404 -0.0272  0.2634
 3059SOL    HW120639   2.476   4.623   2.610  2.1497  0.2785  2.3227
 3059SOL    HW220640   2.512   4.661   2.478 -1.1236  1.5213  2.1248
 3060SOL     OW20641   3.729   4.172  13.356  0.6040 -0.4675  0.6226
 3060SOL    HW120642   3.686   4.187  13.441  0.0014 -0.1405  0.2588
 3060SOL    HW220643   3.726   4.257  13.314  0.0372 -0.6368  0.3258
 3061SOL     OW20644   2.033   2.528   9.084  0.0809  0.0461 -0.3737
 3061SOL    HW120645   2.101   2.483   9.035  2.9502  2.9239  0.9234
 3061SOL    HW220646   1.955   2.503   9.034 -1.0842  1.1292  0.9002
 3062SOL     OW20647   2.032   2.036   0.078 -0.0629 -0.5927  0.1254
 3062SOL    HW120648   1.980   1.961   0.109  0.5893 -1.0452  0.1325
 3062SOL    HW220649   2.094   2.044   0.150 -2.4550  1.7379  1.9333
 3063SOL     OW20650   3.754   4.046   5.038  0.4117 -0.3184  0.7567
 3063SOL    HW120651   3.676   3.991   5.033  1.0336 -1.1444  0.2731
 3063SOL    HW220652   3.804   4.002   4.970  1.3842 -0.3134  1.4716
 3064SOL     OW20653   3.202   2.793   3.341 -0.7634 -0.4822  0.4467
 3064SOL    HW120654   3.271   2.749   3.391 -0.3063 -1.4810 -1.0433
 3064SOL    HW220655   3.241   2.877   3.316 -0.7099 -0.0847  1.8677
 3065SOL     OW20656   3.616   0.295   4.971 -0.1918 -0.1928  0.4092
 3065SOL    HW120657   3.521   0.281   4.968 -0.3183  0.8518 -0.6621
 3065SOL    HW220658   3.621   0.327   5.061 -0.2647  0.2300  0.2633
 3066SOL     OW20659   3.710   1.674   7.676  0.3389  0.5250  0.2983
 3066SOL    HW120660   3.745   1.606   7.734 -0.7548  1.0209  1.5256
 3066SOL    HW220661   3.693   1.625   7.595 -0.5584 -1.2598  1.5685
 3067SOL     OW20662   0.382   1.102   9.591 -0.1831  1.0527  0.0999
 3067SOL    HW120663   0.291   1.130   9.599 -1.0128 -1.9449  1.0451
 3067SOL    HW220664   0.355   1.018   9.553 -1.0329  1.1644  0.4661
 3068SOL     OW20665   1.896   2.595   9.961 -0.1115  0.2741  0.2884
 3068SOL    HW120666   1.916   2.551   9.879  0.7116  1.1714  0.0034
 3068SOL    HW220667   1.982   2.588  10.002  0.0872  1.3856  0.0686
 3069SOL     OW20668   4.372   1.524  12.665 -0.1645 -0.3704  0.5651
 3069SOL    HW120669   4.344   1.435  12.686  3.0300 -1.9416 -1.8294
 3069SOL    HW220670   4.406   1.507  12.577  0.0621 -0.0650  0.5911
 3070SOL     OW20671   0.744   0.679   7.805 -0.3274  0.2354  0.2949
 3070SOL    HW120672   0.669   0.671   7.865  0.3453 -0.4043  1.0548
 3070SOL    HW220673   0.698   0.724   7.734 -0.9688  0.2710  0.7286
 3071SOL     OW20674   3.991   3.044  10.552  0.3594  0.2831  0.1322
 3071SOL    HW120675   3.897   3.042  10.537 -0.0931 -2.4361  3.4745
 3071SOL    HW220676   3.999   2.964  10.604  3.7058 -1.4906 -3.1580
 3072SOL     OW20677   2.229   1.019   4.944 -0.3817  0.0735  0.1028
 3072SOL    HW120678   2.312   1.005   4.899  1.3402 -0.9000  3.5514
 3072SOL    HW220679   2.172   0.978   4.879  1.7811  0.1289 -1.8099
 3073SOL     OW20680   1.318   1.759   8.865  0.7215 -0.3221 -0.0961
 3073SOL    HW120681   1.384   1.769   8.934  1.7100  0.1440 -1.0935
 3073SOL    HW220682   1.277   1.844   8.877  0.7935 -0.7804  3.5109
 3074SOL     OW20683   4.176   3.918  14.667  0.0255 -0.2536  0.2413
 3074SOL    HW120684   4.104   3.880  14.717  0.2002  2.3769  2.4640
 3074SOL    HW220685   4.217   3.837  14.636 -0.1093 -0.3360  0.2801
 3075SOL     OW20686   3.517   1.709  16.034 -0.0798 -0.0653 -0.1410
 3075SOL    HW120687   3.548   1.619  16.022 -0.1564  0.0509 -1.2450
 3075SOL    HW220688   3.595   1.755  16.065 -0.5229 -0.1935  1.1677
 3076SOL     OW20689   2.996   3.386   6.368 -0.1796  0.2697 -0.4173
 3076SOL    HW120690   2.993   3.479   6.390  1.9395  0.4960 -1.0635
 3076SOL    HW220691   2.969   3.390   6.276 -2.9907 -2.8821  0.2984
 3077SOL     OW20692   0.316   3.799   1.102  0.4001 -0.3182 -0.7317
 3077SOL    HW120693   0.248   3.779   1.038 -0.6312  1.3713 -0.1840
 3077SOL    HW220694   0.315   3.715   1.146 -0.5914 -0.5076 -1.1080
 3078SOL     OW20695   3.191   2.076   8.277 -0.1470 -0.6464 -0.2503
 3078SOL    HW120696   3.256   2.135   8.317  1.4811 -1.7226 -1.3167
 3078SOL    HW220697   3.125   2.068   8.346 -0.1780 -3.7812 -0.6713
 3079SOL     OW20698   0.781   2.719   2.567 -0.0316  0.2630 -0.0912
 3079SOL    HW120699   0.751   2.759   2.649 -0.2926 -0.3805  0.1273
 3079SOL    HW220700   0.827   2.643   2.602 -0.0123  0.9530  1.3919
 3080SOL     OW20701   0.087   4.557  14.760 -0.2490 -0.2781  0.8065
 3080SOL    HW120702   0.150   4.487  14.739  0.2874  1.0262 -2.0182
 3080SOL    HW220703   0.014   4.505  14.794 -0.5990 -2.2496 -2.9134
 3081SOL     OW20704   3.432   3.347   9.313  1.1885 -0.5956  0.4896
 3081SOL    HW120705   3.381   3.266   9.315 -0.7042  0.4664 -5.2693
 3081SOL    HW220706   3.504   3.317   9.256 -1.2490 -1.4122 -2.1540
 3082SOL     OW20707   4.439   3.148   2.754 -0.2460  0.0771 -0.6604
 3082SOL    HW120708   4.377   3.198   2.701 -0.2714 -0.9304 -1.5852
 3082SOL    HW220709   4.388   3.070   2.773 -0.5652 -0.0750 -2.1971
 3083SOL     OW20710   2.965   1.022   7.343 -0.6666  0.0081 -0.1678
 3083SOL    HW120711   2.900   0.981   7.285 -0.0002 -0.4920 -0.5548
 3083SOL    HW220712   2.935   0.987   7.427 -1.1434  1.8213  0.4067
 3084SOL     OW20713   2.243   0.080   4.641 -0.1196  0.0613  0.2448
 3084SOL    HW120714   2.152   0.059   4.661 -0.6427  0.6671 -1.4850
 3084SOL    HW220715   2.250   0.152   4.704  0.5489 -1.3901  1.8319
 3085SOL     OW20716   2.961   0.166   3.899  0.2018  0.3805 -0.4480
 3085SOL    HW120717   2.885   0.224   3.897  0.1919  0.3810 -0.0978
 3085SOL    HW220718   2.992   0.190   3.986  1.1560  1.0954 -0.9949
 3086SOL     OW20719   4.306   4.153  12.718  0.0991  0.1342  0.7258
 3086SOL    HW120720   4.271   4.233  12.758  1.4067  1.0167  0.0954
 3086SOL    HW220721   4.296   4.169  12.625 -1.9639 -2.1020  0.5643
 3087SOL     OW20722   0.866   0.128   4.973  0.0555 -0.0076  0.4314
 3087SOL    HW120723   0.827   0.094   4.892  1.7678  0.4040 -0.5716
 3087SOL    HW220724   0.819   0.066   5.028  1.6325 -0.8042  0.8887
 3088SOL     OW20725   2.150   0.962   9.468  0.0737 -0.2188  0.2273
 3088SOL    HW120726   2.079   0.945   9.406  1.1870  0.4924 -1.2323
 3088SOL    HW220727   2.102   0.970   9.551 -0.6506  1.7768 -0.3876
 3089SOL     OW20728   0.961   2.315   4.762 -0.0198  0.3513  0.0632
 3089SOL    HW120729   0.885   2.295   4.707  0.2973  0.7926 -0.5426
 3089SOL    HW220730   1.018   2.340   4.689 -0.5579  0.0474 -0.4633
 3090SOL     OW20731   1.436   3.298  15.435 -0.3783  0.1883  0.0696
 3090SOL    HW120732   1.382   3.366  15.476  0.8717  0.6856  0.8703
 3090SOL    HW220733   1.475   3.335  15.356  0.0423  0.4918  0.4220
 3091SOL     OW20734   1.457   4.373   6.601  0.1647 -0.0012 -0.5311
 3091SOL    HW120735   1.530   4.411   6.554 -0.1354  1.3269  0.0816
 3091SOL    HW220736   1.515   4.326   6.661  0.2380  1.1333  0.2919
 3092SOL     OW20737   3.122   3.038  15.536 -0.6123 -0.2528  0.0646
 3092SOL    HW120738   3.152   3.127  15.552 -1.5946  0.0529  0.2180
 3092SOL    HW220739   3.111   3.045  15.442  0.3107 -0.3742 -0.0500
 3093SOL     OW20740   3.749   0.162   5.359 -0.2533  0.6897 -0.7088
 3093SOL    HW120741   3.653   0.157   5.360 -0.2661  0.8241 -1.3150
 3093SOL    HW220742   3.760   0.189   5.450 -0.4817  1.7018 -0.9786
 3094SOL     OW20743   3.176   3.290   2.744  0.3221  0.0680 -0.5807
 3094SOL    HW120744   3.246   3.336   2.697  1.2895  0.3846  1.1779
 3094SOL    HW220745   3.184   3.322   2.834 -2.3613 -1.2158  0.1381
 3095SOL     OW20746   2.655   1.546   3.562 -0.1212  0.4956 -0.0088
 3095SOL    HW120747   2.595   1.568   3.491  1.3994 -0.0828 -1.4609
 3095SOL    HW220748   2.602   1.552   3.642 -0.3816 -1.1100 -0.0576
 3096SOL     OW20749   3.527   2.947   0.493  0.2895 -0.6937  0.3157
 3096SOL    HW120750   3.517   2.863   0.538 -2.1296 -1.3313 -1.4284
 3096SOL    HW220751   3.616   2.951   0.456  0.5176 -0.9693  0.8407
 3097SOL     OW20752   3.222   1.276   4.297 -0.1658 -0.3261 -0.0465
 3097SOL    HW120753   3.233   1.329   4.376  1.8858 -1.0070  0.1281
 3097SOL    HW220754   3.312   1.286   4.265 -0.2903 -1.6939 -0.8217
 3098SOL     OW20755   1.304   1.261   8.287 -0.0858  0.0570  0.0602
 3098SOL    HW120756   1.328   1.298   8.202 -1.3637  1.1489  0.1722
 3098SOL    HW220757   1.215   1.230   8.274 -0.4296  0.9536  0.2468
 3099SOL     OW20758   4.499   1.841   2.185 -0.3942  0.1939 -0.1119
 3099SOL    HW120759   4.511   1.751   2.214 -0.5667  1.5926  4.3220
 3099SOL    HW220760   4.577   1.853   2.131  0.9291 -0.7669  1.6211
 3100SOL     OW20761   2.093   2.487  15.073 -0.2388  0.2302 -0.6245
 3100SOL    HW120762   2.126   2.398  15.064 -0.8989  0.0813 -1.5274
 3100SOL    HW220763   2.169   2.537  15.043  0.5116  0.0613  0.9457
 3101SOL     OW20764   2.239   3.369  11.183 -0.3324 -0.1882 -0.0361
 3101SOL    HW120765   2.213   3.385  11.274  1.0025 -2.5377  0.7483
 3101SOL    HW220766   2.203   3.444  11.136 -1.8012 -1.3264 -0.7556
 3102SOL     OW20767   2.272   2.500   9.296  0.5023  0.2999 -0.0360
 3102SOL    HW120768   2.291   2.518   9.204  0.1549 -1.6782 -0.4946
 3102SOL    HW220769   2.319   2.570   9.341  0.2440  0.7486 -0.4597
 3103SOL     OW20770   2.946   1.081  16.613  0.0925  0.4290 -0.0253
 3103SOL    HW120771   2.861   1.121  16.635  0.3603  0.5048  0.8513
 3103SOL    HW220772   3.004   1.150  16.644 -0.3309  0.3831  0.8624
 3104SOL     OW20773   2.012   2.406   8.619 -0.7591  0.8083  0.1181
 3104SOL    HW120774   2.097   2.448   8.605 -0.8572  0.8059 -0.4881
 3104SOL    HW220775   2.039   2.315   8.619 -1.7719  0.5053  1.2339
 3105SOL     OW20776   3.157   2.323   0.950  0.2316 -0.7599  0.0664
 3105SOL    HW120777   3.221   2.284   1.009  0.1360 -3.0964 -1.3609
 3105SOL    HW220778   3.192   2.276   0.874 -1.3627  0.8479 -1.6511
 3106SOL     OW20779   4.303   4.172  14.802 -0.1622  0.1660  0.3553
 3106SOL    HW120780   4.224   4.134  14.764  1.5243 -1.7723 -1.2134
 3106SOL    HW220781   4.310   4.250  14.747 -1.2261  1.3357  1.8862
 3107SOL     OW20782   1.310   0.315  15.620 -0.0126 -0.6145  0.3899
 3107SOL    HW120783   1.268   0.237  15.656 -1.0475  0.3291  1.2749
 3107SOL    HW220784   1.343   0.354  15.701  0.5686  1.0931 -0.6654
 3108SOL     OW20785   0.623   2.580   5.426  0.3468  0.0879 -0.1139
 3108SOL    HW120786   0.689   2.576   5.495 -1.0040 -0.0016  1.1830
 3108SOL    HW220787   0.671   2.628   5.358  1.3246  0.0520  0.5538
 3109SOL     OW20788   1.260   4.304   8.764 -0.2192 -0.3877 -0.0593
 3109SOL    HW120789   1.320   4.237   8.797 -2.7074 -1.9098  1.3822
 3109SOL    HW220790   1.184   4.259   8.727  1.3213 -3.0132 -0.0088
 3110SOL     OW20791   2.154   1.609   1.839 -0.0870  0.0344 -0.5508
 3110SOL    HW120792   2.144   1.519   1.870 -1.3060 -0.2029 -1.6186
 3110SOL    HW220793   2.212   1.586   1.766 -1.3684 -1.3253 -1.1229
 3111SOL     OW20794   0.700   0.681   6.010  0.4655 -0.1270  0.0567
 3111SOL    HW120795   0.736   0.686   5.922  1.2630  1.0037  0.4501
 3111SOL    HW220796   0.627   0.742   6.020  0.4973 -0.0560 -0.1457
 3112SOL     OW20797   4.167   1.604   4.574 -0.5587  0.3808  0.0570
 3112SOL    HW120798   4.245   1.550   4.577 -0.9515  0.0341  3.2569
 3112SOL    HW220799   4.163   1.668   4.645 -0.1726  2.0820 -1.4341
 3113SOL     OW20800   0.735   4.382   8.713 -1.2443  0.2077  0.0969
 3113SOL    HW120801   0.706   4.341   8.631  0.3017 -5.6912  2.4362
 3113SOL    HW220802   0.685   4.463   8.721 -0.5065  0.5209  1.6006
 3114SOL     OW20803   3.430   0.621   3.811 -0.2932 -0.4925  0.4449
 3114SOL    HW120804   3.448   0.603   3.718 -1.0227 -0.0118  0.2104
 3114SOL    HW220805   3.485   0.699   3.821  0.3645 -0.9820  0.6425
 3115SOL     OW20806   0.097   0.787   9.228  0.3402  0.2000  0.3611
 3115SOL    HW120807   0.137   0.728   9.165 -2.1171 -0.9534 -0.1162
 3115SOL    HW220808   0.034   0.726   9.265 -0.4127 -0.9737 -2.8114
 3116SOL     OW20809   3.914   4.275   1.664  0.5869 -0.1435 -0.0182
 3116SOL    HW120810   3.849   4.223   1.617  0.1064  1.2803 -0.8986
 3116SOL    HW220811   3.895   4.247   1.754 -0.8735 -0.6641 -0.4888
 3117SOL     OW20812   1.147   1.503  17.629  0.3000 -0.1081  0.3759
 3117SOL    HW120813   1.095   1.427  17.656 -0.4011 -0.3520 -1.6403
 3117SOL    HW220814   1.222   1.501   0.001  0.5271  0.4658  0.0958
 3118SOL     OW20815   4.260   1.821   7.669 -0.5234  0.4000 -0.4810
 3118SOL    HW120816   4.288   1.870   7.747  1.5645 -0.9937 -0.3528
 3118SOL    HW220817   4.275   1.889   7.603 -3.3146  2.1282  0.6438
 3119SOL     OW20818   3.723   0.077   4.673  0.3620 -0.2253 -0.5866
 3119SOL    HW120819   3.704   0.171   4.673  1.1760 -0.0585  1.3753
 3119SOL    HW220820   3.728   0.059   4.579  0.0025  0.5481 -0.7538
 3120SOL     OW20821   1.475   0.257  16.440  0.8480 -0.4175 -0.5458
 3120SOL    HW120822   1.485   0.182  16.381 -2.8155 -0.1127 -1.5384
 3120SOL    HW220823   1.542   0.245  16.508 -2.2138 -2.4057  2.0900
 3121SOL     OW20824   1.219   3.669   1.223 -0.0892 -0.3107  0.8072
 3121SOL    HW120825   1.150   3.602   1.224  0.4522 -0.8468  1.8741
 3121SOL    HW220826   1.179   3.728   1.159  0.1929 -0.9977  0.0069
 3122SOL     OW20827   1.139   1.046   7.192 -0.0310  0.3982 -0.2984
 3122SOL    HW120828   1.049   1.075   7.200 -0.1142 -0.5682  2.5030
 3122SOL    HW220829   1.165   1.096   7.115 -1.0262 -1.9628 -2.1436
 3123SOL     OW20830   2.865   2.355   0.169 -0.2128  0.3393 -0.0168
 3123SOL    HW120831   2.788   2.298   0.171  1.2201 -1.5127  2.3765
 3123SOL    HW220832   2.927   2.282   0.178  0.6668  0.9420 -1.2741
 3124SOL     OW20833   4.627   2.579  17.415  0.5186 -0.0684 -0.9080
 3124SOL    HW120834   4.595   2.668  17.397 -0.3960 -0.2676 -0.2831
 3124SOL    HW220835   4.700   2.597  17.474 -0.5595 -1.3779  0.8225
 3125SOL     OW20836   0.476   0.536  17.114  0.1936  0.1498  0.2294
 3125SOL    HW120837   0.535   0.472  17.074 -2.8168 -2.2644 -0.3720
 3125SOL    HW220838   0.462   0.595  17.040 -0.6042  0.1767  0.4014
 3126SOL     OW20839   2.574   4.613   8.572 -0.0233 -0.6843  0.7152
 3126SOL    HW120840   2.516   4.655   8.636 -1.3158  0.0688 -0.9352
 3126SOL    HW220841   2.555   4.669   8.497  0.8297 -0.3901  0.7245
 3127SOL     OW20842   0.388   1.115   4.459 -0.4933  0.1178  0.2490
 3127SOL    HW120843   0.403   1.083   4.548  1.7340  0.4391  0.0066
 3127SOL    HW220844   0.343   1.041   4.420  0.0758 -0.5064  0.7877
 3128SOL     OW20845   2.171   2.640  13.897  0.4764 -0.6599  0.0133
 3128SOL    HW120846   2.124   2.584  13.836 -2.5179 -0.0692  1.7547
 3128SOL    HW220847   2.258   2.610  13.873  1.0151 -0.3812  1.5852
 3129SOL     OW20848   1.520   4.341   1.096 -0.0961  0.3123  0.0675
 3129SOL    HW120849   1.465   4.415   1.070 -0.7434  0.8887  3.0388
 3129SOL    HW220850   1.595   4.384   1.137  1.7044 -0.5744 -2.3108
 3130SOL     OW20851   3.907   0.471   2.718  0.3553 -0.4090 -0.1912
 3130SOL    HW120852   3.855   0.532   2.770 -0.3892 -0.8639 -0.4157
 3130SOL    HW220853   3.937   0.540   2.659  0.2967  1.6193  2.1236
 3131SOL     OW20854   0.375   1.405   8.093  0.0547 -0.3774 -0.4322
 3131SOL    HW120855   0.320   1.437   8.165  0.3514  2.0835 -1.3267
 3131SOL    HW220856   0.383   1.486   8.043  0.5811  1.0767  1.9767
 3132SOL     OW20857   3.358   4.405   5.773 -0.2846 -0.1326 -0.0899
 3132SOL    HW120858   3.357   4.444   5.686  0.2058 -1.2235 -0.5890
 3132SOL    HW220859   3.445   4.432   5.804  0.7688 -2.7646 -0.6818
 3133SOL     OW20860   3.241   2.311  16.788 -0.4003 -0.3132  0.3687
 3133SOL    HW120861   3.209   2.339  16.702  0.8503  1.0413  0.3341
 3133SOL    HW220862   3.178   2.339  16.854 -2.9630 -0.6128 -1.9837
 3134SOL     OW20863   0.679   2.522  12.264  0.0836 -0.4011  0.2999
 3134SOL    HW120864   0.592   2.480  12.260  0.3774 -0.9032 -0.9921
 3134SOL    HW220865   0.733   2.457  12.220 -0.3874 -1.7429  1.7247
 3135SOL     OW20866   3.455   1.795   4.040  0.3543  0.3436 -0.2216
 3135SOL    HW120867   3.405   1.741   3.979 -0.5843  0.3278  0.5563
 3135SOL    HW220868   3.523   1.832   3.984  1.0867  0.7131  0.9274
 3136SOL     OW20869   3.381   2.863   1.346 -0.2097 -0.3545  0.3717
 3136SOL    HW120870   3.434   2.939   1.323 -2.9266  1.4374  0.0838
 3136SOL    HW220871   3.444   2.793   1.327  0.4490  0.4873 -0.5286
 3137SOL     OW20872   0.981   2.592  14.870 -0.1681 -0.4758 -0.4840
 3137SOL    HW120873   0.977   2.647  14.792 -0.9096  1.0820  0.6665
 3137SOL    HW220874   0.996   2.664  14.931 -0.8358  2.4976 -3.8605
 3138SOL     OW20875   4.194   3.520   4.194  0.2460 -0.1626  0.1982
 3138SOL    HW120876   4.129   3.584   4.165 -1.1849 -1.9470 -0.5264
 3138SOL    HW220877   4.164   3.449   4.136 -1.0243 -0.5292  1.3192
 3139SOL     OW20878   0.476   2.054   2.815 -0.1186 -0.3396 -0.5641
 3139SOL    HW120879   0.404   1.991   2.818  0.5368 -1.0366  0.5692
 3139SOL    HW220880   0.511   2.010   2.893 -0.2611  1.3142  0.4360
 3140SOL     OW20881   2.115   3.304  17.629 -0.6080  0.2005  0.0194
 3140SOL    HW120882   2.196   3.276  17.672 -2.4274 -0.2632  3.1049
 3140SOL    HW220883   2.065   3.228  17.659  0.0510 -0.3013 -0.1517
 3141SOL     OW20884   2.727   1.141   6.118 -0.1226 -0.2565 -0.7468
 3141SOL    HW120885   2.752   1.053   6.146  1.1345  0.3868  0.1525
 3141SOL    HW220886   2.703   1.178   6.203  2.3420  2.4839 -1.2898
 3142SOL     OW20887   2.372   0.482   7.287  0.2254 -0.3950 -0.4412
 3142SOL    HW120888   2.429   0.559   7.282 -3.3594  2.3234  0.2733
 3142SOL    HW220889   2.430   0.407   7.300  0.3679  0.0197  1.3205
 3143SOL     OW20890   3.585   3.525   2.183  0.1513 -0.2297  0.3513
 3143SOL    HW120891   3.571   3.479   2.101  2.2107  0.4374 -0.3853
 3143SOL    HW220892   3.528   3.473   2.240 -1.9605  0.7314 -0.8764
 3144SOL     OW20893   3.206   1.899  12.438  0.4620  0.1586  0.6404
 3144SOL    HW120894   3.200   1.895  12.533 -1.8891  2.0792  0.5748
 3144SOL    HW220895   3.117   1.928  12.416  0.7486  0.2040 -0.4393
 3145SOL     OW20896   4.072   3.089   9.023  0.0689 -0.0272 -0.0592
 3145SOL    HW120897   4.061   3.004   8.980  0.0581  0.1199 -0.3516
 3145SOL    HW220898   4.137   3.064   9.088  0.6104 -0.5044 -0.7866
 3146SOL     OW20899   0.012   1.437   4.320 -0.1615 -0.5113 -0.5962
 3146SOL    HW120900   0.088   1.382   4.339 -0.1800  0.0928  1.2426
 3146SOL    HW220901   0.036   1.465   4.232 -0.0265 -1.8011 -0.9716
 3147SOL     OW20902   0.430   4.181   4.725  0.2524 -0.0719  0.4165
 3147SOL    HW120903   0.400   4.105   4.776 -0.7535  0.3031  0.3850
 3147SOL    HW220904   0.506   4.142   4.681  0.6430  1.1070  0.0553
 3148SOL     OW20905   4.067   1.974   3.916  0.5363 -0.3357 -0.1270
 3148SOL    HW120906   4.102   2.041   3.975 -1.5261 -0.0830  0.8400
 3148SOL    HW220907   4.020   1.920   3.980  2.3092  0.1029  1.5448
 3149SOL     OW20908   4.690   0.693   6.500  0.5854  0.0529  0.1851
 3149SOL    HW120909   4.597   0.679   6.515  1.0554 -0.1542  2.7925
 3149SOL    HW220910   4.687   0.786   6.480  0.7818 -0.1042 -0.5734
 3150SOL     OW20911   0.996   1.771   2.753 -0.2640  0.1434  0.0195
 3150SOL    HW120912   1.038   1.744   2.672 -0.3819  0.9296 -0.3024
 3150SOL    HW220913   0.986   1.865   2.744  0.3699  0.0772 -1.4060
 3151SOL     OW20914   4.461   0.216   6.225  0.4910 -0.1903  0.2241
 3151SOL    HW120915   4.536   0.164   6.255 -0.8737 -1.5747  1.2325
 3151SOL    HW220916   4.385   0.168   6.256 -0.4233  2.5065  2.2110
 3152SOL     OW20917   0.535   2.739   5.048 -0.2743  0.0005 -0.9452
 3152SOL    HW120918   0.529   2.725   4.954  1.7581  2.2478 -1.4157
 3152SOL    HW220919   0.504   2.655   5.082  1.0351 -0.5732 -1.1436
 3153SOL     OW20920   4.617   0.543  17.435 -0.5026  0.5518 -0.1416
 3153SOL    HW120921   4.550   0.567  17.498 -1.0399 -0.4410 -0.3258
 3153SOL    HW220922   4.573   0.467  17.396  0.3300 -1.0611  2.0583
 3154SOL     OW20923   3.010   1.109   4.323  0.5487 -0.4427 -0.0448
 3154SOL    HW120924   3.086   1.164   4.304  2.2876 -2.7795  0.1244
 3154SOL    HW220925   2.943   1.169   4.355  0.8529 -0.0933 -0.0610
 3155SOL     OW20926   1.500   4.556   8.796 -0.0588 -0.1966 -0.5332
 3155SOL    HW120927   1.512   4.635   8.849 -0.4063 -0.7350  0.3390
 3155SOL    HW220928   1.511   4.492   8.866 -1.0041  1.2807  0.9687
 3156SOL     OW20929   3.334   0.189  12.252 -0.2749 -0.1383 -0.0253
 3156SOL    HW120930   3.289   0.186  12.336 -0.3026  1.5048  0.0366
 3156SOL    HW220931   3.314   0.104  12.213 -2.0886  0.9483 -1.4993
 3157SOL     OW20932   1.093   3.244   3.579 -0.3899  0.0930 -0.0488
 3157SOL    HW120933   1.150   3.177   3.617  0.4099  0.4492 -0.6160
 3157SOL    HW220934   1.123   3.275   3.493 -1.3039  0.2642 -0.3079
 3158SOL     OW20935   1.292   3.068  15.426 -0.7315  0.1544 -0.6996
 3158SOL    HW120936   1.354   3.141  15.425  1.0621 -1.3878 -1.1480
 3158SOL    HW220937   1.299   3.040  15.518  3.6898  2.2419 -0.3677
 3159SOL     OW20938   2.995   2.789   3.559 -0.0929  0.3898 -0.3289
 3159SOL    HW120939   3.030   2.704   3.585 -2.4743 -0.9998 -1.5616
 3159SOL    HW220940   3.066   2.821   3.504 -1.4967  2.5443 -0.8750
 3160SOL     OW20941   3.742   3.087   5.037 -0.2073  0.2849  0.2336
 3160SOL    HW120942   3.732   3.171   5.082 -0.1177  1.1982 -1.4313
 3160SOL    HW220943   3.836   3.089   5.018  0.0184  0.8898  1.4068
 3161SOL     OW20944   4.246   0.291   0.667 -0.3422 -0.2264 -0.0225
 3161SOL    HW120945   4.245   0.382   0.638  0.1189  0.2366  1.3779
 3161SOL    HW220946   4.259   0.299   0.762 -2.1073  1.0050  0.1008
 3162SOL     OW20947   4.057   3.707   7.434  0.0846 -0.2760 -0.4752
 3162SOL    HW120948   3.979   3.654   7.414 -0.9145  0.6317  1.0259
 3162SOL    HW220949   4.014   3.792   7.427  0.3116  0.0068  1.8432
 3163SOL     OW20950   2.029   0.485   8.109  0.5560  0.0770 -0.5206
 3163SOL    HW120951   2.004   0.500   8.018  0.8580 -0.0418 -0.6242
 3163SOL    HW220952   1.954   0.438   8.145 -0.6071  1.7320 -0.7834
 3164SOL     OW20953   0.982   0.360  11.379  0.2659 -0.1247 -0.5605
 3164SOL    HW120954   0.938   0.438  11.346  1.3298  0.6257 -0.1893
 3164SOL    HW220955   0.960   0.300  11.308 -1.7605  0.5043 -0.4716
 3165SOL     OW20956   2.428   4.031   4.088  0.1889 -0.1901 -0.9876
 3165SOL    HW120957   2.401   3.952   4.041  0.0123 -1.7308  1.7007
 3165SOL    HW220958   2.385   4.104   4.042 -0.4827  0.0671  0.0768
 3166SOL     OW20959   2.814   2.166   5.709 -0.3259 -0.1100  0.7270
 3166SOL    HW120960   2.836   2.203   5.794 -0.5632  0.0584  0.7120
 3166SOL    HW220961   2.837   2.076   5.732 -0.3219 -0.0039  1.1289
 3167SOL     OW20962   4.299   4.642   5.662  0.7603 -0.2513  0.6129
 3167SOL    HW120963   4.266   4.556   5.687 -0.4851 -0.1235 -0.5859
 3167SOL    HW220964   4.244   4.704   5.711  0.6273 -1.4019  1.9239
 3168SOL     OW20965   3.014   0.738   5.916 -0.7762  0.0606 -0.1206
 3168SOL    HW120966   3.020   0.679   5.991  0.4914 -0.2374 -0.4606
 3168SOL    HW220967   2.987   0.823   5.950 -0.8055 -0.7387  1.8208
 3169SOL     OW20968   3.559   3.615  15.209 -0.1966  0.0271 -0.1640
 3169SOL    HW120969   3.562   3.634  15.115  2.0904  0.0215 -0.0898
 3169SOL    HW220970   3.562   3.707  15.234  3.0668 -0.2738  0.5244
 3170SOL     OW20971   3.009   2.206  11.023 -0.1912 -0.2634  0.3730
 3170SOL    HW120972   3.057   2.219  11.104  2.4948  1.2490 -1.4678
 3170SOL    HW220973   2.937   2.145  11.040 -1.7424  1.6285  0.5917
 3171SOL     OW20974   2.636   0.579   2.196 -0.5026 -0.9998  0.0798
 3171SOL    HW120975   2.620   0.626   2.278 -1.4062 -0.1198 -0.5826
 3171SOL    HW220976   2.666   0.653   2.143  0.1723 -0.5930  1.0158
 3172SOL     OW20977   3.882   0.256   5.004 -0.1501 -0.3449  0.5805
 3172SOL    HW120978   3.787   0.266   4.996 -0.0809  0.7522  1.1329
 3172SOL    HW220979   3.894   0.177   5.057  1.3829  1.0173  2.2741
 3173SOL     OW20980   2.738   0.399  15.269  0.0878  0.5339 -0.7289
 3173SOL    HW120981   2.668   0.355  15.220 -0.2110  0.9189 -0.6477
 3173SOL    HW220982   2.768   0.469  15.211  1.3041  0.5888 -0.0268
 3174SOL     OW20983   2.606   0.587   6.054  0.2138  0.2094  0.4140
 3174SOL    HW120984   2.516   0.616   6.038 -0.7995 -2.0888  1.9284
 3174SOL    HW220985   2.650   0.669   6.073 -1.0713  1.0629 -0.2646
 3175SOL     OW20986   2.403   2.822   8.538  0.3373  0.4426  0.0577
 3175SOL    HW120987   2.344   2.747   8.532  0.7700 -0.0717  2.5143
 3175SOL    HW220988   2.483   2.775   8.560 -1.3851 -2.1420  0.7695
 3176SOL     OW20989   1.165   2.865  13.328 -0.5833 -0.0831  0.0757
 3176SOL    HW120990   1.236   2.884  13.389  0.0717  0.6810 -0.9352
 3176SOL    HW220991   1.082   2.901  13.357 -0.4435 -0.9748  1.5815
 3177SOL     OW20992   0.958   2.557   6.703 -0.3933 -0.8126  0.3098
 3177SOL    HW120993   0.971   2.639   6.750 -2.7619 -0.7407  0.8027
 3177SOL    HW220994   0.901   2.593   6.636  1.2852  1.6613  0.2130
 3178SOL     OW20995   1.304   3.970  13.941  0.1690  0.0106  0.3471
 3178SOL    HW120996   1.379   3.946  13.995 -0.5155 -0.4371  1.0872
 3178SOL    HW220997   1.316   4.065  13.930  1.4461 -0.2205 -0.3446
 3179SOL     OW20998   0.766   1.575  16.570  0.3833  0.0680  0.0897
 3179SOL    HW120999   0.758   1.667  16.547  0.3107 -0.3121 -1.4099
 3179SOL    HW221000   0.738   1.576  16.661 -1.8202 -1.1214 -0.5563
 3180SOL     OW21001   2.005   2.002   6.582 -0.5459  0.0013  0.1414
 3180SOL    HW121002   2.065   2.058   6.533  0.1596 -0.7106  0.1918
 3180SOL    HW221003   1.961   2.069   6.634 -0.4872 -0.9936  1.4777
 3181SOL     OW21004   4.553   1.282  11.431  0.2141 -0.3711  0.0408
 3181SOL    HW121005   4.562   1.326  11.346 -0.3554  1.9995  1.2134
 3181SOL    HW221006   4.462   1.311  11.440 -0.3141 -1.8163 -0.6267
 3182SOL     OW21007   2.270   4.213   8.731  0.3448  0.5500  0.4011
 3182SOL    HW121008   2.203   4.170   8.784  1.7273 -0.8269  1.0329
 3182SOL    HW221009   2.262   4.166   8.647  1.9545  0.9701  0.0068
 3183SOL     OW21010   1.370   0.453  12.599  0.4025 -0.2839  0.4888
 3183SOL    HW121011   1.386   0.531  12.546 -0.3670 -0.8730 -0.5972
 3183SOL    HW221012   1.303   0.412  12.544  1.4392 -0.6997 -0.4657
 3184SOL     OW21013   3.941   2.830   8.474 -0.0422 -0.6974  0.4054
 3184SOL    HW121014   3.871   2.888   8.505  0.6927 -0.2933  1.3092
 3184SOL    HW221015   3.900   2.749   8.443 -0.1492 -0.0919 -1.0426
 3185SOL     OW21016   0.376   2.459  12.478  0.0418 -0.2015  0.4700
 3185SOL    HW121017   0.392   2.376  12.433  2.7868  0.7807 -0.4101
 3185SOL    HW221018   0.454   2.458  12.534  0.2094 -0.2332  0.2359
 3186SOL     OW21019   2.479   1.670   7.358 -0.6630  0.4453  0.3216
 3186SOL    HW121020   2.431   1.592   7.385 -1.9084  1.1312  0.0863
 3186SOL    HW221021   2.410   1.736   7.354 -2.8321 -1.7790  1.6100
 3187SOL     OW21022   4.503   3.708   4.762 -0.4913 -0.0430  0.0287
 3187SOL    HW121023   4.535   3.772   4.699 -1.3521  1.7103  1.3653
 3187SOL    HW221024   4.586   3.666   4.784 -0.2830  2.0142  3.1491
 3188SOL     OW21025   1.825   1.243   6.293  0.1673  1.0934  0.0442
 3188SOL    HW121026   1.838   1.236   6.388  0.8782 -1.6109 -0.2574
 3188SOL    HW221027   1.737   1.207   6.294  0.0590  1.3548  0.1943
 3189SOL     OW21028   0.531   0.535  11.927 -0.1691  0.2859  0.1333
 3189SOL    HW121029   0.594   0.488  11.983 -2.3981 -0.9475  1.5981
 3189SOL    HW221030   0.478   0.457  11.911 -1.3681  0.9696  0.7621
 3190SOL     OW21031   2.491   4.106   2.413 -0.3461 -0.4664  0.5101
 3190SOL    HW121032   2.430   4.110   2.339  0.7049  0.1401 -0.3215
 3190SOL    HW221033   2.477   4.016   2.443 -3.2384  0.0164  0.6117
 3191SOL     OW21034   4.666   3.411   5.338 -0.8332  0.3497 -0.5457
 3191SOL    HW121035   4.673   3.431   5.431  0.1645 -1.4630 -0.2350
 3191SOL    HW221036   0.019   3.355   5.313 -0.1593  1.2669 -0.6449
 3192SOL     OW21037   4.012   1.251   8.463  0.3660 -0.5276  0.4900
 3192SOL    HW121038   4.093   1.299   8.476  0.5931 -1.2400  1.7927
 3192SOL    HW221039   3.959   1.326   8.490 -1.2857 -1.6580  0.3722
 3193SOL     OW21040   2.084   2.771   6.861 -0.5972 -0.1457  0.1002
 3193SOL    HW121041   2.119   2.837   6.921 -2.1304  1.4134 -0.7143
 3193SOL    HW221042   2.062   2.704   6.926 -0.9892  0.6288  0.7704
 3194SOL     OW21043   0.228   1.252   2.438  0.1691  0.0381 -0.4934
 3194SOL    HW121044   0.287   1.177   2.447  2.8092  2.2051  0.0273
 3194SOL    HW221045   0.248   1.278   2.348  0.4964  0.1984 -0.3766
 3195SOL     OW21046   2.955   3.020   4.823 -0.4544  0.0182  0.3123
 3195SOL    HW121047   2.954   3.013   4.918 -2.2971  0.9530  0.3472
 3195SOL    HW221048   2.998   2.937   4.799 -1.0718  0.3749 -2.0915
 3196SOL     OW21049   1.509   1.060   9.326 -0.1171 -0.3511 -0.3848
 3196SOL    HW121050   1.485   0.970   9.346 -1.7635  0.0215 -0.7152
 3196SOL    HW221051   1.494   1.114   9.404 -2.1194  0.3006 -1.2305
 3197SOL     OW21052   2.360   3.611   2.112 -0.0336 -0.2758 -0.2592
 3197SOL    HW121053   2.407   3.574   2.187 -0.3624 -1.0372 -0.4198
 3197SOL    HW221054   2.419   3.582   2.042  0.5809  0.9368 -0.2272
 3198SOL     OW21055   0.573   2.343   7.763  0.1711 -0.0205  0.2060
 3198SOL    HW121056   0.590   2.434   7.789 -3.7077  0.5186  0.7523
 3198SOL    HW221057   0.564   2.355   7.669  0.1167 -0.5511  0.1468
 3199SOL     OW21058   0.489   0.069  13.931 -0.3691 -0.0422 -0.6275
 3199SOL    HW121059   0.580   0.041  13.941 -0.3951  0.1609  0.1548
 3199SOL    HW221060   0.452   4.714  13.886  2.7264 -0.8203 -1.8779
 3200SOL     OW21061   4.493   0.468   4.193 -0.0839  0.4868  0.1414
 3200SOL    HW121062   4.513   0.467   4.287  0.1471 -1.0458  0.0665
 3200SOL    HW221063   4.568   0.507   4.149 -1.3557  1.1568 -1.4519
 3201SOL     OW21064   1.100   1.025  17.286  0.3002 -0.1326 -0.1184
 3201SOL    HW121065   1.181   0.989  17.250 -0.8625 -2.2687 -0.5411
 3201SOL    HW221066   1.035   0.981  17.233 -0.7263 -1.4946  2.2615
 3202SOL     OW21067   2.087   4.291   4.706 -0.1285 -0.0927 -0.1900
 3202SOL    HW121068   2.016   4.237   4.741  0.5203  0.9019  2.6177
 3202SOL    HW221069   2.125   4.226   4.646 -2.1759 -0.2873 -1.2983
 3203SOL     OW21070   1.643   2.111   3.334 -0.4337 -0.0614 -0.0466
 3203SOL    HW121071   1.714   2.054   3.361  0.1884  0.3130 -0.8620
 3203SOL    HW221072   1.673   2.194   3.371 -1.9980 -0.6350  2.4505
 3204SOL     OW21073   0.486   2.214   4.488 -0.3347  0.0173 -1.5306
 3204SOL    HW121074   0.473   2.139   4.431 -1.0316 -1.4950  0.5948
 3204SOL    HW221075   0.416   2.190   4.550  0.2059  0.1409 -0.8751
 3205SOL     OW21076   0.782   1.712   6.688 -0.1032  0.5199 -0.1709
 3205SOL    HW121077   0.823   1.685   6.770  0.6482  1.2186 -0.3138
 3205SOL    HW221078   0.794   1.630   6.640 -1.7399  0.6580 -0.8210
 3206SOL     OW21079   0.393   4.644   7.218  0.4252 -0.0068  0.1122
 3206SOL    HW121080   0.337   4.566   7.220 -2.0227  1.7445  1.1856
 3206SOL    HW221081   0.471   4.621   7.169 -0.0151 -1.8974  0.3121
 3207SOL     OW21082   3.391   2.176   9.143  0.3587 -0.2774 -0.9077
 3207SOL    HW121083   3.401   2.081   9.154 -1.5202 -0.4817 -0.9125
 3207SOL    HW221084   3.313   2.172   9.087  1.7466  0.1606 -2.8788
 3208SOL     OW21085   1.153   3.044  13.828  0.0857  0.3476  0.0795
 3208SOL    HW121086   1.160   3.120  13.770 -1.2546  1.5514  1.5075
 3208SOL    HW221087   1.145   2.969  13.769  1.6207 -1.5205  2.2646
 3209SOL     OW21088   3.821   2.786   5.770 -0.6818 -0.1561  0.2124
 3209SOL    HW121089   3.832   2.877   5.796 -0.8033 -0.1083  0.0980
 3209SOL    HW221090   3.818   2.749   5.858  1.2543  1.4195  0.9260
 3210SOL     OW21091   2.905   0.926   5.610 -0.3607 -0.0113  0.1582
 3210SOL    HW121092   2.809   0.920   5.609 -0.3125 -0.9099  0.7676
 3210SOL    HW221093   2.912   0.962   5.522  1.6540  1.3165  0.8492
 3211SOL     OW21094   0.240   0.984   4.981  0.2589  0.1682  0.2333
 3211SOL    HW121095   0.303   1.037   5.031 -0.3391 -0.0747  1.2424
 3211SOL    HW221096   0.237   0.908   5.040 -1.5213  1.3179  1.6438
 3212SOL     OW21097   1.636   3.470   8.028 -0.2546 -0.1609  0.4867
 3212SOL    HW121098   1.658   3.424   7.947 -1.6924  0.1588 -0.0824
 3212SOL    HW221099   1.583   3.537   7.986  0.0152 -0.1900  0.1015
 3213SOL     OW21100   3.779   0.482   5.316  0.2229  0.1035  0.2444
 3213SOL    HW121101   3.804   0.390   5.316  0.8202  0.2669 -0.3439
 3213SOL    HW221102   3.860   0.532   5.316  0.5099 -0.3561 -0.7201
 3214SOL     OW21103   0.775   4.317   2.909  0.0537  0.0702  0.0155
 3214SOL    HW121104   0.845   4.335   2.846 -0.1012  2.2216  0.4484
 3214SOL    HW221105   0.724   4.395   2.890 -2.0723 -1.4817 -0.6317
 3215SOL     OW21106   3.659   3.053   4.648 -0.4017 -0.0020  0.3097
 3215SOL    HW121107   3.663   3.084   4.558  0.5143  1.8511  0.9995
 3215SOL    HW221108   3.713   3.113   4.699 -0.0898  0.0189 -0.0521
 3216SOL     OW21109   0.706   1.556   6.973  0.0333  0.2209 -0.0292
 3216SOL    HW121110   0.622   1.553   6.928  0.0777  0.9674 -0.1702
 3216SOL    HW221111   0.710   1.647   7.002  1.2824  0.7659 -1.8544
 3217SOL     OW21112   1.463   1.201   9.091  0.3163  0.2417  0.1854
 3217SOL    HW121113   1.475   1.138   9.163 -0.4498 -0.5114 -0.3495
 3217SOL    HW221114   1.376   1.181   9.057  0.0009 -0.6813  1.5060
 3218SOL     OW21115   0.440   1.782   7.170 -0.4531 -0.3956  0.0254
 3218SOL    HW121116   0.378   1.720   7.209 -0.3883 -0.3558  0.1894
 3218SOL    HW221117   0.393   1.828   7.100 -1.0831 -1.2493 -0.1156
 3219SOL     OW21118   3.403   4.246   4.987 -0.3998 -0.5950 -0.3189
 3219SOL    HW121119   3.470   4.280   4.928 -0.3974 -1.0804 -0.5932
 3219SOL    HW221120   3.358   4.193   4.922  0.9527 -3.7998  1.3463
 3220SOL     OW21121   1.598   4.361  10.261  0.1045 -0.3186 -0.3314
 3220SOL    HW121122   1.517   4.318  10.288  0.0620 -0.2586 -0.3635
 3220SOL    HW221123   1.607   4.411  10.343 -1.6091 -0.0687 -0.3115
 3221SOL     OW21124   2.367   3.620   8.742 -0.1294 -0.3704  0.4226
 3221SOL    HW121125   2.324   3.560   8.802  1.9361  0.0874  2.3803
 3221SOL    HW221126   2.451   3.578   8.723  0.2019 -0.1927  1.4976
 3222SOL     OW21127   0.903   4.313   5.462  0.7079 -0.3959 -0.2347
 3222SOL    HW121128   0.899   4.220   5.440 -1.6362 -0.4648  0.4825
 3222SOL    HW221129   0.832   4.358   5.415  2.2175  0.8448 -1.3324
 3223SOL     OW21130   2.035   0.323   3.031 -0.0083  0.6750 -0.5507
 3223SOL    HW121131   2.049   0.312   2.937  0.1087  0.7796 -0.5448
 3223SOL    HW221132   1.941   0.314   3.049 -0.0653  1.0975 -0.6488
 3224SOL     OW21133   1.661   2.853   4.257  0.3313 -0.4023  0.2493
 3224SOL    HW121134   1.567   2.870   4.261  0.4795  0.0636  1.5541
 3224SOL    HW221135   1.667   2.758   4.255  0.0553 -0.3660 -3.9511
 3225SOL     OW21136   2.340   4.326   9.376 -0.7385  0.1764  0.5792
 3225SOL    HW121137   2.366   4.235   9.371 -0.0589  0.4680 -1.3227
 3225SOL    HW221138   2.309   4.337   9.285 -0.8412  1.0185  0.7102
 3226SOL     OW21139   1.021   2.910  11.523 -0.3033  0.1166 -0.1087
 3226SOL    HW121140   0.998   2.972  11.453 -0.2517  0.3960  0.1248
 3226SOL    HW221141   1.099   2.872  11.483  0.2554  1.8380 -0.6466
 3227SOL     OW21142   1.480   1.944   4.334 -0.1471  0.1354 -1.0508
 3227SOL    HW121143   1.565   1.914   4.366 -0.6306 -0.4377 -0.2947
 3227SOL    HW221144   1.499   1.975   4.246  1.9506  0.4704 -0.4715
 3228SOL     OW21145   0.882   4.329   9.397 -0.3015  0.3669  0.1310
 3228SOL    HW121146   0.871   4.243   9.357 -5.0529 -0.1795  2.5653
 3228SOL    HW221147   0.940   4.363   9.328 -2.1114  0.5534 -1.2916
 3229SOL     OW21148   0.888   2.109   4.903  0.3109  0.8297  0.0283
 3229SOL    HW121149   0.960   2.057   4.938 -1.0677 -0.5262  0.8726
 3229SOL    HW221150   0.927   2.190   4.869 -0.3290  0.4102 -1.7186
 3230SOL     OW21151   3.512   0.132   0.194 -0.1313 -0.4315 -0.0145
 3230SOL    HW121152   3.484   0.094   0.111 -0.9020  1.5654 -0.6625
 3230SOL    HW221153   3.565   0.058   0.224 -2.2963 -1.8789  0.2589
 3231SOL     OW21154   0.765   0.997   6.968 -0.2960  0.1525 -0.1895
 3231SOL    HW121155   0.845   0.947   6.952 -0.0905 -0.1496  1.8270
 3231SOL    HW221156   0.727   0.933   7.028  3.8812 -1.2746  0.9470
 3232SOL     OW21157   0.006   1.216   3.952  0.0743 -0.3503  0.0357
 3232SOL    HW121158   4.702   1.232   3.861 -0.3557 -1.1468  0.0017
 3232SOL    HW221159   0.010   1.306   3.982 -0.5842  0.0165 -0.9948
 3233SOL     OW21160   3.820   2.595   8.397 -0.1222 -0.0959  0.4878
 3233SOL    HW121161   3.789   2.590   8.487  0.5115  2.4568  0.8624
 3233SOL    HW221162   3.753   2.553   8.344 -0.8936  0.8844  0.6884
 3234SOL     OW21163   2.195   1.085   3.086  0.4388  0.2673  0.0008
 3234SOL    HW121164   2.179   0.991   3.082 -0.3460  0.5161 -2.3380
 3234SOL    HW221165   2.251   1.094   3.163  2.0424 -2.6102 -0.7964
 3235SOL     OW21166   3.759   1.272   7.171  0.0925 -0.2109  0.2267
 3235SOL    HW121167   3.790   1.229   7.091  0.7062 -0.1463  0.4316
 3235SOL    HW221168   3.799   1.358   7.162  0.9352 -0.7827 -1.3773
 3236SOL     OW21169   1.549   2.664   2.139  0.2438 -0.2585 -0.1572
 3236SOL    HW121170   1.630   2.640   2.184  0.0840 -1.5357 -0.5492
 3236SOL    HW221171   1.494   2.668   2.217 -0.1074 -0.9481 -0.3705
 3237SOL     OW21172   4.671   4.691   4.242 -0.1302  0.0764 -0.2640
 3237SOL    HW121173   0.030   0.023   4.233  0.0571 -0.5634 -2.1875
 3237SOL    HW221174   4.654   4.706   4.335  1.2211 -0.3280  0.0540
 3238SOL     OW21175   2.157   1.238  11.288 -0.1948 -0.3557 -0.1748
 3238SOL    HW121176   2.069   1.203  11.300 -0.3759  0.7965  1.8681
 3238SOL    HW221177   2.159   1.318  11.342  1.2950 -0.5719  0.0989
 3239SOL     OW21178   2.352   1.736   2.599  0.1506  0.8254 -0.2962
 3239SOL    HW121179   2.389   1.652   2.572 -0.3553  0.6957 -0.5718
 3239SOL    HW221180   2.396   1.755   2.682  1.4641  0.4285 -0.8919
 3240SOL     OW21181   2.588   1.727  16.902 -0.0021  0.6432  0.2471
 3240SOL    HW121182   2.599   1.657  16.966 -1.6414  0.1835  0.0328
 3240SOL    HW221183   2.634   1.800  16.943 -0.1933  0.7300  0.3059
 3241SOL     OW21184   3.587   0.154   3.546 -0.8639 -0.4977 -0.4242
 3241SOL    HW121185   3.543   0.072   3.527  2.3079 -1.9822 -1.2684
 3241SOL    HW221186   3.616   0.139   3.636 -2.0658  1.4531  0.2924
 3242SOL     OW21187   4.548   3.752   2.951 -0.1513 -0.8607  0.1232
 3242SOL    HW121188   4.556   3.668   2.997 -1.0782 -0.2464  1.3944
 3242SOL    HW221189   4.534   3.732   2.858  3.5633 -1.0629 -0.4095
 3243SOL     OW21190   4.670   2.000   3.508  0.1647  0.2980  0.3017
 3243SOL    HW121191   0.007   1.924   3.514  0.2702  0.3084 -0.5328
 3243SOL    HW221192   0.001   2.067   3.553  2.1189 -0.4806 -0.7912
 3244SOL     OW21193   3.422   4.314   5.462  0.2780 -0.5889  0.1123
 3244SOL    HW121194   3.466   4.394   5.490  0.2213 -0.0407 -1.3537
 3244SOL    HW221195   3.458   4.281   5.380  1.9038  0.8225  0.2456
 3245SOL     OW21196   1.194   3.750   0.696 -0.1523 -0.5445  0.9395
 3245SOL    HW121197   1.205   3.832   0.744  0.4865 -0.2939  0.3810
 3245SOL    HW221198   1.266   3.692   0.722 -0.6681 -1.6323 -0.0317
 3246SOL     OW21199   4.068   2.881   3.979  0.1523  0.1187  0.7582
 3246SOL    HW121200   4.083   2.805   3.922 -1.9396  1.6798 -1.8440
 3246SOL    HW221201   3.973   2.877   3.987 -0.0211  1.3046 -0.6782
 3247SOL     OW21202   2.464   4.293  12.662  0.0286  0.6201  0.8718
 3247SOL    HW121203   2.390   4.309  12.603 -0.0346  1.8371  1.2687
 3247SOL    HW221204   2.474   4.377  12.707  1.8872  0.7908  0.1364
 3248SOL     OW21205   0.916   3.624   8.316  0.4649  0.1780  0.5599
 3248SOL    HW121206   0.890   3.694   8.255 -0.0724 -0.6266 -0.1251
 3248SOL    HW221207   1.002   3.654   8.346  0.3442 -0.6542  1.6978
 3249SOL     OW21208   2.300   1.267   4.550 -0.1154 -0.3336 -0.0580
 3249SOL    HW121209   2.243   1.218   4.491  1.4563 -0.9344 -1.0788
 3249SOL    HW221210   2.337   1.335   4.494  2.8185 -0.9098  1.2003
 3250SOL     OW21211   0.389   0.942  12.553  0.2951 -0.2517 -0.2496
 3250SOL    HW121212   0.380   0.871  12.489 -0.1599 -0.4635  0.0490
 3250SOL    HW221213   0.379   1.022  12.501 -0.0291 -0.7805 -0.9915
 3251SOL     OW21214   1.235   1.672   6.126 -0.1629  0.3807  0.4925
 3251SOL    HW121215   1.230   1.753   6.177  0.7143  0.3194  0.6826
 3251SOL    HW221216   1.253   1.602   6.189  0.1600 -0.7185 -0.8262
 3252SOL     OW21217   3.450   1.555   5.651 -0.1794  0.5112  0.3549
 3252SOL    HW121218   3.397   1.570   5.573  0.1290 -2.0562 -0.3553
 3252SOL    HW221219   3.414   1.468   5.668 -0.7033  0.9660  1.5363
 3253SOL     OW21220   2.376   4.266   4.333 -0.4520  0.3715 -0.3634
 3253SOL    HW121221   2.415   4.347   4.366  0.0424 -0.8389  2.0218
 3253SOL    HW221222   2.315   4.307   4.272 -1.1297  0.1166  0.1556
 3254SOL     OW21223   1.444   2.674  12.610 -0.2580 -0.5744 -0.2866
 3254SOL    HW121224   1.447   2.579  12.602 -0.0881 -0.4825 -1.3764
 3254SOL    HW221225   1.423   2.690  12.702  3.7712  0.9657  0.3634
 3255SOL     OW21226   2.973   3.234   2.211 -0.0451 -0.1466  0.0820
 3255SOL    HW121227   2.965   3.203   2.121  2.2096 -1.2000  0.2543
 3255SOL    HW221228   2.907   3.181   2.256 -0.7207 -0.0062 -0.7344
 3256SOL     OW21229   1.617   2.937   1.178  0.6095 -0.4547  0.0381
 3256SOL    HW121230   1.686   2.925   1.244  2.2245  0.0734 -1.5376
 3256SOL    HW221231   1.667   2.918   1.098  1.2966  3.8229 -0.5055
 3257SOL     OW21232   4.483   4.061   3.502 -0.0372  0.3295 -0.2291
 3257SOL    HW121233   4.465   4.044   3.594  0.6275  0.7653 -0.0151
 3257SOL    HW221234   4.394   4.091   3.485  0.7913  1.4978 -2.5787
 3258SOL     OW21235   2.193   1.747   9.693 -0.2299 -0.4580 -0.3392
 3258SOL    HW121236   2.135   1.682   9.653 -0.0663 -1.2259  0.6627
 3258SOL    HW221237   2.180   1.731   9.787  0.5869  0.3310 -0.0987
 3259SOL     OW21238   1.925   2.254   0.369 -0.2053  0.2002 -0.1352
 3259SOL    HW121239   1.954   2.327   0.422  0.9619  0.8654 -1.6805
 3259SOL    HW221240   1.994   2.188   0.373 -0.2132  0.2558  0.7352
 3260SOL     OW21241   1.428   2.975   2.979  0.2005 -0.0393 -0.0806
 3260SOL    HW121242   1.424   3.035   3.053 -0.8766 -0.5623  0.2837
 3260SOL    HW221243   1.520   2.950   2.984  0.1053 -0.1633  1.0060
 3261SOL     OW21244   1.794   1.286  13.408  0.1965  0.1113  0.0703
 3261SOL    HW121245   1.723   1.348  13.425 -0.6970 -0.2492 -2.2575
 3261SOL    HW221246   1.772   1.208  13.457 -0.0792 -0.8086 -1.5018
 3262SOL     OW21247   2.292   4.011   1.890 -0.2333 -0.5204 -0.2691
 3262SOL    HW121248   2.231   4.080   1.865 -2.0836 -1.9432  0.3282
 3262SOL    HW221249   2.343   4.015   1.809  0.3423  0.8482  0.1730
 3263SOL     OW21250   4.640   3.520  15.903  0.7782 -0.3639  0.0407
 3263SOL    HW121251   4.627   3.614  15.891 -1.2955 -0.6407  0.0523
 3263SOL    HW221252   4.667   3.518  15.995  0.0811 -0.4457  0.2437
 3264SOL     OW21253   2.778   3.278   3.155  0.3771 -0.4147 -0.5579
 3264SOL    HW121254   2.838   3.211   3.123  3.0446  1.3334  0.8277
 3264SOL    HW221255   2.702   3.273   3.096  0.1797 -1.8156 -0.2053
 3265SOL     OW21256   2.437   1.524   2.469 -0.1964  0.5328 -0.1269
 3265SOL    HW121257   2.421   1.430   2.464  0.5679  0.4297 -0.5861
 3265SOL    HW221258   2.496   1.550   2.398 -0.8971 -1.4794 -1.4210
 3266SOL     OW21259   2.698   2.440   8.625 -0.2600 -0.2602  0.1959
 3266SOL    HW121260   2.782   2.469   8.590  0.3975 -1.0805  1.1047
 3266SOL    HW221261   2.717   2.346   8.628  1.4672  0.1823  2.7242
 3267SOL     OW21262   4.557   0.150   0.681 -0.4617 -0.6331 -0.6676
 3267SOL    HW121263   4.620   0.141   0.752  0.1479 -3.0064 -1.5314
 3267SOL    HW221264   4.486   0.191   0.731  0.3893 -0.6055  0.5124
 3268SOL     OW21265   1.390   3.191   7.907 -0.1089 -0.1701 -0.1557
 3268SOL    HW121266   1.319   3.164   7.966  0.1852 -2.4387 -0.8183
 3268SOL    HW221267   1.354   3.267   7.862  2.3617  0.3837 -1.1683
 3269SOL     OW21268   0.689   1.511   8.795 -0.0902  0.1968  0.5941
 3269SOL    HW121269   0.744   1.581   8.760 -1.4647  0.5117 -0.9390
 3269SOL    HW221270   0.752   1.438   8.792  0.0205  0.3550 -1.4007
 3270SOL     OW21271   1.270   1.626   1.678 -0.1423 -0.3433 -0.7126
 3270SOL    HW121272   1.206   1.696   1.669  0.2741  0.2056  0.6181
 3270SOL    HW221273   1.265   1.575   1.597 -2.0243 -0.3819 -0.5584
 3271SOL     OW21274   2.170   3.248  17.344  0.4078 -0.5353  0.5785
 3271SOL    HW121275   2.139   3.241  17.434 -0.4077  1.2598  0.4307
 3271SOL    HW221276   2.193   3.157  17.323 -2.9344 -1.3819  0.5616
 3272SOL     OW21277   3.816   2.721   3.427 -0.1734 -0.1925  0.1619
 3272SOL    HW121278   3.857   2.716   3.341 -5.1062 -2.4922 -2.0858
 3272SOL    HW221279   3.733   2.766   3.414 -0.1414 -0.4790 -1.0198
 3273SOL     OW21280   4.165   1.228   0.952 -0.1526 -0.2293 -0.8893
 3273SOL    HW121281   4.180   1.205   1.044  0.9296  0.2909 -0.9270
 3273SOL    HW221282   4.100   1.163   0.926 -0.5812 -0.1518  0.0126
 3274SOL     OW21283   3.338   3.377   5.119  0.6482  0.4456 -0.0589
 3274SOL    HW121284   3.259   3.323   5.116  1.7763 -1.2390  0.6267
 3274SOL    HW221285   3.376   3.351   5.035  0.3563  2.0514 -0.6823
 3275SOL     OW21286   2.156   2.227  17.380  0.5571 -0.4520 -0.0875
 3275SOL    HW121287   2.154   2.222  17.284 -0.4463  2.9158 -0.2514
 3275SOL    HW221288   2.097   2.302  17.393  0.2372 -1.0321  1.7882
 3276SOL     OW21289   2.557   3.655   7.183 -0.8574  0.4290 -0.2499
 3276SOL    HW121290   2.496   3.725   7.204 -0.8387  0.0908  0.9273
 3276SOL    HW221291   2.504   3.592   7.135 -0.2043 -0.7255  0.5445
 3277SOL     OW21292   4.480   4.282   5.495 -0.2649 -0.0766 -0.6914
 3277SOL    HW121293   4.418   4.220   5.454 -4.0853  3.3112 -0.0428
 3277SOL    HW221294   4.562   4.251   5.456  0.0993  2.4738 -1.9273
 3278SOL     OW21295   2.838   3.797   7.427  0.2250 -0.4262  0.3868
 3278SOL    HW121296   2.908   3.813   7.489  1.5672 -1.5978 -0.8301
 3278SOL    HW221297   2.767   3.843   7.472 -1.7227 -0.0778 -3.0269
 3279SOL     OW21298   2.915   1.077   6.954  0.6734  0.1966 -0.1618
 3279SOL    HW121299   2.906   1.157   7.005 -1.8087  0.2572 -0.6840
 3279SOL    HW221300   3.009   1.068   6.940  0.5337 -0.4353 -0.7231
 3280SOL     OW21301   4.254   0.840   4.511  0.1503  0.2129  0.6026
 3280SOL    HW121302   4.254   0.928   4.549 -0.5881  0.2117  0.6006
 3280SOL    HW221303   4.165   0.810   4.530  0.5418 -0.3077  1.6169
 3281SOL     OW21304   1.693   1.261  10.854  0.4141  0.1781 -0.8702
 3281SOL    HW121305   1.692   1.356  10.868  0.4049  0.0599 -0.0867
 3281SOL    HW221306   1.624   1.259  10.787  0.6809  0.3819 -1.1502
 3282SOL     OW21307   2.399   2.004   8.340  0.4148  0.0576  0.1841
 3282SOL    HW121308   2.476   2.015   8.283  0.4571  0.1544  0.2591
 3282SOL    HW221309   2.410   2.091   8.379  0.3465  0.3259 -0.3933
 3283SOL     OW21310   3.317   0.532  10.021 -0.0776  0.4526 -0.1408
 3283SOL    HW121311   3.262   0.508   9.947  1.6353 -0.1181 -1.2117
 3283SOL    HW221312   3.258   0.592  10.067  0.4711  1.2916 -0.5367
 3284SOL     OW21313   1.684   3.786   2.153  0.2903 -0.7505  0.6356
 3284SOL    HW121314   1.735   3.866   2.166  1.0703 -1.6164  3.0988
 3284SOL    HW221315   1.726   3.727   2.216  3.5397  1.7248  0.7862
 3285SOL     OW21316   0.387   3.783   4.247  0.7304  0.4527 -0.1880
 3285SOL    HW121317   0.339   3.750   4.172  0.2334 -1.0014  0.7881
 3285SOL    HW221318   0.388   3.701   4.297 -1.2894  0.3529 -0.3356
 3286SOL     OW21319   2.826   3.836  16.313 -0.4964  0.2557  0.2638
 3286SOL    HW121320   2.861   3.914  16.356  0.6870  0.3640 -0.8848
 3286SOL    HW221321   2.789   3.867  16.230 -0.0424 -0.0206 -0.0446
 3287SOL     OW21322   4.666   0.047  13.228 -0.3321 -0.4551 -0.2931
 3287SOL    HW121323   0.015   4.717  13.271  0.1690  0.1667 -0.3782
 3287SOL    HW221324   4.657   0.112  13.298  0.7297 -0.4020 -0.2007
 3288SOL     OW21325   2.460   2.182  13.865  0.0007 -0.5442  0.5101
 3288SOL    HW121326   2.462   2.089  13.841  0.1188 -0.5521  0.5468
 3288SOL    HW221327   2.497   2.209  13.781 -0.6419  1.1093  0.7696
 3289SOL     OW21328   1.186   3.326  17.671  0.3059 -0.4966 -0.8040
 3289SOL    HW121329   1.162   3.399   0.042  0.4184  0.5735 -2.1294
 3289SOL    HW221330   1.275   3.313   0.018 -1.0525 -3.9923  1.5274
 3290SOL     OW21331   3.313   3.529   2.721 -0.0578  0.3061  0.2064
 3290SOL    HW121332   3.396   3.576   2.714 -0.0954  0.6849  2.2201
 3290SOL    HW221333   3.335   3.490   2.806  0.5892  0.7731  0.2629
 3291SOL     OW21334   3.306   2.513   1.717 -0.7791  0.6830 -0.3143
 3291SOL    HW121335   3.231   2.520   1.775 -2.3049 -0.2352 -2.1700
 3291SOL    HW221336   3.348   2.434   1.750 -1.6681 -0.1326 -1.1522
 3292SOL     OW21337   1.931   3.114   8.320 -0.7671  0.4591  0.3764
 3292SOL    HW121338   1.947   3.168   8.242 -0.1241 -2.1381 -1.2744
 3292SOL    HW221339   1.996   3.154   8.378 -1.2562  0.3756  0.9800
 3293SOL     OW21340   1.208   3.064   1.766  0.8502  0.0391  0.2976
 3293SOL    HW121341   1.122   3.104   1.755  1.5782  1.0755 -1.6265
 3293SOL    HW221342   1.196   2.979   1.724 -1.4216  1.7360 -2.5116
 3294SOL     OW21343   1.466   2.932  13.724  0.4472  0.4099  0.3924
 3294SOL    HW121344   1.452   2.841  13.749 -0.0649  0.4743  0.3454
 3294SOL    HW221345   1.442   2.971  13.808  0.3932 -0.8447  0.9547
 3295SOL     OW21346   4.383   2.339  10.156 -0.6507 -0.3914 -0.3582
 3295SOL    HW121347   4.376   2.312  10.248  1.2246  1.7516  0.4098
 3295SOL    HW221348   4.301   2.299  10.128 -0.5728  0.8058 -2.3239
 3296SOL     OW21349   4.408   3.282   8.398 -0.4153  0.5656 -0.0242
 3296SOL    HW121350   4.483   3.266   8.340  0.0994  1.0469  0.5097
 3296SOL    HW221351   4.331   3.257   8.347  1.0473 -1.8941 -1.0677
 3297SOL     OW21352   0.898   4.327   7.395 -0.0680 -0.5083  0.4306
 3297SOL    HW121353   0.958   4.394   7.361 -1.7620  0.2380 -1.0479
 3297SOL    HW221354   0.940   4.314   7.480  0.4517  1.0530  0.4147
 3298SOL     OW21355   3.828   3.690   6.726  0.0811  0.5589 -0.6094
 3298SOL    HW121356   3.923   3.682   6.730 -0.2177 -1.1448  3.4695
 3298SOL    HW221357   3.814   3.782   6.749 -1.1576  1.0951 -3.5365
 3299SOL     OW21358   0.562   2.608  13.413  0.8384  0.1610 -0.4229
 3299SOL    HW121359   0.575   2.552  13.337 -0.7254 -1.5228  0.5518
 3299SOL    HW221360   0.483   2.649  13.379  0.5493 -0.9751 -1.1043
 3300SOL     OW21361   1.285   2.598   4.528  0.0488 -0.3407  0.1526
 3300SOL    HW121362   1.279   2.692   4.546  1.4640 -0.1279 -0.5306
 3300SOL    HW221363   1.313   2.582   4.439 -0.0054  0.1596  0.0428
 3301SOL     OW21364   3.309   2.871  10.146  0.4019  0.0130  0.7374
 3301SOL    HW121365   3.258   2.936  10.098  0.0697 -1.4256 -0.8717
 3301SOL    HW221366   3.239   2.816  10.181  0.3398 -0.3250  0.0889
 3302SOL     OW21367   3.660   3.311   9.163  0.0957 -0.4900  0.2560
 3302SOL    HW121368   3.736   3.364   9.183  0.4888 -0.7342 -0.6353
 3302SOL    HW221369   3.712   3.231   9.154 -1.5778 -1.7316  1.4441
 3303SOL     OW21370   0.507   3.426   8.321  0.1717 -0.2027  0.1524
 3303SOL    HW121371   0.582   3.448   8.377  2.2040 -2.9038 -1.4555
 3303SOL    HW221372   0.453   3.499   8.350 -1.2044  0.1996 -3.3628
 3304SOL     OW21373   2.171   2.458   7.843  0.0897 -0.3016  0.0511
 3304SOL    HW121374   2.154   2.403   7.767  0.4040 -0.7019  0.2713
 3304SOL    HW221375   2.267   2.452   7.843  0.2031  1.5655  1.7504
 3305SOL     OW21376   0.271   1.898   1.417  0.1097 -0.0176 -0.1688
 3305SOL    HW121377   0.299   1.946   1.495 -2.0794 -0.2833  0.7865
 3305SOL    HW221378   0.344   1.835   1.414  0.1289 -0.2483  4.1518
 3306SOL     OW21379   2.297   0.425  16.789  0.1586  0.4559 -0.0330
 3306SOL    HW121380   2.284   0.495  16.852  0.2186  2.4039 -2.1673
 3306SOL    HW221381   2.242   0.358  16.831 -1.2764  1.0033 -1.0351
 3307SOL     OW21382   2.355   2.804   0.403 -0.3619  0.6930  0.6107
 3307SOL    HW121383   2.322   2.737   0.462 -0.9533  0.1838 -0.2980
 3307SOL    HW221384   2.296   2.879   0.413 -0.2776  0.5608  1.9724
 3308SOL     OW21385   4.008   2.048   0.837  0.6147  0.4549  0.7507
 3308SOL    HW121386   4.000   2.107   0.762 -1.5318 -1.0391 -0.1549
 3308SOL    HW221387   3.915   2.044   0.856  0.1779 -0.3867 -1.6321
 3309SOL     OW21388   2.715   0.763   8.494  0.2408  1.0847 -0.0500
 3309SOL    HW121389   2.752   0.676   8.505  0.3399  1.2452  0.8783
 3309SOL    HW221390   2.787   0.823   8.474 -0.1796  1.8623  0.7683
 3310SOL     OW21391   4.238   4.472   6.458  0.3934 -0.4362 -0.4702
 3310SOL    HW121392   4.318   4.490   6.409 -0.4137  0.2792 -1.5268
 3310SOL    HW221393   4.242   4.526   6.537  0.1965 -1.7793  0.4608
 3311SOL     OW21394   2.055   4.302  11.176  0.0075  0.3969  0.5961
 3311SOL    HW121395   1.961   4.309  11.187  0.2542  6.1880 -0.7842
 3311SOL    HW221396   2.072   4.282  11.268 -0.0065  0.0128  0.5155
 3312SOL     OW21397   4.044   0.317   3.467 -0.4073  0.4135  0.5911
 3312SOL    HW121398   3.965   0.297   3.417 -0.2990  1.1968  0.0932
 3312SOL    HW221399   4.091   0.385   3.417  0.3160 -2.8126 -3.0892
 3313SOL     OW21400   2.364   1.833  15.122  0.3510  0.4806 -0.6250
 3313SOL    HW121401   2.434   1.784  15.079 -0.1593  0.6296 -1.6302
 3313SOL    HW221402   2.287   1.778  15.113  0.5713  0.1357 -0.4128
 3314SOL     OW21403   1.769   3.157   4.876  0.1001 -0.2332 -0.1107
 3314SOL    HW121404   1.757   3.069   4.840 -0.5410 -0.5718  0.9452
 3314SOL    HW221405   1.748   3.225   4.812 -0.9040 -2.8172 -2.5760
 3315SOL     OW21406   0.344   4.233   7.268  0.2014 -0.1887 -0.6346
 3315SOL    HW121407   0.303   4.312   7.230 -2.8086 -1.7651 -0.6358
 3315SOL    HW221408   0.434   4.267   7.275  0.5246 -1.5243  1.6344
 3316SOL     OW21409   0.228   2.706  11.001 -0.3661 -0.8532  0.0872
 3316SOL    HW121410   0.148   2.711  11.054  0.7230 -0.7376  1.7408
 3316SOL    HW221411   0.287   2.656  11.058  1.4169  2.5036  1.1879
 3317SOL     OW21412   2.208   0.868   7.342  0.7138 -0.7138 -0.4356
 3317SOL    HW121413   2.233   0.880   7.251  0.1511 -1.0388 -0.6341
 3317SOL    HW221414   2.172   0.954   7.359  2.9309 -0.1290  1.4167
 3318SOL     OW21415   1.981   3.552  17.134 -0.5746  0.6854  1.1206
 3318SOL    HW121416   1.955   3.640  17.162  0.4604  1.4239 -0.2248
 3318SOL    HW221417   1.940   3.545  17.048  0.9114  1.1006  0.3678
 3319SOL     OW21418   0.310   4.039   3.523  0.6643  0.2626  0.1110
 3319SOL    HW121419   0.297   3.945   3.508 -0.1902  0.2273  1.0246
 3319SOL    HW221420   0.223   4.077   3.535  0.4625 -0.5440  1.2235
 3320SOL     OW21421   0.901   1.429   5.450  0.3252 -0.4331  0.1664
 3320SOL    HW121422   0.832   1.488   5.481  1.3252  1.1456 -0.6287
 3320SOL    HW221423   0.939   1.474   5.374 -1.0012 -0.7127 -0.6606
 3321SOL     OW21424   3.246   4.300   6.947  0.5439 -0.3017 -0.3314
 3321SOL    HW121425   3.219   4.265   7.032 -1.7504  1.5417 -0.2911
 3321SOL    HW221426   3.267   4.222   6.895  0.1954 -0.9750  0.5494
 3322SOL     OW21427   0.651   0.354   1.179 -0.0226  0.0512 -0.0690
 3322SOL    HW121428   0.727   0.297   1.167 -0.8743 -1.2915  0.9652
 3322SOL    HW221429   0.589   0.300   1.228 -0.1287 -0.0883 -0.3602
 3323SOL     OW21430   2.924   0.550  12.864 -0.2237 -0.0761  0.3758
 3323SOL    HW121431   2.862   0.479  12.883 -0.3909 -0.3909 -1.3464
 3323SOL    HW221432   2.998   0.494  12.841  0.3826  1.3084 -1.0087
 3324SOL     OW21433   2.320   0.891  12.751  0.2452  0.0879  0.0362
 3324SOL    HW121434   2.311   0.953  12.824 -2.3109 -1.5011  1.0949
 3324SOL    HW221435   2.234   0.849  12.759  0.4545 -0.0713  1.5376
 3325SOL     OW21436   1.203   2.416  10.786 -0.2165  0.1852  0.3033
 3325SOL    HW121437   1.212   2.501  10.743  1.0454  0.2534  0.6851
 3325SOL    HW221438   1.291   2.398  10.819  0.9855 -0.0646 -3.0132
 3326SOL     OW21439   4.005   3.631   2.713  0.0416 -0.3877  0.4710
 3326SOL    HW121440   4.024   3.687   2.788 -1.6713 -1.2261  1.5145
 3326SOL    HW221441   3.950   3.689   2.659 -1.5384 -3.5229 -1.2900
 3327SOL     OW21442   0.313   2.000   5.126 -0.5838 -0.1491 -0.5485
 3327SOL    HW121443   0.358   1.939   5.067  0.0895 -0.8210  0.6320
 3327SOL    HW221444   0.236   2.026   5.076  0.7380  0.4734 -2.2646
 3328SOL     OW21445   1.811   0.063   6.656 -0.6587  0.1570 -0.6860
 3328SOL    HW121446   1.876   0.099   6.717 -0.0762 -1.0073 -0.6259
 3328SOL    HW221447   1.723   0.088   6.684 -0.5229 -0.0592 -0.0734
 3329SOL     OW21448   4.672   0.530  11.779 -0.4942 -0.5854 -0.1857
 3329SOL    HW121449   4.681   0.456  11.719 -3.1353 -3.5919  3.0740
 3329SOL    HW221450   4.583   0.505  11.805 -0.3900 -2.8138 -1.9501
 3330SOL     OW21451   4.228   1.544   2.638  0.2240 -0.5865  0.3027
 3330SOL    HW121452   4.193   1.629   2.665 -1.5439 -1.1850 -0.1408
 3330SOL    HW221453   4.318   1.577   2.631 -0.6242  1.5195 -0.6301
 3331SOL     OW21454   0.475   1.973   4.341 -0.1743  0.3076  0.2700
 3331SOL    HW121455   0.567   1.948   4.354 -0.6935 -1.5427  0.4114
 3331SOL    HW221456   0.480   1.986   4.247 -1.2977 -0.6733  0.0691
 3332SOL     OW21457   0.651   0.257   3.655 -0.9692 -0.6923  0.9179
 3332SOL    HW121458   0.746   0.266   3.645 -1.1315 -0.1020 -0.0539
 3332SOL    HW221459   0.638   0.246   3.750 -0.0047  0.8754  1.2291
 3333SOL     OW21460   2.782   3.756   6.348  0.3750  0.3931 -0.1370
 3333SOL    HW121461   2.802   3.732   6.257  0.9712  1.7117 -0.3508
 3333SOL    HW221462   2.741   3.841   6.335 -0.5895 -0.3477 -1.9404
 3334SOL     OW21463   1.878   1.661   4.828 -0.2161  0.4922 -0.2018
 3334SOL    HW121464   1.937   1.679   4.902 -0.1016 -3.0850  0.5808
 3334SOL    HW221465   1.921   1.583   4.794  0.1057  1.4611 -2.0221
 3335SOL     OW21466   2.242   2.072   2.348 -0.0010 -0.2760 -0.2737
 3335SOL    HW121467   2.292   2.082   2.429 -0.9510  2.5075 -0.0397
 3335SOL    HW221468   2.291   2.003   2.303 -1.1437 -0.9334 -0.4974
 3336SOL     OW21469   3.216   3.026   7.311  0.5298  0.4281  0.1997
 3336SOL    HW121470   3.147   2.962   7.326 -0.3410  1.1866 -0.5238
 3336SOL    HW221471   3.176   3.055   7.229  0.3307  0.5045  0.3231
 3337SOL     OW21472   1.027   0.460  14.551 -0.1524 -0.0917 -0.7365
 3337SOL    HW121473   1.037   0.497  14.463  0.7739  0.7012 -0.2991
 3337SOL    HW221474   0.971   0.528  14.589  0.1254 -1.3948  2.0330
 3338SOL     OW21475   4.404   4.159   7.862  0.6028 -0.5198  0.0517
 3338SOL    HW121476   4.343   4.125   7.928  0.8402  2.0205  1.5613
 3338SOL    HW221477   4.435   4.226   7.923  3.0304 -0.4203 -1.3010
 3339SOL     OW21478   0.624   1.293  16.837 -0.9643  0.0079 -0.1200
 3339SOL    HW121479   0.588   1.380  16.846  0.4899  0.7577 -1.4906
 3339SOL    HW221480   0.603   1.260  16.749 -0.1749  0.4971 -0.4873
 3340SOL     OW21481   3.387   2.539   8.742 -0.0326 -0.1511  0.0724
 3340SOL    HW121482   3.348   2.622   8.770  0.6240  0.1881 -0.0266
 3340SOL    HW221483   3.376   2.484   8.820 -0.3929  0.7738  0.6691
 3341SOL     OW21484   1.196   4.109   6.541  0.5392  0.2182  0.1874
 3341SOL    HW121485   1.254   4.178   6.508 -0.1701  1.7046  2.0485
 3341SOL    HW221486   1.117   4.110   6.488 -0.1444  0.1078  1.1993
 3342SOL     OW21487   3.645   1.297   4.452 -0.0042  0.0201  0.7647
 3342SOL    HW121488   3.740   1.290   4.446 -0.5194 -3.4676 -3.3215
 3342SOL    HW221489   3.634   1.357   4.526  1.8556  2.7150 -1.1647
 3343SOL     OW21490   3.748   3.959  15.095 -0.0226  0.3574  0.1182
 3343SOL    HW121491   3.724   3.880  15.046 -1.3981  0.8456 -0.0107
 3343SOL    HW221492   3.670   3.979  15.147  0.5750  3.9786 -0.3852
 3344SOL     OW21493   3.547   3.689   7.572 -0.1404  0.1926  0.1107
 3344SOL    HW121494   3.555   3.606   7.525  1.8491 -0.2074  1.1196
 3344SOL    HW221495   3.456   3.710   7.552  0.4620  1.1581 -1.6162
 3345SOL     OW21496   3.060   3.544   2.638 -0.1359  0.1715  0.1873
 3345SOL    HW121497   3.061   3.594   2.556  0.2807  1.6574  1.0939
 3345SOL    HW221498   3.153   3.542   2.662 -0.6734 -4.1311  1.8593
 3346SOL     OW21499   3.361   1.642   2.848  0.3264  0.1354 -0.2681
 3346SOL    HW121500   3.317   1.643   2.933  0.5002 -1.3174 -0.1646
 3346SOL    HW221501   3.286   1.673   2.797 -0.4507 -1.3421 -0.0257
 3347SOL     OW21502   4.468   1.346   6.858 -0.2575 -0.2933 -0.2829
 3347SOL    HW121503   4.546   1.382   6.900 -0.2732 -0.7793  0.1616
 3347SOL    HW221504   4.502   1.336   6.769 -0.9481 -2.2155 -0.3514
 3348SOL     OW21505   1.984   1.368   4.207 -0.3753 -0.4849  0.2919
 3348SOL    HW121506   2.031   1.286   4.223 -0.8656 -0.7615  0.3178
 3348SOL    HW221507   2.025   1.415   4.134 -0.6353  0.0049  0.4593
 3349SOL     OW21508   3.618   1.820   3.371  0.4705  1.1301 -0.2586
 3349SOL    HW121509   3.557   1.752   3.399  0.0562  2.0827  1.1697
 3349SOL    HW221510   3.692   1.768   3.340 -0.8299 -0.7095 -0.2801
 3350SOL     OW21511   0.728   4.054   2.952  0.2030  0.5052  0.2794
 3350SOL    HW121512   0.772   4.009   2.880  2.7956  1.8214  1.0684
 3350SOL    HW221513   0.735   4.147   2.928  3.5341 -0.0894 -1.0016
 3351SOL     OW21514   0.956   1.007   9.011  0.4510  0.0020 -0.0551
 3351SOL    HW121515   0.888   1.065   9.045  0.2293 -1.1185  1.4404
 3351SOL    HW221516   0.989   0.960   9.088  0.7305 -0.0250 -0.1894
 3352SOL     OW21517   3.936   4.297   3.127  0.3214  0.7861  0.9316
 3352SOL    HW121518   3.870   4.255   3.182  0.8176  1.0019  1.6993
 3352SOL    HW221519   4.002   4.228   3.121 -0.5847 -0.0162  0.2013
 3353SOL     OW21520   0.445   2.234   6.083  0.2886  0.1434 -0.4730
 3353SOL    HW121521   0.362   2.252   6.127  0.3881 -0.2185 -0.1331
 3353SOL    HW221522   0.417   2.262   5.996 -0.3347 -2.3373 -1.0601
 3354SOL     OW21523   0.215   4.556   2.283  0.4126 -0.9617 -0.8933
 3354SOL    HW121524   0.137   4.610   2.294  0.1002 -1.5889 -0.0097
 3354SOL    HW221525   0.266   4.615   2.227  0.6466 -0.9431 -0.6602
 3355SOL     OW21526   4.666   3.001   8.798  0.0449  0.1657  0.1807
 3355SOL    HW121527   4.671   3.060   8.873  0.0003  0.4556 -0.0444
 3355SOL    HW221528   0.032   2.999   8.757 -0.0438  0.0402  0.0034
 3356SOL     OW21529   1.898   0.235   6.479 -0.1476  0.2200  0.4256
 3356SOL    HW121530   1.859   0.154   6.512  0.1199 -0.1574 -0.1710
 3356SOL    HW221531   1.858   0.305   6.530 -0.9191  0.8988 -1.0910
 3357SOL     OW21532   1.705   4.055   9.179  0.1690 -0.4475  0.0114
 3357SOL    HW121533   1.636   4.116   9.206  0.5833 -0.8914  2.0731
 3357SOL    HW221534   1.766   4.108   9.126 -0.0108  0.6313  0.8844
 3358SOL     OW21535   3.352   0.435   7.160  0.3848  0.1525  0.2230
 3358SOL    HW121536   3.430   0.390   7.127 -0.7744 -1.3535 -0.5207
 3358SOL    HW221537   3.343   0.507   7.098  0.8613  1.3212  1.5246
 3359SOL     OW21538   2.370   1.750  13.999 -0.2489 -0.5116 -0.7493
 3359SOL    HW121539   2.300   1.799  14.042  0.7693  0.2467  0.0509
 3359SOL    HW221540   2.444   1.810  14.011 -0.7861  0.4506 -2.3195
 3360SOL     OW21541   2.821   0.373  13.740  0.5577  0.2080  0.0402
 3360SOL    HW121542   2.769   0.394  13.817  2.3793  1.3988  0.9499
 3360SOL    HW221543   2.763   0.388  13.665  0.8765  1.5438  0.0552
 3361SOL     OW21544   3.132   0.203  14.484 -0.1231 -0.2307  0.1807
 3361SOL    HW121545   3.148   0.159  14.401  0.3594  1.8754 -0.8308
 3361SOL    HW221546   3.038   0.190  14.494 -0.2587  1.8909  1.4490
 3362SOL     OW21547   3.535   2.928  14.636  0.5409  0.8810  0.2075
 3362SOL    HW121548   3.593   3.003  14.630  0.1407  1.0781 -1.1889
 3362SOL    HW221549   3.584   2.861  14.588 -2.3081  0.4155 -2.0445
 3363SOL     OW21550   2.336   2.161   2.934  0.1206 -0.5633  0.2256
 3363SOL    HW121551   2.297   2.246   2.913 -0.3949 -1.6977 -3.4182
 3363SOL    HW221552   2.306   2.113   2.856  2.3129 -1.0327 -0.3325
 3364SOL     OW21553   1.300   3.462   5.809 -0.0105 -0.2102 -0.1041
 3364SOL    HW121554   1.297   3.367   5.801  2.1075 -0.2970  0.3175
 3364SOL    HW221555   1.283   3.489   5.719 -1.0482 -0.7213 -0.0623
 3365SOL     OW21556   1.939   3.868  17.625 -0.1741  0.0495  0.2231
 3365SOL    HW121557   1.915   3.792  17.573  0.0448 -0.2761  0.5953
 3365SOL    HW221558   1.951   3.833   0.028  0.6677 -0.3854 -0.0661
 3366SOL     OW21559   0.474   1.340   4.675 -0.0193  0.4047  0.1408
 3366SOL    HW121560   0.390   1.362   4.716 -0.2649 -1.2978  0.5675
 3366SOL    HW221561   0.441   1.311   4.590 -0.6462  1.4006  0.0422
 3367SOL     OW21562   2.526   3.305   1.685  0.4089  0.4824  0.1888
 3367SOL    HW121563   2.601   3.274   1.634 -0.5342 -0.2288 -0.7757
 3367SOL    HW221564   2.511   3.393   1.651 -2.0393 -0.0713 -0.1652
 3368SOL     OW21565   3.337   3.862   7.428 -0.1694 -0.2202  0.1111
 3368SOL    HW121566   3.290   3.799   7.483  0.3963 -1.7611 -1.1874
 3368SOL    HW221567   3.330   3.833   7.337 -0.8709  0.2107  0.0241
 3369SOL     OW21568   3.690   3.536   6.537 -1.0864 -0.0704  0.2327
 3369SOL    HW121569   3.730   3.608   6.585  0.6535 -0.8980  0.0020
 3369SOL    HW221570   3.752   3.465   6.552  1.1721  1.3527 -2.5867
 3370SOL     OW21571   4.476   0.202   8.071 -0.1112 -0.5804 -0.0139
 3370SOL    HW121572   4.557   0.253   8.066 -1.7467  1.9159 -1.2287
 3370SOL    HW221573   4.453   0.198   7.978 -0.1978  0.5993 -0.0417
 3371SOL     OW21574   2.608   2.671  11.772 -0.6892 -0.0074 -0.7170
 3371SOL    HW121575   2.677   2.653  11.709  0.8460 -0.6640  1.1478
 3371SOL    HW221576   2.548   2.603  11.742  1.7352 -1.9401 -1.0925
 3372SOL     OW21577   1.765   0.546   3.287 -0.0551 -0.2484  0.1606
 3372SOL    HW121578   1.812   0.538   3.370  1.0572 -0.8675 -0.5178
 3372SOL    HW221579   1.716   0.466   3.302 -1.0378  0.5482  1.1171
 3373SOL     OW21580   0.661   1.602   9.220 -0.1824  0.1373 -0.4327
 3373SOL    HW121581   0.645   1.554   9.302  0.1828  1.1058  0.2071
 3373SOL    HW221582   0.623   1.688   9.239  1.3254  0.3445  1.7076
 3374SOL     OW21583   4.609   2.762   6.344  0.6240  0.1988 -0.0232
 3374SOL    HW121584   4.519   2.746   6.317  1.4288 -0.6603 -2.1837
 3374SOL    HW221585   4.602   2.775   6.439  1.9390 -1.1164  0.2431
 3375SOL     OW21586   0.066   0.979   8.325 -0.2762 -0.9539  0.0707
 3375SOL    HW121587   0.054   0.963   8.419 -1.9648  1.5084  0.2727
 3375SOL    HW221588   4.713   0.933   8.286 -0.4594  0.3252 -1.1009
 3376SOL     OW21589   2.780   1.347  15.227 -0.2291 -0.3735 -0.5940
 3376SOL    HW121590   2.745   1.345  15.317  0.1227  0.5858 -0.4326
 3376SOL    HW221591   2.748   1.436  15.209 -1.0395 -0.1659  1.8400
 3377SOL     OW21592   4.395   1.814   8.338 -0.3395 -0.4490 -0.1049
 3377SOL    HW121593   4.364   1.829   8.428  1.8621 -1.1443  0.7771
 3377SOL    HW221594   4.404   1.905   8.308  1.5007 -0.1980  1.1732
 3378SOL     OW21595   2.790   3.738  16.713  0.0093 -0.0268 -0.6263
 3378SOL    HW121596   2.855   3.690  16.662  1.4600 -0.8297  1.9726
 3378SOL    HW221597   2.748   3.791  16.645  1.8238 -0.3687 -2.0337
 3379SOL     OW21598   3.689   0.975   9.996 -0.1360 -0.2290 -0.1571
 3379SOL    HW121599   3.731   0.920  10.062 -1.0168 -1.3856 -0.5778
 3379SOL    HW221600   3.625   0.914   9.960 -1.9402  1.1831  0.6614
 3380SOL     OW21601   4.021   3.129   5.061  0.4625  0.3273 -0.3744
 3380SOL    HW121602   4.082   3.055   5.067 -0.3349 -0.3648 -0.7997
 3380SOL    HW221603   4.067   3.177   4.992  2.8658  0.2169  1.1265
 3381SOL     OW21604   3.981   0.541   6.378 -0.4888  0.6395 -0.0035
 3381SOL    HW121605   4.007   0.530   6.469  0.7851  0.0026 -0.4475
 3381SOL    HW221606   3.938   0.626   6.377 -0.2776  0.7519  0.2612
 3382SOL     OW21607   0.275   0.967   8.586  0.2441  0.4941  0.2582
 3382SOL    HW121608   0.302   1.041   8.531  1.3302  1.2028  1.7361
 3382SOL    HW221609   0.314   0.895   8.536 -0.6009  1.1958 -1.4331
 3383SOL     OW21610   2.127   2.804   7.410  0.2143  0.2179 -0.1363
 3383SOL    HW121611   2.106   2.896   7.396  0.6545  0.2199 -0.8213
 3383SOL    HW221612   2.040   2.775   7.437  1.5631  0.6291  4.6136
 3384SOL     OW21613   2.212   1.795   4.701 -0.3020 -0.0531  0.0153
 3384SOL    HW121614   2.191   1.883   4.732  2.8191 -0.8090  4.1900
 3384SOL    HW221615   2.240   1.754   4.783  1.3423 -1.4837 -1.2728
 3385SOL     OW21616   4.454   3.323   7.023 -0.3064 -0.1467  0.0382
 3385SOL    HW121617   4.438   3.305   6.930 -1.8221  0.3430  0.2109
 3385SOL    HW221618   4.369   3.323   7.066 -0.2817  0.4410  0.0858
 3386SOL     OW21619   4.579   0.118   7.227  0.4577 -0.2924 -0.1809
 3386SOL    HW121620   4.586   0.196   7.172  2.0811 -0.2644  0.0600
 3386SOL    HW221621   4.487   0.122   7.253  0.3459  1.8143 -0.9045
 3387SOL     OW21622   4.584   2.803   6.602  0.2627  0.2566  0.9082
 3387SOL    HW121623   4.492   2.826   6.601 -0.7525 -3.8106  1.7209
 3387SOL    HW221624   4.595   2.758   6.686  0.3679  0.3785  0.9599
 3388SOL     OW21625   3.551   0.822   3.608 -0.2657  0.4747 -0.0269
 3388SOL    HW121626   3.617   0.826   3.538 -0.2559 -2.0435 -0.1851
 3388SOL    HW221627   3.589   0.885   3.669 -1.2683 -0.4155  1.4829
 3389SOL     OW21628   3.057   3.709   5.459 -0.8565  0.1705 -0.7539
 3389SOL    HW121629   2.964   3.696   5.439 -0.9900  2.0694 -1.3734
 3389SOL    HW221630   3.099   3.684   5.377 -2.7289 -1.4726 -1.2245
 3390SOL     OW21631   2.582   3.717   9.922 -0.5537 -0.1031 -0.2943
 3390SOL    HW121632   2.546   3.721  10.010  0.8368 -0.3351  0.2825
 3390SOL    HW221633   2.644   3.790   9.921  0.6057 -1.0957 -1.9551
 3391SOL     OW21634   3.706   0.609   7.423  0.3494 -0.0991 -0.2646
 3391SOL    HW121635   3.756   0.654   7.355 -1.8082  0.2877 -1.5681
 3391SOL    HW221636   3.734   0.658   7.501  0.9630  1.8465 -1.6985
 3392SOL     OW21637   0.649   0.620   2.954  0.1500  0.4601  0.4966
 3392SOL    HW121638   0.713   0.615   2.884 -0.1831 -1.0760  0.3080
 3392SOL    HW221639   0.702   0.660   3.023 -0.5153 -1.0732  1.8821
 3393SOL     OW21640   3.918   0.236   8.032  0.1359  0.2598 -0.2985
 3393SOL    HW121641   3.877   0.216   8.116 -0.4319 -0.7352 -0.8051
 3393SOL    HW221642   3.991   0.174   8.038  0.0395  0.0284 -1.5208
 3394SOL     OW21643   0.138   0.805   3.283  0.0159 -0.1089 -0.1049
 3394SOL    HW121644   0.161   0.786   3.192  1.6572  1.6586 -0.0558
 3394SOL    HW221645   0.199   0.876   3.302 -0.7098  0.0553  1.6143
 3395SOL     OW21646   2.972   3.333   4.410  0.1902  0.0527  0.1419
 3395SOL    HW121647   2.898   3.272   4.412 -0.4047  0.7865  0.4215
 3395SOL    HW221648   2.983   3.341   4.315 -1.2666  0.8405  0.0529
 3396SOL     OW21649   0.735   3.629   2.511 -0.4407 -0.1497 -0.0582
 3396SOL    HW121650   0.721   3.712   2.464 -1.6454 -1.7343 -2.4962
 3396SOL    HW221651   0.725   3.573   2.435 -2.0590 -2.1433  1.6199
 3397SOL     OW21652   2.397   3.958   4.354 -0.5248  0.4294  0.1368
 3397SOL    HW121653   2.428   4.014   4.283 -1.4972  0.2921 -0.4013
 3397SOL    HW221654   2.335   3.899   4.311 -0.5821  0.8943 -0.4246
 3398SOL     OW21655   1.788   2.915  14.679 -0.0420 -0.9085 -0.6072
 3398SOL    HW121656   1.742   2.995  14.705  1.2111 -0.3652 -0.0702
 3398SOL    HW221657   1.763   2.912  14.586  1.1271  0.6693 -0.9662
 3399SOL     OW21658   2.002   0.510  11.788 -0.3060  0.2824 -0.2385
 3399SOL    HW121659   1.945   0.433  11.796 -0.2096  0.5301  2.5325
 3399SOL    HW221660   1.959   0.556  11.716 -0.3821  0.0610 -0.3364
 3400SOL     OW21661   2.193   3.736   0.943 -0.2123  0.1041  0.1011
 3400SOL    HW121662   2.221   3.783   1.021  2.2285  1.4238 -1.5769
 3400SOL    HW221663   2.127   3.678   0.983 -0.7549  0.7172  0.0939
 3401SOL     OW21664   1.893   0.655   1.867  0.0429 -0.2724  0.1773
 3401SOL    HW121665   1.811   0.697   1.893 -0.1392 -0.7042  0.2996
 3401SOL    HW221666   1.854   0.603   1.796 -1.0602  1.5219 -0.5187
 3402SOL     OW21667   1.713   2.820  14.419  0.4503 -0.1506  0.0383
 3402SOL    HW121668   1.719   2.835  14.325 -0.4545 -1.8111 -0.2877
 3402SOL    HW221669   1.628   2.775  14.419  0.0743  0.5579  1.2382
 3403SOL     OW21670   3.141   4.100  13.429 -0.0156 -0.4418  0.4552
 3403SOL    HW121671   3.187   4.042  13.367  0.0085 -2.1208  2.0261
 3403SOL    HW221672   3.206   4.169  13.437  0.7780 -0.8584 -2.2027
 3404SOL     OW21673   2.622   0.779  10.000 -0.9312  0.0670 -0.2852
 3404SOL    HW121674   2.650   0.688   9.997  0.6054  0.5322 -0.3418
 3404SOL    HW221675   2.699   0.821   9.961 -1.3893 -0.9794 -2.2623
 3405SOL     OW21676   0.273   3.490  12.225 -0.1246  0.3936  0.0881
 3405SOL    HW121677   0.366   3.483  12.249 -0.2137 -0.3857  0.2013
 3405SOL    HW221678   0.274   3.443  12.142 -2.6113  0.9757 -0.2643
 3406SOL     OW21679   4.171   1.378   9.116 -0.0043 -0.7956  0.3743
 3406SOL    HW121680   4.117   1.325   9.175 -0.5965  0.3111  0.8151
 3406SOL    HW221681   4.208   1.317   9.051  1.2101 -0.6103  0.8857
 3407SOL     OW21682   3.174   4.468   9.217  0.2526  0.7558 -0.4030
 3407SOL    HW121683   3.169   4.556   9.254  0.9825  0.0285  1.4752
 3407SOL    HW221684   3.180   4.402   9.286 -0.2674  0.8345 -0.2886
 3408SOL     OW21685   2.753   2.705   6.111 -0.0733 -0.1423 -0.2091
 3408SOL    HW121686   2.660   2.720   6.125  0.4929  2.4491  0.8846
 3408SOL    HW221687   2.768   2.772   6.044  1.1387 -0.0109  0.1798
 3409SOL     OW21688   0.851   3.797   1.705  0.1064 -0.1925  0.4299
 3409SOL    HW121689   0.878   3.776   1.794  2.4431  0.8771 -0.0242
 3409SOL    HW221690   0.931   3.799   1.651  0.8396  1.9973  1.5871
 3410SOL     OW21691   1.120   3.143   0.898 -0.3686 -0.5444 -0.3927
 3410SOL    HW121692   1.040   3.098   0.871 -1.0715  1.1965 -1.2472
 3410SOL    HW221693   1.096   3.164   0.989  0.0806  1.7872 -0.7975
 3411SOL     OW21694   3.542   0.280   4.452  0.9045 -0.2597  0.4169
 3411SOL    HW121695   3.534   0.347   4.384 -0.2576 -0.4225  0.3889
 3411SOL    HW221696   3.558   0.339   4.525  0.5560  2.2900 -1.5701
 3412SOL     OW21697   3.850   1.464   7.798  0.2326 -0.0276  0.1362
 3412SOL    HW121698   3.790   1.412   7.851  1.4330 -0.6279  0.8936
 3412SOL    HW221699   3.902   1.491   7.873  2.1490  0.7110 -1.4621
 3413SOL     OW21700   2.882   2.429  16.722  0.0290  0.3443  0.0382
 3413SOL    HW121701   2.977   2.423  16.725  0.1188  2.4278  0.9820
 3413SOL    HW221702   2.845   2.425  16.634 -0.7890 -2.7675  0.4925
 3414SOL     OW21703   1.789   0.147   8.118  0.0855 -0.4116 -0.4400
 3414SOL    HW121704   1.839   0.146   8.037 -0.8413 -1.9164 -0.9869
 3414SOL    HW221705   1.712   0.202   8.104 -0.1687 -0.5137  0.4953
 3415SOL     OW21706   0.554   1.908   7.679  0.4972  0.5717  0.4739
 3415SOL    HW121707   0.565   1.964   7.756 -0.0996  0.9120  0.3169
 3415SOL    HW221708   0.499   1.965   7.624 -0.6426 -0.0161  0.9958
 3416SOL     OW21709   4.704   4.439   7.359  0.2245  0.1141 -0.0134
 3416SOL    HW121710   0.000   4.368   7.421 -0.5014  0.5668  0.6985
 3416SOL    HW221711   4.612   4.457   7.378 -0.2892 -0.9885 -1.3797
 3417SOL     OW21712   3.478   1.069   3.370 -0.2070 -0.3156  0.6442
 3417SOL    HW121713   3.389   1.063   3.337  0.6635 -2.1542 -1.4012
 3417SOL    HW221714   3.463   1.048   3.463 -0.4809  2.6983  1.2562
 3418SOL     OW21715   3.533   3.204   8.916  0.3677  0.2498 -0.0339
 3418SOL    HW121716   3.588   3.245   8.983 -0.0157 -0.8382  0.9506
 3418SOL    HW221717   3.591   3.214   8.841  0.2494  0.0701 -0.1506
 3419SOL     OW21718   4.591   2.284   5.641 -0.0215  0.1037  0.0700
 3419SOL    HW121719   4.547   2.234   5.710  0.0169 -0.2107 -0.1318
 3419SOL    HW221720   4.652   2.340   5.689  0.0325  2.4787 -2.7410
 3420SOL     OW21721   1.733   3.403  11.562  0.1274 -0.3153 -0.4685
 3420SOL    HW121722   1.703   3.491  11.583 -1.4006 -1.1936  0.9401
 3420SOL    HW221723   1.819   3.397  11.604 -0.3546 -2.3796  0.2557
 3421SOL     OW21724   4.377   2.440   7.691  0.3774  0.1533  1.0204
 3421SOL    HW121725   4.472   2.451   7.692  0.6700 -2.4823 -0.4338
 3421SOL    HW221726   4.343   2.528   7.677  0.0233 -0.3045 -0.8796
 3422SOL     OW21727   4.623   2.835  11.970  0.2544 -0.2820  0.3874
 3422SOL    HW121728   4.625   2.830  12.066 -1.3612  1.7589  0.5138
 3422SOL    HW221729   4.548   2.894  11.965  1.0460  0.6476 -0.6431
 3423SOL     OW21730   3.646   3.025   3.001  0.4245 -0.2850  0.0557
 3423SOL    HW121731   3.608   2.944   2.968 -3.2379  0.9632  1.2277
 3423SOL    HW221732   3.709   3.046   2.932 -0.3128  3.5111  0.5327
 3424SOL     OW21733   1.827   3.761   9.753 -0.2019 -0.0954 -0.2576
 3424SOL    HW121734   1.834   3.670   9.782 -0.0951 -0.0771 -0.2299
 3424SOL    HW221735   1.756   3.749   9.689 -0.6876 -1.3685  0.5178
 3425SOL     OW21736   3.701   2.643   2.982 -0.5936 -0.2362 -0.1097
 3425SOL    HW121737   3.763   2.671   3.049  1.3706  0.9467 -2.4490
 3425SOL    HW221738   3.724   2.550   2.985  1.1530  0.2443  1.6110
 3426SOL     OW21739   2.408   1.801   4.199 -0.4795  0.1266  0.1571
 3426SOL    HW121740   2.395   1.798   4.104  1.2475  1.1782 -0.1167
 3426SOL    HW221741   2.497   1.837   4.206 -0.0737 -0.7598 -0.3515
 3427SOL     OW21742   0.519   0.981   5.115 -0.2473 -0.1404  0.0652
 3427SOL    HW121743   0.560   0.952   5.034  0.0629  0.1654  0.1147
 3427SOL    HW221744   0.507   1.069   5.081 -0.0731 -0.7059 -1.4767
 3428SOL     OW21745   0.577   2.550   8.532 -0.1672 -0.1216  0.3557
 3428SOL    HW121746   0.672   2.540   8.535 -0.2172 -1.0402 -1.0969
 3428SOL    HW221747   0.570   2.638   8.495  2.9605 -0.3815 -0.8438
 3429SOL     OW21748   3.434   3.662  10.148 -0.9578  0.0098 -0.3553
 3429SOL    HW121749   3.373   3.621  10.087  0.1751 -0.1186 -1.4170
 3429SOL    HW221750   3.365   3.692  10.207 -0.6168  1.7860 -0.8443
 3430SOL     OW21751   0.621   4.509   6.931 -0.3854  0.1149  0.0403
 3430SOL    HW121752   0.536   4.552   6.922 -1.2892 -1.7177 -0.3070
 3430SOL    HW221753   0.616   4.430   6.876 -2.1852 -0.2529  0.7364
 3431SOL     OW21754   4.079   2.877  11.050  0.1333 -0.0325  0.1334
 3431SOL    HW121755   4.059   2.790  11.016  0.4622  0.6270 -1.7154
 3431SOL    HW221756   4.097   2.922  10.967 -0.6150  2.1643  1.1440
 3432SOL     OW21757   1.497   2.139   5.654 -0.0844 -0.1373  0.1558
 3432SOL    HW121758   1.473   2.200   5.585 -1.5395  0.2254  0.9892
 3432SOL    HW221759   1.543   2.076   5.598  0.5686 -0.9397  1.5725
 3433SOL     OW21760   3.372   1.092  11.723  0.0092  0.4576  0.0735
 3433SOL    HW121761   3.348   1.019  11.665 -1.0396  1.6972 -1.0468
 3433SOL    HW221762   3.305   1.155  11.698 -0.2289 -0.6820 -2.1998
 3434SOL     OW21763   1.545   0.801   8.172 -0.0017  0.5810  0.0079
 3434SOL    HW121764   1.598   0.761   8.102  0.7197 -0.0503  0.9204
 3434SOL    HW221765   1.581   0.888   8.157  0.7033  0.5771  1.7463
 3435SOL     OW21766   4.351   3.218  16.587 -0.0029 -0.2597 -0.0734
 3435SOL    HW121767   4.420   3.194  16.525  0.0636  0.0476 -0.1157
 3435SOL    HW221768   4.304   3.280  16.532  2.5838  0.4236 -1.5359
 3436SOL     OW21769   0.698   0.661  17.362 -0.8633  0.2843 -0.5810
 3436SOL    HW121770   0.781   0.693  17.329  1.1470 -0.6017  3.6196
 3436SOL    HW221771   0.645   0.718  17.306 -0.4485 -0.1624 -1.4325
 3437SOL     OW21772   0.444   3.701   6.607  0.4289 -0.4500  0.1126
 3437SOL    HW121773   0.360   3.745   6.599  1.0883  0.4469 -1.7125
 3437SOL    HW221774   0.476   3.746   6.685 -0.3135  1.6149 -0.7915
 3438SOL     OW21775   1.975   0.749   5.796  0.2284  0.1855  0.3788
 3438SOL    HW121776   1.909   0.799   5.748  0.8755  1.4267  0.7706
 3438SOL    HW221777   1.972   0.662   5.756  2.9743  0.8453 -1.2099
 3439SOL     OW21778   1.103   1.024  11.703  0.3336 -0.0445  0.0518
 3439SOL    HW121779   1.057   1.099  11.667 -1.9441 -2.8065 -2.7481
 3439SOL    HW221780   1.174   1.006  11.641  0.6646 -0.6543  0.6057
 3440SOL     OW21781   3.637   1.716  12.405  0.0180 -0.4192  0.1848
 3440SOL    HW121782   3.720   1.692  12.362 -1.3017 -0.7634 -2.1622
 3440SOL    HW221783   3.675   1.770  12.474 -1.4254 -0.5159  1.0530
 3441SOL     OW21784   0.636   2.339  14.418  0.6348  0.5462  0.3682
 3441SOL    HW121785   0.690   2.291  14.357 -1.1345  0.9457 -1.5154
 3441SOL    HW221786   0.691   2.345  14.496  1.2077  1.5812 -0.1182
 3442SOL     OW21787   2.929   3.701   8.433  0.2798  0.3489 -0.3958
 3442SOL    HW121788   2.931   3.791   8.401  1.1739  0.0353 -1.2228
 3442SOL    HW221789   2.990   3.710   8.506 -0.1538  2.0308 -0.2500
 3443SOL     OW21790   4.146   1.209   8.773 -0.5276 -0.3132 -0.0167
 3443SOL    HW121791   4.083   1.149   8.734  0.2281  0.4514 -2.4483
 3443SOL    HW221792   4.124   1.195   8.865  1.9444 -0.8598  0.5006
 3444SOL     OW21793   4.458   0.182  15.434 -0.1707  0.1259  0.3014
 3444SOL    HW121794   4.382   0.137  15.470 -0.0191  0.4247  0.9817
 3444SOL    HW221795   4.453   0.257  15.493  1.1273  0.8880 -0.5498
 3445SOL     OW21796   1.886   1.112   4.506  0.4272 -0.3431  0.2901
 3445SOL    HW121797   1.823   1.149   4.568  0.6388 -0.7794  0.7626
 3445SOL    HW221798   1.852   1.023   4.500 -1.7017  0.6588 -2.8810
 3446SOL     OW21799   4.333   2.531   3.876 -0.7390 -0.2068 -0.2837
 3446SOL    HW121800   4.267   2.503   3.939 -0.3961 -1.1997 -0.3554
 3446SOL    HW221801   4.288   2.594   3.820  1.8171  1.8369 -0.0041
 3447SOL     OW21802   4.218   2.346   9.518 -0.1992  0.2564 -0.2185
 3447SOL    HW121803   4.202   2.438   9.498 -1.1396 -0.1601 -1.3766
 3447SOL    HW221804   4.244   2.304   9.436 -1.9052 -0.9462 -0.1336
 3448SOL     OW21805   2.942   1.752   7.307 -0.0833 -0.5443 -0.1492
 3448SOL    HW121806   2.979   1.715   7.227 -1.3406  0.5068 -1.2131
 3448SOL    HW221807   2.992   1.834   7.311 -3.7170  1.5437  1.7781
 3449SOL     OW21808   3.206   4.007   8.875  0.1253 -0.5018  0.3765
 3449SOL    HW121809   3.222   4.098   8.850 -1.2408 -0.3977 -0.0865
 3449SOL    HW221810   3.135   4.014   8.939  0.6510  0.7032  0.8242
 3450SOL     OW21811   0.677   0.087   3.950 -0.0136 -0.0797  0.4095
 3450SOL    HW121812   0.716   0.014   3.901  0.0479  2.0765 -2.7365
 3450SOL    HW221813   0.761   0.111   3.990 -0.1274 -0.3564  0.8209
 3451SOL     OW21814   2.460   0.978   7.185  0.2501  0.3320 -0.3347
 3451SOL    HW121815   2.502   1.013   7.106 -1.3379 -1.8945 -2.1651
 3451SOL    HW221816   2.384   1.034   7.199  0.8032  1.1193 -0.4889
 3452SOL     OW21817   1.267   3.733  10.260 -0.0270  0.5592  0.2516
 3452SOL    HW121818   1.335   3.764  10.200  0.0598 -1.4723 -0.7006
 3452SOL    HW221819   1.251   3.809  10.317 -0.8521  2.1128 -2.0258
 3453SOL     OW21820   0.741   2.658   5.969  0.5324  0.5743  0.2302
 3453SOL    HW121821   0.796   2.670   6.047 -1.1684  0.5746  1.4396
 3453SOL    HW221822   0.717   2.567   5.986  2.2150 -0.0574 -0.8713
 3454SOL     OW21823   0.278   3.208   1.619  0.6582  0.3236 -0.8316
 3454SOL    HW121824   0.320   3.146   1.679  2.4461  2.3455  0.0138
 3454SOL    HW221825   0.349   3.223   1.556 -2.5687  1.9977 -4.0499
 3455SOL     OW21826   2.985   0.733   3.614 -0.2764  0.7655 -0.4276
 3455SOL    HW121827   2.953   0.823   3.605 -1.8308  0.4047  1.4863
 3455SOL    HW221828   3.078   0.757   3.615  0.3459 -1.7358  1.7570
 3456SOL     OW21829   3.047   2.099   7.575 -0.6439  0.1319  0.6729
 3456SOL    HW121830   2.958   2.075   7.550 -1.0736  3.1393 -0.7117
 3456SOL    HW221831   3.067   2.140   7.491  1.0098 -1.1212  0.4616
 3457SOL     OW21832   0.553   3.862   5.895  0.1535 -0.2541  0.2606
 3457SOL    HW121833   0.484   3.925   5.913  1.3208  2.2593 -3.9726
 3457SOL    HW221834   0.522   3.790   5.949 -0.3284  1.8980  2.8473
 3458SOL     OW21835   0.756   1.984   8.083  0.2989  0.5659 -0.0836
 3458SOL    HW121836   0.712   1.899   8.078 -0.3462  0.8891  0.0667
 3458SOL    HW221837   0.792   1.984   8.172  1.8195  0.8166 -0.7117
 3459SOL     OW21838   3.915   3.637   6.219  0.1977  0.7986  0.3141
 3459SOL    HW121839   4.004   3.629   6.252 -0.4420 -0.2890  1.7735
 3459SOL    HW221840   3.873   3.704   6.273  1.1801 -1.0518  3.3085
 3460SOL     OW21841   0.715   3.217  12.838 -0.2728 -0.2638 -0.4632
 3460SOL    HW121842   0.771   3.290  12.862  0.8503 -1.8942  1.8019
 3460SOL    HW221843   0.741   3.141  12.890  1.1664  0.5534  0.0055
 3461SOL     OW21844   2.034   3.311   9.580 -0.0124  0.5131 -0.5519
 3461SOL    HW121845   1.949   3.272   9.557 -0.1388  0.5229 -0.1118
 3461SOL    HW221846   2.025   3.391   9.528  0.3395  1.5866  1.0294
 3462SOL     OW21847   3.100   2.141  16.015 -0.5224 -0.5985  0.4788
 3462SOL    HW121848   3.107   2.157  16.109 -2.6642  1.7480  0.2330
 3462SOL    HW221849   3.027   2.080  16.005 -1.8837  1.3136 -1.2635
 3463SOL     OW21850   0.522   0.382   9.428 -0.1205 -0.4363 -0.0634
 3463SOL    HW121851   0.436   0.350   9.401 -0.7404  1.1489 -0.0174
 3463SOL    HW221852   0.552   0.319   9.494  1.5351 -0.6892 -1.0789
 3464SOL     OW21853   1.367   0.329   9.243  0.3158 -0.3306 -0.1863
 3464SOL    HW121854   1.290   0.385   9.254  0.8243  0.0204  1.6708
 3464SOL    HW221855   1.386   0.320   9.337 -1.4116  2.5525  0.4412
 3465SOL     OW21856   4.417   2.434   8.336  0.2550 -0.1571  0.0307
 3465SOL    HW121857   4.443   2.477   8.417 -0.6458 -0.5385  0.5084
 3465SOL    HW221858   4.436   2.344   8.362 -0.6963 -0.3510  0.0373
 3466SOL     OW21859   2.689   3.528   4.979 -0.3988 -0.1369  0.0978
 3466SOL    HW121860   2.667   3.596   4.915 -0.5485 -0.6627 -0.4000
 3466SOL    HW221861   2.652   3.449   4.941 -2.1850  0.0660  1.4074
 3467SOL     OW21862   3.063   1.773   5.700  0.2601 -0.6727 -0.3391
 3467SOL    HW121863   3.070   1.843   5.635  2.4694  0.2328  0.8897
 3467SOL    HW221864   2.971   1.784   5.725  0.5015 -0.6863  0.5315
 3468SOL     OW21865   2.893   2.710  16.838  0.1011  0.0516 -0.6717
 3468SOL    HW121866   2.913   2.619  16.815 -2.4544 -0.3151 -1.3954
 3468SOL    HW221867   2.917   2.755  16.757 -0.2443 -2.1552 -2.0063
 3469SOL     OW21868   0.962   2.519   1.256  0.1180 -0.0427 -0.2257
 3469SOL    HW121869   0.908   2.459   1.204  0.3617 -1.1936  0.8592
 3469SOL    HW221870   0.913   2.510   1.338  0.0805  0.7396 -0.1614
 3470SOL     OW21871   0.943   4.599   8.630 -0.0451 -0.2309  0.6535
 3470SOL    HW121872   0.942   4.503   8.623  1.0474 -0.0452 -2.2825
 3470SOL    HW221873   0.956   4.628   8.540  1.4436  1.2691  1.3552
 3471SOL     OW21874   4.043   3.451   3.980 -0.1982 -0.2062  0.0631
 3471SOL    HW121875   4.026   3.372   3.928 -1.3913 -1.4736  2.3935
 3471SOL    HW221876   3.959   3.443   4.024 -1.0873 -1.3512 -1.8002
 3472SOL     OW21877   4.406   2.585   2.231 -0.4034 -0.1260  0.0912
 3472SOL    HW121878   4.449   2.507   2.194  0.1085 -0.8288  2.1561
 3472SOL    HW221879   4.468   2.655   2.212  0.0826 -0.1568  1.5722
 3473SOL     OW21880   4.489   3.145   7.610 -0.5147 -0.2222  0.4824
 3473SOL    HW121881   4.470   3.182   7.696 -0.9403  1.9384 -0.5217
 3473SOL    HW221882   4.399   3.118   7.592  0.1458 -2.5558  0.7193
 3474SOL     OW21883   1.613   1.466   8.509 -0.2514  0.6166  0.5192
 3474SOL    HW121884   1.559   1.409   8.454 -0.1989  3.1823 -2.1865
 3474SOL    HW221885   1.542   1.498   8.565 -0.6522 -0.6689  0.7501
 3475SOL     OW21886   2.498   3.167   3.386  0.1199 -0.1147 -0.8715
 3475SOL    HW121887   2.430   3.229   3.414  0.5093  0.4303 -1.1236
 3475SOL    HW221888   2.573   3.228   3.383  0.4852 -0.5569 -0.7855
 3476SOL     OW21889   1.745   3.377   2.692  0.2604 -0.4083  0.2325
 3476SOL    HW121890   1.679   3.409   2.631  0.4206  1.9608  1.3139
 3476SOL    HW221891   1.700   3.411   2.769 -1.3490 -0.0379 -0.8635
 3477SOL     OW21892   0.145   3.946   9.998 -1.0197 -0.3079  0.2179
 3477SOL    HW121893   0.146   3.853   9.976  0.0233 -0.1569 -0.3568
 3477SOL    HW221894   0.234   3.956  10.033 -0.1574 -0.4228 -1.9442
 3478SOL     OW21895   3.965   0.675  16.371  0.1718 -0.1011  0.2398
 3478SOL    HW121896   4.016   0.708  16.445  0.8781 -1.2239  0.2483
 3478SOL    HW221897   3.919   0.603  16.413 -1.2730  1.2943  1.0756
 3479SOL     OW21898   1.798   3.783   0.379 -0.4132 -0.5353 -0.4919
 3479SOL    HW121899   1.781   3.724   0.306  1.1197 -0.6176 -0.7935
 3479SOL    HW221900   1.808   3.866   0.332  0.9215 -1.5505 -2.0092
 3480SOL     OW21901   2.170   4.514   4.560  0.0853 -0.2199  0.7524
 3480SOL    HW121902   2.143   4.439   4.613 -0.0485  1.0731  2.5196
 3480SOL    HW221903   2.084   4.550   4.536  0.0391 -1.2973 -0.6686
 3481SOL     OW21904   4.519   1.541   9.336  0.2080  0.3312 -0.4296
 3481SOL    HW121905   4.535   1.583   9.420  4.0794  1.6801 -1.8049
 3481SOL    HW221906   4.424   1.549   9.325 -0.1454 -2.5279  0.7683
 3482SOL     OW21907   1.264   4.357   5.432 -0.9368 -0.3843 -0.2434
 3482SOL    HW121908   1.284   4.273   5.392 -0.8300 -0.2978 -0.3674
 3482SOL    HW221909   1.340   4.410   5.410 -0.3241 -2.1685 -2.3698
 3483SOL     OW21910   1.825   2.993   5.400 -0.3139  0.1109 -0.2558
 3483SOL    HW121911   1.758   2.952   5.454  1.1204 -0.9958  0.6707
 3483SOL    HW221912   1.903   2.990   5.455  0.0172  1.4679 -0.6396
 3484SOL     OW21913   3.348   0.450  11.468 -0.2035  0.7547  0.1113
 3484SOL    HW121914   3.396   0.422  11.546  0.1213  0.7396 -0.0939
 3484SOL    HW221915   3.383   0.378  11.416 -1.1128  0.7097 -0.4335
 3485SOL     OW21916   4.185   2.074   5.538  0.0516  0.7150  0.3598
 3485SOL    HW121917   4.280   2.081   5.547  0.3206 -0.3975 -1.5455
 3485SOL    HW221918   4.179   1.990   5.492  1.2003 -0.3653  2.1676
 3486SOL     OW21919   1.414   1.245  15.774 -0.0804 -0.2562  0.2308
 3486SOL    HW121920   1.382   1.210  15.691  0.3861  2.8518 -1.2843
 3486SOL    HW221921   1.340   1.226  15.832 -1.4196 -0.9053 -1.6651
 3487SOL     OW21922   0.710   2.292   6.952  0.3294 -0.2425  0.5064
 3487SOL    HW121923   0.727   2.382   6.923 -0.9544  0.2819  1.3810
 3487SOL    HW221924   0.625   2.306   6.993 -0.0274  2.8194 -1.2859
 3488SOL     OW21925   3.604   3.615   4.360  0.3482  0.3050  0.3662
 3488SOL    HW121926   3.561   3.695   4.331  2.6350  1.8419  1.1892
 3488SOL    HW221927   3.554   3.550   4.311 -0.8209  0.5313  1.2635
 3489SOL     OW21928   1.406   4.454   9.131 -0.1252  0.8411  0.2612
 3489SOL    HW121929   1.447   4.447   9.217 -0.2176 -1.4484  0.1406
 3489SOL    HW221930   1.335   4.390   9.140 -1.5156  2.6895  2.3503
 3490SOL     OW21931   3.120   2.257   7.374  0.0690  0.2123 -0.5129
 3490SOL    HW121932   3.197   2.235   7.322  0.8525  0.2625  0.6432
 3490SOL    HW221933   3.113   2.341   7.328  0.5474  0.4447 -0.1604
 3491SOL     OW21934   1.498   2.380  12.589 -0.5555  0.5746 -1.0191
 3491SOL    HW121935   1.505   2.323  12.665  1.6981 -0.0630 -1.7170
 3491SOL    HW221936   1.551   2.333  12.525  0.2447 -1.0066  0.8031
 3492SOL     OW21937   2.330   3.019  11.213 -0.7658  0.0737 -0.1208
 3492SOL    HW121938   2.329   2.924  11.202  1.1403  0.1993 -1.2289
 3492SOL    HW221939   2.356   3.048  11.126 -0.4460  2.4204  0.7434
 3493SOL     OW21940   1.007   2.625   9.160  0.7880 -0.3281 -0.3239
 3493SOL    HW121941   1.024   2.567   9.086 -1.3638 -3.4415  1.6886
 3493SOL    HW221942   0.933   2.584   9.203  1.6743 -1.3063  0.2585
 3494SOL     OW21943   2.135   2.008  10.430  0.4009 -0.2105 -0.0850
 3494SOL    HW121944   2.091   2.090  10.452  0.7964  0.1024 -0.4699
 3494SOL    HW221945   2.070   1.968  10.371 -0.0234  1.5628 -0.8380
 3495SOL     OW21946   0.215   0.053   2.096  0.1746  0.2308  0.2042
 3495SOL    HW121947   0.127   0.061   2.061  0.3300  0.6914 -0.0762
 3495SOL    HW221948   0.211   0.125   2.159 -0.2292  2.3915 -2.3405
 3496SOL     OW21949   0.700   3.173  10.909  0.2317  1.0116 -0.2581
 3496SOL    HW121950   0.669   3.225  10.835 -0.0985  2.0248  0.5973
 3496SOL    HW221951   0.623   3.122  10.936 -0.4854  1.6991 -0.9988
 3497SOL     OW21952   2.216   3.862   2.134  0.3042  0.1010  0.0173
 3497SOL    HW121953   2.247   3.772   2.126  2.8064  0.9962 -0.4623
 3497SOL    HW221954   2.246   3.901   2.052 -2.7694 -0.6765 -1.4430
 3498SOL     OW21955   4.401   0.829   7.379 -0.3933 -0.1828  0.1276
 3498SOL    HW121956   4.465   0.763   7.404 -0.1752 -0.5281 -1.3536
 3498SOL    HW221957   4.357   0.852   7.461  2.1443  0.7797  1.2117
 3499SOL     OW21958   0.001   4.417   5.506  0.1660  0.0835 -0.2048
 3499SOL    HW121959   4.645   4.381   5.551  0.5804  0.6252  0.9141
 3499SOL    HW221960   0.076   4.399   5.562 -0.2823 -0.6656  0.1617
 3500SOL     OW21961   4.427   1.278   3.281  0.3301 -0.1211 -0.0144
 3500SOL    HW121962   4.450   1.356   3.230  1.5418 -1.1256 -1.0259
 3500SOL    HW221963   4.514   1.239   3.272 -0.7934 -2.3707 -1.0562
 3501SOL     OW21964   3.428   4.062   8.153  0.2451  0.2850  0.9219
 3501SOL    HW121965   3.473   4.039   8.235  2.2923  2.1747  0.3532
 3501SOL    HW221966   3.476   4.143   8.132 -0.1724  0.2203 -0.2378
 3502SOL     OW21967   3.084   0.454   9.904  0.1473 -0.2584  0.4387
 3502SOL    HW121968   3.025   0.422   9.973  2.2064 -0.0922  2.3030
 3502SOL    HW221969   3.026   0.496   9.841 -1.4252 -1.8917  0.7914
 3503SOL     OW21970   1.489   0.436   4.561  0.5254 -0.0387 -0.3863
 3503SOL    HW121971   1.549   0.379   4.609 -1.5049 -0.8850  1.1501
 3503SOL    HW221972   1.522   0.415   4.474  1.2739  0.9083 -0.3311
 3504SOL     OW21973   2.802   0.645   5.283 -0.4546  0.0030 -0.0039
 3504SOL    HW121974   2.758   0.675   5.363 -0.1912  0.3745 -0.0030
 3504SOL    HW221975   2.804   0.550   5.299  1.2611  0.1242  0.5255
 3505SOL     OW21976   2.870   1.218   5.337 -0.6982  0.5126 -0.0609
 3505SOL    HW121977   2.956   1.253   5.314 -1.3209  1.7731 -0.4633
 3505SOL    HW221978   2.864   1.264   5.421  2.8943  0.9065 -0.0280
 3506SOL     OW21979   4.100   0.034   8.133 -0.3537 -0.0972 -0.2070
 3506SOL    HW121980   4.176   0.016   8.188  0.0960 -1.8381 -1.3978
 3506SOL    HW221981   4.037   4.687   8.159 -1.3490  1.0991  0.4725
 3507SOL     OW21982   2.339   3.185   8.202  0.3259  0.0202 -0.3365
 3507SOL    HW121983   2.344   3.099   8.161 -1.8144 -1.9772  3.5858
 3507SOL    HW221984   2.427   3.194   8.238  0.4113 -1.1244 -0.2874
 3508SOL     OW21985   0.335   4.699   4.147 -0.2322 -0.3306  0.2831
 3508SOL    HW121986   0.402   4.639   4.116 -0.8131 -1.1440  0.6087
 3508SOL    HW221987   0.378   0.060   4.123  0.3594 -1.0878 -1.2210
 3509SOL     OW21988   4.713   1.294  17.235  0.1742 -0.1487 -0.0252
 3509SOL    HW121989   4.661   1.320  17.311  0.3791  0.8103 -0.2038
 3509SOL    HW221990   4.699   1.368  17.176  2.3119  0.1585 -0.1365
 3510SOL     OW21991   3.765   2.189  12.932 -0.1809  0.1246  0.4135
 3510SOL    HW121992   3.718   2.153  12.856 -0.1136  1.5672 -0.3112
 3510SOL    HW221993   3.824   2.245  12.882  1.6389 -0.2693  2.0916
 3511SOL     OW21994   2.905   4.545  16.957 -0.2127  0.2198 -0.6691
 3511SOL    HW121995   2.938   4.630  16.930  0.3148  0.1866 -0.1347
 3511SOL    HW221996   2.962   4.536  17.033 -1.9667  0.6542  0.6986
 3512SOL     OW21997   3.080   3.058   1.892 -0.1756 -0.2361  0.5022
 3512SOL    HW121998   3.124   2.973   1.893 -1.5776 -0.9649  0.2107
 3512SOL    HW221999   2.998   3.047   1.941  0.2087 -0.5298  1.0843
 3513SOL     OW22000   3.728   2.948   6.059  0.1307  0.0358 -0.1048
 3513SOL    HW122001   3.653   3.008   6.055  0.1131  0.0116 -0.1481
 3513SOL    HW222002   3.691   2.861   6.045 -1.0137  0.2410  1.7075
 3514SOL     OW22003   1.980   3.208  11.120  0.1653  0.0444 -0.1237
 3514SOL    HW122004   2.003   3.217  11.027 -0.4513  2.4480 -0.0449
 3514SOL    HW222005   2.066   3.195  11.159  1.2478  2.0269 -1.8256
 3515SOL     OW22006   0.198   1.266  11.890  0.4220  0.3960 -0.5802
 3515SOL    HW122007   0.132   1.301  11.951  0.3722  1.8427 -1.4454
 3515SOL    HW222008   0.226   1.342  11.839 -0.0774  1.7715  1.1855
 3516SOL     OW22009   3.898   1.900   1.607 -0.6363 -0.1567  0.1122
 3516SOL    HW122010   3.811   1.925   1.638 -0.2828 -1.0058  1.8270
 3516SOL    HW222011   3.874   1.851   1.528 -0.8542 -1.0256  0.7101
 3517SOL     OW22012   2.172   3.593   9.105  0.0120 -0.0241  0.2039
 3517SOL    HW122013   2.202   3.552   9.024 -2.1217 -0.1153 -0.5364
 3517SOL    HW222014   2.090   3.632   9.073  0.2122  1.7491  1.8938
 3518SOL     OW22015   4.112   0.666   5.995  0.7093  0.0151  0.2153
 3518SOL    HW122016   4.036   0.613   5.973  3.5954 -3.3011 -1.7687
 3518SOL    HW222017   4.091   0.750   5.954 -0.9968  0.0224  1.1441
 3519SOL     OW22018   1.798   1.971   1.775 -0.3567 -0.3477 -0.1974
 3519SOL    HW122019   1.850   1.897   1.807 -1.4423 -0.7104  0.7346
 3519SOL    HW222020   1.839   1.974   1.689  0.3459 -1.5486  0.0987
 3520SOL     OW22021   2.768   1.172  13.492 -0.6532  0.1308 -0.0360
 3520SOL    HW122022   2.817   1.117  13.432 -0.4449  0.4873 -0.1916
 3520SOL    HW222023   2.712   1.226  13.436  1.5364  1.9370 -0.4755
 3521SOL     OW22024   1.937   3.900   9.945 -0.1476  0.3375  0.2690
 3521SOL    HW122025   2.024   3.894   9.904 -0.5328 -0.7587 -0.4085
 3521SOL    HW222026   1.882   3.847   9.886 -2.2103  4.1183 -1.1776
 3522SOL     OW22027   0.423   1.104   5.571  0.2553 -0.1127  0.2419
 3522SOL    HW122028   0.460   1.057   5.497 -0.0725 -0.2598  0.1708
 3522SOL    HW222029   0.498   1.152   5.605 -0.1682  0.1341  0.8294
 3523SOL     OW22030   0.788   4.621   3.772  0.2480 -0.1463  0.1869
 3523SOL    HW122031   0.794   4.529   3.746 -2.3850 -0.3655  0.4023
 3523SOL    HW222032   0.856   4.667   3.722 -0.7100  1.1606  0.0928
 3524SOL     OW22033   3.835   1.003  13.843  1.0468  0.4476  0.4101
 3524SOL    HW122034   3.905   1.014  13.907  1.7932 -1.4794 -0.0981
 3524SOL    HW222035   3.857   0.920  13.801 -1.0235 -0.4908  1.1636
 3525SOL     OW22036   3.035   3.156  17.416 -0.4625 -0.1533 -0.1490
 3525SOL    HW122037   3.112   3.176  17.469  0.0270  2.1567 -1.7726
 3525SOL    HW222038   3.008   3.244  17.389 -0.5799  0.2858  1.3865
 3526SOL     OW22039   2.968   0.675   5.093  0.1573  0.1974  0.1955
 3526SOL    HW122040   2.898   0.702   5.153 -0.0133 -0.5174  0.3148
 3526SOL    HW222041   3.023   0.621   5.148  0.3282 -1.2678 -1.4061
 3527SOL     OW22042   4.351   2.808   6.832  0.1385 -0.0202 -0.2428
 3527SOL    HW122043   4.358   2.824   6.738 -0.3778  1.0859 -0.1013
 3527SOL    HW222044   4.257   2.820   6.845  0.0099 -0.5206 -0.7298
 3528SOL     OW22045   4.321   1.865   3.884 -0.0620  0.0276 -0.4265
 3528SOL    HW122046   4.231   1.883   3.858 -0.3914 -2.4535 -0.9736
 3528SOL    HW222047   4.310   1.808   3.960 -0.5631 -1.1272 -1.3656
 3529SOL     OW22048   2.713   3.408   1.439 -0.8235 -0.3976  0.6389
 3529SOL    HW122049   2.755   3.402   1.353 -0.5501  1.8989  0.6136
 3529SOL    HW222050   2.729   3.321   1.477 -0.9781  0.4914  2.7452
 3530SOL     OW22051   1.835   1.022   3.325  0.2163  0.4757 -0.2536
 3530SOL    HW122052   1.759   0.972   3.296  0.6450  0.0641 -0.6810
 3530SOL    HW222053   1.860   0.976   3.405  0.2673  0.9852  0.0269
 3531SOL     OW22054   4.708   4.316   8.781  0.3048  0.2971  0.3621
 3531SOL    HW122055   0.076   4.286   8.761  0.0263  0.4852 -1.1138
 3531SOL    HW222056   4.672   4.326   8.693  0.2002 -1.8861  0.1738
 3532SOL     OW22057   4.413   2.399   4.418 -0.1461  0.3987 -0.4318
 3532SOL    HW122058   4.505   2.372   4.419  0.2523  1.7664 -1.1975
 3532SOL    HW222059   4.416   2.484   4.461  0.9976  1.1957 -2.1013
 3533SOL     OW22060   3.520   2.328  16.862 -0.0984 -0.0017  0.1769
 3533SOL    HW122061   3.428   2.327  16.837  0.3389 -1.9767 -1.3669
 3533SOL    HW222062   3.554   2.244  16.832  1.4072  0.4297  0.6415
 3534SOL     OW22063   2.042   2.716   9.326 -0.2227 -1.2384  0.0783
 3534SOL    HW122064   2.034   2.679   9.238 -0.7033 -0.9480  0.0009
 3534SOL    HW222065   1.970   2.778   9.317  0.9910  0.3602  1.2048
 3535SOL     OW22066   1.678   3.174   1.584 -0.4411 -0.2305 -0.0390
 3535SOL    HW122067   1.602   3.116   1.597  0.3222 -1.5044 -1.2578
 3535SOL    HW222068   1.652   3.246   1.642 -0.4978 -0.2526 -0.0369
 3536SOL     OW22069   1.887   3.179  14.556  0.6975  0.3810  0.3338
 3536SOL    HW122070   1.867   3.163  14.648 -0.2368 -0.4940 -0.0079
 3536SOL    HW222071   1.953   3.247  14.564  1.3608 -0.2532  0.2686
 3537SOL     OW22072   2.600   2.956   4.030 -0.0496 -0.1650  0.1783
 3537SOL    HW122073   2.512   2.932   4.059  1.1031 -0.3411  3.5232
 3537SOL    HW222074   2.590   2.959   3.935  2.2223  0.0245 -0.0665
 3538SOL     OW22075   3.113   3.229   6.657  0.2044 -0.7558  0.5459
 3538SOL    HW122076   3.134   3.320   6.681 -4.7174  0.6143 -0.4640
 3538SOL    HW222077   3.031   3.242   6.610  0.8548 -1.2207 -0.7225
 3539SOL     OW22078   0.133   3.292   8.610  0.1431 -0.0432 -0.4853
 3539SOL    HW122079   0.193   3.349   8.561 -0.2429  1.6450  0.9812
 3539SOL    HW222080   0.066   3.308   8.543 -0.4985  1.2410  0.4591
 3540SOL     OW22081   2.812   1.169   2.920  0.3024  0.0840 -0.0833
 3540SOL    HW122082   2.825   1.230   2.847 -0.1077 -1.0751 -1.1152
 3540SOL    HW222083   2.754   1.217   2.979 -0.5572  0.7626 -1.4967
 3541SOL     OW22084   3.596   2.941   7.755 -0.2084 -0.3785 -0.8193
 3541SOL    HW122085   3.637   3.000   7.818  0.2539  0.6683 -2.1046
 3541SOL    HW222086   3.554   2.878   7.814  1.6720 -0.2889  0.6118
 3542SOL     OW22087   3.071   2.483  10.675  0.2567  0.1764 -0.4039
 3542SOL    HW122088   3.134   2.464  10.606  2.6482  3.5128  0.8382
 3542SOL    HW222089   3.046   2.570  10.643  1.5885  1.1091  1.0535
 3543SOL     OW22090   4.165   2.463   4.884 -0.1784 -0.0524 -0.1237
 3543SOL    HW122091   4.139   2.487   4.973 -0.1205  0.5833 -0.2767
 3543SOL    HW222092   4.108   2.387   4.875  1.5155 -1.4544  0.8339
 3544SOL     OW22093   3.366   2.665  12.646 -0.2517 -0.2886  0.3619
 3544SOL    HW122094   3.272   2.684  12.647 -0.6927 -2.5395 -1.8794
 3544SOL    HW222095   3.404   2.723  12.580 -2.9169  1.6654  0.5521
 3545SOL     OW22096   0.526   0.692   7.964  0.0620 -0.2147 -0.3796
 3545SOL    HW122097   0.485   0.736   8.039 -0.4508 -0.0143 -0.7679
 3545SOL    HW222098   0.453   0.705   7.903 -1.4757  0.6923  1.6352
 3546SOL     OW22099   2.666   3.480   5.259 -0.3139 -0.2675 -0.1895
 3546SOL    HW122100   2.694   3.476   5.167 -0.7462 -0.7655 -0.3010
 3546SOL    HW222101   2.682   3.389   5.286  1.2741 -0.1449 -0.7417
 3547SOL     OW22102   3.500   1.061   4.470 -0.5711 -0.2227 -0.3800
 3547SOL    HW122103   3.507   1.153   4.494 -0.9507 -0.7611  1.8290
 3547SOL    HW222104   3.558   1.022   4.536 -1.0963  1.2376  0.9361
 3548SOL     OW22105   0.962   2.326   1.943 -0.9094 -0.0934 -0.1770
 3548SOL    HW122106   0.879   2.280   1.934 -1.1411  0.4988 -1.0559
 3548SOL    HW222107   0.978   2.323   2.037  0.3765 -1.9435 -0.4575
 3549SOL     OW22108   4.088   0.859   9.165  0.0535  0.2331 -0.4727
 3549SOL    HW122109   4.117   0.793   9.229 -0.3886 -0.4463 -0.9700
 3549SOL    HW222110   4.114   0.806   9.089  0.0104 -0.0254 -0.3086
 3550SOL     OW22111   4.333   4.529   4.445  0.0364  0.1114 -0.2113
 3550SOL    HW122112   4.384   4.486   4.513 -0.3063 -2.0365 -1.3050
 3550SOL    HW222113   4.348   4.479   4.365  0.5181 -0.9655  0.5593
 3551SOL     OW22114   3.702   3.245   2.314  0.1343 -0.0603  0.2963
 3551SOL    HW122115   3.672   3.220   2.226  1.6688  3.6411 -1.2529
 3551SOL    HW222116   3.786   3.284   2.290  1.2357 -1.0676  2.5590
 3552SOL     OW22117   2.759   4.515  10.657  0.6268  0.5038 -0.5155
 3552SOL    HW122118   2.809   4.462  10.595 -0.2899  0.0645 -0.8804
 3552SOL    HW222119   2.762   4.450  10.727 -0.0662  0.7603 -0.2557
 3553SOL     OW22120   0.053   0.033  13.567 -0.1197 -0.2579  0.1700
 3553SOL    HW122121   4.691   4.717  13.537  0.1254  0.3247 -1.2588
 3553SOL    HW222122   0.120   0.005  13.504 -1.5744  0.5199 -1.7094
 3554SOL     OW22123   2.513   1.608  12.767 -0.2867  0.2106 -0.4051
 3554SOL    HW122124   2.430   1.563  12.750 -1.1788  1.4448  0.7033
 3554SOL    HW222125   2.581   1.567  12.713 -0.3069 -0.5360  0.1476
 3555SOL     OW22126   4.251   4.108   9.895 -0.1660 -0.0714 -0.2397
 3555SOL    HW122127   4.335   4.062   9.886 -0.6812 -1.3947  1.4892
 3555SOL    HW222128   4.196   4.030   9.902 -0.5798  0.0159 -2.5452
 3556SOL     OW22129   2.424   0.221   8.918 -0.3004 -0.7360  0.8309
 3556SOL    HW122130   2.378   0.152   8.871 -0.6546  0.6935 -0.9277
 3556SOL    HW222131   2.383   0.293   8.869 -0.5787 -2.1292 -0.9977
 3557SOL     OW22132   1.345   4.228   4.157 -0.5176  0.0895  0.4387
 3557SOL    HW122133   1.293   4.204   4.080  1.8215 -0.7144 -0.8847
 3557SOL    HW222134   1.280   4.190   4.216  0.1561 -2.2235 -0.3044
 3558SOL     OW22135   1.905   1.150   2.923 -0.4500  0.0693 -0.4003
 3558SOL    HW122136   1.812   1.174   2.930 -0.4225 -0.0262  0.3404
 3558SOL    HW222137   1.893   1.058   2.900 -0.3347  0.1939 -0.9514
 3559SOL     OW22138   1.695   2.618  12.304 -0.4956  0.0016 -0.0846
 3559SOL    HW122139   1.773   2.669  12.327  0.1876 -1.4883  0.9059
 3559SOL    HW222140   1.699   2.536  12.353  2.2924  0.0352 -0.2521
 3560SOL     OW22141   1.508   2.602   8.368 -0.5823 -0.3729 -0.0415
 3560SOL    HW122142   1.571   2.594   8.297 -0.2906 -0.0939  0.1838
 3560SOL    HW222143   1.484   2.695   8.371 -0.3367 -0.3339  0.7244
 3561SOL     OW22144   3.165   3.168   7.924 -0.5575 -0.2801  0.7971
 3561SOL    HW122145   3.141   3.256   7.892  1.7088  0.2619  0.6133
 3561SOL    HW222146   3.117   3.172   8.007 -3.0838 -2.4713 -0.5545
 3562SOL     OW22147   1.685   2.154   0.899  0.0538 -0.6615 -0.3743
 3562SOL    HW122148   1.638   2.109   0.969 -1.5904 -0.4193 -1.3252
 3562SOL    HW222149   1.774   2.158   0.935  0.5644 -0.2998 -1.6893
 3563SOL     OW22150   2.031   0.189   7.595  0.0291 -0.2663 -0.2271
 3563SOL    HW122151   2.029   0.285   7.591  3.0311 -0.1574  0.6382
 3563SOL    HW222152   1.992   0.180   7.682 -0.8064  1.9282 -0.3771
 3564SOL     OW22153   4.381   0.743   8.703 -0.4933  0.2038  0.8790
 3564SOL    HW122154   4.299   0.694   8.693  0.7042 -1.5186 -0.5618
 3564SOL    HW222155   4.435   0.664   8.707 -1.4493 -0.4911  0.2904
 3565SOL     OW22156   0.092   1.459   5.517 -0.2035 -0.8165 -0.0802
 3565SOL    HW122157   0.019   1.483   5.460 -0.3683 -2.2590 -0.4639
 3565SOL    HW222158   0.150   1.403   5.465 -0.5437 -1.2848  0.0447
 3566SOL     OW22159   1.529   3.175   4.258  0.0187 -0.4240  0.6640
 3566SOL    HW122160   1.475   3.103   4.225  0.5872 -2.1477  3.5001
 3566SOL    HW222161   1.608   3.161   4.205 -0.6984 -2.5942  0.1649
 3567SOL     OW22162   2.671   3.033   1.805 -0.1983 -0.2667 -0.3119
 3567SOL    HW122163   2.600   2.976   1.832 -1.5502  2.4369  1.8706
 3567SOL    HW222164   2.731   2.961   1.785 -1.4676 -0.8549 -2.0052
 3568SOL     OW22165   1.586   3.560   5.503 -0.3564 -0.1201 -0.0507
 3568SOL    HW122166   1.563   3.651   5.489  0.9665  0.5843  2.2914
 3568SOL    HW222167   1.581   3.547   5.598 -1.1135  0.4198 -0.0193
 3569SOL     OW22168   0.195   1.344   6.257  0.6225 -0.3129  0.1979
 3569SOL    HW122169   0.181   1.375   6.167  0.1109  0.5240  0.5598
 3569SOL    HW222170   0.174   1.252   6.242  0.4605 -0.4327  1.1832
 3570SOL     OW22171   2.292   0.419   6.648  0.9255 -0.2470 -0.1826
 3570SOL    HW122172   2.197   0.425   6.635  0.9186  1.6040  0.7419
 3570SOL    HW222173   2.313   0.378   6.564  1.6003  0.1126 -0.1912
 3571SOL     OW22174   3.771   4.344   6.884  0.6896 -0.1520  0.2462
 3571SOL    HW122175   3.791   4.337   6.791  0.6918 -0.0898  0.2422
 3571SOL    HW222176   3.727   4.266   6.919 -1.5610  1.2302  0.4832
 3572SOL     OW22177   2.537   1.250   1.135  0.7985  0.4877  0.0262
 3572SOL    HW122178   2.492   1.326   1.098 -2.1885 -0.7740  1.0907
 3572SOL    HW222179   2.473   1.180   1.145  1.6794 -0.7063 -2.5833
 3573SOL     OW22180   1.252   2.757   7.776 -0.4290  0.3200  0.2568
 3573SOL    HW122181   1.253   2.795   7.688  0.8336 -1.1216 -0.3463
 3573SOL    HW222182   1.158   2.754   7.794 -0.3431  1.2012  0.8609
 3574SOL     OW22183   2.801   1.266   4.413  0.1056  0.0296  0.8756
 3574SOL    HW122184   2.808   1.334   4.480  0.1394  0.2152  0.6854
 3574SOL    HW222185   2.706   1.256   4.415  0.3066 -2.3874 -1.4883
 3575SOL     OW22186   1.651   0.179   3.625  0.7486 -0.3250  0.0885
 3575SOL    HW122187   1.632   0.089   3.597 -0.0125  0.0693 -0.6770
 3575SOL    HW222188   1.651   0.214   3.536  2.4416  0.4312  0.3994
 3576SOL     OW22189   0.904   0.322   8.904  0.5604  0.1366  0.6426
 3576SOL    HW122190   0.884   0.253   8.841  0.9609  0.4470  0.1767
 3576SOL    HW222191   0.818   0.349   8.936 -1.0088 -3.4884 -0.5441
 3577SOL     OW22192   1.088   0.316  11.845  0.1704  0.6274 -0.1549
 3577SOL    HW122193   1.077   0.287  11.754  2.5384 -1.9824  0.3949
 3577SOL    HW222194   0.998   0.339  11.869 -0.0821 -0.3822 -0.1070
 3578SOL     OW22195   0.637   0.447   2.628 -0.2187  0.0210  0.2166
 3578SOL    HW122196   0.592   0.363   2.634 -1.6842  0.9091  1.5143
 3578SOL    HW222197   0.717   0.429   2.677 -0.3314  0.5864  0.6007
 3579SOL     OW22198   2.612   1.161   8.280  0.3882  0.0678  0.4747
 3579SOL    HW122199   2.690   1.116   8.314  0.2114 -1.4699 -1.1651
 3579SOL    HW222200   2.578   1.104   8.212 -0.7124 -0.3409  1.3708
 3580SOL     OW22201   3.685   2.819  10.862  0.5485 -0.2049  0.2668
 3580SOL    HW122202   3.722   2.733  10.883  1.2225 -0.5796 -2.4611
 3580SOL    HW222203   3.726   2.887  10.916  1.1618 -0.7692  0.5083
 3581SOL     OW22204   2.700   2.516  15.846  0.8338  0.1592  0.3406
 3581SOL    HW122205   2.628   2.541  15.905  0.4900 -1.5864  0.6562
 3581SOL    HW222206   2.778   2.502  15.900  1.2141  1.7114  0.2131
 3582SOL     OW22207   2.703   2.294  10.602  0.4834  0.2499 -0.3494
 3582SOL    HW122208   2.656   2.292  10.518  0.8548  0.2291 -0.5571
 3582SOL    HW222209   2.743   2.378  10.581 -2.0834  0.9884 -2.3186
 3583SOL     OW22210   1.742   2.441   6.890 -0.5306  0.7386  0.0138
 3583SOL    HW122211   1.755   2.405   6.978  0.7606  3.2812  0.8409
 3583SOL    HW222212   1.794   2.520   6.903  0.8062 -0.1527  0.1007
 3584SOL     OW22213   4.458   3.096   1.605 -0.0379 -0.5816  0.1431
 3584SOL    HW122214   4.551   3.114   1.620 -0.6031  2.7149 -0.3173
 3584SOL    HW222215   4.471   3.008   1.569  1.3635 -0.2805 -0.1000
 3585SOL     OW22216   3.065   3.166  13.498 -0.1933 -0.0538 -0.4710
 3585SOL    HW122217   3.060   3.071  13.507 -1.4583 -0.0480 -1.2044
 3585SOL    HW222218   3.078   3.177  13.404  0.3742 -2.8399 -0.7260
 3586SOL     OW22219   1.997   2.002   8.226 -0.0918  0.2509  0.0986
 3586SOL    HW122220   1.954   2.044   8.301  1.9010  0.0176  1.3879
 3586SOL    HW222221   2.033   1.925   8.271 -0.4936 -0.7929 -1.3498
 3587SOL     OW22222   0.258   2.409   3.692 -0.1199 -0.5663  0.5465
 3587SOL    HW122223   0.287   2.500   3.682 -1.7637 -0.1550 -0.5226
 3587SOL    HW222224   0.226   2.410   3.782 -0.0502  1.0768  0.5628
 3588SOL     OW22225   2.340   2.498   6.092  0.1952  0.4284  0.1571
 3588SOL    HW122226   2.286   2.571   6.124 -0.4747 -0.4307  1.0032
 3588SOL    HW222227   2.288   2.476   6.015  0.3303 -2.0327  0.7621
 3589SOL     OW22228   4.521   1.378   2.459 -0.2019 -0.1727 -0.0804
 3589SOL    HW122229   4.482   1.381   2.546 -0.6490  0.2171 -0.2937
 3589SOL    HW222230   4.591   1.313   2.465 -1.5392 -1.6210 -0.0305
 3590SOL     OW22231   3.956   1.388   6.943  0.7388  0.0670 -0.4431
 3590SOL    HW122232   3.998   1.322   6.997  1.0800  0.5500 -0.1172
 3590SOL    HW222233   4.025   1.452   6.960 -0.4169  0.4701  2.5949
 3591SOL     OW22234   2.172   0.629   8.280  0.0943 -0.1042  0.0264
 3591SOL    HW122235   2.104   0.580   8.234 -3.3160 -0.2884  5.2731
 3591SOL    HW222236   2.246   0.635   8.219  1.4898 -0.0067  1.7075
 3592SOL     OW22237   4.529   3.859   6.386 -0.0757  0.3159 -0.0586
 3592SOL    HW122238   4.551   3.837   6.296 -4.7575  0.7007 -1.2748
 3592SOL    HW222239   4.586   3.797   6.432  0.3394  0.0558 -0.9114
 3593SOL     OW22240   1.953   0.633   3.088 -0.2872  0.0136  0.5631
 3593SOL    HW122241   1.896   0.599   3.157  0.3954  0.1375  1.1983
 3593SOL    HW222242   1.919   0.593   3.008  2.8779  1.1634 -1.3742
 3594SOL     OW22243   0.090   3.408  12.410 -0.3414  0.4201 -0.2961
 3594SOL    HW122244   0.131   3.452  12.484  2.1159  1.0108 -1.9950
 3594SOL    HW222245   0.167   3.404  12.353  0.8994  1.0608  1.3494
 3595SOL     OW22246   2.202   2.283  13.892  0.3298  0.1707 -0.3096
 3595SOL    HW122247   2.192   2.344  13.819  1.5464 -0.9770 -1.4425
 3595SOL    HW222248   2.292   2.249  13.892  0.1426 -0.3218 -3.1501
 3596SOL     OW22249   1.925   1.609   2.528 -0.1006  0.1295 -0.3733
 3596SOL    HW122250   1.865   1.623   2.455 -0.4305 -0.8291 -0.2878
 3596SOL    HW222251   1.898   1.524   2.563 -0.5098 -0.7166 -2.7950
 3597SOL     OW22252   1.537   4.008   9.570 -0.4442 -0.2964 -0.5716
 3597SOL    HW122253   1.601   3.976   9.634 -2.4914 -2.8448  0.1952
 3597SOL    HW222254   1.558   3.957   9.492  1.0901 -0.0968 -0.2970
 3598SOL     OW22255   1.482   1.446   7.296  0.2265  0.1022 -0.2566
 3598SOL    HW122256   1.527   1.379   7.244 -1.2966 -1.2664  0.1851
 3598SOL    HW222257   1.490   1.522   7.238 -0.2400  0.9571  0.8169
 3599SOL     OW22258   4.502   0.289   5.012 -0.1576 -0.3051 -0.0904
 3599SOL    HW122259   4.563   0.221   5.043 -2.1814 -0.7923  2.8601
 3599SOL    HW222260   4.508   0.271   4.918  1.2882  2.7489 -0.5878
 3600SOL     OW22261   0.560   2.900   0.664 -0.6177  0.5009  0.1367
 3600SOL    HW122262   0.625   2.965   0.690  2.2731 -1.7524 -1.3506
 3600SOL    HW222263   0.487   2.954   0.635 -1.2782 -0.8510 -0.6882
 3601SOL     OW22264   0.438   0.066  12.711 -0.2130 -0.0358  0.0542
 3601SOL    HW122265   0.522   0.111  12.700 -0.0283 -1.3050 -3.7464
 3601SOL    HW222266   0.465   4.713  12.766 -2.8210 -0.8038  0.2669
 3602SOL     OW22267   2.765   2.540   2.073  0.0485  0.2511 -0.0951
 3602SOL    HW122268   2.700   2.471   2.060  0.0166  0.0390  1.2431
 3602SOL    HW222269   2.811   2.527   1.990 -1.6576 -0.6578 -0.9069
 3603SOL     OW22270   0.446   1.334  12.961  0.1043 -0.0692  0.0338
 3603SOL    HW122271   0.524   1.303  12.915  0.0697 -0.9203  0.5357
 3603SOL    HW222272   0.419   1.264  13.022  0.4305 -1.7774 -1.7725
 3604SOL     OW22273   1.347   2.943  12.518  1.0541 -0.2018 -0.1278
 3604SOL    HW122274   1.356   2.989  12.602  0.8243  1.8995 -1.2657
 3604SOL    HW222275   1.358   2.852  12.546  0.4601 -0.6429 -1.3267
 3605SOL     OW22276   3.222   0.417   5.730  0.1805 -0.1825  0.0012
 3605SOL    HW122277   3.140   0.461   5.708 -0.3613 -0.5150  1.3557
 3605SOL    HW222278   3.197   0.361   5.804  0.2827 -1.3340 -0.8346
 3606SOL     OW22279   1.143   2.349   6.104 -0.2423 -0.3218 -0.1903
 3606SOL    HW122280   1.214   2.383   6.158  0.1689 -1.9503  0.2778
 3606SOL    HW222281   1.189   2.284   6.052 -0.7105 -1.0072  0.2557
 3607SOL     OW22282   3.991   4.275   1.203 -0.0938 -0.5770 -0.2564
 3607SOL    HW122283   3.980   4.345   1.138  3.4990 -0.2700 -0.5139
 3607SOL    HW222284   3.938   4.305   1.276 -1.6057 -0.8521 -1.2272
 3608SOL     OW22285   3.917   0.745   8.441  0.3053  0.0337  0.2682
 3608SOL    HW122286   3.914   0.768   8.349 -1.4028 -1.5740 -0.0851
 3608SOL    HW222287   3.954   0.825   8.477 -0.7707  1.0972 -0.9717
 3609SOL     OW22288   2.087   3.550   6.643  0.3130  0.1964 -0.2911
 3609SOL    HW122289   2.129   3.590   6.567 -0.0177  0.2779 -0.4297
 3609SOL    HW222290   2.152   3.483   6.666 -2.1411 -2.1182 -0.0950
 3610SOL     OW22291   0.005   1.659   6.304 -0.0819  0.6934  0.7409
 3610SOL    HW122292   0.048   1.586   6.349  0.0842 -0.6641 -1.6082
 3610SOL    HW222293   0.065   1.660   6.230 -0.0092  0.0495  0.7881
 3611SOL     OW22294   0.973   0.758   6.417 -0.6349 -0.2687 -0.0346
 3611SOL    HW122295   1.055   0.760   6.466  0.0574  1.6161 -1.2384
 3611SOL    HW222296   1.000   0.734   6.329  2.3138  0.7797  0.6070
 3612SOL     OW22297   3.639   2.419   4.576  0.6530  0.7436 -0.3717
 3612SOL    HW122298   3.732   2.404   4.593  0.8398  1.4363 -0.7751
 3612SOL    HW222299   3.623   2.350   4.512  0.8620  0.3506 -0.0003
 3613SOL     OW22300   0.188   0.930   5.471 -0.2930 -0.0590  0.0575
 3613SOL    HW122301   0.254   0.863   5.488 -0.0596  0.1142 -0.1566
 3613SOL    HW222302   0.118   0.866   5.457 -0.6591  0.5302 -0.8042
 3614SOL     OW22303   4.562   1.065  17.311  0.0845 -1.0110 -0.3480
 3614SOL    HW122304   4.635   1.114  17.272 -0.5638 -0.0771 -0.3890
 3614SOL    HW222305   4.599   0.986  17.351 -1.0221 -1.5208 -0.3303
 3615SOL     OW22306   2.837   2.455   9.725  0.2229  0.1285 -0.3324
 3615SOL    HW122307   2.791   2.376   9.698 -0.5618  0.1204  1.0248
 3615SOL    HW222308   2.763   2.512   9.746 -0.7147 -1.4029  0.5314
 3616SOL     OW22309   1.426   3.996   7.961  0.0226 -0.0647 -0.0316
 3616SOL    HW122310   1.501   3.995   7.901 -0.1956 -0.3068 -0.3019
 3616SOL    HW222311   1.458   4.060   8.024  2.4034 -2.4693  1.2261
 3617SOL     OW22312   2.390   2.033  12.185 -0.1058  0.0645  0.0720
 3617SOL    HW122313   2.440   1.974  12.128  0.4446 -1.7128  2.3661
 3617SOL    HW222314   2.301   2.000  12.177 -1.0413  3.3335 -2.6053
 3618SOL     OW22315   2.268   3.157  11.781 -0.6096 -0.1156  0.5977
 3618SOL    HW122316   2.326   3.158  11.705 -1.1512 -0.8222  0.1771
 3618SOL    HW222317   2.274   3.248  11.813  0.9663 -0.0190  0.0005
 3619SOL     OW22318   2.375   3.858   6.258  0.3706 -0.1766  0.3287
 3619SOL    HW122319   2.283   3.881   6.242  0.1874 -1.4628 -0.4733
 3619SOL    HW222320   2.370   3.763   6.270 -0.5090 -0.0342  1.1314
 3620SOL     OW22321   1.382   2.930   4.198 -0.1640  0.0289 -0.7480
 3620SOL    HW122322   1.309   2.868   4.205 -0.0792  0.1459  1.1523
 3620SOL    HW222323   1.327   2.999   4.159  0.6306  0.8627 -0.3995
 3621SOL     OW22324   1.174   3.694   8.723 -0.7989  0.6524 -0.1282
 3621SOL    HW122325   1.085   3.720   8.748 -0.4070  3.1683 -1.4030
 3621SOL    HW222326   1.201   3.761   8.660 -1.0720  0.4979 -0.4047
 3622SOL     OW22327   2.656   0.275   3.615  0.1045  0.8603  0.2096
 3622SOL    HW122328   2.727   0.336   3.596  0.1901  0.4896 -0.6396
 3622SOL    HW222329   2.696   0.191   3.637 -0.5139  0.8865  1.4625
 3623SOL     OW22330   0.579   4.409   8.012 -0.0323  0.0323  0.0613
 3623SOL    HW122331   0.622   4.482   7.968  0.2901 -0.0171  0.2929
 3623SOL    HW222332   0.514   4.447   8.071 -0.9323 -0.0671 -0.8625
 3624SOL     OW22333   0.395   1.967   8.017  0.2760 -0.4435 -0.0018
 3624SOL    HW122334   0.454   1.951   8.091  0.2912  0.5031  0.1798
 3624SOL    HW222335   0.453   2.013   7.956  0.4021  0.0733  0.5080
 3625SOL     OW22336   2.955   3.819   4.351  0.2860 -0.2047  0.2531
 3625SOL    HW122337   2.971   3.781   4.437  0.5915  0.3525  0.4406
 3625SOL    HW222338   2.955   3.912   4.371  2.7593 -0.1491  0.0053
 3626SOL     OW22339   3.293   1.729  12.233  0.1006  0.1694  0.1790
 3626SOL    HW122340   3.330   1.653  12.278 -1.2851 -0.5990  0.0251
 3626SOL    HW222341   3.259   1.779  12.308 -1.2519 -0.6576  0.1244
 3627SOL     OW22342   3.676   3.375   3.112 -0.5094  0.6698 -0.5074
 3627SOL    HW122343   3.670   3.338   3.024 -0.4713 -0.7356  0.0880
 3627SOL    HW222344   3.642   3.465   3.103  0.5264  1.0412 -0.7622
 3628SOL     OW22345   4.359   0.881   2.694  0.2054  0.1061 -0.3081
 3628SOL    HW122346   4.374   0.946   2.625  0.0746 -1.7337 -2.0782
 3628SOL    HW222347   4.409   0.919   2.766  2.9355 -0.7222 -1.7940
 3629SOL     OW22348   4.251   1.699   8.929  0.5053  0.2478 -0.5084
 3629SOL    HW122349   4.219   1.752   9.002  0.8671  3.2498 -2.5233
 3629SOL    HW222350   4.173   1.694   8.874 -0.2465  1.2510  0.4478
 3630SOL     OW22351   3.209   2.555  15.482 -0.0362 -0.6462 -0.2637
 3630SOL    HW122352   3.236   2.567  15.573 -0.9291  2.7346 -0.4446
 3630SOL    HW222353   3.194   2.460  15.480  2.5042 -0.9999 -2.0942
 3631SOL     OW22354   3.109   2.710   7.429 -0.3006 -0.0687 -0.1284
 3631SOL    HW122355   3.113   2.631   7.483  3.5739  0.1270 -0.1397
 3631SOL    HW222356   3.056   2.768   7.484  2.3243  2.6113 -0.4160
 3632SOL     OW22357   3.180   1.773   8.816 -0.5514 -0.0663 -0.4202
 3632SOL    HW122358   3.223   1.734   8.740 -0.3265  0.9490 -0.8162
 3632SOL    HW222359   3.103   1.717   8.827 -0.9383  0.9157  1.9026
 3633SOL     OW22360   2.433   4.454   6.548 -0.0290 -0.3590  0.8798
 3633SOL    HW122361   2.519   4.414   6.540 -0.0325 -0.1306 -0.2810
 3633SOL    HW222362   2.374   4.381   6.529 -0.8639  0.2511  1.1308
 3634SOL     OW22363   2.029   0.156   2.172  0.2306  0.0137 -0.2083
 3634SOL    HW122364   2.122   0.173   2.164  0.6126 -1.6235  0.6224
 3634SOL    HW222365   2.032   0.134   2.265 -2.7945 -2.1139 -0.5835
 3635SOL     OW22366   4.015   3.814   3.818  0.2314 -0.2492  0.0802
 3635SOL    HW122367   3.931   3.787   3.782  1.7525 -0.3181 -3.4086
 3635SOL    HW222368   4.074   3.772   3.756 -0.2410 -0.5949 -0.1254
 3636SOL     OW22369   2.713   2.628   3.823  0.4323 -0.0854  0.4566
 3636SOL    HW122370   2.770   2.601   3.895  1.4269  0.7170 -0.0174
 3636SOL    HW222371   2.768   2.608   3.747 -1.5789  0.0670 -1.0454
 3637SOL     OW22372   2.451   0.678   7.847  0.8121 -0.1195 -0.3367
 3637SOL    HW122373   2.426   0.726   7.926  1.5607 -1.6670  0.8339
 3637SOL    HW222374   2.377   0.702   7.790 -1.0563  0.8281  2.5040
 3638SOL     OW22375   4.446   1.555   8.827 -1.0087  0.2240 -0.3784
 3638SOL    HW122376   4.497   1.627   8.790  0.3225  0.4368  1.8244
 3638SOL    HW222377   4.371   1.607   8.857 -1.8420 -1.8962  1.2363
 3639SOL     OW22378   2.092   0.863   6.069 -0.2354  0.5148  0.8287
 3639SOL    HW122379   2.045   0.783   6.048 -1.0290  1.1031  0.3515
 3639SOL    HW222380   2.139   0.876   5.987  0.3551  0.8286  1.2163
 3640SOL     OW22381   1.864   3.498   6.460 -0.5089 -0.2494 -0.2902
 3640SOL    HW122382   1.932   3.531   6.402 -0.3416 -1.3906 -0.7394
 3640SOL    HW222383   1.917   3.492   6.540  1.9850  1.3150 -1.8210
 3641SOL     OW22384   2.699   3.917   7.206 -0.9138  0.7542 -0.1633
 3641SOL    HW122385   2.716   3.868   7.287  0.5948  1.4184 -0.0660
 3641SOL    HW222386   2.759   3.869   7.149 -2.8203 -0.3654 -1.1848
 3642SOL     OW22387   4.123   3.609  15.330  0.1674  0.4501 -0.2389
 3642SOL    HW122388   4.097   3.547  15.399 -1.9924 -0.3639 -1.8009
 3642SOL    HW222389   4.157   3.548  15.264  1.2184 -0.3251  1.0053
 3643SOL     OW22390   3.785   4.435   5.762  0.1036 -0.2250  0.1203
 3643SOL    HW122391   3.768   4.475   5.677 -0.8274  2.2929  1.4757
 3643SOL    HW222392   3.870   4.468   5.791  0.0554 -0.8232  0.9328
 3644SOL     OW22393   0.863   1.335   4.355 -0.0962  0.4688 -0.2473
 3644SOL    HW122394   0.863   1.305   4.264 -1.4775 -0.4977  0.0554
 3644SOL    HW222395   0.769   1.343   4.375  0.9408  1.9594  4.0807
 3645SOL     OW22396   1.872   1.976  13.106  0.2189  0.2665 -0.4383
 3645SOL    HW122397   1.924   1.923  13.045  0.6089  0.0703  0.0687
 3645SOL    HW222398   1.943   1.985  13.170 -1.8674 -0.5792  1.9794
 3646SOL     OW22399   4.678   0.519   9.024  0.5662  0.5707 -0.3540
 3646SOL    HW122400   4.620   0.445   9.003  0.0687  0.8437  0.0580
 3646SOL    HW222401   4.691   0.493   9.115  0.2016  2.8594  0.3573
 3647SOL     OW22402   2.674   0.654   5.560 -0.6514  0.9880 -0.8792
 3647SOL    HW122403   2.591   0.608   5.546 -0.8354  0.3875  2.2200
 3647SOL    HW222404   2.687   0.659   5.655 -0.5460  0.9279 -0.8900
 3648SOL     OW22405   2.429   2.847  12.092 -0.0677  0.0279 -0.2784
 3648SOL    HW122406   2.339   2.818  12.100 -0.2738  0.1146 -2.4135
 3648SOL    HW222407   2.432   2.939  12.119  1.2740 -0.1377  0.1468
 3649SOL     OW22408   0.527   1.669   0.946 -0.8273 -0.7597 -0.3352
 3649SOL    HW122409   0.584   1.715   1.007  0.0594 -1.5295 -0.5886
 3649SOL    HW222410   0.518   1.584   0.987 -3.7994 -0.5255 -0.4828
 3650SOL     OW22411   0.339   0.270   3.593  0.3068 -0.1839 -0.2683
 3650SOL    HW122412   0.419   0.275   3.646  0.8854 -1.6492 -1.0068
 3650SOL    HW222413   0.285   0.194   3.616 -0.6497  0.5069 -0.2172
 3651SOL     OW22414   4.622   3.180  15.029 -0.0974 -0.2847 -0.0129
 3651SOL    HW122415   4.652   3.123  14.959 -0.2843  1.5014 -1.5661
 3651SOL    HW222416   4.586   3.257  14.984  0.0682 -0.3452 -0.2436
 3652SOL     OW22417   4.558   4.200  11.466  0.2270 -0.3141  0.0873
 3652SOL    HW122418   4.534   4.226  11.378 -2.2163  0.1925  0.9046
 3652SOL    HW222419   4.572   4.105  11.463 -0.6913 -0.4932  1.4149
 3653SOL     OW22420   0.053   2.972   0.765  0.0956 -0.2595 -0.0528
 3653SOL    HW122421   0.016   3.018   0.689 -0.4035  2.0224  1.5642
 3653SOL    HW222422   0.041   3.046   0.825 -0.7564  0.2225 -0.8079
 3654SOL     OW22423   1.533   1.162   8.405  0.1244 -0.1291  0.4704
 3654SOL    HW122424   1.450   1.178   8.362  1.1999  0.4631 -1.3796
 3654SOL    HW222425   1.514   1.113   8.486 -0.7179  0.1075  0.4078
 3655SOL     OW22426   0.451   3.385   6.335 -0.2740 -0.0628  0.2419
 3655SOL    HW122427   0.429   3.301   6.376  1.9885 -0.0623  1.4644
 3655SOL    HW222428   0.366   3.429   6.333 -0.3237 -0.1283  0.7092
 3656SOL     OW22429   4.644   3.050   4.167 -0.1210 -0.2405 -0.1898
 3656SOL    HW122430   4.611   2.987   4.103 -0.8160 -0.3671  0.2885
 3656SOL    HW222431   0.003   3.086   4.127  2.1925 -1.7274  3.1105
 3657SOL     OW22432   3.087   0.094   7.845  0.0421 -0.2956  0.0971
 3657SOL    HW122433   3.056   0.184   7.856 -2.3591 -1.2742  1.2840
 3657SOL    HW222434   3.161   0.100   7.785  1.0153  0.0169  1.3328
 3658SOL     OW22435   1.435   2.486  15.663 -0.1273 -0.0225 -0.5429
 3658SOL    HW122436   1.492   2.526  15.729  0.0502 -1.6509  0.2891
 3658SOL    HW222437   1.446   2.552  15.595 -1.5979 -0.6593 -1.3987
 3659SOL     OW22438   3.238   1.210   2.027 -0.0548  0.2677 -0.4322
 3659SOL    HW122439   3.218   1.302   2.008 -0.3065  0.1400 -0.7802
 3659SOL    HW222440   3.207   1.160   1.952 -3.5790  2.0469 -0.1538
 3660SOL     OW22441   0.113   4.696   5.851 -0.2990 -0.2780  0.0999
 3660SOL    HW122442   0.031   4.695   5.802  0.8162 -1.8820 -1.7544
 3660SOL    HW222443   0.112   4.618   5.906  0.5930  0.2883  0.9404
 3661SOL     OW22444   0.529   2.379   1.693 -0.0340  0.2692  0.5200
 3661SOL    HW122445   0.459   2.416   1.746 -2.4987  0.9690 -3.1754
 3661SOL    HW222446   0.576   2.461   1.679  1.1809 -0.4681  0.2810
 3662SOL     OW22447   1.243   3.177   5.250 -0.4969 -0.3050  0.4886
 3662SOL    HW122448   1.231   3.220   5.166 -1.4486  0.4062  0.9811
 3662SOL    HW222449   1.303   3.238   5.293 -0.0354 -0.1677 -0.3495
 3663SOL     OW22450   0.458   2.447  16.850 -0.3986  0.8025  0.4680
 3663SOL    HW122451   0.441   2.455  16.944  0.9307 -0.7268  0.8317
 3663SOL    HW222452   0.388   2.500  16.812 -1.6547  0.1281  1.8990
 3664SOL     OW22453   1.080   4.562   5.064  0.3770 -0.0848 -0.3764
 3664SOL    HW122454   1.099   4.654   5.081 -0.1302 -0.0776  0.1275
 3664SOL    HW222455   1.056   4.517   5.145 -0.5056  0.7644 -0.1755
 3665SOL     OW22456   2.726   1.150  13.770  0.0911  0.3419  0.1199
 3665SOL    HW122457   2.632   1.133  13.782 -0.0364 -0.9098 -2.6526
 3665SOL    HW222458   2.741   1.159  13.675 -0.5061 -0.5558 -0.0613
 3666SOL     OW22459   2.676   1.736  13.357  0.5438 -0.0900  0.0092
 3666SOL    HW122460   2.591   1.697  13.378 -0.6001  1.0846 -2.3377
 3666SOL    HW222461   2.699   1.770  13.444 -1.3878 -0.2242  0.5777
 3667SOL     OW22462   3.079   2.740  10.837 -0.0750  0.9813  0.6282
 3667SOL    HW122463   2.997   2.712  10.879 -0.8962  1.2681 -0.7900
 3667SOL    HW222464   3.129   2.658  10.836 -1.7382 -0.0356  1.0914
 3668SOL     OW22465   1.208   4.476   3.850 -0.3665 -0.0307  0.5092
 3668SOL    HW122466   1.187   4.420   3.925 -0.6662 -0.0330  0.4243
 3668SOL    HW222467   1.147   4.448   3.781 -0.0404 -3.3471  1.5654
 3669SOL     OW22468   2.648   2.821   9.746 -0.1676  0.2353 -0.7296
 3669SOL    HW122469   2.562   2.863   9.746  0.3553  1.2315 -3.3449
 3669SOL    HW222470   2.622   2.732   9.770 -1.7102  0.5108 -1.3785
 3670SOL     OW22471   2.508   2.930   9.305 -0.1240 -0.2206  0.1472
 3670SOL    HW122472   2.588   2.981   9.317 -0.5888 -0.2032  3.0400
 3670SOL    HW222473   2.501   2.941   9.210  2.2274 -3.8865 -0.4387
 3671SOL     OW22474   2.022   3.592   1.097  0.0079  0.6436 -0.1589
 3671SOL    HW122475   1.973   3.512   1.115 -1.3029  1.7746  1.2405
 3671SOL    HW222476   1.996   3.641   1.175  1.3070  0.9307  0.0884
 3672SOL     OW22477   3.846   2.854   3.786 -0.1184 -0.3308  0.2319
 3672SOL    HW122478   3.755   2.878   3.771 -0.0563 -1.2747 -1.6054
 3672SOL    HW222479   3.853   2.762   3.760  0.8696 -0.2336  0.1617
 3673SOL     OW22480   1.929   4.058   1.920  0.0598  0.6615  0.4631
 3673SOL    HW122481   2.002   4.104   1.878 -0.4519  1.1795  0.1379
 3673SOL    HW222482   1.854   4.115   1.903 -1.3020 -1.3400 -0.1834
 3674SOL     OW22483   3.145   0.785   5.679 -0.1759 -1.0229 -0.1043
 3674SOL    HW122484   3.109   0.755   5.762  0.1599  0.4942  0.5925
 3674SOL    HW222485   3.067   0.826   5.643  0.0755  0.2750  0.8488
 3675SOL     OW22486   2.044   4.085   7.062  0.8875 -0.0688 -0.4039
 3675SOL    HW122487   2.104   4.118   7.130 -1.0239  0.3163  1.0978
 3675SOL    HW222488   1.998   4.019   7.114  0.9601  1.4925  1.6748
 3676SOL     OW22489   0.877   4.647   3.145  0.3863 -0.2468  0.4619
 3676SOL    HW122490   0.932   4.614   3.073 -0.6300 -1.6695  0.3400
 3676SOL    HW222491   0.909   0.015   3.160  3.6384 -1.3421 -0.0012
 3677SOL     OW22492   3.078   1.612   6.568 -0.1643  0.3868 -0.2673
 3677SOL    HW122493   3.015   1.563   6.515 -0.4340 -0.0149  0.4178
 3677SOL    HW222494   3.065   1.697   6.525 -0.8925  1.4613  2.0645
 3678SOL     OW22495   0.987   2.718   5.344  0.4020  0.1398  0.4038
 3678SOL    HW122496   1.011   2.787   5.283  1.3612 -2.0012 -1.6157
 3678SOL    HW222497   0.917   2.676   5.293 -1.0388 -0.5235  2.9230
 3679SOL     OW22498   3.847   1.730   0.724  0.2467  0.0101  0.1861
 3679SOL    HW122499   3.783   1.709   0.655 -0.0740  0.5965  0.2990
 3679SOL    HW222500   3.828   1.823   0.734 -0.7665 -0.2237  0.4420
 3680SOL     OW22501   1.755   2.219   0.149 -0.4855 -0.3566 -0.1214
 3680SOL    HW122502   1.679   2.174   0.186 -0.8259  0.6683  0.4146
 3680SOL    HW222503   1.805   2.236   0.229 -1.5463 -1.3317  0.7557
 3681SOL     OW22504   0.763   1.335  10.236  0.5034 -0.5314 -0.7911
 3681SOL    HW122505   0.740   1.391  10.311 -1.7651  0.6122 -2.3280
 3681SOL    HW222506   0.698   1.357  10.169  1.9730  0.3801 -1.9384
 3682SOL     OW22507   4.144   0.575   5.694 -0.3063  0.3714  0.3431
 3682SOL    HW122508   4.131   0.512   5.765 -0.6414  1.7120  1.4760
 3682SOL    HW222509   4.054   0.606   5.681 -0.4112  0.6252  1.6372
 3683SOL     OW22510   4.264   2.378   9.036  0.3595  0.4092 -0.3338
 3683SOL    HW122511   4.341   2.415   8.995  0.5162 -0.0896 -0.4862
 3683SOL    HW222512   4.195   2.415   8.980 -1.4577 -0.4276  1.3196
 3684SOL     OW22513   2.840   0.499  10.554  0.5910  0.5294 -0.2295
 3684SOL    HW122514   2.776   0.530  10.490  1.2801  1.2777 -0.5567
 3684SOL    HW222515   2.838   0.573  10.614 -0.7281 -1.0760  1.6727
 3685SOL     OW22516   4.151   3.541  11.998 -0.4344  0.0590 -0.4636
 3685SOL    HW122517   4.141   3.450  12.027 -1.8637  1.2282  2.6808
 3685SOL    HW222518   4.234   3.566  12.039 -0.5339  1.6636 -1.2628
 3686SOL     OW22519   0.358   4.560   6.876  1.0064  0.2489 -0.1782
 3686SOL    HW122520   0.335   4.605   6.795 -0.3449 -1.9285 -1.0132
 3686SOL    HW222521   0.309   4.478   6.867 -1.5896  1.9276 -1.3848
 3687SOL     OW22522   2.649   2.546   7.011  0.2283  0.0643  0.2027
 3687SOL    HW122523   2.623   2.528   6.921  0.0710 -0.6062  0.3752
 3687SOL    HW222524   2.578   2.500   7.057  2.6219 -2.2632  1.5858
 3688SOL     OW22525   2.069   4.065   8.931  0.1997 -0.3244  0.4124
 3688SOL    HW122526   1.981   4.101   8.939 -0.4214 -1.3127 -2.1080
 3688SOL    HW222527   2.085   4.052   9.025 -2.5541 -0.6951  0.8277
 3689SOL     OW22528   4.427   2.025   6.337  0.4666 -0.4097  0.4051
 3689SOL    HW122529   4.419   1.932   6.357 -0.2695 -0.5564 -0.5207
 3689SOL    HW222530   4.430   2.052   6.428  0.0093  1.1944 -0.0393
 3690SOL     OW22531   1.274   3.168  16.359 -0.5303  0.5022 -0.2738
 3690SOL    HW122532   1.353   3.153  16.307 -0.1390 -3.5264  1.4652
 3690SOL    HW222533   1.219   3.211  16.293 -0.8067 -0.8329 -0.9194
 3691SOL     OW22534   2.991   0.364   2.191  0.0725 -0.4734  0.4675
 3691SOL    HW122535   3.055   0.301   2.157 -2.1422 -1.6076 -1.6502
 3691SOL    HW222536   2.991   0.329   2.280 -0.2232  0.0015  0.6515
 3692SOL     OW22537   4.096   4.565   4.584  0.3558  0.5799 -0.0560
 3692SOL    HW122538   4.009   4.558   4.546  0.3687 -0.0270  0.0330
 3692SOL    HW222539   4.157   4.564   4.510 -0.2308 -0.5767 -0.5293
 3693SOL     OW22540   1.311   2.825   5.055 -0.1852 -0.1740 -0.1377
 3693SOL    HW122541   1.342   2.801   5.142 -1.5168  0.1712  0.4315
 3693SOL    HW222542   1.225   2.860   5.079  0.7388  1.8659  0.1818
 3694SOL     OW22543   2.414   1.748   8.259  0.8933  0.0221 -0.0118
 3694SOL    HW122544   2.441   1.819   8.317  1.7931 -1.4733  1.4042
 3694SOL    HW222545   2.439   1.662   8.293 -0.8525 -0.6844 -0.5124
 3695SOL     OW22546   2.422   1.142   6.744 -0.0718  0.0375  0.2538
 3695SOL    HW122547   2.424   1.047   6.757  1.4555  0.0661  0.1745
 3695SOL    HW222548   2.468   1.155   6.827  2.4483 -2.3900 -0.7742
 3696SOL     OW22549   2.870   0.169   8.633  0.1778  0.0188  0.0803
 3696SOL    HW122550   2.897   0.080   8.612  1.6887  0.8839 -1.5955
 3696SOL    HW222551   2.958   0.200   8.656 -0.5201  2.6217 -0.7592
 3697SOL     OW22552   2.068   0.059   9.324  0.5036  0.3174 -0.1635
 3697SOL    HW122553   1.992   0.102   9.286  0.7966  0.5903 -0.4497
 3697SOL    HW222554   2.125   0.063   9.246  0.2720 -0.0002 -0.3439
 3698SOL     OW22555   3.994   2.718   2.377 -0.7766 -0.2252  0.1916
 3698SOL    HW122556   3.929   2.765   2.325  0.4262  1.6962  0.4169
 3698SOL    HW222557   3.971   2.626   2.364 -2.2947  0.1727  0.1136
 3699SOL     OW22558   3.347   0.113   4.385  0.6995 -0.0210 -0.2627
 3699SOL    HW122559   3.429   0.157   4.408  1.5628 -1.7975  0.0439
 3699SOL    HW222560   3.331   0.051   4.457 -1.0972 -0.8475 -1.3658
 3700SOL     OW22561   3.416   3.697  16.926 -0.3396 -0.0410  0.3475
 3700SOL    HW122562   3.450   3.661  16.844 -0.0931  1.7926 -0.3713
 3700SOL    HW222563   3.451   3.787  16.926 -2.2562  0.7015  2.6472
 3701SOL     OW22564   0.612   2.631   7.942  0.6532  0.3101 -0.4579
 3701SOL    HW122565   0.543   2.692   7.917  1.1747  1.7725  1.6387
 3701SOL    HW222566   0.671   2.699   7.975 -0.6386  1.2835 -0.1204
 3702SOL     OW22567   0.402   3.562  15.791 -0.2628 -0.3648 -0.2278
 3702SOL    HW122568   0.451   3.490  15.831  1.3184  0.7010 -0.2603
 3702SOL    HW222569   0.392   3.622  15.865 -0.7225  1.3295 -1.6718
 3703SOL     OW22570   1.232   2.866   3.737  0.0778 -0.9103  0.0914
 3703SOL    HW122571   1.230   2.961   3.721 -1.4431 -0.6478  1.8218
 3703SOL    HW222572   1.177   2.865   3.816  0.2714  2.2132  0.2610
 3704SOL     OW22573   0.199   3.025   5.814 -0.2579 -0.4668  0.5407
 3704SOL    HW122574   0.216   2.941   5.772  1.4549  0.6775 -1.0519
 3704SOL    HW222575   0.180   3.012   5.907  0.7072  0.5806  0.8847
 3705SOL     OW22576   3.685   1.663   0.509 -0.6758  0.3169  0.0060
 3705SOL    HW122577   3.699   1.572   0.483 -1.9594  0.5585 -1.5214
 3705SOL    HW222578   3.666   1.705   0.425  0.4351  3.0623  1.1299
 3706SOL     OW22579   3.609   1.951   3.897  0.1885  0.2306  0.1546
 3706SOL    HW122580   3.635   1.988   3.813  2.6097  0.6034  1.0595
 3706SOL    HW222581   3.680   1.990   3.948  1.2605  0.1791 -1.3003
 3707SOL     OW22582   1.996   1.563   7.270 -0.0700 -0.2484  0.4408
 3707SOL    HW122583   2.006   1.614   7.350  0.3102  1.0939 -0.4504
 3707SOL    HW222584   1.904   1.575   7.246 -0.0618 -0.3639  0.3501
 3708SOL     OW22585   0.333   1.754   5.862  0.4271  0.1935  0.4410
 3708SOL    HW122586   0.328   1.691   5.789 -1.1523  0.0567  0.6604
 3708SOL    HW222587   0.318   1.834   5.812 -3.5255 -2.0211 -1.9529
 3709SOL     OW22588   1.208   1.826   4.793 -0.1392 -0.2111  0.4512
 3709SOL    HW122589   1.267   1.777   4.850  2.1989  0.8145 -1.0694
 3709SOL    HW222590   1.268   1.888   4.752  0.0914 -0.7943 -0.1080
 3710SOL     OW22591   0.999   0.820   7.742  0.0414  0.0303  0.0911
 3710SOL    HW122592   0.913   0.798   7.778 -0.0202 -0.9431 -0.6515
 3710SOL    HW222593   0.983   0.858   7.655  1.6054 -3.7154 -1.7981
 3711SOL     OW22594   4.392   4.428   7.991  0.0973  0.4165  0.3524
 3711SOL    HW122595   4.341   4.507   7.970 -1.2654  0.0846  2.4744
 3711SOL    HW222596   4.454   4.458   8.056  0.9484 -1.4980  0.4193
 3712SOL     OW22597   3.578   2.077   3.077 -0.0435 -0.1658 -0.0724
 3712SOL    HW122598   3.666   2.041   3.062 -0.4847 -0.7440 -1.2646
 3712SOL    HW222599   3.534   2.061   2.993  0.3996 -1.3954 -0.0760
 3713SOL     OW22600   0.425   0.763   8.456  0.4701  0.0097 -0.5199
 3713SOL    HW122601   0.509   0.743   8.495  0.5635  2.0683  0.3559
 3713SOL    HW222602   0.459   0.762   8.366  0.5598  1.2487 -0.5026
 3714SOL     OW22603   3.813   3.498   4.762  0.0783  0.2010  0.1031
 3714SOL    HW122604   3.737   3.496   4.703 -1.4180 -2.9231  2.0950
 3714SOL    HW222605   3.884   3.490   4.699 -0.7289  0.4970 -0.8463
 3715SOL     OW22606   4.687   2.296  17.349  0.1167  0.5684 -0.4003
 3715SOL    HW122607   4.604   2.257  17.322  0.6401 -0.5757 -0.3586
 3715SOL    HW222608   4.664   2.386  17.371  1.2284  0.4666  1.2295
 3716SOL     OW22609   2.519   0.314   3.968  0.4518  0.1735 -0.0128
 3716SOL    HW122610   2.451   0.381   3.972 -1.0203 -1.2533 -0.9395
 3716SOL    HW222611   2.491   0.283   3.882 -0.2510 -1.0532  0.6623
 3717SOL     OW22612   0.246   0.519   5.244 -0.6525  0.5782  0.0627
 3717SOL    HW122613   0.161   0.517   5.288 -0.3892  0.3189  0.5524
 3717SOL    HW222614   0.298   0.470   5.307 -0.0870  1.5775  0.3641
 3718SOL     OW22615   4.549   1.613   3.514  0.0839 -0.2336 -0.3646
 3718SOL    HW122616   4.518   1.704   3.521 -0.0511 -0.4420  1.6888
 3718SOL    HW222617   4.617   1.609   3.581 -0.6815  2.2644  0.5881
 3719SOL     OW22618   4.322   2.954   8.496 -0.3510  0.1240  0.2099
 3719SOL    HW122619   4.286   2.997   8.418  3.0787  1.4504 -0.6705
 3719SOL    HW222620   4.329   3.019   8.565  1.3430 -1.1189  1.2138
 3720SOL     OW22621   0.702   0.872  13.005 -0.1275  0.4055 -0.3391
 3720SOL    HW122622   0.698   0.939  13.072 -2.2868 -0.8785  0.8380
 3720SOL    HW222623   0.653   0.911  12.932  2.5914  1.8012 -1.4073
 3721SOL     OW22624   1.590   2.246   8.776 -0.1456  0.0894 -0.3521
 3721SOL    HW122625   1.668   2.278   8.731  0.1668  0.8539  0.7300
 3721SOL    HW222626   1.549   2.193   8.708 -1.5923  1.3463 -0.4519
 3722SOL     OW22627   3.785   3.081   9.165  0.8610 -0.2009 -0.4330
 3722SOL    HW122628   3.814   3.042   9.247  0.1348  0.3844  0.1058
 3722SOL    HW222629   3.867   3.096   9.118  0.2102 -0.3465 -1.6270
 3723SOL     OW22630   3.746   0.182   7.222  0.5593  0.6017 -0.1490
 3723SOL    HW122631   3.794   0.149   7.146 -0.7244 -0.6430 -0.4167
 3723SOL    HW222632   3.791   0.263   7.245 -2.1261  2.5129 -1.6269
 3724SOL     OW22633   3.332   3.389   1.632  0.1833 -0.0819  0.4961
 3724SOL    HW122634   3.396   3.382   1.561 -0.0383 -0.3484  0.3223
 3724SOL    HW222635   3.295   3.302   1.645 -0.1773 -0.1281 -0.8538
 3725SOL     OW22636   3.088   3.836   1.614  0.2992 -1.0827  0.2290
 3725SOL    HW122637   3.093   3.801   1.524  0.9789  0.4143 -0.3171
 3725SOL    HW222638   2.994   3.827   1.629  0.2968 -1.2774  0.1098
 3726SOL     OW22639   1.790   4.615   3.178 -0.6297 -0.4573 -0.2788
 3726SOL    HW122640   1.822   4.577   3.096 -0.9119  1.9586 -1.4885
 3726SOL    HW222641   1.708   4.568   3.187 -0.1640 -1.6339 -2.2575
 3727SOL     OW22642   0.847   3.263   2.827  0.0993 -0.4699 -0.5514
 3727SOL    HW122643   0.816   3.301   2.910  1.6073 -1.1701  0.3344
 3727SOL    HW222644   0.867   3.172   2.846  0.2156 -0.5144 -0.8933
 3728SOL     OW22645   0.245   2.822   7.172 -0.1273 -0.2535  0.4008
 3728SOL    HW122646   0.299   2.901   7.171  1.9830 -1.6812  1.1949
 3728SOL    HW222647   0.184   2.849   7.241 -1.8739 -2.7193 -0.1518
 3729SOL     OW22648   4.109   3.697   7.708 -0.6239 -0.3234  0.2240
 3729SOL    HW122649   4.103   3.685   7.614  0.5761 -1.5696  0.2971
 3729SOL    HW222650   4.016   3.697   7.729 -1.1075  1.1781 -1.9311
 3730SOL     OW22651   2.978   1.708   4.581  0.0325  0.1965  0.1181
 3730SOL    HW122652   2.996   1.702   4.487  1.6509  2.2090  0.3017
 3730SOL    HW222653   2.887   1.734   4.566  0.3600  2.5022  2.2226
 3731SOL     OW22654   4.004   0.545   6.642 -0.0053  0.1925 -0.4704
 3731SOL    HW122655   3.927   0.594   6.670  0.3368  1.7499 -2.2917
 3731SOL    HW222656   4.072   0.566   6.706 -2.1339  0.3841  1.7084
 3732SOL     OW22657   2.122   2.684   3.402 -0.2535 -0.1329 -0.6542
 3732SOL    HW122658   2.082   2.686   3.315  2.9449 -0.6591 -2.1579
 3732SOL    HW222659   2.172   2.766   3.396  3.4108 -2.2122  0.8444
 3733SOL     OW22660   3.789   1.394   5.212 -0.3645 -0.2925 -0.1524
 3733SOL    HW122661   3.846   1.335   5.261 -1.9740 -1.7927 -0.0822
 3733SOL    HW222662   3.840   1.475   5.207  1.0991 -1.1512  0.8826
 3734SOL     OW22663   1.681   0.107   9.516 -0.1866 -0.3395 -0.6363
 3734SOL    HW122664   1.709   0.185   9.469  0.7677 -0.2232  0.1292
 3734SOL    HW222665   1.585   0.108   9.516 -0.1805  0.0974 -2.2378
 3735SOL     OW22666   0.717   1.975   3.666  0.4538  0.3933  0.2817
 3735SOL    HW122667   0.711   2.058   3.713  0.6414  0.8114 -0.4276
 3735SOL    HW222668   0.658   1.983   3.591 -0.6266  1.0549  1.1959
 3736SOL     OW22669   2.424   3.584   5.958  0.3887  0.0999  0.1769
 3736SOL    HW122670   2.353   3.648   5.947  0.9090  0.6577  0.0570
 3736SOL    HW222671   2.441   3.543   5.874  0.3055  0.5383 -0.0584
 3737SOL     OW22672   4.172   3.264   9.323  0.1078 -0.4037  0.2051
 3737SOL    HW122673   4.173   3.338   9.262  0.0167  0.1868  0.9158
 3737SOL    HW222674   4.214   3.194   9.273 -0.3614 -0.0821 -0.6359
 3738SOL     OW22675   2.078   4.117  17.640  0.4408 -0.7304  0.7467
 3738SOL    HW122676   2.053   4.143   0.043  0.3713 -0.3315  0.6076
 3738SOL    HW222677   2.031   4.035  17.625  0.6686 -0.6595 -0.3223
 3739SOL     OW22678   1.397   4.514   5.794  0.3308  0.3982 -0.3875
 3739SOL    HW122679   1.352   4.560   5.723 -1.6544  0.6613  1.0114
 3739SOL    HW222680   1.428   4.441   5.741  0.8308  1.6212 -1.7535
 3740SOL     OW22681   0.650   4.482   3.448 -0.1322 -0.1865  0.0132
 3740SOL    HW122682   0.602   4.516   3.372  1.4649 -0.3414 -1.0649
 3740SOL    HW222683   0.658   4.561   3.500  0.4271  0.3974 -0.9491
 3741SOL     OW22684   0.189   2.316  17.666  0.5107  0.2062  0.5778
 3741SOL    HW122685   0.109   2.264  17.657  0.6584  0.0154  0.3994
 3741SOL    HW222686   0.148   2.381   0.038 -0.2012 -0.0485  0.3638
 3742SOL     OW22687   3.299   0.146   2.715  0.3445  0.0315 -0.0336
 3742SOL    HW122688   3.249   0.199   2.777 -0.8687 -1.4529  0.2524
 3742SOL    HW222689   3.373   0.140   2.776 -0.7657  0.5165  1.3603
 3743SOL     OW22690   1.765   1.151   3.677  0.2081 -0.1517 -0.1862
 3743SOL    HW122691   1.737   1.143   3.768 -0.3350  1.0051 -0.2516
 3743SOL    HW222692   1.758   1.058   3.653  0.2448 -0.3649  0.6463
 3744SOL     OW22693   1.267   0.096   3.686 -0.0254  0.3810  0.7857
 3744SOL    HW122694   1.319   0.047   3.622  0.8230  1.3582  0.7250
 3744SOL    HW222695   1.190   0.041   3.697  0.0800 -0.1472 -1.1263
 3745SOL     OW22696   3.047   3.219   5.473  0.3547  0.4073 -0.0655
 3745SOL    HW122697   3.127   3.266   5.450  1.2875 -1.0985  0.1054
 3745SOL    HW222698   3.077   3.130   5.492 -0.0400  0.2918  0.0248
 3746SOL     OW22699   2.127   1.749   8.267  0.0686 -0.0326  0.3039
 3746SOL    HW122700   2.129   1.676   8.328  5.1947 -0.3947 -0.2979
 3746SOL    HW222701   2.208   1.739   8.218  0.0911  0.5662  0.2080
 3747SOL     OW22702   4.279   4.360   2.709  0.1211 -0.3586  0.7857
 3747SOL    HW122703   4.249   4.421   2.642  0.1786  2.5014  3.3549
 3747SOL    HW222704   4.298   4.281   2.658 -0.9142  1.1350 -1.8731
 3748SOL     OW22705   0.910   0.899   5.431  0.2083 -0.4924 -0.0722
 3748SOL    HW122706   0.887   0.987   5.402 -0.6743 -0.4724  0.6919
 3748SOL    HW222707   0.992   0.890   5.382  0.0419 -2.3363 -0.0230
 3749SOL     OW22708   3.520   2.316   4.131  0.2078 -0.3426  0.0172
 3749SOL    HW122709   3.602   2.305   4.082  0.7371  0.6296  0.6733
 3749SOL    HW222710   3.486   2.229   4.108  0.3970  0.3720 -2.9615
 3750SOL     OW22711   4.325   2.522  11.049 -0.1809 -0.2441  0.3182
 3750SOL    HW122712   4.371   2.606  11.052 -2.8158  1.2594 -1.7726
 3750SOL    HW222713   4.232   2.546  11.045 -0.2940 -0.7143  0.1560
 3751SOL     OW22714   0.765   2.542   5.657 -0.1086 -0.2770  0.1143
 3751SOL    HW122715   0.854   2.508   5.670  0.6842  1.2286 -1.2523
 3751SOL    HW222716   0.724   2.517   5.739  1.0634  0.8511  1.0485
 3752SOL     OW22717   0.525   4.151   5.560 -0.0902  0.5150 -0.6217
 3752SOL    HW122718   0.507   4.234   5.515 -1.4028  0.7382  0.3008
 3752SOL    HW222719   0.480   4.083   5.511 -1.8667  2.1999 -1.3418
 3753SOL     OW22720   2.750   0.641   5.809 -0.6340 -0.2685 -0.0337
 3753SOL    HW122721   2.720   0.588   5.883 -0.3469  0.9270  0.9601
 3753SOL    HW222722   2.841   0.611   5.800  0.5478  3.1143  0.4287
 3754SOL     OW22723   4.646   1.296  13.049  0.1777  0.2714 -0.4943
 3754SOL    HW122724   4.604   1.377  13.020  0.1802  0.6714  0.6021
 3754SOL    HW222725   4.569   1.239  13.049  0.1943  0.2646 -1.5436
 3755SOL     OW22726   4.156   1.735   3.552  0.5911 -0.2831 -0.7634
 3755SOL    HW122727   4.172   1.805   3.489 -0.0992 -1.4919 -2.2714
 3755SOL    HW222728   4.240   1.740   3.598 -0.2640 -2.4319  1.0306
 3756SOL     OW22729   0.353   4.087  13.724  0.2229  0.2238 -0.1316
 3756SOL    HW122730   0.369   4.082  13.818  0.4968  0.5979 -0.1590
 3756SOL    HW222731   0.278   4.146  13.723 -0.1858 -0.2941  0.1266
 3757SOL     OW22732   1.660   3.431  12.380 -0.0284 -0.5232 -0.3238
 3757SOL    HW122733   1.577   3.453  12.423  0.1734  2.1810 -1.3498
 3757SOL    HW222734   1.622   3.381  12.307  0.7373 -0.0956 -1.0096
 3758SOL     OW22735   4.102   0.576   4.976  0.1369 -0.3658  0.3998
 3758SOL    HW122736   4.049   0.568   5.055 -0.3658  2.1975  0.3280
 3758SOL    HW222737   4.071   0.516   4.908  0.4332 -2.6775  2.3214
 3759SOL     OW22738   4.432   3.318   0.566 -0.1091  0.7552 -0.6222
 3759SOL    HW122739   4.365   3.290   0.504  1.2990  0.6816 -2.1239
 3759SOL    HW222740   4.406   3.404   0.599  0.2038  0.7273 -0.3014
 3760SOL     OW22741   2.063   3.046  10.288  0.0833 -0.2597 -0.3231
 3760SOL    HW122742   2.036   3.046  10.380 -0.0853  0.6338 -0.3779
 3760SOL    HW222743   2.073   3.140  10.272 -1.5317 -0.3505 -1.8592
 3761SOL     OW22744   0.498   2.982   6.049  0.6372  0.0068  0.0610
 3761SOL    HW122745   0.411   2.960   6.081  0.8865  0.8847  1.3342
 3761SOL    HW222746   0.513   3.068   6.089  2.7149 -1.0200  1.4544
 3762SOL     OW22747   2.103   0.913   4.260  0.1740 -0.3855 -0.1231
 3762SOL    HW122748   2.041   0.882   4.326 -0.7608 -0.0496 -0.8312
 3762SOL    HW222749   2.120   0.835   4.209 -0.5068 -1.3155  1.0578
 3763SOL     OW22750   1.166   2.859   0.189 -0.0768  0.3316 -0.9355
 3763SOL    HW122751   1.113   2.800   0.243 -0.3554  1.6551  0.2044
 3763SOL    HW222752   1.119   2.861   0.105  0.4647  0.2556 -1.2420
 3764SOL     OW22753   1.361   3.190  10.081  0.0635  0.1857 -0.1223
 3764SOL    HW122754   1.323   3.271  10.114 -0.8117 -0.5082  0.5557
 3764SOL    HW222755   1.287   3.131  10.077 -0.2358  0.4725  1.2128
 3765SOL     OW22756   0.860   0.516   1.080 -0.4362 -0.1286 -0.2974
 3765SOL    HW122757   0.930   0.520   1.146 -0.6979  0.2805 -0.0471
 3765SOL    HW222758   0.781   0.491   1.129 -0.8066 -0.2029 -0.9369
 3766SOL     OW22759   3.283   3.015   2.208  0.0301 -0.6820 -0.2988
 3766SOL    HW122760   3.306   2.963   2.131  0.3960 -0.7175 -0.1658
 3766SOL    HW222761   3.273   3.104   2.174  2.4756 -0.4916 -0.5188
 3767SOL     OW22762   1.972   4.368   4.203 -0.6819  0.0884  0.2018
 3767SOL    HW122763   1.904   4.424   4.241 -0.4457 -0.4816  1.4261
 3767SOL    HW222764   1.930   4.282   4.203 -0.1039 -0.1918  0.1736
 3768SOL     OW22765   2.309   4.607   1.604 -0.6152 -0.0286  0.5766
 3768SOL    HW122766   2.347   4.546   1.541 -0.1671 -1.5026  2.2670
 3768SOL    HW222767   2.220   4.587   1.574  0.2663  2.6048 -3.7433
 3769SOL     OW22768   0.282   4.611  10.970  0.8472  0.2239  0.1177
 3769SOL    HW122769   0.355   4.552  10.986  0.0247 -0.5782  0.8515
 3769SOL    HW222770   0.317   4.658  10.893 -1.7922  1.4749 -0.3216
 3770SOL     OW22771   1.455   2.607  14.375  0.6065 -0.0359 -0.4480
 3770SOL    HW122772   1.435   2.604  14.281 -0.3474  0.7420 -0.2708
 3770SOL    HW222773   1.363   2.602  14.400  0.7147 -1.4765 -0.3398
 3771SOL     OW22774   1.812   1.521   6.421  0.7050  0.3284 -0.1765
 3771SOL    HW122775   1.767   1.501   6.339 -1.6199  0.2630  1.1284
 3771SOL    HW222776   1.847   1.609   6.404 -1.0894  1.0223 -0.2230
 3772SOL     OW22777   0.640   4.243   6.788 -0.0904  0.3358  0.4152
 3772SOL    HW122778   0.732   4.271   6.791 -0.2406  0.6270  2.4771
 3772SOL    HW222779   0.652   4.157   6.829 -1.1668  0.9660  2.0882
 3773SOL     OW22780   1.843   0.527   2.848  0.0050  0.3240 -0.6011
 3773SOL    HW122781   1.881   0.490   2.769 -1.9855 -1.8218 -0.5328
 3773SOL    HW222782   1.773   0.578   2.808 -1.3851 -0.3727  0.9520
 3774SOL     OW22783   2.594   3.541   6.364  0.3151 -0.7222  0.7286
 3774SOL    HW122784   2.658   3.612   6.360  0.7203 -0.9894  2.3290
 3774SOL    HW222785   2.533   3.566   6.295  1.5628  2.2738  0.7196
 3775SOL     OW22786   4.127   1.548   5.319 -0.1363  0.0335 -0.1486
 3775SOL    HW122787   4.089   1.571   5.404  1.9429  2.5815  0.0908
 3775SOL    HW222788   4.064   1.598   5.267 -0.5222 -0.6483 -0.3280
 3776SOL     OW22789   3.047   1.220  13.476  0.4638  0.3263 -0.7063
 3776SOL    HW122790   3.069   1.190  13.565  1.3229 -0.6672 -1.2500
 3776SOL    HW222791   2.969   1.271  13.499 -0.1571 -1.5041  1.2693
 3777SOL     OW22792   1.092   4.315   3.017 -0.1667 -0.3690 -0.2853
 3777SOL    HW122793   1.106   4.233   2.970  3.4189  1.0936 -1.6939
 3777SOL    HW222794   1.042   4.368   2.955  0.5172  0.5901 -0.0094
 3778SOL     OW22795   0.988   4.243   8.693 -0.1726 -0.6389 -0.1046
 3778SOL    HW122796   0.917   4.307   8.691  0.3399 -0.1026 -1.3227
 3778SOL    HW222797   0.955   4.177   8.632 -0.4099 -1.2666  0.7174
 3779SOL     OW22798   0.766   3.036   5.942  0.2788  0.3491  0.5006
 3779SOL    HW122799   0.716   3.102   5.894  0.7900  2.1420  2.4673
 3779SOL    HW222800   0.691   3.009   5.995  0.2712 -1.1019 -0.2488
 3780SOL     OW22801   3.702   2.690   7.376  0.1087  0.0672 -0.0655
 3780SOL    HW122802   3.741   2.678   7.290  0.9166  0.8536  0.1937
 3780SOL    HW222803   3.618   2.729   7.350 -0.7231 -0.5323  1.7134
 3781SOL     OW22804   4.380   3.339  12.349 -0.1747  0.2112 -0.0603
 3781SOL    HW122805   4.407   3.331  12.441 -1.6892 -0.0972  0.3623
 3781SOL    HW222806   4.449   3.290  12.305 -1.4158 -0.1853 -1.5373
 3782SOL     OW22807   0.130   0.204   4.271  0.0935  0.7595  0.3611
 3782SOL    HW122808   0.142   0.235   4.181 -0.1962 -0.8153 -0.2041
 3782SOL    HW222809   0.067   0.271   4.299 -0.4464  0.8027 -0.9669
 3783SOL     OW22810   2.991   4.082   1.353 -0.0257  0.2365 -0.4301
 3783SOL    HW122811   2.939   4.017   1.400  0.0639 -0.7736 -1.7148
 3783SOL    HW222812   3.078   4.062   1.388 -1.4743 -0.2577  2.8670
 3784SOL     OW22813   3.174   4.587   8.593 -0.6889 -0.8153 -0.0312
 3784SOL    HW122814   3.078   4.577   8.597 -0.5821 -0.9586  2.4173
 3784SOL    HW222815   3.193   4.601   8.500  0.5481  1.2118  0.5359
 3785SOL     OW22816   3.220   3.608  13.570  0.7388  0.3610 -0.6401
 3785SOL    HW122817   3.314   3.603  13.550  0.5896  0.5232 -1.4070
 3785SOL    HW222818   3.213   3.691  13.618  1.5364 -0.2609  0.5348
 3786SOL     OW22819   3.835   4.329   8.426  0.4285 -0.4667 -0.2193
 3786SOL    HW122820   3.910   4.285   8.467 -0.2747 -0.0656  1.4722
 3786SOL    HW222821   3.856   4.310   8.334 -1.4318 -0.7346 -0.5907
 3787SOL     OW22822   1.580   2.902   6.435 -0.2977  0.0106 -0.2725
 3787SOL    HW122823   1.659   2.957   6.438 -1.5276  1.7307  0.6360
 3787SOL    HW222824   1.522   2.967   6.396 -0.3047  0.3196  0.2528
 3788SOL     OW22825   2.356   4.429  15.001 -0.3565  0.4791  0.3536
 3788SOL    HW122826   2.413   4.456  15.073  0.0220  2.8029 -0.8276
 3788SOL    HW222827   2.416   4.365  14.964 -0.0963  0.4598  0.8150
 3789SOL     OW22828   2.889   3.709   9.327 -0.0064 -0.4244  0.1830
 3789SOL    HW122829   2.973   3.725   9.370 -0.5332 -0.1015  1.0840
 3789SOL    HW222830   2.923   3.671   9.246  2.0974  0.3690  0.7064
 3790SOL     OW22831   1.802   1.550   1.624  0.2731 -0.5534  0.0606
 3790SOL    HW122832   1.723   1.598   1.597  2.5935  1.7839 -2.6502
 3790SOL    HW222833   1.861   1.558   1.549  1.4078  0.5884  1.0663
 3791SOL     OW22834   0.150   2.727   3.445 -0.3439  0.5200  0.2031
 3791SOL    HW122835   0.209   2.798   3.421  1.0656 -0.4428  0.7873
 3791SOL    HW222836   0.079   2.732   3.380 -1.0470 -2.6958  0.6936
 3792SOL     OW22837   0.401   0.685   6.534  0.0167  0.0741  0.0168
 3792SOL    HW122838   0.327   0.625   6.529 -0.9052  1.4211 -2.8201
 3792SOL    HW222839   0.455   0.637   6.471  1.7476  1.5853  0.3364
 3793SOL     OW22840   4.570   2.832   2.121 -0.0297 -0.3379 -0.1355
 3793SOL    HW122841   4.507   2.858   2.054  0.6682 -2.2299 -1.5471
 3793SOL    HW222842   4.566   2.898   2.190 -2.5640 -0.3604 -0.2402
 3794SOL     OW22843   3.363   4.405   4.638 -0.6468  0.0970 -0.1093
 3794SOL    HW122844   3.382   4.348   4.563  0.4023  0.1046  0.1519
 3794SOL    HW222845   3.418   4.365   4.705  0.3987  0.0492 -0.9952
 3795SOL     OW22846   4.243   0.068   6.306 -0.1409 -0.0478  0.6918
 3795SOL    HW122847   4.220   0.094   6.396 -0.8765  4.3588 -0.7516
 3795SOL    HW222848   4.171   0.110   6.258  0.9167  2.8555  1.6833
 3796SOL     OW22849   1.326   4.686   0.110 -0.7652  0.2743 -0.0002
 3796SOL    HW122850   1.266   4.676   0.037 -1.0265 -2.0273  0.5160
 3796SOL    HW222851   1.410   4.684   0.064 -1.3995 -0.8380 -1.0994
 3797SOL     OW22852   3.755   4.249   7.808  0.1127  0.2455 -0.1190
 3797SOL    HW122853   3.828   4.305   7.833  0.1517  0.0159  0.2858
 3797SOL    HW222854   3.696   4.255   7.883  1.0586  1.4956  0.5175
 3798SOL     OW22855   4.245   1.160   5.970  0.7141 -0.1499  0.1335
 3798SOL    HW122856   4.192   1.114   6.034 -0.1863  0.6840 -0.0162
 3798SOL    HW222857   4.207   1.116   5.893  0.6977 -2.2680  1.3646
 3799SOL     OW22858   2.556   0.153   5.235  0.6217  0.1181  0.2248
 3799SOL    HW122859   2.507   0.120   5.160 -0.4999  0.5778  0.7533
 3799SOL    HW222860   2.634   0.187   5.190  0.1367  0.6412 -0.2347
 3800SOL     OW22861   2.726   3.052   9.949 -0.1442  0.3705 -0.1083
 3800SOL    HW122862   2.679   2.997   9.886  0.0023 -0.3386  0.4010
 3800SOL    HW222863   2.665   3.125   9.961  0.8896  1.6502 -2.6418
 3801SOL     OW22864   1.314   1.538  11.434 -0.0369 -0.1329  0.3273
 3801SOL    HW122865   1.257   1.513  11.506  2.0401  0.8375  2.3171
 3801SOL    HW222866   1.255   1.554  11.361  0.2977 -0.0898  0.0657
 3802SOL     OW22867   0.706   3.402   6.020  0.3465 -0.5149 -0.1108
 3802SOL    HW122868   0.689   3.352   6.099  2.2906  0.0706  0.6847
 3802SOL    HW222869   0.719   3.340   5.948  1.6420 -0.2107 -0.1429
 3803SOL     OW22870   1.603   1.824   6.045 -0.0520 -0.0424 -0.0220
 3803SOL    HW122871   1.535   1.856   5.986 -1.5309 -0.9463  1.1831
 3803SOL    HW222872   1.630   1.738   6.011  0.0856 -1.0847  2.6939
 3804SOL     OW22873   4.027   0.344   7.058  0.3549  0.2809 -0.5481
 3804SOL    HW122874   3.962   0.276   7.040  1.0015 -1.3801  3.4997
 3804SOL    HW222875   4.035   0.361   7.152 -0.0912 -2.8972  0.0621
 3805SOL     OW22876   1.652   4.355   0.143 -0.0947  0.2950  0.1160
 3805SOL    HW122877   1.649   4.383   0.051 -0.6527  1.2199  0.4132
 3805SOL    HW222878   1.671   4.261   0.132  0.2174  0.5292 -1.4051
 3806SOL     OW22879   2.994   2.330   1.204 -0.0034 -0.5542 -0.3062
 3806SOL    HW122880   2.967   2.270   1.135 -1.0644  1.1168 -1.3576
 3806SOL    HW222881   3.055   2.382   1.151 -0.0769  0.6077  0.7449
 3807SOL     OW22882   1.111   2.711   1.348  0.0311  0.3854 -0.6685
 3807SOL    HW122883   1.057   2.645   1.306 -1.7774  1.2321  0.2812
 3807SOL    HW222884   1.061   2.793   1.355 -0.6109 -0.1041  0.5146
 3808SOL     OW22885   0.585   0.866   6.254  0.3541  0.0458 -0.2422
 3808SOL    HW122886   0.562   0.941   6.309 -1.4548 -1.8589  1.5714
 3808SOL    HW222887   0.632   0.905   6.180  1.2737  2.4324  1.6271
 3809SOL     OW22888   2.947   4.466   2.568 -0.4329  0.9594  0.2514
 3809SOL    HW122889   3.019   4.406   2.589 -0.6665  1.2007  1.7276
 3809SOL    HW222890   2.929   4.520   2.645 -0.5811 -0.0324  0.9126
 3810SOL     OW22891   2.340   3.059   9.500  0.7188  0.1614  0.0989
 3810SOL    HW122892   2.375   3.146   9.481  2.9626 -1.1553 -1.8859
 3810SOL    HW222893   2.408   3.007   9.457  0.4432 -1.3892  1.5337
 3811SOL     OW22894   2.974   0.246  10.637  0.0010 -0.2129 -0.0123
 3811SOL    HW122895   2.910   0.206  10.579 -0.9883  0.6340  0.4793
 3811SOL    HW222896   2.930   0.331  10.651 -1.7962 -1.1454 -0.0094
 3812SOL     OW22897   3.571   1.424  16.018 -0.1733  0.1530  0.2489
 3812SOL    HW122898   3.603   1.387  16.100  3.1902  0.1602 -1.0345
 3812SOL    HW222899   3.488   1.378  16.009 -0.6623  0.6885  2.2011
 3813SOL     OW22900   2.338   0.951   5.452  0.6395 -0.5024 -0.6425
 3813SOL    HW122901   2.302   0.960   5.363  0.8268 -1.0894 -0.7753
 3813SOL    HW222902   2.275   0.889   5.488  0.0286  0.3467 -0.2508
 3814SOL     OW22903   1.203   1.727  14.888 -0.1095  0.1038 -0.0643
 3814SOL    HW122904   1.245   1.757  14.969  1.6215 -2.3191 -0.0522
 3814SOL    HW222905   1.187   1.635  14.910  0.0759 -0.3035 -1.6236
 3815SOL     OW22906   4.049   1.724   8.133 -0.1323  0.3917  0.0574
 3815SOL    HW122907   4.004   1.693   8.211 -1.4300 -2.3640 -1.8064
 3815SOL    HW222908   4.090   1.648   8.092  2.2727 -0.3473  3.9151
 3816SOL     OW22909   4.155   3.386   7.694  0.3317  0.2744 -0.0652
 3816SOL    HW122910   4.134   3.480   7.697  2.1001  0.6740 -0.3075
 3816SOL    HW222911   4.230   3.383   7.754  0.0580  1.4395  0.3326
 3817SOL     OW22912   2.103   4.037   6.805 -0.2248  0.6325 -0.1067
 3817SOL    HW122913   2.080   4.039   6.898 -2.4896 -2.3470 -0.5722
 3817SOL    HW222914   2.111   3.942   6.795  1.5978  0.8565 -0.8010
 3818SOL     OW22915   0.444   0.203   4.921 -0.0923 -0.0276 -0.1842
 3818SOL    HW122916   0.519   0.262   4.912  1.2332 -1.9292 -1.6277
 3818SOL    HW222917   0.379   0.272   4.939  0.1084  0.0489  0.2656
 3819SOL     OW22918   3.016   0.718   4.359 -0.6815 -0.6787  0.2348
 3819SOL    HW122919   3.083   0.662   4.398  0.0977 -1.1021 -1.7226
 3819SOL    HW222920   2.989   0.668   4.282 -0.0370  1.3420 -1.3287
 3820SOL     OW22921   3.309   2.680   3.867  0.0080 -1.0276  0.6328
 3820SOL    HW122922   3.314   2.718   3.955 -2.9590 -1.4838  1.0233
 3820SOL    HW222923   3.351   2.737   3.803  1.9216 -2.7395  0.3763
 3821SOL     OW22924   2.832   0.858   4.523  0.3063  0.1487 -0.2785
 3821SOL    HW122925   2.912   0.835   4.476  0.3367 -2.2102  0.9282
 3821SOL    HW222926   2.874   0.902   4.597  0.1682 -1.2046  0.6021
 3822SOL     OW22927   0.322   1.987   4.634 -0.2936 -0.6011 -0.0820
 3822SOL    HW122928   0.250   1.943   4.589  0.5102  0.2981 -2.2717
 3822SOL    HW222929   0.392   1.924   4.616 -2.8868 -2.2580 -4.4774
 3823SOL     OW22930   0.255   4.329  14.836 -1.3614  0.0405 -0.3995
 3823SOL    HW122931   0.335   4.294  14.873 -0.3365  0.8108 -1.8794
 3823SOL    HW222932   0.285   4.328  14.745 -2.6819 -0.6849 -0.8311
 3824SOL     OW22933   0.253   0.958   6.509  0.6444 -0.1109 -0.5144
 3824SOL    HW122934   0.340   0.978   6.544  1.3985 -5.6765  0.8027
 3824SOL    HW222935   0.280   0.892   6.446 -2.9928 -1.4141 -0.7430
 3825SOL     OW22936   1.291   0.839   1.651  0.4228  0.0852  0.1881
 3825SOL    HW122937   1.243   0.837   1.734 -0.1128  0.0962 -0.1216
 3825SOL    HW222938   1.220   0.817   1.591  2.1664  0.6344 -2.0625
 3826SOL     OW22939   0.831   0.146   6.933  0.3690 -0.1529  0.2750
 3826SOL    HW122940   0.764   0.106   6.876  0.2347  0.1468  0.2232
 3826SOL    HW222941   0.780   0.218   6.970  0.9981  0.8460 -0.8194
 3827SOL     OW22942   4.225   4.637   6.713 -0.2613  0.8629 -0.0226
 3827SOL    HW122943   4.270   4.701   6.768 -2.8148  3.2804 -0.7256
 3827SOL    HW222944   4.205   4.578   6.786  1.4618 -0.4186 -0.5949
 3828SOL     OW22945   0.618   4.552   2.884 -0.1304  0.3241  0.9032
 3828SOL    HW122946   0.637   4.642   2.910  1.7195  0.0944  0.3398
 3828SOL    HW222947   0.526   4.553   2.909 -0.3676 -0.0843  0.0347
 3829SOL     OW22948   4.557   0.381   6.893  0.0313 -0.0218  0.7054
 3829SOL    HW122949   4.626   0.351   6.952  1.5672 -1.5099 -1.8575
 3829SOL    HW222950   4.591   0.464   6.861  0.8432  0.2713  2.3005
 3830SOL     OW22951   1.547   2.761   7.427  0.7836  0.6391  0.1485
 3830SOL    HW122952   1.555   2.808   7.344 -0.2174  0.6017  0.0368
 3830SOL    HW222953   1.540   2.844   7.475 -0.0189 -0.6373  2.2420
 3831SOL     OW22954   1.959   1.331   3.636  0.4430  0.0856  0.3012
 3831SOL    HW122955   1.896   1.259   3.633  1.2739 -0.6086 -0.4876
 3831SOL    HW222956   2.021   1.303   3.703 -0.9582 -1.1685  1.0794
 3832SOL     OW22957   4.324   0.552   8.208  0.5001  0.2613  0.0469
 3832SOL    HW122958   4.306   0.466   8.246  0.5768 -0.3419 -1.2881
 3832SOL    HW222959   4.313   0.609   8.285 -2.1229  0.7020 -0.6563
 3833SOL     OW22960   1.308   2.491   5.198 -0.6634  0.3250 -0.4452
 3833SOL    HW122961   1.368   2.558   5.232 -1.1297 -1.3925  3.7684
 3833SOL    HW222962   1.301   2.528   5.110 -0.2790  2.0807  0.2667
 3834SOL     OW22963   0.721   1.897   9.805  0.0567  0.1509  0.0833
 3834SOL    HW122964   0.771   1.859   9.733  0.0009  0.0687  0.0867
 3834SOL    HW222965   0.633   1.865   9.785  0.9280 -0.3452 -2.9952
 3835SOL     OW22966   2.403   1.878   2.248 -0.2619 -0.2577  0.3138
 3835SOL    HW122967   2.428   1.799   2.295  0.3905 -0.1751  0.1075
 3835SOL    HW222968   2.330   1.847   2.195  0.4163 -1.3009  0.0033
 3836SOL     OW22969   1.332   1.174   7.978 -1.0540 -0.0392  0.1993
 3836SOL    HW122970   1.274   1.103   8.007  0.3615 -1.0531  0.5632
 3836SOL    HW222971   1.379   1.141   7.901  0.9057 -0.2374  1.4743
 3837SOL     OW22972   2.597   2.254   2.925 -0.2201  0.1642  0.2740
 3837SOL    HW122973   2.604   2.289   3.014  0.3627 -0.1300  0.3427
 3837SOL    HW222974   2.505   2.228   2.919  0.1198 -1.3377  1.8531
 3838SOL     OW22975   1.821   2.426  15.511 -0.2970  0.6262  0.1909
 3838SOL    HW122976   1.765   2.410  15.435 -0.6377  2.1661  0.1284
 3838SOL    HW222977   1.827   2.521  15.508  1.5508  0.5019 -0.1839
 3839SOL     OW22978   1.609   3.470   7.028  0.5591  0.1490 -0.5070
 3839SOL    HW122979   1.596   3.428   6.943  0.9334 -2.3869  0.6931
 3839SOL    HW222980   1.559   3.415   7.088 -0.3894  0.6514 -0.8432
 3840SOL     OW22981   3.518   2.104   8.810  0.0739 -0.1800 -0.3489
 3840SOL    HW122982   3.563   2.029   8.773 -0.0168 -1.0298  1.2599
 3840SOL    HW222983   3.544   2.169   8.744  1.4328 -1.0483 -0.6701
 3841SOL     OW22984   4.055   2.658   4.695 -0.3423 -0.1541 -0.1238
 3841SOL    HW122985   4.087   2.623   4.612  0.8251 -1.8009  1.0202
 3841SOL    HW222986   4.091   2.583   4.742 -1.7357  0.7585  2.3840
 3842SOL     OW22987   2.411   1.003  14.135  0.3747  0.1623  0.0200
 3842SOL    HW122988   2.417   0.907  14.139 -1.8427  0.0277 -0.3469
 3842SOL    HW222989   2.490   1.010  14.189  0.8703 -0.2272 -0.6530
 3843SOL     OW22990   0.517   0.217   1.401  0.1077  0.3831 -0.4899
 3843SOL    HW122991   0.571   0.262   1.465  2.2350 -0.8814 -1.4069
 3843SOL    HW222992   0.433   0.224   1.446  1.8387  2.6714  2.3652
 3844SOL     OW22993   2.810   1.525  15.861 -0.5207  0.0526 -0.3528
 3844SOL    HW122994   2.828   1.585  15.788  1.7691  0.7707  0.8276
 3844SOL    HW222995   2.751   1.464  15.817 -0.6470  0.0838 -0.2241
 3845SOL     OW22996   0.148   1.785   7.667 -0.1501 -0.1940  0.2766
 3845SOL    HW122997   0.059   1.760   7.645  0.0400  0.1890 -0.9163
 3845SOL    HW222998   0.145   1.837   7.748 -1.5547  1.6165 -0.9384
 3846SOL     OW22999   2.802   4.172   7.226  0.4797  0.6609  0.2707
 3846SOL    HW123000   2.761   4.198   7.143 -0.3877 -1.3133  0.0707
 3846SOL    HW223001   2.749   4.096   7.250 -0.9168  1.5507 -0.0247
 3847SOL     OW23002   2.323   2.922   4.101 -0.2402  0.6287 -0.1753
 3847SOL    HW123003   2.278   2.885   4.024  0.0172  0.7601 -0.3903
 3847SOL    HW223004   2.267   2.996   4.124 -1.9307 -1.2365  1.7421
 3848SOL     OW23005   3.342   2.204  14.121  0.1787 -0.1454 -0.6166
 3848SOL    HW123006   3.372   2.295  14.124  1.4686 -0.5587 -1.0282
 3848SOL    HW223007   3.412   2.166  14.173 -0.8839 -2.9396 -1.2423
 3849SOL     OW23008   3.370   0.920   7.497 -0.5507  0.4496  0.1505
 3849SOL    HW123009   3.460   0.945   7.517  0.0193  0.4898 -2.4630
 3849SOL    HW223010   3.361   0.835   7.539  1.5092  1.0744  1.8354
 3850SOL     OW23011   3.062   4.566   6.493  0.3050  0.4036 -0.1502
 3850SOL    HW123012   3.093   4.492   6.545 -0.3836 -0.3113 -0.7564
 3850SOL    HW223013   3.039   4.628   6.562  1.0618 -0.0443  0.4999
 3851SOL     OW23014   0.644   1.973   5.211 -0.6633  0.5414  0.5530
 3851SOL    HW123015   0.629   1.898   5.153  2.5437 -0.2092  0.6819
 3851SOL    HW223016   0.568   2.028   5.190  1.8490  2.6642 -3.0280
 3852SOL     OW23017   4.048   4.204   4.799 -0.2360  0.2382 -0.4070
 3852SOL    HW123018   4.025   4.155   4.877 -0.3892 -0.5214 -0.9309
 3852SOL    HW223019   4.136   4.237   4.818  0.7344 -1.4355 -2.0638
 3853SOL     OW23020   0.861   0.397  13.503 -0.4847  0.4804 -0.5818
 3853SOL    HW123021   0.930   0.413  13.439  0.0227 -1.0802 -0.4375
 3853SOL    HW223022   0.787   0.409  13.445 -2.0360 -1.6848  0.9478
 3854SOL     OW23023   1.273   3.135   3.746 -0.3890  0.4658  0.5053
 3854SOL    HW123024   1.367   3.150   3.755 -0.4346  0.6638  0.6632
 3854SOL    HW223025   1.243   3.198   3.812  0.0225  1.3653 -0.1754
 3855SOL     OW23026   0.703   2.023   1.418  0.5249  0.1063  0.1396
 3855SOL    HW123027   0.716   2.106   1.465  0.5951  0.7546 -1.0287
 3855SOL    HW223028   0.787   2.011   1.373  1.1738  2.4123  0.7026
 3856SOL     OW23029   4.598   3.909  12.609  0.1206 -0.4571 -0.6191
 3856SOL    HW123030   4.541   3.909  12.686 -2.6579  0.8992 -2.6478
 3856SOL    HW223031   4.540   3.948  12.543 -2.2983 -0.9777  1.1807
 3857SOL     OW23032   1.990   0.189   1.610  0.2648  0.6992  0.0615
 3857SOL    HW123033   2.082   0.214   1.616  0.4452 -0.1323  0.8339
 3857SOL    HW223034   1.987   0.154   1.521  1.3266 -0.4597  0.4716
 3858SOL     OW23035   1.789   2.772   3.358 -0.2416 -0.2237  1.0015
 3858SOL    HW123036   1.828   2.723   3.286  1.1951  3.6531 -0.9087
 3858SOL    HW223037   1.697   2.745   3.363 -0.0550 -1.2239 -0.8806
 3859SOL     OW23038   3.779   3.633   7.399 -0.6722  0.0312  0.2845
 3859SOL    HW123039   3.736   3.674   7.324 -0.5941 -1.3776 -0.5408
 3859SOL    HW223040   3.744   3.544   7.395  2.3594 -1.2196  2.2967
 3860SOL     OW23041   1.929   0.409   3.622  0.0208  0.5590 -0.0323
 3860SOL    HW123042   2.003   0.469   3.633 -1.1609  2.3783 -2.0517
 3860SOL    HW223043   1.948   0.366   3.539  0.2091  1.1767 -0.3126
 3861SOL     OW23044   0.077   4.681   3.321  0.4166 -0.1437 -0.4526
 3861SOL    HW123045   0.117   4.662   3.236  1.3781 -1.3925  0.2898
 3861SOL    HW223046   0.154   4.704   3.373 -1.2229  0.8365  1.5500
 3862SOL     OW23047   2.385   1.648  17.323  0.3017 -0.1274  0.0285
 3862SOL    HW123048   2.342   1.665  17.407  0.5918  2.8789 -0.4616
 3862SOL    HW223049   2.346   1.713  17.264  3.1296  0.8824 -0.7002
 3863SOL     OW23050   3.743   0.303   6.526 -0.1207  0.1739 -0.1635
 3863SOL    HW123051   3.811   0.300   6.594  0.8802  0.7699 -1.1360
 3863SOL    HW223052   3.661   0.274   6.567 -0.6260  0.4450 -0.9886
 3864SOL     OW23053   1.658   4.621  12.808  0.6524  0.2689 -0.4126
 3864SOL    HW123054   1.702   4.620  12.722 -0.3046  3.0075 -0.9405
 3864SOL    HW223055   1.578   4.569  12.797  1.5027 -0.9828 -0.5993
 3865SOL     OW23056   3.949   3.773   2.042 -0.2895  0.5513 -0.3432
 3865SOL    HW123057   3.876   3.812   2.089 -0.5223  1.0576 -1.1298
 3865SOL    HW223058   3.909   3.707   1.985 -3.9957  0.5562  2.2274
 3866SOL     OW23059   3.809   1.863  15.918  0.6984  0.2544  0.4030
 3866SOL    HW123060   3.904   1.878  15.922  0.8703 -1.0845  1.2649
 3866SOL    HW223061   3.818   1.771  15.892 -0.6197  0.1027  0.5150
 3867SOL     OW23062   4.363   4.107  10.529 -0.1530 -0.0897 -0.0521
 3867SOL    HW123063   4.346   4.017  10.501 -2.1164 -0.9861  4.1233
 3867SOL    HW223064   4.422   4.129  10.457 -0.8550  0.7298 -0.3612
 3868SOL     OW23065   3.674   1.648   2.561 -0.0916 -0.2491 -0.2804
 3868SOL    HW123066   3.750   1.689   2.603 -1.1453 -0.4298  1.8017
 3868SOL    HW223067   3.715   1.565   2.539  0.6200 -0.4994  1.9416
 3869SOL     OW23068   3.902   1.656   5.230  0.4741 -0.3622  0.2674
 3869SOL    HW123069   3.932   1.746   5.220  2.5617 -1.2441 -1.3461
 3869SOL    HW223070   3.830   1.661   5.293  0.3560 -0.6347  0.1567
 3870SOL     OW23071   0.253   3.974   1.540 -0.6226  0.2775  0.3528
 3870SOL    HW123072   0.288   4.009   1.622 -0.3942 -2.8209  1.5770
 3870SOL    HW223073   0.321   3.910   1.515 -0.7971 -0.6219  2.2124
 3871SOL     OW23074   4.710   4.466   1.451  0.3768  0.0230 -0.5178
 3871SOL    HW123075   0.047   4.433   1.520  1.2375  0.9832 -0.7709
 3871SOL    HW223076   0.011   4.405   1.381 -2.2758 -0.6671 -0.7115
 3872SOL     OW23077   3.527   2.281   5.965  0.0717  0.0903 -0.0801
 3872SOL    HW123078   3.482   2.221   6.024  3.1443 -0.9661  1.2330
 3872SOL    HW223079   3.571   2.328   6.035 -1.4888 -2.1136  2.3555
 3873SOL     OW23080   1.228   0.642  15.791 -0.4705 -0.4725  0.6102
 3873SOL    HW123081   1.254   0.550  15.796  0.4368 -0.2444  0.1372
 3873SOL    HW223082   1.154   0.631  15.851 -0.9948  0.3031  0.0971
 3874SOL     OW23083   0.589   2.358  14.989 -0.3549 -0.0350 -0.1268
 3874SOL    HW123084   0.681   2.386  14.992 -1.1220  2.3067  2.0023
 3874SOL    HW223085   0.548   2.444  14.984  1.1587  0.7694  1.2955
 3875SOL     OW23086   4.595   4.299   9.758  0.2207  0.8694 -0.8443
 3875SOL    HW123087   4.597   4.368   9.824  0.3570 -0.4901  0.5598
 3875SOL    HW223088   4.642   4.236   9.813 -0.8996 -0.4112 -1.3664
 3876SOL     OW23089   1.036   0.659   2.239 -0.4204  0.5878 -0.6255
 3876SOL    HW123090   1.054   0.580   2.290  0.1167  1.4589  0.5291
 3876SOL    HW223091   0.941   0.657   2.237 -0.4121 -0.1521 -0.2796
 3877SOL     OW23092   4.018   4.023   2.392 -0.5780 -0.6911 -0.3487
 3877SOL    HW123093   3.935   3.982   2.416 -0.3836 -1.3483 -0.8235
 3877SOL    HW223094   3.993   4.100   2.342 -0.4421 -0.9563 -0.8192
 3878SOL     OW23095   1.864   2.342   7.626 -0.4779 -0.4033 -0.1110
 3878SOL    HW123096   1.801   2.274   7.651 -1.0262 -0.0834 -0.6047
 3878SOL    HW223097   1.868   2.405   7.698  2.3505  2.2505 -2.6000
 3879SOL     OW23098   3.425   2.692   3.446 -0.1359 -0.0619 -0.3161
 3879SOL    HW123099   3.485   2.759   3.413  0.0737 -1.1055 -2.0374
 3879SOL    HW223100   3.394   2.733   3.527 -0.0347 -1.5984  0.4906
 3880SOL     OW23101   4.251   1.721  15.015 -0.2754 -0.0384  0.1194
 3880SOL    HW123102   4.286   1.810  15.017  2.1858 -0.9792 -1.6203
 3880SOL    HW223103   4.209   1.715  15.101 -0.6489 -0.4758 -0.0957
 3881SOL     OW23104   3.845   1.157   7.577 -0.5272 -0.5484 -0.2252
 3881SOL    HW123105   3.788   1.083   7.556 -0.4276 -0.5427 -0.5194
 3881SOL    HW223106   3.885   1.114   7.652  2.0534 -0.3828 -1.5301
 3882SOL     OW23107   1.497   2.576   6.030  0.4379 -0.4324  0.5564
 3882SOL    HW123108   1.446   2.542   6.103 -0.4796 -0.4098 -0.0681
 3882SOL    HW223109   1.429   2.625   5.984 -0.5042 -1.3234  1.0205
 3883SOL     OW23110   2.013   2.214   9.856 -0.0593  0.1758  0.3144
 3883SOL    HW123111   2.005   2.306   9.830  2.2735  0.3060  0.0503
 3883SOL    HW223112   2.080   2.191   9.791 -1.5142 -0.8473 -0.8192
 3884SOL     OW23113   2.757   1.270   5.890  0.6576  0.1266  0.0029
 3884SOL    HW123114   2.686   1.333   5.880  0.4023 -0.2461 -0.5332
 3884SOL    HW223115   2.749   1.232   5.977 -0.2922  1.6602  0.5817
 3885SOL     OW23116   0.890   4.438   4.899  0.7913 -0.5126  0.0915
 3885SOL    HW123117   0.955   4.480   4.956 -1.0388  1.4230  0.7941
 3885SOL    HW223118   0.863   4.515   4.849 -0.4328 -2.1880 -1.8367
 3886SOL     OW23119   1.325   4.440  12.763  0.1810  0.2955  0.0738
 3886SOL    HW123120   1.278   4.488  12.831 -1.0738  1.2714 -1.4742
 3886SOL    HW223121   1.314   4.504  12.692 -1.6337  0.7619  0.7623
 3887SOL     OW23122   2.237   4.576   9.481  0.4020  0.2923  0.4531
 3887SOL    HW123123   2.293   4.526   9.421 -2.0135 -0.5790 -1.0792
 3887SOL    HW223124   2.293   4.588   9.558  1.3714 -0.5450 -0.1208
 3888SOL     OW23125   2.460   1.934   4.957  0.6131 -0.2806  0.2594
 3888SOL    HW123126   2.384   1.885   4.989  0.2114  0.3595  0.2860
 3888SOL    HW223127   2.420   2.020   4.951  0.8947 -0.1156  0.7537
 3889SOL     OW23128   0.113   1.416  12.877 -0.0746  1.2892  0.3424
 3889SOL    HW123129   0.100   1.340  12.821  2.2242  0.3889  1.0215
 3889SOL    HW223130   0.020   1.437  12.881 -0.1520  1.3787 -1.9899
 3890SOL     OW23131   4.336   2.989   3.244 -0.1024  0.2100  0.0647
 3890SOL    HW123132   4.307   3.067   3.195  1.2778 -2.1319 -4.4816
 3890SOL    HW223133   4.393   2.954   3.175 -1.4792 -0.1308 -0.8936
 3891SOL     OW23134   3.841   0.706   2.330 -0.9440 -0.0792  0.1225
 3891SOL    HW123135   3.767   0.733   2.383 -0.9449  1.0991 -0.4778
 3891SOL    HW223136   3.872   0.788   2.291  1.5698 -0.5834  1.0598
 3892SOL     OW23137   1.955   0.458   6.803 -0.0617 -0.9288 -0.4505
 3892SOL    HW123138   1.896   0.498   6.867 -1.4006 -1.6770 -1.1944
 3892SOL    HW223139   2.013   0.528   6.774 -1.6462  0.7359  0.4231
 3893SOL     OW23140   1.873   2.576  13.709 -0.2988  0.1096 -0.5243
 3893SOL    HW123141   1.817   2.654  13.714 -2.1682 -1.3137  0.8252
 3893SOL    HW223142   1.935   2.608  13.643  1.8093 -1.5268  0.6644
 3894SOL     OW23143   1.126   3.343   6.855 -0.0537 -0.3427  0.4975
 3894SOL    HW123144   1.060   3.290   6.811  0.3627  0.5500 -1.2076
 3894SOL    HW223145   1.072   3.421   6.871 -1.1422 -0.7166 -1.3625
 3895SOL     OW23146   0.974   3.532   7.837  0.0497 -0.4684 -0.2758
 3895SOL    HW123147   0.886   3.501   7.858 -0.0173 -0.8800 -1.1858
 3895SOL    HW223148   1.004   3.524   7.927 -2.5812  0.1803  0.6573
 3896SOL     OW23149   1.924   1.702   7.803 -0.2699 -0.2969  0.4565
 3896SOL    HW123150   1.957   1.767   7.865 -0.9596  1.3781 -0.9203
 3896SOL    HW223151   1.940   1.626   7.858  0.9670 -2.5677 -3.0555
 3897SOL     OW23152   2.855   0.048   7.652  0.0734  0.1354  0.1797
 3897SOL    HW123153   2.885   0.072   7.564 -2.3840  3.2489  0.2240
 3897SOL    HW223154   2.940   0.040   7.695  0.4199  0.4309 -0.4410
 3898SOL     OW23155   1.192   0.320  13.108 -0.3669  0.4786  0.7318
 3898SOL    HW123156   1.143   0.242  13.081 -1.0376  0.9064  0.7114
 3898SOL    HW223157   1.227   0.348  13.023 -0.9695  2.5839  1.1775
 3899SOL     OW23158   3.773   1.991   8.341  0.3131  0.2417 -0.3814
 3899SOL    HW123159   3.738   2.020   8.257  0.9534  2.7604  0.2344
 3899SOL    HW223160   3.698   1.938   8.371  0.8438  1.0843  2.4677
 3900SOL     OW23161   0.899   0.671   1.890  0.0380  0.2688  0.8845
 3900SOL    HW123162   0.961   0.740   1.867  0.2589  0.0865  0.9285
 3900SOL    HW223163   0.831   0.699   1.829 -0.5332  2.3805  2.5218
 3901SOL     OW23164   0.413   2.826   7.969  0.7461 -0.0826 -0.2497
 3901SOL    HW123165   0.411   2.874   7.887 -0.5566  2.1521  1.0774
 3901SOL    HW223166   0.345   2.760   7.953  0.1704  0.6461 -0.8316
 3902SOL     OW23167   3.535   1.801   6.137 -0.1363 -0.3472 -0.4379
 3902SOL    HW123168   3.575   1.872   6.187 -2.4875 -0.3473  1.4512
 3902SOL    HW223169   3.599   1.803   6.065  1.0299 -0.8300  0.5842
 3903SOL     OW23170   1.409   0.869   1.212  0.2074  0.1130  0.1658
 3903SOL    HW123171   1.379   0.951   1.250  0.1421 -0.3350  1.1023
 3903SOL    HW223172   1.386   0.871   1.119  1.0138  2.1607  0.0194
 3904SOL     OW23173   1.645   4.028   2.858 -0.0068 -0.3805  0.1804
 3904SOL    HW123174   1.555   4.016   2.889 -0.3410  0.8086 -0.3310
 3904SOL    HW223175   1.679   4.101   2.909  0.2565  0.8596 -1.7683
 3905SOL     OW23176   0.707   3.995  13.394  0.2010 -0.0506  0.7171
 3905SOL    HW123177   0.681   3.914  13.350  3.3379 -2.4543  3.2415
 3905SOL    HW223178   0.657   3.999  13.476 -0.4647 -0.9394  0.3527
 3906SOL     OW23179   2.468   3.324   9.730 -0.3421 -0.2307  0.0324
 3906SOL    HW123180   2.372   3.315   9.733 -0.3807  0.3548  0.5602
 3906SOL    HW223181   2.471   3.355   9.640  1.0996  0.3931  0.3034
 3907SOL     OW23182   2.683   2.663  15.606 -0.1086  0.1499  0.0864
 3907SOL    HW123183   2.639   2.617  15.535  1.2096 -0.0167 -0.6085
 3907SOL    HW223184   2.706   2.594  15.668 -0.1975  1.1795  1.2725
 3908SOL     OW23185   3.193   2.995   5.525  0.2053 -0.4007  0.0720
 3908SOL    HW123186   3.197   2.933   5.452  0.6600 -1.1898  0.7649
 3908SOL    HW223187   3.285   3.009   5.546  1.0294 -1.6911 -2.7518
 3909SOL     OW23188   2.208   0.612   2.264  0.5007 -0.0286  0.2742
 3909SOL    HW123189   2.139   0.585   2.203 -1.1521  1.0946  1.6489
 3909SOL    HW223190   2.187   0.704   2.278  0.6257 -0.0142  0.3649
 3910SOL     OW23191   2.358   3.591   6.216  0.1518  0.3939  0.1528
 3910SOL    HW123192   2.303   3.514   6.226 -2.4953  2.2097 -0.3954
 3910SOL    HW223193   2.388   3.580   6.125  1.4942 -1.3633  0.8028
 3911SOL     OW23194   2.011   2.327   8.190 -0.4414 -0.0301 -0.2864
 3911SOL    HW123195   2.069   2.325   8.265  1.2966 -1.3790 -1.6722
 3911SOL    HW223196   1.928   2.363   8.223 -0.6127 -1.2245  0.5830
 3912SOL     OW23197   2.862   2.227   5.981 -0.5100 -0.4413  0.1318
 3912SOL    HW123198   2.783   2.201   6.029  1.0581 -2.1734  1.7973
 3912SOL    HW223199   2.914   2.250   6.058  0.0750 -1.2329 -0.0214
 3913SOL     OW23200   3.025   2.052   3.318 -0.2054  0.3532  0.0710
 3913SOL    HW123201   2.989   2.074   3.232  2.6261 -0.9952 -1.4589
 3913SOL    HW223202   3.002   1.960   3.328  1.7596 -0.0538  0.8220
 3914SOL     OW23203   3.433   3.861   4.320  0.3722  0.1697 -0.1337
 3914SOL    HW123204   3.350   3.816   4.306  0.2133  0.7279 -0.9785
 3914SOL    HW223205   3.447   3.861   4.415 -1.8163 -0.3624  0.1822
 3915SOL     OW23206   2.645   2.530  12.134 -0.0500  0.0989 -0.1311
 3915SOL    HW123207   2.618   2.439  12.149 -2.1208  0.4125 -1.9784
 3915SOL    HW223208   2.739   2.518  12.124 -0.0008  0.5006 -0.1213
 3916SOL     OW23209   1.887   2.065   7.739 -0.1406  0.1648 -0.3071
 3916SOL    HW123210   1.819   1.997   7.744  0.6430 -0.5832  0.2439
 3916SOL    HW223211   1.882   2.091   7.831 -0.6781 -2.0953  0.3069
 3917SOL     OW23212   2.715   1.531   7.294  0.1991  0.4352 -0.2093
 3917SOL    HW123213   2.628   1.558   7.323  0.6077  1.2589  0.2422
 3917SOL    HW223214   2.725   1.440   7.322  0.4342  0.4296 -0.3128
 3918SOL     OW23215   3.011   1.933   0.523 -0.1637 -0.2359 -0.2894
 3918SOL    HW123216   2.954   1.856   0.528  0.0522 -0.5046 -1.9434
 3918SOL    HW223217   2.957   1.975   0.455 -1.5245 -1.6262 -0.0654
 3919SOL     OW23218   0.997   2.765   5.826  0.3889 -0.3775  0.9625
 3919SOL    HW123219   0.942   2.760   5.747  1.2552  2.7173  0.1531
 3919SOL    HW223220   0.926   2.788   5.886 -1.9555 -0.1092 -1.8927
 3920SOL     OW23221   2.049   2.115  10.880 -0.2177  0.0340 -0.0593
 3920SOL    HW123222   2.010   2.050  10.822  0.3463 -1.9939  1.8565
 3920SOL    HW223223   2.106   2.056  10.930  1.0813  0.2210 -1.2966
 3921SOL     OW23224   3.084   0.419  17.209 -0.0642  0.0398 -0.6295
 3921SOL    HW123225   3.002   0.462  17.182 -0.5706  0.3639  1.3992
 3921SOL    HW223226   3.044   0.336  17.235 -0.3773  0.7882  1.3221
 3922SOL     OW23227   2.241   2.086   1.994  0.2404  0.3399 -0.1771
 3922SOL    HW123228   2.335   2.098   2.009  0.6374  0.2645 -2.6431
 3922SOL    HW223229   2.226   1.996   2.022 -0.3144  0.4612 -0.0860
 3923SOL     OW23230   0.897   2.450   6.120  0.2478  0.4553  0.2905
 3923SOL    HW123231   0.887   2.414   6.032  1.0280  1.0484 -0.0379
 3923SOL    HW223232   0.990   2.431   6.128  1.0492  4.6372  0.6643
 3924SOL     OW23233   1.723   1.153   2.602 -0.0166  0.5874  0.2599
 3924SOL    HW123234   1.684   1.096   2.668 -1.1401  1.8732  0.6919
 3924SOL    HW223235   1.653   1.216   2.593 -1.2286 -0.4442  2.4557
 3925SOL     OW23236   2.121   3.045  13.048 -0.6029  0.2185 -0.4704
 3925SOL    HW123237   2.027   3.045  13.031 -0.7413 -0.6638  0.3250
 3925SOL    HW223238   2.152   3.102  12.977 -1.1745  0.9825 -0.1044
 3926SOL     OW23239   2.692   0.444   8.244  0.4085  0.2032 -0.0221
 3926SOL    HW123240   2.680   0.417   8.153 -0.8333 -0.8660  0.4613
 3926SOL    HW223241   2.736   0.366   8.277 -0.5626 -0.2541  0.1966
 3927SOL     OW23242   0.318   1.919   3.925 -0.3029 -0.4879  0.1426
 3927SOL    HW123243   0.286   2.009   3.933  0.3374 -0.3486  1.1385
 3927SOL    HW223244   0.331   1.907   3.831 -2.2055  0.9881 -0.2877
 3928SOL     OW23245   1.606   1.207  12.461 -0.3878 -0.4043  0.1670
 3928SOL    HW123246   1.587   1.237  12.550 -0.1110 -0.1110  0.1249
 3928SOL    HW223247   1.695   1.178  12.479  0.0747  0.4613 -0.7238
 3929SOL     OW23248   3.620   1.436  17.209  0.1818  0.2787 -0.3387
 3929SOL    HW123249   3.621   1.381  17.131 -1.8165 -0.7365  0.3469
 3929SOL    HW223250   3.588   1.374  17.274 -0.1310  1.3492  0.5379
 3930SOL     OW23251   0.485   0.760   5.751 -0.4198 -0.3442  0.4854
 3930SOL    HW123252   0.577   0.771   5.729 -0.7209 -2.5160 -1.8792
 3930SOL    HW223253   0.471   0.665   5.756  0.9534 -0.6188 -0.8537
 3931SOL     OW23254   1.397   2.670   5.559  0.1878  0.0255 -0.0193
 3931SOL    HW123255   1.337   2.603   5.527  0.8643 -0.2373 -0.7361
 3931SOL    HW223256   1.361   2.749   5.518  1.6436  1.2961  1.1175
 3932SOL     OW23257   0.267   0.802   3.934 -0.2340 -0.1634 -0.1176
 3932SOL    HW123258   0.192   0.857   3.911  0.2189  1.1020  1.4777
 3932SOL    HW223259   0.343   0.829   3.883  0.1797 -1.7921 -0.3666
 3933SOL     OW23260   2.226   4.407   4.094  0.3404 -1.0064  0.3293
 3933SOL    HW123261   2.221   4.335   4.030  0.4433  0.3010 -1.1450
 3933SOL    HW223262   2.146   4.387   4.144 -0.9452  0.9195 -0.9732
 3934SOL     OW23263   4.173   0.883  15.771 -0.4236  0.5794  0.1873
 3934SOL    HW123264   4.147   0.963  15.726  0.4910  1.4703  1.2499
 3934SOL    HW223265   4.090   0.852  15.806 -1.3816  3.3847  0.3777
 3935SOL     OW23266   0.417   2.723   1.205 -0.6842 -0.3009 -0.2498
 3935SOL    HW123267   0.434   2.784   1.133 -2.0410  1.2781  0.7938
 3935SOL    HW223268   0.351   2.665   1.168 -0.2788  0.1999 -1.7495
 3936SOL     OW23269   2.882   3.332   7.796 -0.0743  0.0713 -0.4101
 3936SOL    HW123270   2.933   3.367   7.869 -1.7349 -0.5289  1.0286
 3936SOL    HW223271   2.806   3.305   7.846 -0.7383  0.5748 -1.1402
 3937SOL     OW23272   1.678   4.407   6.452  0.0620  0.3956  0.6149
 3937SOL    HW123273   1.732   4.337   6.416  1.8720  0.7935  2.5615
 3937SOL    HW223274   1.726   4.423   6.533 -0.9970  1.2993  1.0626
 3938SOL     OW23275   3.798   3.309   5.891  0.1131 -0.0138 -0.2092
 3938SOL    HW123276   3.722   3.366   5.877  0.2012  0.3884  0.9364
 3938SOL    HW223277   3.803   3.321   5.986 -0.3832 -1.3780 -0.0124
 3939SOL     OW23278   2.989   2.343   8.486 -0.1746 -0.1098 -0.1830
 3939SOL    HW123279   3.055   2.412   8.477  1.3318 -1.5534 -0.1335
 3939SOL    HW223280   2.999   2.314   8.577  0.7631 -0.0865 -0.2802
 3940SOL     OW23281   3.928   0.546   0.763 -0.1396  0.5498  0.1956
 3940SOL    HW123282   3.854   0.597   0.795  0.3508  0.6002  1.2582
 3940SOL    HW223283   3.981   0.620   0.731  0.2044 -0.6317 -2.0256
 3941SOL     OW23284   2.709   1.532   2.563 -0.3181  0.0554  0.1005
 3941SOL    HW123285   2.756   1.548   2.481 -0.8018  2.6117  0.3056
 3941SOL    HW223286   2.708   1.623   2.592  2.3568  0.2699 -0.4400
 3942SOL     OW23287   1.585   4.097   3.287 -0.4717 -0.3545 -0.2560
 3942SOL    HW123288   1.528   4.106   3.363 -1.4498 -2.0100 -0.7957
 3942SOL    HW223289   1.529   4.043   3.232 -0.1590 -0.2585 -0.6660
 3943SOL     OW23290   0.698   2.243   7.425  0.2534 -0.1401  0.7556
 3943SOL    HW123291   0.609   2.277   7.439 -0.8485 -2.8913  0.4379
 3943SOL    HW223292   0.746   2.274   7.502 -0.0880  0.8903  0.5493
 3944SOL     OW23293   4.022   0.222   9.336  0.1381  0.2799  0.6963
 3944SOL    HW123294   3.949   0.269   9.295  0.5097  1.8149  1.7507
 3944SOL    HW223295   3.977   0.152   9.383 -1.5259  1.5220  0.9631
 3945SOL     OW23296   3.071   2.580   7.904 -0.1457  0.6173 -0.0178
 3945SOL    HW123297   3.152   2.630   7.913 -0.4291  1.2225 -0.9209
 3945SOL    HW223298   3.007   2.639   7.943 -0.3931 -0.0089  0.5237
 3946SOL     OW23299   0.614   1.917   5.522  0.0041  0.1532  0.2260
 3946SOL    HW123300   0.579   2.002   5.549 -0.9794 -0.3401  0.5267
 3946SOL    HW223301   0.529   1.879   5.499  0.1458 -1.1934  1.8896
 3947SOL     OW23302   3.846   4.184   9.674  0.2076  0.2069  0.1120
 3947SOL    HW123303   3.809   4.147   9.754 -1.5142 -0.6502 -1.0620
 3947SOL    HW223304   3.780   4.175   9.605  0.1630 -2.2364  0.4816
 3948SOL     OW23305   4.479   1.976  11.352  0.4146  0.0797 -0.1702
 3948SOL    HW123306   4.423   1.941  11.422 -1.2115  0.3616 -1.3261
 3948SOL    HW223307   4.526   2.044  11.399 -0.3634 -1.4482  2.8115
 3949SOL     OW23308   2.768   4.249   4.528 -0.3559  0.5580  0.3124
 3949SOL    HW123309   2.678   4.231   4.554 -0.0081 -1.4187  0.1386
 3949SOL    HW223310   2.756   4.313   4.458  0.1033 -0.2100 -0.4720
 3950SOL     OW23311   0.884   4.063   5.390 -0.0373  0.1969  0.0363
 3950SOL    HW123312   0.906   3.975   5.360  0.6868 -0.3082  2.0558
 3950SOL    HW223313   0.840   4.042   5.472 -0.7022 -1.3265 -0.7163
 3951SOL     OW23314   2.572   3.942  11.648  0.3196 -0.1608 -0.3542
 3951SOL    HW123315   2.553   3.874  11.584 -1.9148  1.5810 -1.5693
 3951SOL    HW223316   2.608   3.881  11.713 -0.2948  0.7386  0.8439
 3952SOL     OW23317   1.183   2.543   2.978  0.0422  0.7528 -0.0172
 3952SOL    HW123318   1.163   2.635   2.964 -1.6273  0.1715 -1.5368
 3952SOL    HW223319   1.160   2.541   3.071 -1.0180  2.0552 -0.2525
 3953SOL     OW23320   4.144   4.296   8.067 -0.2347 -0.3408 -0.1989
 3953SOL    HW123321   4.166   4.237   8.139  2.3148 -0.3587 -0.9960
 3953SOL    HW223322   4.222   4.348   8.047 -1.4619  0.2440 -3.4836
 3954SOL     OW23323   1.042   1.900  16.712 -0.6533 -0.1858  0.2365
 3954SOL    HW123324   1.050   1.842  16.788 -2.0831 -0.5037  0.1332
 3954SOL    HW223325   0.969   1.858  16.668 -0.7305 -0.2577  0.4311
 3955SOL     OW23326   4.594   2.579   6.006 -0.0895  0.7447  0.2890
 3955SOL    HW123327   4.510   2.547   6.041 -0.3846  0.1211 -0.9983
 3955SOL    HW223328   4.568   2.629   5.929  2.4982  0.0003 -1.0527
 3956SOL     OW23329   4.220   1.184   4.104  0.5264  0.7502 -0.3901
 3956SOL    HW123330   4.132   1.172   4.069  0.5021 -1.2449  0.3815
 3956SOL    HW223331   4.272   1.128   4.047 -2.1371 -0.8566 -1.2182
 3957SOL     OW23332   2.660   1.809   2.106  0.5875  0.1403 -0.1488
 3957SOL    HW123333   2.644   1.735   2.165  2.1152 -1.8949 -2.2953
 3957SOL    HW223334   2.591   1.871   2.129 -2.1773 -1.9716 -2.8026
 3958SOL     OW23335   4.002   1.239  14.630  0.7302  0.3516  0.4189
 3958SOL    HW123336   3.917   1.278  14.650  1.1536  1.3807  0.1879
 3958SOL    HW223337   3.979   1.148  14.649  0.5845  0.7343  2.0926
 3959SOL     OW23338   0.495   2.846   6.560 -0.1765 -0.2937 -0.4951
 3959SOL    HW123339   0.459   2.762   6.587 -1.9222  0.1570 -1.4213
 3959SOL    HW223340   0.584   2.825   6.531  0.6335  0.2143  1.6447
 3960SOL     OW23341   0.176   3.737   6.467 -0.0843  0.2754 -0.1816
 3960SOL    HW123342   0.245   3.773   6.411 -0.7341  1.6628 -0.1033
 3960SOL    HW223343   0.150   3.662   6.414 -0.1625 -1.2024  1.9543
 3961SOL     OW23344   2.717   3.202  14.118 -0.4363  0.2690  0.5956
 3961SOL    HW123345   2.743   3.154  14.197 -0.1358  0.9675  0.9146
 3961SOL    HW223346   2.638   3.151  14.099  0.2093 -0.6424  0.3501
 3962SOL     OW23347   4.420   3.040   8.102  0.3248 -0.0308 -0.0401
 3962SOL    HW123348   4.470   2.959   8.113  0.8867  0.3258 -0.0237
 3962SOL    HW223349   4.337   2.999   8.129 -0.4972  0.7344 -1.4424
 3963SOL     OW23350   0.906   2.573  16.465  0.1815 -0.3419 -0.1170
 3963SOL    HW123351   0.813   2.589  16.477  0.5631  1.4540  0.3684
 3963SOL    HW223352   0.942   2.660  16.450  0.6159 -0.4738  0.1512
 3964SOL     OW23353   1.624   2.964  17.040  0.6363  0.5505  0.0431
 3964SOL    HW123354   1.688   2.979  16.970  0.2090 -0.5827 -0.5955
 3964SOL    HW223355   1.537   2.953  17.001  0.9400  1.5805 -0.9230
 3965SOL     OW23356   2.712   3.957   9.856 -0.0428  0.1459 -0.4998
 3965SOL    HW123357   2.738   4.046   9.879  2.5865  0.4010 -4.3109
 3965SOL    HW223358   2.792   3.911   9.883 -0.9602 -1.0634  0.1571
 3966SOL     OW23359   0.684   0.641   4.463 -0.0343  0.3176 -0.3699
 3966SOL    HW123360   0.702   0.579   4.534  1.8266  1.1248 -0.1466
 3966SOL    HW223361   0.713   0.605   4.379 -0.1382 -1.5992  0.4166
 3967SOL     OW23362   1.576   1.919   5.223 -0.4288  0.2588  0.0266
 3967SOL    HW123363   1.486   1.894   5.203 -0.7339  1.6256 -0.3498
 3967SOL    HW223364   1.630   1.851   5.182 -0.4384  1.3158 -1.7342
 3968SOL     OW23365   3.216   1.088   1.764  0.4178 -0.0396  0.2664
 3968SOL    HW123366   3.170   1.121   1.687  0.4128 -2.3998 -0.7304
 3968SOL    HW223367   3.300   1.065   1.726  0.1184 -0.4993 -0.1105
 3969SOL     OW23368   0.077   0.859   7.447 -0.3224  0.4490  0.4526
 3969SOL    HW123369   0.046   0.773   7.420  1.3636  0.0636 -0.2750
 3969SOL    HW223370   0.121   0.898   7.370  3.6104 -1.8494  1.5245
 3970SOL     OW23371   2.217   4.175  14.201 -0.1213  0.3322  0.4133
 3970SOL    HW123372   2.150   4.193  14.135  2.9484 -2.2419 -3.3666
 3970SOL    HW223373   2.207   4.080  14.202  3.0714  0.0292  1.5470
 3971SOL     OW23374   1.364   2.147   2.913 -0.1320 -0.3076  0.4199
 3971SOL    HW123375   1.393   2.130   3.003 -0.6198 -0.3135  0.5784
 3971SOL    HW223376   1.269   2.144   2.926  0.0238  1.3639  1.9188
 3972SOL     OW23377   0.574   2.954  12.746  0.0656  0.2150  0.8120
 3972SOL    HW123378   0.636   2.892  12.708  0.6084  1.6202 -0.5752
 3972SOL    HW223379   0.509   2.890  12.776  0.7548 -0.3298  1.1396
 3973SOL     OW23380   0.932   1.551   4.528 -0.1939  0.2030 -0.2794
 3973SOL    HW123381   1.004   1.580   4.471  0.3338  2.2560  1.4105
 3973SOL    HW223382   0.884   1.491   4.471  0.0877 -0.1658 -0.1287
 3974SOL     OW23383   1.827   2.040  10.542 -0.0634 -0.0591  0.1941
 3974SOL    HW123384   1.765   2.056  10.470 -0.0817  2.1981  0.7413
 3974SOL    HW223385   1.882   2.115  10.521 -2.5545  1.6541 -0.2332
 3975SOL     OW23386   3.585   1.303   3.943 -0.0795  0.0835  0.7835
 3975SOL    HW123387   3.557   1.299   3.852 -0.8831  1.4475  0.9721
 3975SOL    HW223388   3.543   1.228   3.986  0.4943 -0.8820 -0.3510
 3976SOL     OW23389   3.899   1.039   6.981 -0.4999 -0.3173  0.1879
 3976SOL    HW123390   3.959   1.114   6.978 -1.5500  0.4542 -1.4994
 3976SOL    HW223391   3.952   0.983   7.037  0.9615  1.4692  0.5919
 3977SOL     OW23392   1.568   4.242   2.039 -0.3454  0.2290  0.1459
 3977SOL    HW123393   1.483   4.199   2.038 -1.3109  2.1562 -0.2405
 3977SOL    HW223394   1.603   4.222   2.125  1.7834  1.7320 -0.3769
 3978SOL     OW23395   4.455   3.969  15.729 -0.5705  0.1218  0.1289
 3978SOL    HW123396   4.364   3.944  15.713 -0.8035  1.9564 -1.4158
 3978SOL    HW223397   4.493   3.983  15.643 -0.6096  0.4971  0.1736
 3979SOL     OW23398   1.111   3.511   0.175  0.2222  0.4911  0.7898
 3979SOL    HW123399   1.056   3.464   0.237 -0.0530 -0.3436 -0.0998
 3979SOL    HW223400   1.186   3.530   0.230  1.6852  0.9641 -1.3615
 3980SOL     OW23401   2.671   1.855   7.276  0.0447  0.2587  0.2104
 3980SOL    HW123402   2.739   1.800   7.315  1.3438  2.8883  1.6243
 3980SOL    HW223403   2.596   1.806   7.310  0.0156  0.5534  0.5613
 3981SOL     OW23404   3.219   1.538   7.479  0.2269  1.1353  0.2621
 3981SOL    HW123405   3.235   1.531   7.385 -0.6097 -2.5435  0.3949
 3981SOL    HW223406   3.125   1.518   7.478  0.6435 -0.6873 -1.2836
 3982SOL     OW23407   3.034   2.576   2.059 -0.1603  0.2046 -0.0822
 3982SOL    HW123408   2.940   2.560   2.069 -0.4486  2.8259  1.5310
 3982SOL    HW223409   3.056   2.531   1.977 -1.0246  0.6379 -0.5490
 3983SOL     OW23410   3.490   0.958   1.635 -0.3803 -0.2293  0.3663
 3983SOL    HW123411   3.539   1.039   1.650  0.7688 -0.7612 -0.5625
 3983SOL    HW223412   3.548   0.911   1.576 -0.1435  2.2125 -1.3536
 3984SOL     OW23413   0.366   0.708   5.513 -0.0506  0.7584 -0.2959
 3984SOL    HW123414   0.367   0.749   5.600 -1.1395  1.0272 -0.4062
 3984SOL    HW223415   0.440   0.749   5.469  0.2599  1.0364  0.4897
 3985SOL     OW23416   1.478   1.770   6.422 -0.4326 -0.0271  0.5451
 3985SOL    HW123417   1.531   1.822   6.362  0.0086 -1.8348 -0.6365
 3985SOL    HW223418   1.486   1.682   6.387 -1.9625 -0.5010  1.3779
 3986SOL     OW23419   2.335   0.717   5.037 -0.1861 -0.1599 -0.4139
 3986SOL    HW123420   2.385   0.798   5.036 -0.3359 -0.0671 -0.3961
 3986SOL    HW223421   2.344   0.694   5.130  1.4535 -0.3582 -0.6209
 3987SOL     OW23422   0.188   0.049   6.220  0.6806 -0.4018 -0.5033
 3987SOL    HW123423   0.258   0.032   6.157  0.5963 -0.6940 -0.5186
 3987SOL    HW223424   0.218   0.135   6.250 -1.1028  0.9078 -2.4417
 3988SOL     OW23425   1.458   2.666  13.132  0.1233 -0.7886  0.1609
 3988SOL    HW123426   1.440   2.573  13.149 -4.2756  0.2180  0.9219
 3988SOL    HW223427   1.484   2.706  13.215 -2.2145  0.3457  0.3650
 3989SOL     OW23428   3.399   3.049   1.041  0.0771 -0.1091 -0.3964
 3989SOL    HW123429   3.303   3.050   1.032  0.0369  2.5312  0.3058
 3989SOL    HW223430   3.410   2.964   0.998 -0.2991 -0.2203 -0.2726
 3990SOL     OW23431   1.914   3.423  12.560 -0.5186 -0.3693 -0.3948
 3990SOL    HW123432   1.846   3.477  12.600  0.3597  1.2743 -1.1341
 3990SOL    HW223433   1.908   3.356  12.628 -2.0708  0.7087  0.5217
 3991SOL     OW23434   3.083   0.793   2.528  0.5312 -0.4240  0.0316
 3991SOL    HW123435   3.010   0.840   2.487  0.6846 -0.1615  0.0651
 3991SOL    HW223436   3.047   0.705   2.539  0.1362 -0.0485  1.7116
 3992SOL     OW23437   2.027   0.115  15.400 -0.3753 -0.2065 -0.5372
 3992SOL    HW123438   2.060   0.204  15.412 -0.1921 -0.7222  2.5987
 3992SOL    HW223439   2.071   0.106  15.315 -0.6718 -3.7006 -0.3163
 3993SOL     OW23440   2.800   3.883   0.264 -0.3830  0.3991 -0.2561
 3993SOL    HW123441   2.819   3.876   0.358  1.0727 -0.7535 -0.6306
 3993SOL    HW223442   2.741   3.957   0.268 -1.5043 -0.5257  0.2109
 3994SOL     OW23443   3.050   4.619   1.069  0.4122 -0.3349 -0.1115
 3994SOL    HW123444   2.958   4.594   1.078  0.8740 -1.6808  0.8135
 3994SOL    HW223445   3.039   4.693   1.009  0.3040  0.1260  0.4812
 3995SOL     OW23446   3.814   1.150   9.700  0.1500 -0.2463 -0.4014
 3995SOL    HW123447   3.867   1.129   9.776 -1.9990 -0.4709  1.0186
 3995SOL    HW223448   3.888   1.155   9.640 -0.2047 -1.1322 -0.9200
 3996SOL     OW23449   3.905   0.774   8.170 -0.2539  0.2851  0.0547
 3996SOL    HW123450   3.885   0.820   8.089 -1.6751 -2.6805 -1.2691
 3996SOL    HW223451   3.837   0.709   8.187  1.9034 -2.3641 -1.3554
 3997SOL     OW23452   1.022   1.040   9.904 -0.2183 -0.6617 -0.4746
 3997SOL    HW123453   1.026   1.124   9.858 -0.5072 -0.7560 -0.6758
 3997SOL    HW223454   0.953   1.063   9.966 -0.2531  1.9966 -1.4895
 3998SOL     OW23455   0.946   2.739  11.720 -0.4689  0.2874 -0.5654
 3998SOL    HW123456   1.005   2.795  11.669 -0.7613  0.2229 -0.9703
 3998SOL    HW223457   0.879   2.717  11.656 -3.1848  3.2565  1.2847
 3999SOL     OW23458   2.427   3.940  14.172 -0.1217  0.2899 -0.3327
 3999SOL    HW123459   2.332   3.940  14.190  0.1798  0.7910  1.3159
 3999SOL    HW223460   2.465   3.895  14.248  1.5123  1.2004 -0.6129
 4000SOL     OW23461   2.139   4.197  11.398 -0.0777  0.8254  0.2682
 4000SOL    HW123462   2.227   4.159  11.401 -0.6470 -0.5340 -0.4226
 4000SOL    HW223463   2.104   4.193  11.487  1.7558 -0.6698  0.9175
 4001SOL     OW23464   0.807   2.758   3.913 -0.4950 -0.2939  0.0675
 4001SOL    HW123465   0.888   2.793   3.949  0.6830 -2.0682 -0.8255
 4001SOL    HW223466   0.794   2.814   3.837 -0.7571 -1.1494 -0.5201
 4002SOL     OW23467   1.880   3.793   5.241 -0.1470 -0.3059 -0.1359
 4002SOL    HW123468   1.837   3.723   5.289 -0.4468  1.5968  2.3901
 4002SOL    HW223469   1.812   3.861   5.235 -0.0166  0.0217  2.1068
 4003SOL     OW23470   2.879   3.241   5.901 -1.1093 -0.0743  0.3723
 4003SOL    HW123471   2.895   3.303   5.830 -2.3752 -0.8830 -0.6260
 4003SOL    HW223472   2.964   3.196   5.904 -0.6126  0.7335 -1.4799
 4004SOL     OW23473   2.186   2.602   4.875 -0.3543 -0.1035 -0.2093
 4004SOL    HW123474   2.254   2.660   4.910 -1.7887  1.3503  0.1684
 4004SOL    HW223475   2.105   2.648   4.896 -0.5011  0.3131 -1.6842
 4005SOL     OW23476   2.863   1.261  13.987 -0.6791  0.2465  0.9238
 4005SOL    HW123477   2.812   1.209  13.926  1.7974 -1.9285  0.7125
 4005SOL    HW223478   2.877   1.202  14.061 -0.8037  0.8823  1.4651
 4006SOL     OW23479   0.063   3.136  13.170 -0.1531  0.9607  0.6782
 4006SOL    HW123480   0.135   3.105  13.115 -0.9077  2.2289 -0.9857
 4006SOL    HW223481   4.712   3.130  13.107 -0.8755 -0.2827  1.6082
 4007SOL     OW23482   3.254   2.001  15.378  0.1073  0.1776  0.0969
 4007SOL    HW123483   3.220   2.042  15.298 -0.7108 -1.5422 -0.4463
 4007SOL    HW223484   3.307   1.932  15.338  0.2131  0.9150 -1.0435
 4008SOL     OW23485   1.222   1.523   7.391  0.4097 -0.0723 -0.1060
 4008SOL    HW123486   1.219   1.614   7.363 -0.1532 -0.2879 -0.7582
 4008SOL    HW223487   1.314   1.509   7.366  0.5017 -1.0046  0.7386
 4009SOL     OW23488   3.621   4.125   6.971 -0.3053  0.3588 -0.4668
 4009SOL    HW123489   3.680   4.086   7.036 -0.2468 -0.5870 -1.0912
 4009SOL    HW223490   3.543   4.121   7.027  1.0796 -0.2847  1.4285
 4010SOL     OW23491   1.086   2.751   2.845 -0.1337 -0.2372 -0.0548
 4010SOL    HW123492   1.065   2.845   2.845 -1.2388 -0.4911  0.4543
 4010SOL    HW223493   0.998   2.717   2.857 -0.0311 -0.4481  0.0987
 4011SOL     OW23494   2.963   0.477   5.630  0.1239  0.5445 -0.2068
 4011SOL    HW123495   2.931   0.510   5.546 -1.7967 -1.8882 -0.4263
 4011SOL    HW223496   2.903   0.405   5.651  0.3555  0.3575 -0.1914
 4012SOL     OW23497   0.500   3.644   2.866  0.3775  0.4089 -0.4385
 4012SOL    HW123498   0.412   3.668   2.839 -0.3726 -1.4742  0.3368
 4012SOL    HW223499   0.523   3.566   2.815  2.6521  0.1008  1.0388
 4013SOL     OW23500   4.444   3.607  10.610 -0.4718 -0.2236  0.1146
 4013SOL    HW123501   4.499   3.650  10.675 -1.9029 -1.8717  2.4272
 4013SOL    HW223502   4.440   3.516  10.640 -2.5138  0.4341  1.8685
 4014SOL     OW23503   3.683   0.374   0.261  0.5297  0.4827  1.0636
 4014SOL    HW123504   3.685   0.364   0.166  1.5737 -1.9862  1.3576
 4014SOL    HW223505   3.775   0.362   0.284  0.0186 -0.7623  2.5152
 4015SOL     OW23506   4.554   2.755   8.872  0.5140  0.0056 -0.6524
 4015SOL    HW123507   4.566   2.844   8.837 -2.6735  0.6280 -0.1118
 4015SOL    HW223508   4.609   2.752   8.950  1.4066  0.8991 -1.2484
 4016SOL     OW23509   1.276   3.719   0.005 -0.0161 -0.0270 -0.2713
 4016SOL    HW123510   1.240   3.683  17.610  0.8260  0.9337 -1.0655
 4016SOL    HW223511   1.205   3.714   0.070  0.6836 -2.3741  0.3555
 4017SOL     OW23512   0.130   2.581   3.026 -0.5237 -0.0279  0.4502
 4017SOL    HW123513   0.135   2.599   2.932  1.1307 -1.4413  0.2716
 4017SOL    HW223514   0.077   2.503   3.040 -1.4777  0.4545 -0.5314
 4018SOL     OW23515   4.654   0.232   3.618 -0.1123 -0.1409  0.1637
 4018SOL    HW123516   4.599   0.243   3.540  2.0348 -0.9737 -1.4925
 4018SOL    HW223517   4.598   0.164   3.654  0.7860 -0.8789  0.1728
 4019SOL     OW23518   2.428   4.355   5.335  0.4537 -0.5929  0.1778
 4019SOL    HW123519   2.490   4.342   5.263 -0.3210 -0.6246 -0.4947
 4019SOL    HW223520   2.442   4.443   5.367 -0.7210 -0.3818  0.1421
 4020SOL     OW23521   1.661   4.626   4.012 -0.1443  0.2679  0.5057
 4020SOL    HW123522   1.724   4.563   3.978 -0.9950 -0.0921 -0.4242
 4020SOL    HW223523   1.607   4.559   4.055  0.8461 -1.0409 -0.2731
 4021SOL     OW23524   2.878   1.542   2.908  0.5642  0.0392 -0.8001
 4021SOL    HW123525   2.938   1.537   2.834 -0.6292 -1.4622 -1.6867
 4021SOL    HW223526   2.869   1.637   2.911  0.8656 -0.0032  1.1697
 4022SOL     OW23527   2.714   1.587   6.041 -0.2237 -0.1956  0.2351
 4022SOL    HW123528   2.698   1.555   6.129 -1.7013  0.3777  0.1686
 4022SOL    HW223529   2.649   1.542   5.987 -0.6829  0.5271  0.1883
 4023SOL     OW23530   4.240   2.938   5.074 -0.2034 -0.0777 -0.2695
 4023SOL    HW123531   4.290   2.894   5.006 -0.0149  2.9625 -2.1351
 4023SOL    HW223532   4.218   2.877   5.144 -3.7109  0.3981 -0.9429
 4024SOL     OW23533   1.262   3.078   1.188  0.4757  0.4513  0.0558
 4024SOL    HW123534   1.309   3.075   1.271 -0.1049 -1.7766  0.3044
 4024SOL    HW223535   1.201   3.150   1.203  0.4092  1.0260 -2.9445
 4025SOL     OW23536   0.878   2.387  15.024  0.1692  0.1221  0.5623
 4025SOL    HW123537   0.892   2.449  14.953 -0.2245  0.0990  0.4651
 4025SOL    HW223538   0.875   2.302  14.980 -0.0406 -1.1383  3.0188
 4026SOL     OW23539   3.901   0.668   5.655  0.2125  0.2299  0.8865
 4026SOL    HW123540   3.827   0.647   5.598 -0.7883  1.1179  1.8608
 4026SOL    HW223541   3.862   0.717   5.726 -2.2428  0.6343 -0.7276
 4027SOL     OW23542   3.919   3.458   7.900 -0.8114 -0.1430  0.0023
 4027SOL    HW123543   3.843   3.478   7.954 -2.0749  0.4738 -2.0019
 4027SOL    HW223544   3.903   3.520   7.829 -0.8627 -0.5180 -0.3139
 4028SOL     OW23545   3.933   2.466   2.339  0.1247 -0.5050  0.3663
 4028SOL    HW123546   4.027   2.448   2.347  0.4906  1.5690  0.6839
 4028SOL    HW223547   3.908   2.435   2.426  1.6481 -2.1692  0.2264
 4029SOL     OW23548   0.609   3.470  14.528 -0.3926  0.1450  0.7833
 4029SOL    HW123549   0.590   3.411  14.455  1.1049  2.0502 -1.1340
 4029SOL    HW223550   0.667   3.530  14.481  0.2925 -1.7662 -0.8273
 4030SOL     OW23551   2.737   4.457   8.850  0.1553 -0.4334 -0.9339
 4030SOL    HW123552   2.767   4.367   8.860  1.0309 -0.2572 -1.8595
 4030SOL    HW223553   2.802   4.502   8.904 -0.7775  1.5555 -1.4671
 4031SOL     OW23554   0.453   2.600   9.402 -0.3634  0.4713 -0.7147
 4031SOL    HW123555   0.412   2.602   9.488 -0.2061  0.2153 -0.6363
 4031SOL    HW223556   0.527   2.543   9.420 -0.5685  0.3914 -0.1280
 4032SOL     OW23557   1.854   3.329  17.314 -0.0531 -0.3823  0.3860
 4032SOL    HW123558   1.934   3.377  17.293  0.5013 -0.8844  1.3620
 4032SOL    HW223559   1.791   3.383  17.267  0.1544 -0.0844  0.4530
 4033SOL     OW23560   1.619   2.289   4.229 -0.3421 -0.1472  0.2599
 4033SOL    HW123561   1.596   2.223   4.163  2.4507  0.4679 -1.3361
 4033SOL    HW223562   1.542   2.277   4.286  0.2894 -1.5106  0.8300
 4034SOL     OW23563   2.001   2.647  14.098  0.1340 -0.1303 -0.4235
 4034SOL    HW123564   2.036   2.577  14.154 -0.1810 -0.4404 -0.6159
 4034SOL    HW223565   2.054   2.631  14.020 -1.2225  1.4362 -1.6461
 4035SOL     OW23566   2.043   4.030   5.327 -0.5653 -0.5222 -0.2571
 4035SOL    HW123567   2.067   4.059   5.239 -1.6910  0.2164 -0.3174
 4035SOL    HW223568   1.989   3.955   5.304 -0.6907 -1.1071  1.8920
 4036SOL     OW23569   0.169   1.030   0.696 -0.2862 -0.6067 -0.2926
 4036SOL    HW123570   0.094   1.011   0.640 -0.0303  0.3761 -0.9641
 4036SOL    HW223571   0.129   1.062   0.776 -1.1920 -2.7694  0.1165
 4037SOL     OW23572   3.387   4.686  15.626 -0.3276 -0.4400 -0.2726
 4037SOL    HW123573   3.400   4.593  15.607 -1.2023 -1.5107  4.5261
 4037SOL    HW223574   3.441   4.718  15.553  0.7514 -3.0609 -0.6424
 4038SOL     OW23575   3.870   1.109  15.514 -0.0224 -0.0966  0.1988
 4038SOL    HW123576   3.963   1.114  15.535 -0.3213 -1.0242  1.7590
 4038SOL    HW223577   3.865   1.016  15.536 -0.3130  0.5096  2.7480
 4039SOL     OW23578   3.837   3.498   1.536 -0.0314 -0.2343 -0.0046
 4039SOL    HW123579   3.916   3.476   1.487  0.1533 -1.1378  0.7096
 4039SOL    HW223580   3.810   3.579   1.491  1.5233 -0.6659 -1.7085
 4040SOL     OW23581   4.096   1.418   0.349 -0.2499  0.0323  0.1002
 4040SOL    HW123582   4.016   1.452   0.308  0.5028  1.9706  0.2662
 4040SOL    HW223583   4.064   1.339   0.393 -1.0824  0.4750  0.2950
 4041SOL     OW23584   4.200   4.139   3.120  0.1011 -0.4392  0.0678
 4041SOL    HW123585   4.213   4.218   3.069  1.7390  0.1398  1.3486
 4041SOL    HW223586   4.246   4.068   3.076 -2.7007 -0.6933 -2.3946
 4042SOL     OW23587   3.968   0.985   3.498  0.2179  0.1669  0.1548
 4042SOL    HW123588   3.911   1.040   3.445  1.2067  1.6098  0.5929
 4042SOL    HW223589   4.010   0.933   3.430 -1.1241  0.9862 -1.2901
 4043SOL     OW23590   0.366   4.356   8.460  0.2489 -0.2058 -0.4471
 4043SOL    HW123591   0.348   4.330   8.550  1.7406  0.7748  0.1327
 4043SOL    HW223592   0.304   4.427   8.444 -0.4829 -0.7694 -0.0850
 4044SOL     OW23593   1.728   3.948   4.432  0.3479  0.6254  0.2223
 4044SOL    HW123594   1.708   3.873   4.377  3.4361 -0.7436  0.9913
 4044SOL    HW223595   1.795   3.915   4.492 -1.9484 -0.9538  1.8977
 4045SOL     OW23596   1.556   4.251  14.416 -0.1942 -0.4734 -0.4910
 4045SOL    HW123597   1.471   4.221  14.385 -0.1536  2.3527 -3.2611
 4045SOL    HW223598   1.607   4.260  14.336  0.7188 -0.7998  0.0492
 4046SOL     OW23599   1.807   3.074   6.463 -0.1136  0.0539  0.4576
 4046SOL    HW123600   1.892   3.041   6.435  0.9988  1.9502  1.6273
 4046SOL    HW223601   1.783   3.135   6.393 -0.7378 -0.9063 -0.1666
 4047SOL     OW23602   2.903   2.529   5.936 -0.2127  0.1902 -0.7094
 4047SOL    HW123603   2.819   2.484   5.931 -1.0782  1.6254  0.9706
 4047SOL    HW223604   2.901   2.563   6.025 -2.7175 -0.6786 -0.4210
 4048SOL     OW23605   3.401   3.187   5.623  0.3944 -0.1783  0.0483
 4048SOL    HW123606   3.488   3.188   5.582 -0.7511 -0.5816 -2.4012
 4048SOL    HW223607   3.353   3.220   5.547  1.7481  1.1358 -0.2344
 4049SOL     OW23608   0.031   1.864   5.185  0.8111  0.2698 -0.2763
 4049SOL    HW123609   0.071   1.950   5.177  2.5519 -0.5059  0.0194
 4049SOL    HW223610   4.661   1.883   5.208  1.7917  3.2881  1.0121
 4050SOL     OW23611   2.589   2.987  11.322  0.2019  0.0553  0.3533
 4050SOL    HW123612   2.498   3.000  11.296 -0.0083 -1.5225  0.2994
 4050SOL    HW223613   2.577   2.989  11.417  0.6356 -0.7457  0.4217
 4051SOL     OW23614   4.136   1.700   5.022 -0.4913  0.2394 -0.5036
 4051SOL    HW123615   4.132   1.753   5.101  0.7233  1.9661 -1.5936
 4051SOL    HW223616   4.045   1.692   4.995  0.0055  1.2570 -2.5062
 4052SOL     OW23617   3.883   0.524   5.952 -0.4044 -0.3918 -0.0979
 4052SOL    HW123618   3.848   0.504   6.039 -1.6372  1.2057 -0.2256
 4052SOL    HW223619   3.816   0.564   5.896  0.1775  0.7128  0.0074
 4053SOL     OW23620   0.550   0.056   4.527 -0.1871  0.5572  0.2523
 4053SOL    HW123621   0.560   4.706   4.463 -2.2383 -1.0237  1.6758
 4053SOL    HW223622   0.512   0.124   4.471 -1.9452 -1.0689 -0.5328
 4054SOL     OW23623   3.258   2.792   2.552  0.3319 -0.1827  0.0936
 4054SOL    HW123624   3.354   2.784   2.553  0.4277  0.8260 -0.8877
 4054SOL    HW223625   3.236   2.731   2.622  1.7719  2.2083  2.6388
 4055SOL     OW23626   2.968   3.491  13.171  0.2668  0.1117 -0.0767
 4055SOL    HW123627   2.957   3.552  13.098  0.5022 -0.2966 -0.4525
 4055SOL    HW223628   2.980   3.409  13.122  0.2100  0.0612 -0.0054
 4056SOL     OW23629   2.825   1.229   0.064 -0.0438  0.2016  0.5460
 4056SOL    HW123630   2.789   1.256   0.149  2.4611  1.4841  1.1957
 4056SOL    HW223631   2.760   1.272   0.007  0.4500  1.5382  0.9903
 4057SOL     OW23632   1.407   1.715   9.561 -0.8048  0.0147 -0.1278
 4057SOL    HW123633   1.472   1.676   9.504  0.7419  0.5420  1.2804
 4057SOL    HW223634   1.398   1.654   9.635 -1.0693 -0.3366 -0.4497
 4058SOL     OW23635   0.695   1.249   0.487  0.3969 -0.4991 -0.2217
 4058SOL    HW123636   0.750   1.267   0.563 -1.2311 -0.0343  0.8483
 4058SOL    HW223637   0.617   1.204   0.520 -1.3274  2.1998 -0.5632
 4059SOL     OW23638   4.236   4.112  14.207 -0.1564  0.6902 -0.3471
 4059SOL    HW123639   4.271   4.023  14.203 -0.9189  0.3665  0.1489
 4059SOL    HW223640   4.212   4.111  14.300  2.9643  1.6948  0.4637
 4060SOL     OW23641   3.910   3.117   1.450  0.3562  0.3282 -0.2132
 4060SOL    HW123642   3.867   3.148   1.371 -1.7882 -2.5334 -0.1819
 4060SOL    HW223643   3.901   3.188   1.514 -0.9547 -0.0587  0.0349
 4061SOL     OW23644   1.461   0.663   7.276 -0.4626  0.0122 -0.2089
 4061SOL    HW123645   1.490   0.575   7.300 -0.5592 -0.3747 -1.5311
 4061SOL    HW223646   1.466   0.705   7.362 -0.3536 -0.6904  0.1298
 4062SOL     OW23647   1.826   2.835   4.531 -0.2748 -0.5851  0.8982
 4062SOL    HW123648   1.756   2.829   4.467 -0.3420 -2.5198  1.1329
 4062SOL    HW223649   1.801   2.760   4.585 -1.5145  1.2454  2.8514
 4063SOL     OW23650   4.224   3.657   3.914  0.3017 -0.1223 -0.2099
 4063SOL    HW123651   4.158   3.714   3.876  0.2298 -1.4477 -2.0866
 4063SOL    HW223652   4.176   3.577   3.932 -1.0664  0.7311 -0.1235
 4064SOL     OW23653   1.186   3.840   6.174 -0.1554  0.3773 -0.3132
 4064SOL    HW123654   1.205   3.934   6.176 -0.3415  0.4595 -3.1358
 4064SOL    HW223655   1.157   3.806   6.089  0.1915 -3.2087  1.0103
 4065SOL     OW23656   3.789   0.052   2.527  0.0908  0.0913 -0.6579
 4065SOL    HW123657   3.727   0.108   2.574  0.1948  0.6681 -1.2084
 4065SOL    HW223658   3.738   0.049   2.446 -1.0731  1.3451  0.0252
 4066SOL     OW23659   1.436   4.612  10.214 -0.6483  0.4455 -0.9120
 4066SOL    HW123660   1.528   4.585  10.220 -1.5762 -1.7933  3.6042
 4066SOL    HW223661   1.391   4.550  10.271  1.8558 -0.4766  0.0602
 4067SOL     OW23662   2.271   4.366   1.071  0.0268  0.6687  0.0885
 4067SOL    HW123663   2.265   4.427   1.145  0.7261 -0.9220  1.4882
 4067SOL    HW223664   2.366   4.358   1.077 -0.2088 -0.6921  2.4199
 4068SOL     OW23665   2.894   0.475   4.703  0.1093 -0.1979  0.2391
 4068SOL    HW123666   2.860   0.472   4.792  0.5360  1.9266  0.4679
 4068SOL    HW223667   2.931   0.563   4.704  1.1268 -0.6356  0.5494
 4069SOL     OW23668   1.289   0.326   2.040  0.0823  0.3384  0.3197
 4069SOL    HW123669   1.205   0.355   2.003  0.2943  0.9204  0.2974
 4069SOL    HW223670   1.269   0.234   2.024  1.1186  0.1866 -0.0857
 4070SOL     OW23671   1.526   2.652  16.259 -0.1569 -0.4317 -0.4695
 4070SOL    HW123672   1.532   2.606  16.343 -0.9060 -0.2960 -0.3438
 4070SOL    HW223673   1.431   2.646  16.247 -0.2699  0.7904 -0.1996
 4071SOL     OW23674   3.075   1.601   9.335 -0.1201  0.2117 -0.3584
 4071SOL    HW123675   3.012   1.574   9.402  1.8972 -0.0612  1.4174
 4071SOL    HW223676   3.058   1.693   9.315 -1.4414  0.0624  0.0851
 4072SOL     OW23677   0.291   1.569   3.238  0.0941  0.6162 -0.0289
 4072SOL    HW123678   0.199   1.591   3.224  0.4485  2.7085  0.9829
 4072SOL    HW223679   0.337   1.627   3.178 -0.6823  1.0973 -0.1594
 4073SOL     OW23680   2.209   3.015   8.470 -0.0126  0.3962 -0.3248
 4073SOL    HW123681   2.234   3.027   8.378  0.8515  1.6506  0.0708
 4073SOL    HW223682   2.273   2.947   8.490  0.1706  0.8064  0.4538
 4074SOL     OW23683   1.935   4.192   1.635 -0.6694  0.1407 -0.0768
 4074SOL    HW123684   1.959   4.284   1.631 -0.1781 -0.0769 -2.0338
 4074SOL    HW223685   1.868   4.200   1.702  1.6804  2.1946  2.0070
 4075SOL     OW23686   4.197   3.618  15.062 -0.2724 -0.0431  0.0638
 4075SOL    HW123687   4.104   3.640  15.055  0.4425  3.3098  1.1352
 4075SOL    HW223688   4.239   3.667  14.991  0.2029  1.1036  1.1325
 4076SOL     OW23689   4.109   1.459   1.070  0.3848  0.2712  0.1112
 4076SOL    HW123690   4.144   1.378   1.033 -1.0063 -0.6083  0.7255
 4076SOL    HW223691   4.018   1.455   1.044  0.8131  0.6763 -1.4104
 4077SOL     OW23692   0.109   2.074   1.215  0.2086  0.5152 -0.5448
 4077SOL    HW123693   0.039   2.068   1.280  1.3229 -1.2125  0.5043
 4077SOL    HW223694   0.187   2.030   1.250  0.1364  1.4026  0.7307
 4078SOL     OW23695   0.815   0.882   6.602 -0.2202 -0.4652  0.5734
 4078SOL    HW123696   0.877   0.872   6.531  0.8563  3.0395  1.0404
 4078SOL    HW223697   0.808   0.794   6.640 -1.2884 -1.0386 -0.9550
 4079SOL     OW23698   2.338   1.356  13.071 -0.1796  0.2087  0.2435
 4079SOL    HW123699   2.432   1.343  13.059 -0.3206  0.1542 -0.7953
 4079SOL    HW223700   2.337   1.451  13.081  4.5990  0.0470  2.1421
 4080SOL     OW23701   0.120   3.092   8.361 -0.5637  0.0486  0.5831
 4080SOL    HW123702   0.058   3.101   8.433 -0.8380  1.3230  0.1897
 4080SOL    HW223703   0.079   3.018   8.317 -0.9650  0.9594 -0.5833
 4081SOL     OW23704   1.791   1.213   0.843  0.6953 -0.1388  0.0590
 4081SOL    HW123705   1.838   1.264   0.777  0.4616  1.0009  0.7649
 4081SOL    HW223706   1.846   1.225   0.921  1.2323  0.4546 -0.4119
 4082SOL     OW23707   2.801   2.370   2.769  0.2066 -0.1305  0.5613
 4082SOL    HW123708   2.767   2.303   2.828  2.6955 -0.7638  1.2412
 4082SOL    HW223709   2.733   2.365   2.702  0.0374 -0.3791  0.7517
 4083SOL     OW23710   1.119   1.549   1.417 -0.3458  0.8437  0.6363
 4083SOL    HW123711   1.033   1.556   1.458 -0.9743  0.1284 -0.5639
 4083SOL    HW223712   1.121   1.613   1.346 -1.3007  0.6295  0.4204
 4084SOL     OW23713   1.637   3.392   6.024 -0.3891 -0.5136  0.4119
 4084SOL    HW123714   1.592   3.336   6.088  0.6857 -1.0122  0.7323
 4084SOL    HW223715   1.717   3.342   6.008 -1.3564 -1.0194 -2.9008
 4085SOL     OW23716   0.213   4.170   5.380  0.0748  0.4056 -0.5048
 4085SOL    HW123717   0.291   4.114   5.387  0.2506  0.4450 -2.1414
 4085SOL    HW223718   0.256   4.244   5.338 -0.3494  0.6284 -0.5441
 4086SOL     OW23719   2.405   1.114   1.612  0.4652 -0.5039  0.0787
 4086SOL    HW123720   2.422   1.049   1.680 -2.7839 -0.8489  0.5956
 4086SOL    HW223721   2.328   1.145   1.660 -0.7817 -2.9036 -0.3877
 4087SOL     OW23722   4.205   4.171   8.307  0.3573 -0.5168 -0.4903
 4087SOL    HW123723   4.194   4.238   8.375  1.9144  1.2392 -1.9500
 4087SOL    HW223724   4.292   4.133   8.319  0.5433 -0.0747 -0.4161
 4088SOL     OW23725   3.607   1.277   4.822  0.2286 -0.9183  0.4071
 4088SOL    HW123726   3.659   1.355   4.837 -1.5596  0.8608 -2.6782
 4088SOL    HW223727   3.514   1.296   4.833  0.3409  0.7583 -1.6690
 4089SOL     OW23728   1.425   1.373   3.569 -0.8951 -0.2406 -0.1959
 4089SOL    HW123729   1.449   1.438   3.503 -1.9627  0.1063 -0.2458
 4089SOL    HW223730   1.467   1.291   3.544 -1.5089 -0.2371 -1.2248
 4090SOL     OW23731   4.387   1.633   7.421 -0.4598 -0.3933  0.3222
 4090SOL    HW123732   4.302   1.590   7.413 -1.2585  1.1461  0.4913
 4090SOL    HW223733   4.422   1.560   7.473 -0.2977 -0.1484  0.5591
 4091SOL     OW23734   1.409   3.881   1.748 -0.0679 -0.5007 -0.1651
 4091SOL    HW123735   1.472   3.950   1.727  1.4011 -1.6826  0.3029
 4091SOL    HW223736   1.375   3.852   1.664 -1.1673 -0.6016  0.3067
 4092SOL     OW23737   1.149   3.518   6.513 -0.1091 -0.0942 -0.3986
 4092SOL    HW123738   1.167   3.500   6.605 -2.6454  0.3807  0.1870
 4092SOL    HW223739   1.061   3.556   6.510 -0.3684 -0.7545 -1.2605
 4093SOL     OW23740   4.209   3.229  12.987 -0.1624 -0.1765  0.1447
 4093SOL    HW123741   4.237   3.228  13.078 -2.1961 -0.2524  0.7698
 4093SOL    HW223742   4.127   3.180  12.991 -0.7587  0.6747 -1.5843
 4094SOL     OW23743   2.846   0.805   8.033 -0.0027  0.4059  0.2921
 4094SOL    HW123744   2.787   0.784   8.106 -0.8819  1.1175 -0.2165
 4094SOL    HW223745   2.861   0.898   8.047  0.1732  0.5734 -1.0578
 4095SOL     OW23746   3.393   4.131   2.692  0.1539 -0.0056 -0.5398
 4095SOL    HW123747   3.427   4.071   2.758  1.0343  2.0070  0.8184
 4095SOL    HW223748   3.422   4.217   2.723 -0.0452 -0.6045  1.2777
 4096SOL     OW23749   1.384   1.705   4.947  0.2537  0.2732 -0.2025
 4096SOL    HW123750   1.348   1.745   5.026 -0.2496  1.6909 -1.1405
 4096SOL    HW223751   1.474   1.691   4.975 -0.9048 -0.7525  3.0668
 4097SOL     OW23752   2.497   3.807   0.243  0.2627  0.3406  0.4552
 4097SOL    HW123753   2.471   3.871   0.310 -0.8831 -0.2109  0.5408
 4097SOL    HW223754   2.491   3.725   0.292  1.3293  0.0107  0.0267
 4098SOL     OW23755   3.918   3.844  14.798  0.6469 -0.4378 -0.8154
 4098SOL    HW123756   3.842   3.791  14.776  0.1950  0.4847 -1.4995
 4098SOL    HW223757   3.879   3.932  14.800 -0.9915 -1.1333 -2.1751
 4099SOL     OW23758   1.950   4.702  12.373  0.2839 -0.5126 -0.0521
 4099SOL    HW123759   1.875   0.010  12.321  1.0151  2.9283  0.8148
 4099SOL    HW223760   2.015   0.048  12.350  0.4861 -0.3117  1.0963
 4100SOL     OW23761   1.276   2.201  12.585 -0.1732 -0.0780 -0.2518
 4100SOL    HW123762   1.302   2.293  12.573 -0.6824  0.0340 -0.4790
 4100SOL    HW223763   1.354   2.146  12.584 -1.6064 -2.0899 -0.2295
 4101SOL     OW23764   2.664   2.011  10.880  0.3264  0.1175 -0.5665
 4101SOL    HW123765   2.590   2.066  10.855  0.3320 -0.1967 -1.2974
 4101SOL    HW223766   2.730   2.077  10.900  1.3586 -1.8960  2.6586
 4102SOL     OW23767   1.361   2.895   1.042 -0.1202 -0.0783 -0.4292
 4102SOL    HW123768   1.449   2.892   1.079  0.5798 -1.3162 -2.1849
 4102SOL    HW223769   1.323   2.958   1.103 -2.7186 -0.2774 -1.8224
 4103SOL     OW23770   0.201   3.493  12.664 -0.0174 -0.0252 -0.2579
 4103SOL    HW123771   0.157   3.578  12.657  2.9278  1.3389 -1.9320
 4103SOL    HW223772   0.288   3.532  12.662 -0.5329  1.1298 -0.3031
 4104SOL     OW23773   0.768   0.355  16.461  0.5271 -0.1786 -0.0561
 4104SOL    HW123774   0.840   0.293  16.448 -0.2577 -0.3572 -3.4065
 4104SOL    HW223775   0.744   0.368  16.369  0.3480 -0.4052 -0.0392
 4105SOL     OW23776   0.438   1.409   8.528 -0.0197 -0.1760 -0.3796
 4105SOL    HW123777   0.413   1.326   8.487  2.1630 -0.4317 -1.1578
 4105SOL    HW223778   0.531   1.424   8.511 -0.1130 -1.3236 -1.8945
 4106SOL     OW23779   4.604   4.417   4.286  0.5205  0.1913 -0.0263
 4106SOL    HW123780   4.659   4.496   4.291 -1.6595  1.8884 -2.9323
 4106SOL    HW223781   4.531   4.449   4.233  0.8964  0.4081 -0.4154
 4107SOL     OW23782   3.822   3.948   3.166  0.4016 -0.7762  0.0908
 4107SOL    HW123783   3.778   3.903   3.094 -1.4687 -0.4485  1.0101
 4107SOL    HW223784   3.911   3.915   3.160  0.9555  0.3349  2.1013
 4108SOL     OW23785   2.019   3.523   3.019 -0.2117 -0.3185  0.7798
 4108SOL    HW123786   2.038   3.595   3.080  1.9363 -0.3578  0.1848
 4108SOL    HW223787   2.104   3.479   3.017 -1.1065 -2.1254  2.0464
 4109SOL     OW23788   1.288   1.520   1.063  0.2866 -0.6601 -0.0438
 4109SOL    HW123789   1.358   1.485   1.119  0.4299 -0.5534 -0.1569
 4109SOL    HW223790   1.323   1.566   0.987  0.5728 -1.2002 -0.2409
 4110SOL     OW23791   4.537   3.523   6.117 -0.3806 -0.0765  0.0970
 4110SOL    HW123792   4.563   3.514   6.026  0.9596 -1.6024  0.6358
 4110SOL    HW223793   4.532   3.617   6.137 -1.6565 -0.2424  0.5572
 4111SOL     OW23794   3.757   1.481   6.281  0.1111  0.0469 -0.3938
 4111SOL    HW123795   3.699   1.406   6.293 -0.5297  0.5195 -0.5231
 4111SOL    HW223796   3.783   1.475   6.189  0.0160  1.9680 -0.5485
 4112SOL     OW23797   2.537   4.250   1.131 -0.1157  0.1115 -0.1307
 4112SOL    HW123798   2.612   4.266   1.073 -0.3463 -0.8187 -0.6822
 4112SOL    HW223799   2.508   4.162   1.108  1.6280 -0.3882 -0.4482
 4113SOL     OW23800   4.215   0.323   4.750  0.1561 -0.0236  0.4410
 4113SOL    HW123801   4.302   0.302   4.785  0.7645  0.9222 -0.5182
 4113SOL    HW223802   4.220   0.303   4.656 -2.3962 -0.0085  0.3131
 4114SOL     OW23803   0.179   1.720   6.092 -0.2794  0.2765 -0.2270
 4114SOL    HW123804   0.149   1.804   6.127 -1.1878  0.8982 -2.4847
 4114SOL    HW223805   0.229   1.762   6.022  0.3451  0.7679  0.5180
 4115SOL     OW23806   1.944   3.020  13.614 -0.1204  0.3736 -0.3280
 4115SOL    HW123807   2.020   2.987  13.662 -0.4024 -0.8889 -0.7557
 4115SOL    HW223808   1.881   2.973  13.667 -0.7535  0.5742 -0.9109
 4116SOL     OW23809   1.255   4.408   7.402 -0.6338  0.6104  0.6952
 4116SOL    HW123810   1.245   4.331   7.347 -0.3784  0.5486  0.7351
 4116SOL    HW223811   1.211   4.484   7.363  0.1795  0.8695  0.2642
 4117SOL     OW23812   2.355   2.778   4.985 -0.6906  0.0545 -0.8067
 4117SOL    HW123813   2.444   2.744   4.987 -0.6592  0.1927  0.1848
 4117SOL    HW223814   2.371   2.845   4.918  0.0463  0.3273 -0.3553
 4118SOL     OW23815   3.721   2.272  14.534 -0.3600 -0.0259 -0.1663
 4118SOL    HW123816   3.735   2.223  14.453  1.9502 -0.9823  0.8264
 4118SOL    HW223817   3.778   2.231  14.599  2.8009  2.7681 -1.1868
 4119SOL     OW23818   4.345   0.688  15.711  0.4989 -0.2430  0.2618
 4119SOL    HW123819   4.281   0.618  15.712 -0.1377  0.3417  0.1240
 4119SOL    HW223820   4.289   0.762  15.735  0.5485 -0.8469  2.3016
 4120SOL     OW23821   3.030   2.651   3.141  0.0705 -0.4704 -0.6283
 4120SOL    HW123822   3.088   2.666   3.216 -3.5064  0.8698  1.8652
 4120SOL    HW223823   2.976   2.729   3.142  2.8728  1.4778 -0.0410
 4121SOL     OW23824   1.316   3.680   8.940 -0.5875 -0.1600  0.3217
 4121SOL    HW123825   1.269   3.673   8.857 -0.3345  1.1948  0.0625
 4121SOL    HW223826   1.270   3.760   8.968  0.7414  0.6550  0.1665
 4122SOL     OW23827   1.873   0.722  17.554  0.4469  0.8660 -0.1189
 4122SOL    HW123828   1.910   0.719  17.466 -2.0859  0.1665 -1.1588
 4122SOL    HW223829   1.782   0.699  17.534  0.6624 -0.8085  0.7852
 4123SOL     OW23830   3.977   3.415  15.454  0.0912 -0.0849  0.4305
 4123SOL    HW123831   3.918   3.375  15.519  1.6134 -0.1819  1.7507
 4123SOL    HW223832   3.919   3.400  15.380  0.4498 -0.0742  0.1487
 4124SOL     OW23833   2.297   3.070  16.470 -0.4127 -0.2788  0.2136
 4124SOL    HW123834   2.326   2.979  16.483 -0.3467 -0.3934 -0.7221
 4124SOL    HW223835   2.377   3.105  16.432 -0.5118  0.6626  0.8760
 4125SOL     OW23836   2.826   3.342  15.406  0.2271  0.7617  0.3175
 4125SOL    HW123837   2.802   3.361  15.497 -0.2437 -2.9962  1.0110
 4125SOL    HW223838   2.746   3.365  15.359  0.6103  0.3468 -0.5480
 4126SOL     OW23839   0.494   2.590  14.251 -0.3911  0.1605 -0.4540
 4126SOL    HW123840   0.536   2.648  14.314 -2.7030 -0.5657  1.7340
 4126SOL    HW223841   0.570   2.533  14.242  0.0571  0.9314 -1.5351
 4127SOL     OW23842   4.420   3.888   8.616  0.7242 -0.4578  0.4857
 4127SOL    HW123843   4.503   3.917   8.655  1.2761  0.0641 -1.0694
 4127SOL    HW223844   4.412   3.808   8.668  3.8009 -1.6700 -0.9352
 4128SOL     OW23845   0.967   3.414  14.524  0.1977  0.4302  0.2798
 4128SOL    HW123846   1.054   3.397  14.559 -0.7727  0.1534  2.5453
 4128SOL    HW223847   0.935   3.483  14.581  3.1507  2.4720 -0.5337
 4129SOL     OW23848   3.620   2.057   5.806  0.0918  0.1130 -0.2379
 4129SOL    HW123849   3.568   2.125   5.849  0.3585 -0.6345  1.2792
 4129SOL    HW223850   3.619   1.981   5.864  0.7260  0.5155  0.3076
 4130SOL     OW23851   0.657   1.058  14.692 -0.3522 -0.3013  0.1447
 4130SOL    HW123852   0.750   1.080  14.697 -0.3062 -0.4532 -0.0175
 4130SOL    HW223853   0.642   0.990  14.757 -0.2872 -0.5326 -0.0802
 4131SOL     OW23854   1.571   1.004   5.646 -0.2562 -0.7753 -0.0762
 4131SOL    HW123855   1.575   0.958   5.730  1.9958 -1.5437 -0.6117
 4131SOL    HW223856   1.477   1.011   5.626 -0.3193  0.1212  0.5562
 4132SOL     OW23857   0.195   3.059  13.992 -0.4902 -0.1424  0.1302
 4132SOL    HW123858   0.231   3.004  14.061  0.8024 -0.4941 -0.8122
 4132SOL    HW223859   0.261   3.053  13.923  0.5876 -3.5074  1.4456
 4133SOL     OW23860   1.595   4.447   2.973  0.3804  0.3175 -0.1536
 4133SOL    HW123861   1.629   4.374   2.922 -1.5553 -0.5103 -0.2826
 4133SOL    HW223862   1.578   4.406   3.058 -1.7034  0.2521 -0.5817
 4134SOL     OW23863   0.034   0.711  15.454 -0.0849 -0.5667  0.0448
 4134SOL    HW123864   4.720   0.722  15.542 -1.4816  1.4538 -0.7742
 4134SOL    HW223865   0.070   0.797  15.432 -0.5267 -0.0787  1.2774
 4135SOL     OW23866   2.732   0.310   4.131 -0.1196  0.0195  0.0234
 4135SOL    HW123867   2.662   0.353   4.180  0.3594 -0.0540  0.7639
 4135SOL    HW223868   2.681   0.279   4.056 -1.7390  1.6410  0.4411
 4136SOL     OW23869   2.280   2.948   1.933 -0.1908  0.5853  0.3613
 4136SOL    HW123870   2.189   2.921   1.926  0.5482 -1.3592 -1.7351
 4136SOL    HW223871   2.278   3.006   1.857 -0.8533  1.4747  1.0566
 4137SOL     OW23872   1.169   0.348  16.296 -0.2785  0.1170  0.1099
 4137SOL    HW123873   1.223   0.402  16.354 -0.0721 -0.3054  0.3057
 4137SOL    HW223874   1.221   0.350  16.215 -0.1851 -1.3255  0.1423
 4138SOL     OW23875   2.329   0.673   6.046 -0.5764  0.2936  0.0804
 4138SOL    HW123876   2.305   0.733   6.117 -3.5438 -0.5182 -0.2468
 4138SOL    HW223877   2.327   0.733   5.971 -0.4579 -0.1424 -0.2693
 4139SOL     OW23878   4.024   0.967   4.892 -0.6285 -0.1668  0.1408
 4139SOL    HW123879   4.009   0.972   4.798 -1.6116 -2.6318  0.1466
 4139SOL    HW223880   4.008   1.056   4.923 -0.9488 -0.3951  0.6497
 4140SOL     OW23881   3.766   1.728   6.920  0.1713 -0.3239 -0.5114
 4140SOL    HW123882   3.695   1.703   6.861  2.8089 -3.3797 -2.3663
 4140SOL    HW223883   3.741   1.817   6.946  2.7997  0.0567  0.7197
 4141SOL     OW23884   3.954   1.253  13.453  0.4375 -0.2433  0.4734
 4141SOL    HW123885   3.896   1.254  13.529  0.1405 -1.5382  0.2719
 4141SOL    HW223886   4.040   1.248  13.494  1.3992  0.3146 -1.5146
 4142SOL     OW23887   1.725   2.612   3.124 -0.2964 -0.1644  0.2372
 4142SOL    HW123888   1.815   2.601   3.093 -0.6102  0.6034 -0.9770
 4142SOL    HW223889   1.673   2.545   3.080 -1.9708  1.6726 -0.6006
 4143SOL     OW23890   4.158   3.772  12.285  0.3627 -0.7041  0.2146
 4143SOL    HW123891   4.104   3.694  12.292 -0.5614 -0.0523  0.2830
 4143SOL    HW223892   4.241   3.730  12.261  0.3654  0.5031 -1.8920
 4144SOL     OW23893   3.080   4.318   2.105 -0.1317 -0.3306  0.3055
 4144SOL    HW123894   3.147   4.319   2.174 -1.0653  1.6087  1.1838
 4144SOL    HW223895   3.054   4.410   2.103  1.1453  0.0355  0.3782
 4145SOL     OW23896   2.356   1.307   5.004 -0.0390 -0.1558 -0.8654
 4145SOL    HW123897   2.275   1.266   5.035 -0.2568  1.4942  0.7796
 4145SOL    HW223898   2.416   1.302   5.078 -0.1031 -0.0162 -0.8043
 4146SOL     OW23899   0.309   0.263   7.552  0.3098 -0.8949  0.1001
 4146SOL    HW123900   0.325   0.353   7.524  1.8617 -0.5259  2.1469
 4146SOL    HW223901   0.343   0.218   7.475  1.0333  1.1702 -0.8026
 4147SOL     OW23902   0.792   0.113  11.636 -0.5368 -0.4507  0.2788
 4147SOL    HW123903   0.879   0.083  11.664 -0.7064  1.0146  2.3639
 4147SOL    HW223904   0.786   0.205  11.662 -3.6384 -0.9842  1.3652
 4148SOL     OW23905   0.827   1.671   1.502 -0.3011  0.7447 -0.2386
 4148SOL    HW123906   0.815   1.709   1.415 -1.3236  1.6531  0.3009
 4148SOL    HW223907   0.766   1.596   1.507  0.8780 -0.1783  0.3799
 4149SOL     OW23908   3.305   0.803   8.207  0.4580 -0.1071  0.2924
 4149SOL    HW123909   3.235   0.827   8.268  0.6511  1.3484 -0.0594
 4149SOL    HW223910   3.379   0.809   8.268 -1.0664  2.3905  1.9131
 4150SOL     OW23911   3.088   3.748   5.918 -0.0089  0.5364 -0.2595
 4150SOL    HW123912   3.074   3.828   5.868  0.1289  1.6484  1.4954
 4150SOL    HW223913   3.114   3.681   5.855 -1.1484 -0.0940 -0.0622
 4151SOL     OW23914   1.158   2.702  12.194  0.0810  0.3831  0.7268
 4151SOL    HW123915   1.160   2.797  12.199  0.1955  0.4751 -0.8859
 4151SOL    HW223916   1.240   2.676  12.236  1.0104  1.0388 -0.6597
 4152SOL     OW23917   4.566   4.612   0.645  0.2543  0.2666  0.0234
 4152SOL    HW123918   4.658   4.603   0.619  0.5671  0.9932  0.8342
 4152SOL    HW223919   4.569   4.708   0.651  0.9740  0.1235  2.0364
 4153SOL     OW23920   2.627   1.309  13.309 -0.1956  0.0703 -0.2036
 4153SOL    HW123921   2.552   1.358  13.277 -2.4007 -2.0564  1.7356
 4153SOL    HW223922   2.692   1.339  13.245 -0.5689 -0.6193 -0.9175
 4154SOL     OW23923   2.332   3.608  14.169 -0.1865  0.0032  0.7649
 4154SOL    HW123924   2.373   3.694  14.178 -1.2988  0.7892 -1.7004
 4154SOL    HW223925   2.389   3.571  14.102 -1.8704  1.7387 -1.6328
 4155SOL     OW23926   0.652   1.930   6.312  0.0527 -0.3676 -0.0277
 4155SOL    HW123927   0.678   1.937   6.220 -0.2693 -1.9739 -0.2428
 4155SOL    HW223928   0.566   1.969   6.302  1.0065  1.3159 -1.6251
 4156SOL     OW23929   1.784   3.775   4.634  0.4813 -0.0186  0.1516
 4156SOL    HW123930   1.855   3.818   4.682 -0.5319  0.5628  1.1241
 4156SOL    HW223931   1.730   3.754   4.709 -1.5413 -3.6312 -2.3195
 4157SOL     OW23932   2.165   4.359   3.705  0.0611 -0.0293  0.2485
 4157SOL    HW123933   2.225   4.433   3.709  1.8066 -1.4948  1.1734
 4157SOL    HW223934   2.224   4.290   3.675  0.8233  1.0697 -0.7566
 4158SOL     OW23935   0.480   0.443   8.715 -0.5016  0.0107 -0.0657
 4158SOL    HW123936   0.504   0.401   8.633 -0.9693 -1.8704  0.7640
 4158SOL    HW223937   0.386   0.440   8.697 -0.2722  1.2058 -1.5206
 4159SOL     OW23938   1.055   3.652   5.070 -0.6018 -0.4287 -0.6267
 4159SOL    HW123939   0.989   3.612   5.014 -0.8670 -0.7832 -0.0629
 4159SOL    HW223940   1.013   3.646   5.156 -1.2019 -0.5370 -0.9257
 4160SOL     OW23941   1.389   1.156  10.668 -0.1077  0.4697  0.3258
 4160SOL    HW123942   1.411   1.065  10.690 -2.0182 -0.0323  0.1441
 4160SOL    HW223943   1.470   1.185  10.627 -1.2462  1.3818 -1.2776
 4161SOL     OW23944   4.264   2.603   2.575 -0.1416  0.3505 -0.6771
 4161SOL    HW123945   4.224   2.536   2.519  0.3232 -0.7805  0.3244
 4161SOL    HW223946   4.260   2.682   2.521 -3.3760 -0.8077 -2.1852
 4162SOL     OW23947   3.603   2.149   9.828  0.0267  0.7639 -0.4363
 4162SOL    HW123948   3.578   2.064   9.866  0.6377 -0.0160 -1.7799
 4162SOL    HW223949   3.542   2.209   9.870 -1.3272 -1.9272  1.4964
 4163SOL     OW23950   0.509   2.759   9.648  0.1440  0.7610  0.4765
 4163SOL    HW123951   0.484   2.801   9.566  0.9908 -1.3489 -0.8415
 4163SOL    HW223952   0.513   2.830   9.713  1.0804  0.5973  0.5912
 4164SOL     OW23953   0.773   0.032   9.148 -0.3103  0.0213  0.1799
 4164SOL    HW123954   0.856   0.008   9.189  1.0829 -0.1842 -2.7263
 4164SOL    HW223955   0.792   0.008   9.057 -0.5883  2.6020 -0.5684
 4165SOL     OW23956   2.226   3.427   9.343  0.5728 -0.1468  0.1687
 4165SOL    HW123957   2.130   3.429   9.342  0.6095  0.8141 -0.4491
 4165SOL    HW223958   2.237   3.502   9.285  0.8406  0.4963  1.0448
 4166SOL     OW23959   3.658   3.341   5.088  0.2973 -0.2290  0.2260
 4166SOL    HW123960   3.600   3.371   5.018 -0.3609 -2.0100  0.0180
 4166SOL    HW223961   3.735   3.399   5.081 -0.8614  1.1094 -1.5721
 4167SOL     OW23962   2.399   4.345   8.159  0.5673 -0.2813 -0.6281
 4167SOL    HW123963   2.370   4.433   8.137  0.4414 -0.2313 -0.2633
 4167SOL    HW223964   2.315   4.301   8.150  0.2421  0.1084  0.5024
 4168SOL     OW23965   2.059   1.634   7.544  0.4695  0.4724 -0.0058
 4168SOL    HW123966   2.153   1.643   7.562  0.9948 -1.9581 -1.5323
 4168SOL    HW223967   2.019   1.673   7.622 -0.7261 -0.9882  0.0903
 4169SOL     OW23968   1.397   4.124   7.677  0.0394 -0.2844 -0.3296
 4169SOL    HW123969   1.459   4.073   7.625  1.3866  0.8844  0.1279
 4169SOL    HW223970   1.451   4.197   7.708  0.6614  0.2579 -2.6744
 4170SOL     OW23971   4.479   0.232   4.725  0.1816  0.6472  0.4329
 4170SOL    HW123972   4.477   0.141   4.695 -1.9668  0.4364  1.2096
 4170SOL    HW223973   4.498   0.283   4.646  0.0304 -0.7492 -0.4921
 4171SOL     OW23974   2.418   2.359   7.870 -0.1881 -0.1898  0.7154
 4171SOL    HW123975   2.411   2.269   7.839 -0.0907 -0.6395  1.9930
 4171SOL    HW223976   2.490   2.357   7.933  0.3939  0.3191  0.0651
 4172SOL     OW23977   2.167   4.670   6.748  0.0046  0.1535  0.0505
 4172SOL    HW123978   2.142   0.011   6.817 -1.6336 -0.4843  0.0298
 4172SOL    HW223979   2.188   4.585   6.788  0.8935  0.1383 -0.4437
 4173SOL     OW23980   2.532   3.045   4.820 -0.2940 -0.3808 -0.3026
 4173SOL    HW123981   2.465   3.006   4.763 -1.0810 -2.2662  1.9572
 4173SOL    HW223982   2.596   3.083   4.759  0.9281  0.5054  1.5524
 4174SOL     OW23983   0.029   0.433   5.382  0.7251  0.1448 -0.0048
 4174SOL    HW123984   4.663   0.418   5.344 -0.0620 -0.3306  1.9671
 4174SOL    HW223985   0.024   0.356   5.439 -0.2081 -0.6975 -1.2115
 4175SOL     OW23986   1.863   2.877  12.729 -0.9821  0.3123 -0.2595
 4175SOL    HW123987   1.920   2.803  12.709 -0.6347  0.6087 -0.3558
 4175SOL    HW223988   1.884   2.933  12.654  1.8280 -3.0885 -2.0052
 4176SOL     OW23989   4.401   0.863   0.662 -0.5029  0.5703 -0.6419
 4176SOL    HW123990   4.492   0.884   0.641  0.1948 -2.1375 -0.2813
 4176SOL    HW223991   4.412   0.841   0.754 -1.2461 -1.4652 -1.0469
 4177SOL     OW23992   3.444   3.367   6.080 -0.1694 -0.1483  0.2486
 4177SOL    HW123993   3.376   3.342   6.018 -0.9124 -0.8499  1.3534
 4177SOL    HW223994   3.522   3.318   6.055  0.2378  1.5760 -1.9024
 4178SOL     OW23995   1.251   2.738   6.927  0.2340  0.3081  0.2787
 4178SOL    HW123996   1.185   2.685   6.971 -0.2878 -0.0416 -0.9485
 4178SOL    HW223997   1.206   2.822   6.916 -2.9786 -1.2122  2.0240
 4179SOL     OW23998   3.958   3.125   0.798  0.2244  0.5473 -0.2814
 4179SOL    HW123999   3.969   3.089   0.886  1.5410 -1.3711 -1.2265
 4179SOL    HW224000   4.032   3.098   0.743  0.3487 -0.5394  0.4088
 4180SOL     OW24001   1.509   3.701   4.549  0.5499 -0.2874  1.0268
 4180SOL    HW124002   1.526   3.702   4.643 -0.2804 -3.5640  1.2001
 4180SOL    HW224003   1.580   3.761   4.525  0.1698  0.0444  0.7432
 4181SOL     OW24004   2.491   0.692   6.972  0.4592 -0.1825 -0.0562
 4181SOL    HW124005   2.510   0.680   7.065 -0.1025 -0.6814  0.0001
 4181SOL    HW224006   2.410   0.643   6.955 -0.2075  0.8843  0.0579
 4182SOL     OW24007   1.809   4.605   7.170  0.4427 -0.7127 -0.7660
 4182SOL    HW124008   1.799   4.574   7.260 -0.5602  0.5253 -0.4508
 4182SOL    HW224009   1.748   4.678   7.155 -0.2590 -1.4241 -1.3999
 4183SOL     OW24010   1.995   2.711   3.165 -0.1542 -0.4110  0.1645
 4183SOL    HW124011   1.992   2.652   3.090  1.9934  1.8628 -1.7538
 4183SOL    HW224012   1.973   2.792   3.119 -1.2979 -1.4867 -1.1759
 4184SOL     OW24013   2.037   0.476   2.047  0.1595 -0.0685 -0.3441
 4184SOL    HW124014   2.083   0.462   1.964 -2.4786  0.2348 -1.8819
 4184SOL    HW224015   1.979   0.548   2.021  0.5650  0.0485 -0.9192
 4185SOL     OW24016   2.364   0.695   5.295  0.2886  0.1296  0.4920
 4185SOL    HW124017   2.381   0.649   5.377 -0.2199 -0.0410  0.5005
 4185SOL    HW224018   2.454   0.715   5.269 -1.2004  4.0496 -1.7215
 4186SOL     OW24019   2.543   3.450   3.608  0.2394 -0.5828 -0.6588
 4186SOL    HW124020   2.615   3.428   3.667  0.2470 -2.4200 -1.3301
 4186SOL    HW224021   2.574   3.399   3.532  2.0146  1.4634 -1.3206
 4187SOL     OW24022   0.452   3.121  12.979  0.1507  0.3453  0.4837
 4187SOL    HW124023   0.484   3.209  13.001 -1.0576  0.7414  0.6359
 4187SOL    HW224024   0.523   3.073  12.936  0.1804 -1.4461  2.5263
 4188SOL     OW24025   3.167   2.580   6.903  0.0829 -0.5156  0.0007
 4188SOL    HW124026   3.138   2.668   6.878  0.9589 -0.0728  0.5315
 4188SOL    HW224027   3.089   2.525   6.900 -0.5069  0.1868  2.2107
 4189SOL     OW24028   3.668   0.847  14.010 -0.3225 -0.2836 -0.2079
 4189SOL    HW124029   3.710   0.912  13.953 -1.5077  1.0607  0.4502
 4189SOL    HW224030   3.579   0.880  13.996 -0.3679  1.1233  3.5337
 4190SOL     OW24031   4.362   4.090  12.125 -0.7749 -0.1415  0.0955
 4190SOL    HW124032   4.342   4.170  12.076 -0.9067  2.0287  3.7512
 4190SOL    HW224033   4.274   4.053  12.116 -0.2807 -2.0735  3.1406
 4191SOL     OW24034   0.125   2.890   2.823 -0.2352 -0.1910 -0.1987
 4191SOL    HW124035   0.145   2.975   2.783 -1.2252  0.3494  0.4414
 4191SOL    HW224036   0.198   2.832   2.806 -1.3823 -1.9917  0.9892
 4192SOL     OW24037   1.071   4.305   7.615  0.2817  0.8493 -0.6171
 4192SOL    HW124038   1.079   4.401   7.622 -0.4666  0.7161  2.0228
 4192SOL    HW224039   1.144   4.267   7.565 -0.1186 -1.2670  0.4352
 4193SOL     OW24040   3.188   2.425   7.185 -0.5337 -0.3987  0.0968
 4193SOL    HW124041   3.265   2.388   7.142  0.2308  1.3082 -0.0301
 4193SOL    HW224042   3.174   2.500   7.127  0.8540 -0.0753  0.1611
 4194SOL     OW24043   3.148   0.544   7.537  0.0007 -0.0789 -0.3911
 4194SOL    HW124044   3.083   0.513   7.600  1.4415 -1.4705  0.4007
 4194SOL    HW224045   3.106   0.627   7.515 -0.1165  0.0766  0.4181
 4195SOL     OW24046   2.974   1.937  11.272 -1.0524 -0.2924 -0.0488
 4195SOL    HW124047   3.004   2.013  11.222 -1.9213  0.1907  0.1621
 4195SOL    HW224048   3.028   1.875  11.223 -1.0155 -0.4206  0.1540
 4196SOL     OW24049   2.759   2.075   7.409 -0.4248  0.5044  0.1696
 4196SOL    HW124050   2.747   2.061   7.502  1.1483  1.1193  0.4755
 4196SOL    HW224051   2.742   1.988   7.372 -0.3432  0.9874 -0.9968
 4197SOL     OW24052   1.246   4.244   9.202  0.2859  0.2195  0.3450
 4197SOL    HW124053   1.262   4.150   9.200  1.4854  0.4354  0.0183
 4197SOL    HW224054   1.176   4.251   9.136 -1.6640 -1.0933  2.2772
 4198SOL     OW24055   1.641   1.814  10.534  0.3672 -0.7471  0.0255
 4198SOL    HW124056   1.706   1.834  10.602  1.4133 -0.6347 -1.0182
 4198SOL    HW224057   1.685   1.858  10.462 -1.5821 -1.9092 -1.8687
 4199SOL     OW24058   0.938   3.005   4.130 -0.9905 -0.3574  0.5983
 4199SOL    HW124059   0.873   3.074   4.117 -1.3460 -0.6682  0.7499
 4199SOL    HW224060   0.934   2.996   4.225  1.4767 -0.2529  0.7148
 4200SOL     OW24061   2.503   4.454  10.552 -0.0129 -0.4233  0.1477
 4200SOL    HW124062   2.414   4.427  10.573 -0.4251  0.6149 -0.2720
 4200SOL    HW224063   2.549   4.442  10.635 -0.0012 -0.6167  0.1139
 4201SOL     OW24064   4.014   4.527   5.892 -0.1833 -0.1778  0.2329
 4201SOL    HW124065   4.082   4.469   5.857 -1.1733 -0.6847 -0.8231
 4201SOL    HW224066   4.037   4.523   5.985 -0.4791 -0.8010  0.2777
 4202SOL     OW24067   3.767   2.056   2.793 -0.6101  0.4131 -0.4929
 4202SOL    HW124068   3.701   1.994   2.762 -0.3717  0.8552 -1.8685
 4202SOL    HW224069   3.842   2.027   2.742 -0.8084  0.1267 -0.6191
 4203SOL     OW24070   1.631   2.631  10.000 -0.2110 -0.1468  0.1452
 4203SOL    HW124071   1.722   2.639   9.970 -0.4656 -0.4792 -0.6938
 4203SOL    HW224072   1.623   2.698  10.068  3.7143  0.8616 -0.3947
 4204SOL     OW24073   3.293   2.344  12.053  0.0808  0.5438 -0.2024
 4204SOL    HW124074   3.233   2.340  11.979 -1.8332 -2.1569  1.4756
 4204SOL    HW224075   3.309   2.250  12.065 -1.1693  0.4366  0.6278
 4205SOL     OW24076   3.482   1.570   5.200 -0.0498  0.0738  0.2095
 4205SOL    HW124077   3.411   1.588   5.139 -0.5015 -0.6633  0.5268
 4205SOL    HW224078   3.559   1.620   5.171  1.0694 -1.9583 -0.3572
 4206SOL     OW24079   0.972   4.650   0.705 -0.6017 -0.9740  0.3050
 4206SOL    HW124080   0.953   0.016   0.669 -0.9310 -0.3962  1.8657
 4206SOL    HW224081   0.949   4.671   0.795  0.3208  0.9120  0.0841
 4207SOL     OW24082   1.827   0.222   6.214 -0.0236  0.1105 -0.2782
 4207SOL    HW124083   1.785   0.135   6.211  0.7413 -0.2944  1.0333
 4207SOL    HW224084   1.849   0.214   6.306  1.6813 -0.1799 -0.7170
 4208SOL     OW24085   1.691   1.018  13.494 -0.2700 -0.1813 -0.2022
 4208SOL    HW124086   1.607   0.998  13.534 -0.6735  0.4153 -0.7466
 4208SOL    HW224087   1.727   0.930  13.507  1.7151  0.1980 -3.0350
 4209SOL     OW24088   1.423   2.311   1.607 -0.2082 -1.3848 -0.2468
 4209SOL    HW124089   1.362   2.237   1.601 -1.1222 -0.7236  0.8868
 4209SOL    HW224090   1.478   2.291   1.682  0.2037 -1.6406 -0.6210
 4210SOL     OW24091   2.788   2.953   0.316 -0.2272  0.3030 -0.5941
 4210SOL    HW124092   2.836   2.937   0.234 -0.5266 -1.3507 -0.4400
 4210SOL    HW224093   2.782   3.047   0.301  1.7153  0.9715  2.7534
 4211SOL     OW24094   0.549   0.599   6.303  0.3580  0.1149 -0.3658
 4211SOL    HW124095   0.582   0.565   6.220 -2.1200 -1.5459 -0.6771
 4211SOL    HW224096   0.568   0.692   6.293 -1.8649  0.6191  0.0904
 4212SOL     OW24097   4.498   4.055  12.946 -0.1631  0.1728 -0.1010
 4212SOL    HW124098   4.486   3.967  12.910  0.7279 -1.1768  2.8466
 4212SOL    HW224099   4.463   4.107  12.874 -1.9069  1.4186  1.6515
 4213SOL     OW24100   0.842   1.709   8.714 -0.2010  0.1615 -0.2189
 4213SOL    HW124101   0.933   1.725   8.737 -0.3664 -0.7641  1.0404
 4213SOL    HW224102   0.801   1.796   8.713 -0.4839  0.0209 -1.3771
 4214SOL     OW24103   2.367   1.070  13.247 -0.2844 -0.5952  0.1464
 4214SOL    HW124104   2.395   1.074  13.155  1.6439 -1.0621  0.7196
 4214SOL    HW224105   2.292   1.129  13.240  1.4936  1.6138 -0.6327
 4215SOL     OW24106   1.357   3.548   3.686 -0.1252  0.7293 -0.6765
 4215SOL    HW124107   1.415   3.487   3.642  0.3235  1.2738 -0.8415
 4215SOL    HW224108   1.360   3.515   3.776  1.5973  0.7167 -0.7473
 4216SOL     OW24109   2.319   3.713  11.021  0.0997  0.2176 -0.5326
 4216SOL    HW124110   2.228   3.685  11.020  0.6767 -1.6472  0.0610
 4216SOL    HW224111   2.327   3.738  11.113  3.4176 -0.0962 -0.7194
 4217SOL     OW24112   4.427   2.317   7.402  0.2993 -0.2262  0.0723
 4217SOL    HW124113   4.424   2.412   7.404 -1.7683 -0.2747 -1.1596
 4217SOL    HW224114   4.344   2.302   7.447  0.4069  1.6995  0.9222
 4218SOL     OW24115   0.428   2.595   6.229  0.8495  0.0255 -0.3805
 4218SOL    HW124116   0.490   2.523   6.217  2.3285  0.9892  1.4868
 4218SOL    HW224117   0.384   2.567   6.309  0.7644 -0.5697 -0.6376
 4219SOL     OW24118   1.927   2.621   6.054  0.2177 -0.1553  0.4419
 4219SOL    HW124119   1.876   2.553   6.009  1.1885 -0.0486 -0.7995
 4219SOL    HW224120   1.853   2.659   6.102  0.5794 -0.3782  1.1747
 4220SOL     OW24121   4.366   3.670   8.800 -0.2095 -0.0535 -0.1744
 4220SOL    HW124122   4.385   3.605   8.867 -4.1154 -1.0196  0.0384
 4220SOL    HW224123   4.391   3.610   8.730 -1.8831  2.5667 -3.0448
 4221SOL     OW24124   3.220   4.555   8.908 -0.3887 -0.3483  0.0514
 4221SOL    HW124125   3.279   4.488   8.874 -1.6215 -1.6792  0.4804
 4221SOL    HW224126   3.184   4.594   8.828  2.1557 -2.1038 -1.9399
 4222SOL     OW24127   3.623   1.157   8.047 -0.1220 -0.2929  0.1596
 4222SOL    HW124128   3.602   1.137   8.139 -0.3856 -0.8715 -0.0261
 4222SOL    HW224129   3.688   1.226   8.058  0.8080 -1.0880 -0.3708
 4223SOL     OW24130   0.240   1.115  13.738  0.0680 -0.0870 -0.1320
 4223SOL    HW124131   0.171   1.053  13.761 -0.6584  1.3784  1.5706
 4223SOL    HW224132   0.291   1.122  13.819 -0.7480  2.3561  0.1877
 4224SOL     OW24133   3.247   1.455   7.211  0.1743 -0.0011 -0.0035
 4224SOL    HW124134   3.300   1.380   7.237 -0.3827 -0.5081 -0.3314
 4224SOL    HW224135   3.217   1.428   7.124  1.1936  1.5865 -0.8475
 4225SOL     OW24136   1.947   1.566   1.368  0.3055 -0.4420 -0.4211
 4225SOL    HW124137   2.008   1.637   1.347  1.3734 -1.4512 -0.7489
 4225SOL    HW224138   1.962   1.514   1.289  1.1519 -1.2297  0.2564
 4226SOL     OW24139   1.561   4.297  12.703  0.3104  0.7898 -0.0814
 4226SOL    HW124140   1.572   4.210  12.740 -0.1038  0.3934 -0.8883
 4226SOL    HW224141   1.474   4.319  12.737  0.1339  1.3713 -0.8932
 4227SOL     OW24142   2.067   3.258   8.518  0.0130  0.6488  0.7546
 4227SOL    HW124143   2.117   3.335   8.494  1.7558 -0.3320  1.2120
 4227SOL    HW224144   2.135   3.204   8.560 -0.6855 -0.5540  0.3551
 4228SOL     OW24145   4.010   3.627  16.355 -0.4945 -0.0802  0.3668
 4228SOL    HW124146   4.092   3.674  16.340 -0.9579  0.6328  0.0268
 4228SOL    HW224147   3.987   3.644  16.446 -2.5984 -0.9219 -0.0151
 4229SOL     OW24148   3.837   2.883   1.283 -0.4279 -0.1018  0.1487
 4229SOL    HW124149   3.746   2.912   1.282 -0.2878  0.3457  0.2139
 4229SOL    HW224150   3.881   2.957   1.326  2.0322 -2.0816  1.0887
 4230SOL     OW24151   4.036   1.003   2.541 -0.2503  0.8347 -0.0775
 4230SOL    HW124152   3.974   1.001   2.469 -2.9708  2.6905  2.2066
 4230SOL    HW224153   4.115   0.960   2.509  1.0025  2.1092  1.2538
 4231SOL     OW24154   0.176   4.647   1.690  0.6055  0.4859 -1.1781
 4231SOL    HW124155   0.163   4.671   1.781  2.7131  2.1595 -1.3201
 4231SOL    HW224156   0.272   4.648   1.686  0.7004 -1.5891  0.5554
 4232SOL     OW24157   3.931   0.675   4.462  0.0908  0.6444  0.3086
 4232SOL    HW124158   3.840   0.704   4.467 -0.1886 -0.4388  1.3951
 4232SOL    HW224159   3.930   0.637   4.550  0.4339 -0.1060 -0.0085
 4233SOL     OW24160   2.187   1.204   1.752  0.5733  0.4195 -0.4571
 4233SOL    HW124161   2.251   1.272   1.772 -0.8523  1.4985  0.4378
 4233SOL    HW224162   2.104   1.239   1.784  1.6975  2.8477 -0.1877
 4234SOL     OW24163   0.569   0.615   4.877  0.1025  0.0564  0.4705
 4234SOL    HW124164   0.527   0.594   4.960 -2.6431 -0.9399 -1.1740
 4234SOL    HW224165   0.627   0.540   4.862 -0.9234 -0.2723 -1.8674
 4235SOL     OW24166   0.212   3.421   9.297 -0.5092  0.5072 -0.4419
 4235SOL    HW124167   0.293   3.472   9.291 -0.1285 -0.2863 -1.8510
 4235SOL    HW224168   0.202   3.410   9.203 -0.1868 -1.9491 -0.1823
 4236SOL     OW24169   1.724   0.397   6.651 -0.0642 -0.1918  0.1807
 4236SOL    HW124170   1.660   0.460   6.683  0.8326  1.9261 -2.1942
 4236SOL    HW224171   1.787   0.396   6.723  1.0443 -0.3174 -0.7734
 4237SOL     OW24172   2.984   3.541  16.873 -0.1244 -0.1837  0.3800
 4237SOL    HW124173   3.033   3.530  16.791  0.0322  0.2069  0.4192
 4237SOL    HW224174   3.058   3.526  16.933 -0.6585 -1.1598  0.7852
 4238SOL     OW24175   1.063   2.939   5.192  0.2861 -0.0222  0.7256
 4238SOL    HW124176   1.080   3.032   5.204  0.8503 -0.0618  0.2152
 4238SOL    HW224177   1.012   2.949   5.112  0.1737 -1.2523  0.6339
 4239SOL     OW24178   2.458   2.406   7.145  0.4400 -0.1016  0.6730
 4239SOL    HW124179   2.453   2.311   7.149  2.5670 -0.2189  0.4322
 4239SOL    HW224180   2.522   2.416   7.215  0.5225  0.9108  0.4545
 4240SOL     OW24181   3.074   0.496   2.551 -0.3963  0.1496 -0.8415
 4240SOL    HW124182   3.029   0.420   2.512  0.8153 -0.8471 -0.2803
 4240SOL    HW224183   3.154   0.492   2.499  0.0252 -0.6858 -0.1237
 4241SOL     OW24184   2.259   4.190   3.953  0.1643 -0.4721 -0.5613
 4241SOL    HW124185   2.268   4.206   3.859 -1.3958  0.5475 -0.5288
 4241SOL    HW224186   2.187   4.127   3.953 -0.5350  0.3186  0.4154
 4242SOL     OW24187   2.930   3.425   4.697  0.5987  0.2679 -0.0309
 4242SOL    HW124188   2.854   3.473   4.664 -1.1334 -2.1062  0.5266
 4242SOL    HW224189   2.985   3.420   4.619  1.1821  0.2410  0.3844
 4243SOL     OW24190   4.553   2.202   9.131  0.2605  0.0651 -0.1735
 4243SOL    HW124191   4.594   2.285   9.106 -1.1169  0.1777 -2.0164
 4243SOL    HW224192   4.634   2.151   9.134  0.3332  0.1453 -0.8809
 4244SOL     OW24193   2.542   4.201  11.755  0.2586 -0.2396  0.3632
 4244SOL    HW124194   2.535   4.120  11.706 -3.0622  0.3657 -0.1127
 4244SOL    HW224195   2.589   4.245  11.684  1.3229 -0.9133  0.6422
 4245SOL     OW24196   2.791   3.640  14.329  0.2852 -0.0969 -0.3100
 4245SOL    HW124197   2.818   3.551  14.352 -0.8072 -0.8591 -2.0439
 4245SOL    HW224198   2.792   3.645  14.234  4.2801 -0.0498 -0.2902
 4246SOL     OW24199   1.487   1.071   8.669  0.4823 -0.0321 -0.7036
 4246SOL    HW124200   1.516   1.107   8.754  1.7486 -1.3349 -0.5892
 4246SOL    HW224201   1.475   0.981   8.700  1.6329  0.1820  0.3795
 4247SOL     OW24202   2.330   4.179   6.292 -0.3458 -0.1511  0.1505
 4247SOL    HW124203   2.267   4.251   6.297 -0.4110 -0.1728 -0.4255
 4247SOL    HW224204   2.354   4.168   6.200 -0.0187  0.4973  0.1588
 4248SOL     OW24205   0.569   0.650  13.658  0.0965 -0.3500  0.5291
 4248SOL    HW124206   0.566   0.556  13.675  1.5937 -0.5705 -0.4491
 4248SOL    HW224207   0.478   0.679  13.657  0.4420  0.7285  0.0391
 4249SOL     OW24208   1.905   1.586   3.607  0.2403 -0.3817  0.4437
 4249SOL    HW124209   1.904   1.491   3.613 -0.2202 -0.4986 -1.6308
 4249SOL    HW224210   1.865   1.598   3.521 -0.0650 -0.1127  0.6216
 4250SOL     OW24211   2.194   1.139  11.040 -0.3694  0.4269 -0.6124
 4250SOL    HW124212   2.178   1.174  11.127  0.2483 -1.1532  0.1327
 4250SOL    HW224213   2.105   1.131  11.005 -1.0715  1.0232  1.0519
 4251SOL     OW24214   3.223   4.283   3.206  0.4711 -0.1060 -0.6446
 4251SOL    HW124215   3.318   4.271   3.195  0.5881 -0.2517  0.4783
 4251SOL    HW224216   3.212   4.224   3.131 -4.5892  3.6848 -2.8700
 4252SOL     OW24217   0.402   0.369   6.018 -0.6169 -0.5464  1.1343
 4252SOL    HW124218   0.407   0.274   6.023 -2.4040 -0.5535  2.7360
 4252SOL    HW224219   0.340   0.395   6.086  0.5125  1.2548  1.4752
 4253SOL     OW24220   3.015   0.869  16.034  0.3757 -0.4400  0.0626
 4253SOL    HW124221   2.952   0.810  15.993 -0.1492 -1.7464  2.7703
 4253SOL    HW224222   3.007   0.933  15.963 -2.7930 -1.4284 -0.4832
 4254SOL     OW24223   2.998   1.999   8.040  0.4154 -0.1273  0.0840
 4254SOL    HW124224   3.035   1.911   8.033  1.0265  0.1843 -0.5542
 4254SOL    HW224225   3.043   2.038   8.115  0.2577 -1.2466  0.7786
 4255SOL     OW24226   4.381   0.794   5.348  0.3706  0.1053  0.2660
 4255SOL    HW124227   4.318   0.723   5.362  0.4858 -0.5120 -2.3995
 4255SOL    HW224228   4.325   0.861   5.308  0.7474  1.6029  2.2271
 4256SOL     OW24229   4.408   4.335   3.698 -0.5263  0.1967 -0.1594
 4256SOL    HW124230   4.413   4.362   3.607  0.9197  1.1380  0.2036
 4256SOL    HW224231   4.502   4.334   3.714 -0.0354  2.5551 -2.8428
 4257SOL     OW24232   4.536   1.372   6.603 -0.2889 -0.5124  0.2157
 4257SOL    HW124233   4.629   1.382   6.582  0.1884  0.1676  2.5992
 4257SOL    HW224234   4.510   1.319   6.528 -1.3692  2.2763 -1.3559
 4258SOL     OW24235   4.243   2.451   3.551  0.0515 -0.0801 -0.3573
 4258SOL    HW124236   4.337   2.455   3.537 -0.0198  2.4810 -0.0615
 4258SOL    HW224237   4.239   2.394   3.628 -1.1700  1.1707  0.5083
 4259SOL     OW24238   4.607   2.573   8.582 -0.1841 -0.3263 -0.6002
 4259SOL    HW124239   4.661   2.644   8.549 -1.9614 -0.1179 -3.0852
 4259SOL    HW224240   4.525   2.608   8.548  0.0804  1.5495  0.7421
 4260SOL     OW24241   4.340   3.015   8.912 -0.1216  0.3959 -0.2410
 4260SOL    HW124242   4.388   3.094   8.939  0.7440  0.3764 -1.6902
 4260SOL    HW224243   4.315   3.036   8.822  1.9048 -0.0516 -0.9157
 4261SOL     OW24244   3.322   4.579   0.136  0.1970 -0.1553 -0.2311
 4261SOL    HW124245   3.364   4.565   0.221 -1.7831  0.3995  0.8438
 4261SOL    HW224246   3.383   4.624   0.077  1.0514 -1.8233 -0.6405
 4262SOL     OW24247   1.268   1.245   3.754  0.1246 -0.7372  0.5267
 4262SOL    HW124248   1.318   1.267   3.675  0.3908 -0.5944  0.7382
 4262SOL    HW224249   1.342   1.222   3.810  1.3132  1.4290 -0.1590
 4263SOL     OW24250   1.560   2.944   3.991  0.1292  0.8022  0.6470
 4263SOL    HW124251   1.555   2.857   3.952 -0.8987  1.2225 -0.1691
 4263SOL    HW224252   1.496   2.922   4.059 -2.0033 -0.3716 -1.7560
 4264SOL     OW24253   1.801   3.376  11.277 -0.0946  0.3256  0.3777
 4264SOL    HW124254   1.847   3.310  11.224  0.2724 -0.7807  2.0648
 4264SOL    HW224255   1.859   3.451  11.293  0.9044 -0.6873  1.5095
 4265SOL     OW24256   1.924   2.998   4.248  0.4249  0.2254 -0.0495
 4265SOL    HW124257   1.840   2.958   4.268  0.7783 -0.9655 -0.9767
 4265SOL    HW224258   1.890   3.055   4.179  1.2856  1.1171  0.2598
 4266SOL     OW24259   3.594   2.906   3.917  0.3333 -0.1516  0.3049
 4266SOL    HW124260   3.520   2.869   3.964 -0.0094  1.0368  0.7106
 4266SOL    HW224261   3.638   2.956   3.986 -4.7833  0.9140  2.8082
 4267SOL     OW24262   4.069   1.934  15.894 -0.4286  0.2134  0.0712
 4267SOL    HW124263   4.065   1.986  15.974 -2.5686 -2.6025  1.7971
 4267SOL    HW224264   4.165   1.937  15.884 -0.3017 -1.4079  0.7507
 4268SOL     OW24265   4.652   1.853  10.054  0.2117 -0.2104 -0.4584
 4268SOL    HW124266   4.605   1.936  10.045 -0.5602 -0.6800 -0.8123
 4268SOL    HW224267   0.002   1.876  10.114 -0.9894 -2.2066  1.7667
 4269SOL     OW24268   3.389   1.372  13.325 -0.0450 -0.9929  0.0668
 4269SOL    HW124269   3.373   1.351  13.417 -0.7175 -2.1323 -0.3069
 4269SOL    HW224270   3.484   1.359  13.318  0.4284  1.5777  1.6977
 4270SOL     OW24271   4.640   0.715  15.075  0.7394  0.5976  0.1778
 4270SOL    HW124272   4.649   0.628  15.115 -0.7016  0.8570  1.0638
 4270SOL    HW224273   0.003   0.726  15.029  0.5637  1.0064 -0.0371
 4271SOL     OW24274   3.256   1.118  13.339 -0.3137  0.0174 -0.5967
 4271SOL    HW124275   3.304   1.201  13.348 -1.4585  0.8678 -2.1484
 4271SOL    HW224276   3.174   1.131  13.388  0.6121  1.6269  0.5256
 4272SOL     OW24277   3.410   0.742  15.618 -0.4245 -0.2970  0.9048
 4272SOL    HW124278   3.420   0.799  15.542 -1.1580 -1.4425 -0.0311
 4272SOL    HW224279   3.455   0.785  15.691  2.5103 -0.4620 -0.8036
 4273SOL     OW24280   3.561   2.472  13.688 -0.5989  0.3396  0.0966
 4273SOL    HW124281   3.585   2.447  13.599 -2.3993 -0.8868 -0.0447
 4273SOL    HW224282   3.629   2.428  13.739 -0.4836  1.7271  1.1504
 4274SOL     OW24283   0.812   0.258   0.830  0.3462 -0.0748  0.5481
 4274SOL    HW124284   0.785   0.348   0.849  1.8084  0.4388  0.2197
 4274SOL    HW224285   0.803   0.223   0.918  0.5331 -0.3807  0.4462
 4275SOL     OW24286   1.583   4.314   0.812  0.2081 -0.1573  0.2674
 4275SOL    HW124287   1.551   4.397   0.776  2.6436  0.2255 -1.0580
 4275SOL    HW224288   1.588   4.324   0.907 -2.0589  0.5970  0.2945
 4276SOL     OW24289   1.269   3.193   5.809 -0.2847 -0.2709  0.1743
 4276SOL    HW124290   1.196   3.147   5.768  0.6124 -1.8710  0.3229
 4276SOL    HW224291   1.322   3.116   5.831  0.1825  0.8519  2.9321
 4277SOL     OW24292   2.569   1.503   1.982  0.0074  0.6673  0.1248
 4277SOL    HW124293   2.565   1.535   1.892  1.9371 -3.1179 -1.2518
 4277SOL    HW224294   2.503   1.434   1.973  2.0881 -1.3584  0.6953
 4278SOL     OW24295   3.859   4.580  11.574 -0.0034  0.0685 -0.1392
 4278SOL    HW124296   3.777   4.551  11.615 -1.2285  3.1473 -0.4411
 4278SOL    HW224297   3.892   4.647  11.633 -3.2439  1.5151  0.0385
 4279SOL     OW24298   4.524   1.342  13.487  0.0955 -0.0236 -0.1308
 4279SOL    HW124299   4.584   1.312  13.419  1.3136  1.1929  0.4107
 4279SOL    HW224300   4.575   1.414  13.525 -2.7552  1.4251  0.9607
 4280SOL     OW24301   0.571   2.381   1.340  0.3175  0.1485  0.4320
 4280SOL    HW124302   0.645   2.437   1.364  0.5030 -0.5126  1.3756
 4280SOL    HW224303   0.623   2.312   1.298  1.5235 -0.3097  2.6654
 4281SOL     OW24304   0.962   1.724   8.270 -0.1005  0.0301 -0.0658
 4281SOL    HW124305   1.025   1.729   8.198 -2.1891 -0.9700 -1.9762
 4281SOL    HW224306   1.003   1.794   8.319  0.1302  0.6750 -1.1844
 4282SOL     OW24307   2.990   2.098   0.780  0.5235  0.0692 -0.6891
 4282SOL    HW124308   3.009   2.188   0.755 -2.5703  1.4400  1.9713
 4282SOL    HW224309   3.012   2.041   0.706 -1.6375  0.2236 -1.4300
 4283SOL     OW24310   4.352   4.593   0.490  0.3809  0.3500 -0.5092
 4283SOL    HW124311   4.344   4.500   0.473  2.6884  0.2243 -0.8034
 4283SOL    HW224312   4.431   4.591   0.545  1.8736  1.8894 -2.6103
 4284SOL     OW24313   0.711   1.713   4.278  0.2768  0.5097  0.1981
 4284SOL    HW124314   0.746   1.626   4.259 -1.0398  0.2511 -1.0521
 4284SOL    HW224315   0.628   1.692   4.322  0.7622  0.4695  1.0795
 4285SOL     OW24316   0.346   2.726   3.124 -0.6720 -0.1346 -0.5890
 4285SOL    HW124317   0.309   2.800   3.077 -1.4436  0.7391  1.3816
 4285SOL    HW224318   0.288   2.656   3.093 -0.2142 -1.5209  1.6839
 4286SOL     OW24319   1.548   1.020   2.119  0.4954 -0.2622 -0.3485
 4286SOL    HW124320   1.541   0.960   2.044  2.3040  1.3612 -1.8526
 4286SOL    HW224321   1.462   1.061   2.113 -0.1179 -1.7173 -1.4879
 4287SOL     OW24322   2.458   3.412  11.526  0.3415 -0.2213 -0.0959
 4287SOL    HW124323   2.445   3.324  11.563 -1.6797 -0.4761 -1.4794
 4287SOL    HW224324   2.489   3.382  11.440  1.7114 -1.5527  0.8448
 4288SOL     OW24325   2.952   4.457  13.818  0.9482 -0.2181  0.2343
 4288SOL    HW124326   2.883   4.401  13.854  2.8703 -1.5078  1.9173
 4288SOL    HW224327   2.966   4.411  13.735  4.2047 -0.2243  0.7767
 4289SOL     OW24328   3.905   3.288   1.926 -0.2920 -0.2942  0.6286
 4289SOL    HW124329   3.922   3.324   2.013  0.3600  2.2665 -0.5534
 4289SOL    HW224330   3.993   3.303   1.894 -0.9189 -0.4337 -1.1705
 4290SOL     OW24331   1.106   4.387   1.246  0.4450 -0.3326  0.3405
 4290SOL    HW124332   1.081   4.443   1.320  1.5933 -0.2881  0.7025
 4290SOL    HW224333   1.163   4.332   1.299  1.1567  1.8165  1.8316
 4291SOL     OW24334   1.527   3.506   5.156 -0.1103  0.4399  0.4529
 4291SOL    HW124335   1.547   3.505   5.062  1.8749  2.4106  0.8697
 4291SOL    HW224336   1.616   3.504   5.190  0.8192 -2.8416 -2.1554
 4292SOL     OW24337   0.991   2.132   7.496 -0.0089  0.0367 -0.1593
 4292SOL    HW124338   0.946   2.048   7.501 -1.4139  0.6196 -3.1351
 4292SOL    HW224339   0.962   2.169   7.580  1.2870 -0.6016  0.5793
 4293SOL     OW24340   3.575   3.152  12.572 -0.0972  0.0942  0.4979
 4293SOL    HW124341   3.600   3.067  12.610  1.4847 -0.1206 -1.0308
 4293SOL    HW224342   3.656   3.175  12.526 -1.3176  0.7273 -1.3180
 4294SOL     OW24343   3.231   2.511   4.435  0.7753 -0.0933  0.3015
 4294SOL    HW124344   3.254   2.579   4.498 -1.1577 -0.2501  1.1917
 4294SOL    HW224345   3.199   2.566   4.363 -1.9735  0.6259  2.0407
 4295SOL     OW24346   3.661   3.459   5.338 -0.7916 -0.2520  0.0409
 4295SOL    HW124347   3.669   3.392   5.406  0.4359 -0.8028 -0.6439
 4295SOL    HW224348   3.633   3.410   5.261  0.7995 -1.7404  0.4125
 4296SOL     OW24349   4.382   3.975   3.008  0.3704 -0.1288  0.0473
 4296SOL    HW124350   4.465   4.019   2.992 -0.2498  1.2868  0.7743
 4296SOL    HW224351   4.417   3.886   3.019 -1.4664 -0.8761 -0.0433
 4297SOL     OW24352   2.667   3.828   6.849  0.0436  0.3269  0.3211
 4297SOL    HW124353   2.641   3.917   6.825 -1.6090 -0.2838 -0.2291
 4297SOL    HW224354   2.649   3.780   6.767  1.7638 -0.2533  0.2819
 4298SOL     OW24355   1.174   1.831   6.391  0.2001 -0.2017  0.1970
 4298SOL    HW124356   1.183   1.926   6.398 -0.1392 -0.0698 -1.0804
 4298SOL    HW224357   1.246   1.804   6.447  0.6161 -0.2876 -0.3843
 4299SOL     OW24358   0.180   3.288  14.331 -0.1580 -0.2848 -0.0272
 4299SOL    HW124359   0.146   3.375  14.309 -0.4108 -0.3602  0.0656
 4299SOL    HW224360   0.105   3.233  14.354  0.8827 -1.8067 -0.2776
 4300SOL     OW24361   1.111   4.234  10.453  0.0543 -0.4918  0.1530
 4300SOL    HW124362   1.154   4.169  10.508 -0.3197 -1.8589 -1.1551
 4300SOL    HW224363   1.068   4.178  10.388 -0.7891 -0.9159  1.0781
 4301SOL     OW24364   0.074   3.127   7.580  0.5922 -0.4290  0.2168
 4301SOL    HW124365   4.705   3.098   7.598  0.3917  0.2222  0.2706
 4301SOL    HW224366   0.121   3.133   7.664  1.2050  0.4669 -0.1921
 4302SOL     OW24367   3.855   1.862   9.740  0.2244 -0.7108  0.1327
 4302SOL    HW124368   3.774   1.879   9.788 -0.8700 -1.1357 -1.5401
 4302SOL    HW224369   3.820   1.828   9.658 -1.2156  1.2423 -0.0669
 4303SOL     OW24370   1.769   0.223   7.199 -0.1146 -0.0725  0.3542
 4303SOL    HW124371   1.720   0.173   7.132 -1.7793 -2.8029  3.5957
 4303SOL    HW224372   1.825   0.289   7.159 -0.3983  0.3969  0.7419
 4304SOL     OW24373   2.350   4.607  11.713  0.2121  0.1372 -0.3088
 4304SOL    HW124374   2.256   4.590  11.702  0.2653 -1.0474  1.1404
 4304SOL    HW224375   2.331   4.695  11.746 -0.3742 -0.2244  0.3299
 4305SOL     OW24376   2.028   1.293   8.188  0.0042 -0.4934  0.0954
 4305SOL    HW124377   1.934   1.312   8.191  0.0937 -0.1608  0.6024
 4305SOL    HW224378   2.052   1.289   8.280  0.2328  3.4261  0.2091
 4306SOL     OW24379   3.086   0.796   6.503  0.0443 -0.3679  0.2113
 4306SOL    HW124380   3.030   0.718   6.509 -0.2527 -0.1829 -0.1585
 4306SOL    HW224381   3.125   0.791   6.591 -0.4377  2.4845  0.5815
 4307SOL     OW24382   0.691   0.486   5.528 -0.1294 -0.1365 -0.6038
 4307SOL    HW124383   0.713   0.407   5.579  2.0163  0.3740 -0.7391
 4307SOL    HW224384   0.595   0.486   5.534 -0.1179  1.1772 -0.4435
 4308SOL     OW24385   1.062   3.982   8.528 -0.4226 -0.0512  0.1999
 4308SOL    HW124386   1.105   3.913   8.477 -0.7377  2.1519 -3.0073
 4308SOL    HW224387   1.109   3.970   8.611 -0.9372 -2.2347  0.1647
 4309SOL     OW24388   0.783   3.923  10.209  0.5501 -0.2625 -0.1196
 4309SOL    HW124389   0.721   3.939  10.281 -1.3963  0.2621 -1.9056
 4309SOL    HW224390   0.855   3.972  10.246 -0.4470  2.6870 -2.1436
 4310SOL     OW24391   4.555   1.750   5.822  0.5698  0.5360  0.4860
 4310SOL    HW124392   4.537   1.674   5.877  0.7843 -0.1512 -0.3862
 4310SOL    HW224393   4.499   1.736   5.745  1.1127  2.1261 -0.1997
 4311SOL     OW24394   1.524   4.411   9.518  0.5744  0.3730  0.1004
 4311SOL    HW124395   1.429   4.402   9.523  0.8413 -2.4670  0.0468
 4311SOL    HW224396   1.564   4.350   9.579 -0.1577 -1.2822 -1.0721
 4312SOL     OW24397   0.583   1.745  16.335  0.4515 -0.1192 -0.6537
 4312SOL    HW124398   0.608   1.758  16.427  0.5418 -0.8484 -0.5693
 4312SOL    HW224399   0.514   1.679  16.346 -1.5852  2.2042  0.5653
 4313SOL     OW24400   3.787   1.720   8.027  0.3493 -0.4356 -0.5559
 4313SOL    HW124401   3.759   1.788   7.966 -0.7249 -1.4521 -1.1999
 4313SOL    HW224402   3.877   1.746   8.046 -0.2684  0.2486  1.4545
 4314SOL     OW24403   2.895   3.872   8.072 -0.5127  0.3437 -0.1925
 4314SOL    HW124404   2.872   3.909   8.157 -0.8837  0.5321 -0.3762
 4314SOL    HW224405   2.845   3.792   8.084 -0.1654  0.4004  1.6782
 4315SOL     OW24406   3.121   1.189   5.665 -0.5390 -0.1678  0.2656
 4315SOL    HW124407   3.137   1.112   5.610  0.0328 -0.3641  0.7132
 4315SOL    HW224408   3.081   1.250   5.602  2.6602  1.2294 -0.4143
 4316SOL     OW24409   1.103   3.448  11.236 -0.3364  0.3925  0.1139
 4316SOL    HW124410   1.141   3.533  11.259  1.7214 -0.2066 -1.0523
 4316SOL    HW224411   1.069   3.476  11.151 -0.9982  0.7306  0.4957
 4317SOL     OW24412   0.525   3.465   4.481  0.0742  0.1242 -0.4102
 4317SOL    HW124413   0.510   3.465   4.575  0.1410  2.5828 -0.3913
 4317SOL    HW224414   0.444   3.447   4.434  0.7086 -1.5250 -0.8719
 4318SOL     OW24415   3.957   2.283   8.598  0.4091 -0.3524  0.2115
 4318SOL    HW124416   4.017   2.356   8.582 -1.2022  1.0362  0.5217
 4318SOL    HW224417   3.874   2.323   8.623 -0.1035 -1.1116 -0.2477
 4319SOL     OW24418   4.641   0.360  10.156 -0.4885 -0.3627 -0.2556
 4319SOL    HW124419   4.602   0.338  10.240 -2.0113 -0.9477 -1.1206
 4319SOL    HW224420   0.009   0.393  10.174  0.0112 -1.6691 -0.3140
 4320SOL     OW24421   3.154   0.259   2.944 -0.1858 -0.2005 -0.0731
 4320SOL    HW124422   3.064   0.291   2.942  0.3615  1.3146  0.1355
 4320SOL    HW224423   3.141   0.172   2.982  1.1088 -0.9833 -1.4090
 4321SOL     OW24424   2.603   2.241   6.098 -0.3613  0.3882  0.0686
 4321SOL    HW124425   2.630   2.313   6.041 -1.9262 -1.4866 -3.0509
 4321SOL    HW224426   2.538   2.199   6.041  0.2498 -0.6936  0.1765
 4322SOL     OW24427   1.639   2.021  10.319 -0.3817  0.0791 -0.7376
 4322SOL    HW124428   1.620   2.069  10.238 -0.0659 -0.4044 -1.0948
 4322SOL    HW224429   1.557   2.039  10.365  0.2268  0.7070  0.1000
 4323SOL     OW24430   3.382   3.710  12.076  0.0859  0.2510 -0.4525
 4323SOL    HW124431   3.347   3.737  11.991 -1.8075 -0.5456  0.0658
 4323SOL    HW224432   3.426   3.628  12.055 -2.3523 -0.6425 -2.1695
 4324SOL     OW24433   1.360   0.332  11.529 -0.4100 -0.7593 -0.0362
 4324SOL    HW124434   1.339   0.425  11.518  0.3515 -0.6962 -0.9452
 4324SOL    HW224435   1.393   0.304  11.444  0.8789  0.9464 -0.1126
 4325SOL     OW24436   4.265   0.379   6.072  0.2908 -0.4648 -0.2670
 4325SOL    HW124437   4.288   0.306   6.130  1.4303 -0.3843 -0.6225
 4325SOL    HW224438   4.323   0.446   6.107 -1.7607  1.6835 -0.9860
 4326SOL     OW24439   1.235   1.252   2.677 -0.4575  0.1896 -0.5526
 4326SOL    HW124440   1.261   1.176   2.626  0.6078 -0.4450  0.9544
 4326SOL    HW224441   1.162   1.285   2.625 -1.1773  2.0978  1.6453
 4327SOL     OW24442   2.582   1.221   1.430 -0.0942  0.7296 -0.2277
 4327SOL    HW124443   2.518   1.225   1.501  0.7768  2.6437  0.4566
 4327SOL    HW224444   2.521   1.245   1.360  0.0899  3.2728  0.4992
 4328SOL     OW24445   2.962   2.608  13.955 -0.0756 -0.1776  0.4766
 4328SOL    HW124446   3.013   2.639  13.880  0.1020  0.5794  0.9122
 4328SOL    HW224447   2.932   2.695  13.983  1.2236  0.6550 -0.7116
 4329SOL     OW24448   3.916   2.313   4.170  0.5280  0.4600  0.1520
 4329SOL    HW124449   3.840   2.283   4.121  1.3841  0.7533 -1.3380
 4329SOL    HW224450   3.933   2.238   4.227 -0.7375 -0.1595 -0.2909
 4330SOL     OW24451   2.611   4.318   4.849  0.3903  0.2592 -0.2137
 4330SOL    HW124452   2.527   4.301   4.806  0.8897  2.6331 -2.1602
 4330SOL    HW224453   2.632   4.405   4.816 -0.5341  0.5783  0.0444
 4331SOL     OW24454   0.252   0.336  15.542 -0.2287  0.3845 -0.0322
 4331SOL    HW124455   0.193   0.317  15.615 -0.4853 -1.1198 -0.6124
 4331SOL    HW224456   0.296   0.408  15.587  0.8058  0.0134 -0.4675
 4332SOL     OW24457   1.627   2.174   1.769  0.1140  0.0466  0.2841
 4332SOL    HW124458   1.565   2.138   1.833 -2.2440  1.5317 -1.1610
 4332SOL    HW224459   1.696   2.109   1.782 -0.1719  0.0127  1.5986
 4333SOL     OW24460   1.968   2.925   2.998 -0.5435  0.1697 -0.6705
 4333SOL    HW124461   2.040   2.913   2.935  0.6391 -1.5701  1.0201
 4333SOL    HW224462   1.928   2.985   2.935 -0.6498  2.6222  1.7454
 4334SOL     OW24463   3.043   0.126  13.505 -0.1803  0.0341 -0.2591
 4334SOL    HW124464   3.034   0.130  13.600 -2.2145  0.6463 -0.4644
 4334SOL    HW224465   3.028   0.218  13.482  3.0976  0.9378  1.1763
 4335SOL     OW24466   2.172   4.464   7.886  0.8765  0.5056 -0.0233
 4335SOL    HW124467   2.138   4.421   7.965  0.6604  3.8711  1.7247
 4335SOL    HW224468   2.154   4.392   7.826  0.8131 -1.0789  1.8652
 4336SOL     OW24469   1.663   1.851   2.461 -0.1795 -0.3561 -0.3251
 4336SOL    HW124470   1.600   1.907   2.418 -0.6658 -1.1307 -0.6213
 4336SOL    HW224471   1.745   1.883   2.425  0.6753 -1.0323  0.9867
 4337SOL     OW24472   2.676   0.077   4.528 -0.0389  0.3801 -0.0462
 4337SOL    HW124473   2.625   0.026   4.590  0.2653 -0.5961 -0.5985
 4337SOL    HW224474   2.639   0.164   4.545 -2.8600 -0.2549 -2.9092
 4338SOL     OW24475   1.942   0.074   4.289  0.5013 -0.0444 -0.3789
 4338SOL    HW124476   2.014   0.128   4.321  0.9217 -0.1313 -1.1683
 4338SOL    HW224477   1.971   0.059   4.199 -1.2967  0.5951 -1.0860
 4339SOL     OW24478   2.655   4.174   8.251 -0.2566 -0.1906  0.0063
 4339SOL    HW124479   2.592   4.134   8.311  0.1250  3.0860  2.5574
 4339SOL    HW224480   2.599   4.222   8.191 -0.5925 -1.2728 -0.5446
 4340SOL     OW24481   2.827   0.491   3.549  0.6482  0.4834  0.3850
 4340SOL    HW124482   2.889   0.463   3.481 -2.6799  1.6704 -3.1726
 4340SOL    HW224483   2.855   0.576   3.583  0.7816  1.1998 -1.4573
 4341SOL     OW24484   3.193   0.035  14.265 -0.4064 -0.3597 -0.0081
 4341SOL    HW124485   3.274   4.709  14.284 -0.5454 -0.8138 -0.5334
 4341SOL    HW224486   3.134   4.712  14.326 -0.2800 -1.2142 -0.4977
 4342SOL     OW24487   0.123   3.447   5.569  0.3321 -0.2238  0.1576
 4342SOL    HW124488   0.185   3.382   5.605 -1.2305 -2.9183 -1.9988
 4342SOL    HW224489   0.041   3.432   5.616  1.1400 -0.8385  1.3995
 4343SOL     OW24490   0.581   2.238   5.493  0.0105 -0.2085 -0.1403
 4343SOL    HW124491   0.615   2.325   5.472  0.5436 -0.7231 -1.3930
 4343SOL    HW224492   0.509   2.223   5.431  0.3025 -2.0550 -0.0162
 4344SOL     OW24493   3.245   4.569   2.588  0.6255 -0.4306 -0.1830
 4344SOL    HW124494   3.273   4.653   2.552 -1.8204  0.4156 -0.0608
 4344SOL    HW224495   3.161   4.549   2.547  0.4826  0.6914 -0.4177
 4345SOL     OW24496   1.044   2.429  12.822 -0.5299 -0.5067  0.0562
 4345SOL    HW124497   1.027   2.337  12.845  0.5930 -0.6251  0.4006
 4345SOL    HW224498   0.990   2.478  12.884 -0.9859 -1.7430  0.6396
 4346SOL     OW24499   4.499   0.330   8.988 -0.0688 -0.7770 -0.3706
 4346SOL    HW124500   4.494   0.235   8.991  1.4864 -0.8515  0.1830
 4346SOL    HW224501   4.424   0.363   9.037  0.4464 -1.6970  1.0307
 4347SOL     OW24502   0.181   3.699   5.676 -0.3090  0.3976 -0.0516
 4347SOL    HW124503   0.259   3.661   5.717  0.2062  0.3074 -1.0974
 4347SOL    HW224504   0.149   3.617   5.637 -1.5973  0.0731  1.6840
 4348SOL     OW24505   0.430   0.343  13.935  0.9422 -0.3593 -0.1131
 4348SOL    HW124506   0.438   0.326  13.841  0.8793  0.0483 -0.1909
 4348SOL    HW224507   0.452   0.254  13.963  1.8581 -0.5256 -1.3677
 4349SOL     OW24508   4.657   2.449  15.187  0.4248 -0.2929 -0.8810
 4349SOL    HW124509   4.632   2.359  15.164 -1.9145 -0.5908  2.9342
 4349SOL    HW224510   4.605   2.490  15.117  0.7745 -0.9711 -1.5387
 4350SOL     OW24511   2.150   0.257   3.779 -0.1915  0.9167 -0.9900
 4350SOL    HW124512   2.069   0.244   3.730 -0.8291 -1.2297  0.6020
 4350SOL    HW224513   2.193   0.175   3.756 -3.0856 -0.9218  0.0443
 4351SOL     OW24514   0.730   2.686   6.530 -0.0029  0.0655 -0.3647
 4351SOL    HW124515   0.796   2.696   6.461 -0.4165 -0.2326 -0.8036
 4351SOL    HW224516   0.707   2.593   6.528 -3.3528  0.9071 -0.4609
 4352SOL     OW24517   3.353   3.621   6.132 -0.6952  0.1747  0.0348
 4352SOL    HW124518   3.381   3.539   6.090  2.6950  1.2052  0.3022
 4352SOL    HW224519   3.405   3.612   6.213 -0.1576 -1.7066 -0.5069
 4353SOL     OW24520   2.568   3.760  16.288 -0.7447 -0.0422 -0.3765
 4353SOL    HW124521   2.607   3.787  16.205 -0.3088 -2.3715 -0.9418
 4353SOL    HW224522   2.475   3.743  16.273 -0.7603  1.4672 -1.9616
 4354SOL     OW24523   3.574   4.368   4.807 -0.1606 -0.3446  0.3037
 4354SOL    HW124524   3.577   4.459   4.777 -0.6766 -1.5424 -3.4080
 4354SOL    HW224525   3.661   4.339   4.779  0.2530  1.4741 -0.3151
 4355SOL     OW24526   0.158   3.634  16.301 -0.0687  0.1318  0.5677
 4355SOL    HW124527   0.184   3.672  16.217 -1.7656  2.7532  1.1901
 4355SOL    HW224528   0.076   3.589  16.279  0.2763  0.0458 -0.5350
 4356SOL     OW24529   1.685   3.570   0.199  0.7799 -0.3689  0.2662
 4356SOL    HW124530   1.757   3.550   0.139  0.1181  1.0926 -1.0090
 4356SOL    HW224531   1.644   3.483   0.203  0.3324 -0.1658  0.0566
 4357SOL     OW24532   3.961   3.692   9.114  0.1437 -0.0467 -0.3549
 4357SOL    HW124533   3.889   3.755   9.116  0.9679  0.8652  0.1852
 4357SOL    HW224534   4.014   3.713   9.038 -0.8870 -0.6569 -1.2460
 4358SOL     OW24535   1.341   1.092   1.604 -0.2836 -0.3833  0.0598
 4358SOL    HW124536   1.313   1.129   1.688  0.2398  1.2796 -0.4938
 4358SOL    HW224537   1.303   1.004   1.611 -2.3156  0.5715  1.2820
 4359SOL     OW24538   0.754   0.254   3.075  0.5826  0.0656  0.0350
 4359SOL    HW124539   0.671   0.248   3.123  1.4958  0.2887  1.6457
 4359SOL    HW224540   0.727   0.211   2.995 -1.6070 -0.8108  1.2398
 4360SOL     OW24541   0.619   3.802  14.326  0.0384  0.0666 -0.3999
 4360SOL    HW124542   0.680   3.799  14.400  0.1183 -0.2048 -0.4746
 4360SOL    HW224543   0.673   3.858  14.270  0.8522  0.6435  0.9530
 4361SOL     OW24544   3.667   1.905  16.154  0.0382  0.1351 -0.0704
 4361SOL    HW124545   3.608   1.980  16.162 -0.0725 -0.2771  2.7831
 4361SOL    HW224546   3.699   1.934  16.069 -1.4173  0.1004 -0.6378
 4362SOL     OW24547   1.014   2.122   3.735 -0.3911  0.6624 -0.1530
 4362SOL    HW124548   0.921   2.146   3.737 -1.0213 -1.8364  0.1247
 4362SOL    HW224549   1.014   2.034   3.697 -0.4793  1.2528 -1.5292
 4363SOL     OW24550   3.172   3.508   4.900  0.0845  0.4906  0.3795
 4363SOL    HW124551   3.174   3.414   4.884 -0.6737  0.5566 -0.0804
 4363SOL    HW224552   3.183   3.555   4.817  2.2657 -1.2971 -0.3485
 4364SOL     OW24553   2.074   1.198   8.445 -0.1709  0.5011 -0.1231
 4364SOL    HW124554   2.003   1.137   8.463  0.6535 -0.5164 -0.2907
 4364SOL    HW224555   2.136   1.177   8.515  0.6479 -0.1768 -1.0497
 4365SOL     OW24556   3.993   1.470   8.911 -0.0357  0.0397  0.1438
 4365SOL    HW124557   4.054   1.447   8.981 -0.6813  0.7886  0.9408
 4365SOL    HW224558   4.025   1.413   8.841 -1.2121  0.7441 -0.9764
 4366SOL     OW24559   2.701   3.455   4.303  0.0214 -0.5004  0.3988
 4366SOL    HW124560   2.744   3.423   4.224 -2.6053  1.0630 -1.6720
 4366SOL    HW224561   2.687   3.369   4.343 -2.6920 -0.1897  0.1275
 4367SOL     OW24562   2.534   1.570   5.662  0.1912  0.6156  0.2885
 4367SOL    HW124563   2.550   1.525   5.745  0.7829  0.2615 -0.0175
 4367SOL    HW224564   2.448   1.533   5.643  0.3643  1.0051 -1.2491
 4368SOL     OW24565   3.236   3.315  16.698 -0.0029  0.3005  0.1170
 4368SOL    HW124566   3.274   3.339  16.782 -1.3677 -0.3645  0.9153
 4368SOL    HW224567   3.189   3.395  16.675 -0.3511 -0.0365 -0.3624
 4369SOL     OW24568   0.633   4.285   1.101 -0.5317  0.3737  0.0051
 4369SOL    HW124569   0.622   4.191   1.091 -1.0100  0.3883  0.4476
 4369SOL    HW224570   0.729   4.294   1.100 -0.4397 -0.5307  0.6775
 4370SOL     OW24571   2.275   1.734  16.899  0.4089 -0.2302  0.0123
 4370SOL    HW124572   2.357   1.713  16.854  1.4128  0.2308  1.6127
 4370SOL    HW224573   2.304   1.778  16.979 -0.2610 -1.5723  0.9862
 4371SOL     OW24574   1.502   0.005   8.516 -0.3687  0.2990  0.2796
 4371SOL    HW124575   1.466   0.085   8.477  1.1153  1.4558  1.2813
 4371SOL    HW224576   1.425   4.670   8.523 -0.2733 -0.1336 -2.0875
 4372SOL     OW24577   4.682   3.882   8.737 -0.6648  0.2513 -0.0852
 4372SOL    HW124578   4.679   3.906   8.830 -0.4738  0.0189 -0.0206
 4372SOL    HW224579   4.709   3.792   8.751  2.0948  1.4371  2.2999
 4373SOL     OW24580   3.762   2.670  11.402  0.3358 -0.4934  0.1306
 4373SOL    HW124581   3.791   2.694  11.314 -2.9677 -2.1852 -1.3901
 4373SOL    HW224582   3.807   2.586  11.410 -0.1793 -0.6392  1.4360
 4374SOL     OW24583   1.672   2.178   0.601 -0.0496 -0.0892  0.4335
 4374SOL    HW124584   1.762   2.155   0.575  0.7662  1.1591  2.1480
 4374SOL    HW224585   1.675   2.158   0.694  0.4422  2.8050  1.0484
 4375SOL     OW24586   3.463   4.643   1.017 -0.1772 -0.5113 -0.4276
 4375SOL    HW124587   3.418   4.705   0.959  2.8772  1.2890 -0.9139
 4375SOL    HW224588   3.395   4.578   1.031  0.4690 -1.1472 -0.2200
 4376SOL     OW24589   0.347   2.265   5.323 -0.1502 -0.2884 -0.2238
 4376SOL    HW124590   0.308   2.197   5.378  1.5872 -1.6103 -0.6103
 4376SOL    HW224591   0.274   2.327   5.315 -1.1443 -1.2690  1.2762
 4377SOL     OW24592   0.896   3.965   7.867  0.1236 -0.2530 -0.7158
 4377SOL    HW124593   0.843   3.932   7.794 -0.7197  0.6638 -0.5157
 4377SOL    HW224594   0.898   4.059   7.847  0.2852 -0.0331  0.2953
 4378SOL     OW24595   1.711   0.904   6.349  0.1642  0.0016  0.1958
 4378SOL    HW124596   1.759   0.937   6.273 -0.9491  1.2619  0.0275
 4378SOL    HW224597   1.634   0.960   6.336  1.1387  1.3088  0.1365
 4379SOL     OW24598   0.173   0.280   2.239  0.9521 -0.7170 -0.2736
 4379SOL    HW124599   0.164   0.369   2.205 -0.9124 -0.7162  0.2555
 4379SOL    HW224600   0.148   0.277   2.331  2.6564 -0.2655  0.1985
 4380SOL     OW24601   1.706   2.365   2.820 -0.2374  0.1543  0.2006
 4380SOL    HW124602   1.740   2.404   2.740 -0.7931  1.2823  0.5157
 4380SOL    HW224603   1.786   2.316   2.840  0.3702 -0.0425 -2.7504
 4381SOL     OW24604   1.854   0.458   1.592 -0.0466  0.6761  0.4248
 4381SOL    HW124605   1.915   0.486   1.524  0.4204  0.4919  0.7686
 4381SOL    HW224606   1.893   0.372   1.607 -1.4621  0.3117  1.9419
 4382SOL     OW24607   1.634   1.844   3.003 -0.3550 -0.2595  0.0021
 4382SOL    HW124608   1.630   1.827   2.909  0.0650 -1.1855  0.1494
 4382SOL    HW224609   1.657   1.937   3.002  0.8339 -0.5468  0.1319
 4383SOL     OW24610   2.783   1.827  11.090  0.3439  0.2223  0.0544
 4383SOL    HW124611   2.758   1.891  11.023 -1.8540 -0.0279  0.6507
 4383SOL    HW224612   2.804   1.883  11.164 -0.8055 -0.1474  0.6531
 4384SOL     OW24613   0.931   1.595   3.812  0.1457  0.2673 -0.4523
 4384SOL    HW124614   0.868   1.530   3.780  0.1939 -0.5366  1.1035
 4384SOL    HW224615   0.988   1.602   3.735 -0.6296 -0.3653 -1.0811
 4385SOL     OW24616   0.518   3.534   6.890  0.4999  0.1810 -0.3885
 4385SOL    HW124617   0.558   3.612   6.851 -1.3301  0.8247 -0.9886
 4385SOL    HW224618   0.495   3.477   6.816  0.3413  0.3587 -0.4774
 4386SOL     OW24619   0.331   0.309  17.561  0.3210  0.1821  0.3615
 4386SOL    HW124620   0.388   0.387  17.559 -2.4035  2.1413 -0.2827
 4386SOL    HW224621   0.400   0.245  17.545  1.4554  0.6872  3.1778
 4387SOL     OW24622   1.321   3.540   3.422 -0.2145 -0.3444  0.2883
 4387SOL    HW124623   1.317   3.537   3.518  0.8228 -1.6850  0.2971
 4387SOL    HW224624   1.365   3.625   3.425 -1.5894  0.3432  0.9039
 4388SOL     OW24625   0.267   0.349   9.923 -0.0295 -0.3581  0.7860
 4388SOL    HW124626   0.186   0.311   9.957 -1.1717  2.1244  0.8258
 4388SOL    HW224627   0.248   0.442   9.937 -1.0153 -0.5584  0.7847
 4389SOL     OW24628   2.206   3.319  12.045  0.4745 -0.3487  0.2574
 4389SOL    HW124629   2.241   3.399  12.005 -2.3806  0.6663 -0.1918
 4389SOL    HW224630   2.115   3.325  12.015  0.5423  0.8695  0.2710
 4390SOL     OW24631   2.352   0.251  14.374 -0.3048  0.0326 -0.0153
 4390SOL    HW124632   2.363   0.268  14.281  0.5145  1.7947  0.3978
 4390SOL    HW224633   2.258   0.236  14.379 -0.0857 -1.1517  0.5549
 4391SOL     OW24634   2.513   1.465   5.916 -0.1928  0.2739 -0.2908
 4391SOL    HW124635   2.431   1.508   5.941 -0.2986 -0.2539  0.2611
 4391SOL    HW224636   2.498   1.378   5.954  0.6068 -0.6768 -2.1943
 4392SOL     OW24637   2.214   0.788   0.028  0.3606 -0.1216  0.5436
 4392SOL    HW124638   2.142   0.844  17.685  1.1587  0.8170  0.3794
 4392SOL    HW224639   2.286   0.803  17.652 -1.7842  1.0535 -1.6992
 4393SOL     OW24640   4.230   1.281   1.844  0.1144  0.5834  0.1633
 4393SOL    HW124641   4.151   1.294   1.895 -0.5662 -2.1140 -0.2310
 4393SOL    HW224642   4.213   1.346   1.775 -0.0143  0.0496 -0.3053
 4394SOL     OW24643   3.136   2.337  13.969  0.2110 -0.4075  0.0442
 4394SOL    HW124644   3.206   2.372  13.914 -0.1855  1.8354  0.9732
 4394SOL    HW224645   3.196   2.287  14.025  1.2455 -0.2793 -0.9353
 4395SOL     OW24646   4.601   1.188   0.985 -0.1756  0.3505 -0.4590
 4395SOL    HW124647   4.677   1.232   0.948 -0.4924  1.2470 -0.0534
 4395SOL    HW224648   4.641   1.119   1.038  0.8303  1.7314  0.5823
 4396SOL     OW24649   4.552   3.431   5.631 -0.5891  0.2834  0.4578
 4396SOL    HW124650   4.485   3.447   5.564  1.4740 -0.1486 -1.7357
 4396SOL    HW224651   4.556   3.336   5.640  1.1213  0.4790  1.8275
 4397SOL     OW24652   1.479   2.719   5.253 -0.2620 -0.0080  0.0268
 4397SOL    HW124653   1.558   2.757   5.214 -0.9345  0.0910 -1.2282
 4397SOL    HW224654   1.453   2.793   5.308  0.4715 -0.3912  0.8960
 4398SOL     OW24655   1.468   0.148   4.971 -0.3208 -0.0095 -0.3265
 4398SOL    HW124656   1.455   0.177   5.061  1.1873  2.5576 -0.9223
 4398SOL    HW224657   1.490   0.055   4.981  1.2481  0.5409  1.4672
 4399SOL     OW24658   1.676   2.802  13.368 -0.0280 -0.2663 -0.0011
 4399SOL    HW124659   1.619   2.730  13.392 -0.7858  0.6367  0.9313
 4399SOL    HW224660   1.689   2.829  13.460  1.1228  1.6028 -0.7018
 4400SOL     OW24661   3.562   2.957   8.050 -0.1577  0.3687 -0.1614
 4400SOL    HW124662   3.503   2.935   8.122 -0.0986 -0.0006 -0.2224
 4400SOL    HW224663   3.548   3.050   8.035 -0.9217  0.7513  2.9260
 4401SOL     OW24664   1.481   1.652   7.114 -0.3004  0.4482  0.0535
 4401SOL    HW124665   1.464   1.695   7.029  0.2544 -2.0125 -1.2899
 4401SOL    HW224666   1.474   1.735   7.161  1.6964  1.9864 -2.3593
 4402SOL     OW24667   0.934   2.818   7.203 -0.1862 -0.1976  0.1017
 4402SOL    HW124668   0.847   2.805   7.240  0.0553  1.2429  1.1561
 4402SOL    HW224669   0.941   2.913   7.201  1.5908 -0.3389  0.3797
 4403SOL     OW24670   1.397   1.897   7.701  0.1748  0.1845 -0.2505
 4403SOL    HW124671   1.363   1.918   7.614 -0.8250  0.7965  0.2915
 4403SOL    HW224672   1.339   1.831   7.740 -0.2742  0.6683 -0.1092
 4404SOL     OW24673   1.612   1.586   2.478  0.2157  0.2409 -0.4443
 4404SOL    HW124674   1.615   1.681   2.485 -1.3351  0.4663 -2.8181
 4404SOL    HW224675   1.608   1.585   2.382  1.7321  2.5523 -0.5198
 4405SOL     OW24676   2.194   1.599   3.647 -0.2254 -0.0700  0.0820
 4405SOL    HW124677   2.201   1.694   3.653 -3.3488  0.1740  0.1207
 4405SOL    HW224678   2.100   1.596   3.665 -0.4437  2.1856 -0.7824
 4406SOL     OW24679   2.663   0.819   1.921 -0.1632  0.0131  0.0961
 4406SOL    HW124680   2.577   0.832   1.961  0.0747  1.0457  0.2904
 4406SOL    HW224681   2.642   0.769   1.842 -0.3964  1.3415 -0.6900
 4407SOL     OW24682   3.320   0.413   2.476  0.8101 -0.1831  0.2483
 4407SOL    HW124683   3.350   0.357   2.405 -0.7132 -1.4335  0.6007
 4407SOL    HW224684   3.392   0.469   2.505 -0.4127  1.2936  0.4396
 4408SOL     OW24685   4.240   1.911   2.189 -0.4270  0.1377 -0.1489
 4408SOL    HW124686   4.335   1.911   2.177 -0.0397  1.5239  2.9731
 4408SOL    HW224687   4.227   1.857   2.267 -0.6596  0.5703  0.1087
 4409SOL     OW24688   3.616   1.581   5.863 -0.7782  1.0672 -0.0634
 4409SOL    HW124689   3.552   1.580   5.792  0.3199  0.6720 -1.0649
 4409SOL    HW224690   3.571   1.530   5.930 -2.6024  1.0788 -1.3005
 4410SOL     OW24691   4.544   1.391   9.016 -0.1974  0.2441  0.4030
 4410SOL    HW124692   4.491   1.313   9.003  0.3925 -0.4883  2.3238
 4410SOL    HW224693   4.516   1.452   8.948 -1.8705  0.7625  1.5565
 4411SOL     OW24694   4.513   2.583   1.904  0.1234 -0.0674  0.3871
 4411SOL    HW124695   4.507   2.540   1.818 -0.6967  2.1003 -0.6412
 4411SOL    HW224696   4.522   2.675   1.879 -1.7926  0.0987  0.2876
 4412SOL     OW24697   1.787   2.184   8.976  0.2613 -0.3436  0.1283
 4412SOL    HW124698   1.871   2.176   9.020  0.4394 -1.6104 -0.4236
 4412SOL    HW224699   1.762   2.275   8.962  1.4229  0.4254  3.1100
 4413SOL     OW24700   0.323   1.023   2.312 -0.5101 -0.3331 -0.1353
 4413SOL    HW124701   0.258   0.953   2.316 -1.3418  0.4087 -0.7505
 4413SOL    HW224702   0.335   1.024   2.217 -0.0432 -1.8617 -0.0857
 4414SOL     OW24703   0.829   1.498  13.468  0.3988  0.4503 -0.5004
 4414SOL    HW124704   0.762   1.450  13.420  1.1536  0.3083 -1.3986
 4414SOL    HW224705   0.790   1.585  13.480  1.1242  0.8799 -1.2208
 4415SOL     OW24706   4.370   3.457  14.709  0.0488  0.2104 -0.5550
 4415SOL    HW124707   4.298   3.401  14.679 -0.1428  0.2058 -0.0902
 4415SOL    HW224708   4.331   3.545  14.705 -1.0649 -0.2301  0.4934
 4416SOL     OW24709   0.834   2.289   2.453 -0.2476  0.0932  0.0343
 4416SOL    HW124710   0.785   2.222   2.404  0.1643  1.1369 -1.7881
 4416SOL    HW224711   0.791   2.293   2.538  1.7893 -1.4154  1.1335
 4417SOL     OW24712   1.785   0.364  13.431 -0.4947  0.4124  0.4002
 4417SOL    HW124713   1.736   0.446  13.418 -0.4701  0.1668 -1.1980
 4417SOL    HW224714   1.719   0.295  13.420 -0.7081  0.5439  0.8213
 4418SOL     OW24715   0.304   0.639   7.145  0.5735 -0.1676  0.7035
 4418SOL    HW124716   0.294   0.726   7.107  2.7773 -0.8031 -1.2428
 4418SOL    HW224717   0.317   0.673   7.234  3.2361 -0.5810  0.4638
 4419SOL     OW24718   4.465   0.053   9.088  0.4036  0.0539 -0.1011
 4419SOL    HW124719   4.380   0.073   9.126 -0.8964 -2.1525 -1.8150
 4419SOL    HW224720   4.467   4.680   9.106  1.4978 -0.3620 -2.2932
 4420SOL     OW24721   2.962   3.164   8.401 -0.2600  0.2353 -0.1057
 4420SOL    HW124722   2.941   3.238   8.458 -0.9736 -0.8296  1.0209
 4420SOL    HW224723   2.889   3.102   8.404  1.3846 -1.6611  0.6802
 4421SOL     OW24724   2.688   3.173   2.663  0.2078 -0.2706  0.2980
 4421SOL    HW124725   2.683   3.267   2.643 -1.2969 -0.6205 -1.0200
 4421SOL    HW224726   2.780   3.173   2.638  0.1988  0.5969  0.2501
 4422SOL     OW24727   3.488   4.563   5.522  0.1032  0.5506  0.4497
 4422SOL    HW124728   3.465   4.643   5.569  1.2645 -0.0689  2.0757
 4422SOL    HW224729   3.581   4.570   5.501  0.1634 -3.0492 -0.4919
 4423SOL     OW24730   1.859   2.206   6.684  0.1342  0.0123 -0.1822
 4423SOL    HW124731   1.843   2.237   6.773 -0.0287 -1.4232  0.2811
 4423SOL    HW224732   1.789   2.235   6.626  0.8983  3.3636  0.5724
 4424SOL     OW24733   4.332   3.845   5.380  0.0529  0.0953 -0.0440
 4424SOL    HW124734   4.248   3.803   5.399  1.3062 -1.9577  1.0465
 4424SOL    HW224735   4.315   3.936   5.404  0.5017 -0.5055  2.5757
 4425SOL     OW24736   4.033   4.103   7.193  0.5569 -0.4824  0.4952
 4425SOL    HW124737   4.046   4.135   7.283 -0.8497  1.1994  0.1064
 4425SOL    HW224738   4.096   4.161   7.148  0.4422  1.3131  2.6367
 4426SOL     OW24739   0.346   0.708   4.399  0.1997 -0.1499  0.7140
 4426SOL    HW124740   0.395   0.736   4.477  0.6328 -1.0555  0.7723
 4426SOL    HW224741   0.255   0.723   4.424 -0.0316 -3.6656  2.0957
 4427SOL     OW24742   4.380   3.938   8.350  0.5084  0.6920  0.0556
 4427SOL    HW124743   4.397   3.845   8.333 -3.9563  0.2652 -2.1037
 4427SOL    HW224744   4.380   3.932   8.446  0.0955  4.4142  0.2951
 4428SOL     OW24745   4.235   0.271   0.378  0.5477  0.3283  0.0943
 4428SOL    HW124746   4.330   0.270   0.381  0.4321 -0.8965  3.3344
 4428SOL    HW224747   4.223   0.258   0.472  2.3159  0.2805  0.3110
 4429SOL     OW24748   4.122   0.773   2.809 -0.3106  0.1356  0.2434
 4429SOL    HW124749   4.194   0.820   2.767 -0.6178  0.5872  0.2228
 4429SOL    HW224750   4.071   0.739   2.736  1.1219  2.5591 -1.8716
 4430SOL     OW24751   1.064   2.256   2.954 -0.0935  0.1982 -0.5225
 4430SOL    HW124752   1.065   2.282   2.862  0.1824  1.4687 -0.1653
 4430SOL    HW224753   1.082   2.341   2.994  0.2847 -0.5956  0.9602
 4431SOL     OW24754   3.112   1.009   6.355  0.5302  0.0891  0.0531
 4431SOL    HW124755   3.167   1.064   6.411 -0.9838  1.1511  0.4952
 4431SOL    HW224756   3.090   0.943   6.422 -2.8209  0.7351 -0.3977
 4432SOL     OW24757   2.283   3.140  11.465  0.4667  0.1887  0.1090
 4432SOL    HW124758   2.374   3.123  11.491  0.3881  1.1566  1.0212
 4432SOL    HW224759   2.284   3.112  11.373 -0.0365 -2.1758  0.8283
 4433SOL     OW24760   2.023   2.626   4.234 -0.2505 -0.2188 -0.3515
 4433SOL    HW124761   2.016   2.684   4.158  0.5870  2.0967  1.3365
 4433SOL    HW224762   2.024   2.681   4.312 -1.3834  1.1390 -1.2872
 4434SOL     OW24763   3.111   1.741   7.941  0.2463  0.0697  0.6663
 4434SOL    HW124764   3.124   1.649   7.965  1.4734 -0.5612 -2.3773
 4434SOL    HW224765   3.183   1.787   7.983  0.2981  0.2376  0.3900
 4435SOL     OW24766   0.569   0.493   4.210 -0.1775  0.0345  0.3388
 4435SOL    HW124767   0.518   0.528   4.137  1.1478 -2.7441 -1.8724
 4435SOL    HW224768   0.507   0.438   4.258 -0.5462 -0.0946 -0.2936
 4436SOL     OW24769   0.374   4.252   3.927 -0.1049 -0.5461  0.2284
 4436SOL    HW124770   0.290   4.217   3.898  0.0653 -1.0483  0.3379
 4436SOL    HW224771   0.371   4.225   4.019  2.5494  1.4464  0.9088
 4437SOL     OW24772   3.494   2.192   7.530 -0.9682  0.3365 -0.1089
 4437SOL    HW124773   3.537   2.251   7.468 -2.3506  1.7831  0.3165
 4437SOL    HW224774   3.499   2.109   7.482 -4.3355 -0.2448  0.5237
 4438SOL     OW24775   1.548   1.528   7.868  0.3477  0.4137 -0.4425
 4438SOL    HW124776   1.592   1.526   7.783 -0.4837  2.4343 -0.9225
 4438SOL    HW224777   1.589   1.606   7.905 -1.2826  2.5995 -3.2132
 4439SOL     OW24778   4.200   0.060   1.818 -0.2888  0.1035  0.1477
 4439SOL    HW124779   4.218   4.704   1.763 -0.3986  1.0312 -1.1656
 4439SOL    HW224780   4.120   0.104   1.792  0.6512  2.7102  1.6493
 4440SOL     OW24781   2.060   3.545   8.102  0.0261 -0.1777 -0.4505
 4440SOL    HW124782   1.988   3.481   8.095  0.3221 -0.3719 -1.6836
 4440SOL    HW224783   2.011   3.625   8.082 -0.6518  0.2385  2.8148
 4441SOL     OW24784   4.515   2.650   2.635 -0.7639 -0.2790 -0.3000
 4441SOL    HW124785   4.527   2.582   2.700  0.2217  1.3875  1.2657
 4441SOL    HW224786   4.427   2.620   2.612 -0.2755 -1.3012 -0.8245
 4442SOL     OW24787   1.776   3.941   2.382 -0.3240 -0.1979  0.0545
 4442SOL    HW124788   1.856   3.924   2.331  1.1398  1.0553  1.9332
 4442SOL    HW224789   1.738   4.022   2.348 -1.3416 -0.1004  1.4162
 4443SOL     OW24790   1.245   0.594  11.413 -0.4242 -0.0063 -0.4425
 4443SOL    HW124791   1.169   0.646  11.439  0.4315 -0.0720  2.1790
 4443SOL    HW224792   1.232   0.593  11.318  1.4965  1.1601 -0.7127
 4444SOL     OW24793   0.228   1.478   9.847  0.1129 -0.4091  0.4467
 4444SOL    HW124794   0.222   1.383   9.837 -0.9561 -0.1619 -1.2449
 4444SOL    HW224795   0.322   1.492   9.857  0.1041 -0.4697  0.6217
 4445SOL     OW24796   1.572   1.442  15.482  0.2215 -0.2886  0.6797
 4445SOL    HW124797   1.650   1.415  15.530  1.1578 -1.6965 -1.5802
 4445SOL    HW224798   1.511   1.384  15.526 -0.4033 -1.4295 -1.6956
 4446SOL     OW24799   3.004   3.549  15.529 -0.0036 -0.5726 -0.5631
 4446SOL    HW124800   2.917   3.519  15.555  1.1326 -3.0186  0.3974
 4446SOL    HW224801   3.028   3.605  15.603  1.3149 -0.2582 -1.2213
 4447SOL     OW24802   0.465   1.767   6.512  0.2319  0.1966 -0.3490
 4447SOL    HW124803   0.426   1.737   6.430  0.6285 -0.2866 -0.3610
 4447SOL    HW224804   0.402   1.813   6.569 -0.5365 -0.2763 -0.8200
 4448SOL     OW24805   1.796   4.339  10.041 -0.2696 -0.3549 -0.5959
 4448SOL    HW124806   1.773   4.247  10.028  1.8027 -0.9311 -0.3089
 4448SOL    HW224807   1.726   4.375  10.095 -0.1551 -1.1181  0.0674
 4449SOL     OW24808   0.899   1.444   6.264 -0.2784  0.5014 -0.1779
 4449SOL    HW124809   0.913   1.469   6.173  0.0046 -1.6774 -0.7393
 4449SOL    HW224810   0.971   1.483   6.315  0.0743 -1.8698  1.1478
 4450SOL     OW24811   1.424   2.724  15.507  0.3960 -0.6579  0.1841
 4450SOL    HW124812   1.507   2.770  15.498 -0.0898  0.2901  0.5539
 4450SOL    HW224813   1.362   2.796  15.516  1.1927  0.1426 -0.8209
 4451SOL     OW24814   4.288   4.133   5.407  0.8263  0.1312  0.3482
 4451SOL    HW124815   4.219   4.131   5.473 -0.9132 -0.8436 -1.5036
 4451SOL    HW224816   4.242   4.152   5.325  1.6616  0.5205 -0.0347
 4452SOL     OW24817   3.041   4.664   8.089 -0.2062  0.0434  0.5592
 4452SOL    HW124818   2.977   0.013   8.103 -2.3209 -1.5601 -1.1637
 4452SOL    HW224819   3.077   4.691   8.005  0.2099 -0.3039  0.6240
 4453SOL     OW24820   0.508   1.723   9.677  0.0517  0.3218  0.0894
 4453SOL    HW124821   0.423   1.695   9.642  0.1552  1.1915 -0.8695
 4453SOL    HW224822   0.555   1.640   9.684 -1.5924 -0.7150 -1.1462
 4454SOL     OW24823   2.193   0.621  10.104 -0.1382 -0.0992 -0.2357
 4454SOL    HW124824   2.247   0.695  10.130 -0.0272  0.4931 -2.2076
 4454SOL    HW224825   2.212   0.554  10.170  0.0976  0.8097  0.6233
 4455SOL     OW24826   0.923   3.612   2.734 -0.5922 -0.2084  0.2978
 4455SOL    HW124827   1.002   3.559   2.723  1.2381  2.5907 -0.0357
 4455SOL    HW224828   0.870   3.595   2.657 -0.1735 -0.1172 -0.0123
 4456SOL     OW24829   2.832   3.370  10.113 -0.0902 -0.1315  0.8823
 4456SOL    HW124830   2.784   3.394  10.033  0.8246  2.3266  1.0745
 4456SOL    HW224831   2.876   3.294  10.075 -0.5167  0.9036 -1.6894
 4457SOL     OW24832   4.622   1.664   7.914  0.4507  0.1535  0.4865
 4457SOL    HW124833   4.542   1.701   7.952  0.1402 -1.4393  1.3828
 4457SOL    HW224834   4.690   1.689   7.976  0.7376  0.8597 -0.1102
 4458SOL     OW24835   0.876   2.517  13.041 -0.1785 -0.1307 -0.1362
 4458SOL    HW124836   0.904   2.437  13.086  2.4999  0.8853  0.0072
 4458SOL    HW224837   0.947   2.576  13.066  1.6930 -2.3615 -0.1763
 4459SOL     OW24838   4.183   1.126   6.630  0.2164  0.1985  0.5115
 4459SOL    HW124839   4.254   1.121   6.565  0.6898 -1.2343  1.1511
 4459SOL    HW224840   4.234   1.131   6.711  0.5429 -0.6008  0.3476
 4460SOL     OW24841   1.820   2.887  11.699  0.2464  0.3322 -0.2503
 4460SOL    HW124842   1.902   2.933  11.682  1.1314 -1.5055 -0.8703
 4460SOL    HW224843   1.808   2.914  11.791  1.3681 -0.3798  0.1020
 4461SOL     OW24844   0.969   4.440  12.286  0.0135  0.1979 -0.1954
 4461SOL    HW124845   0.979   4.363  12.343  2.3524  2.5045  2.4854
 4461SOL    HW224846   1.060   4.471  12.285 -0.1757  0.5801 -3.4862
 4462SOL     OW24847   1.209   2.084   6.321  0.1633 -0.2134 -0.1815
 4462SOL    HW124848   1.227   2.061   6.230 -0.5154 -1.4984  0.0148
 4462SOL    HW224849   1.125   2.128   6.306 -0.7343 -1.1648  2.1047
 4463SOL     OW24850   4.023   2.934  17.679  0.8399  0.2225  0.0947
 4463SOL    HW124851   4.081   2.884  17.622  0.1202 -1.1605  0.5849
 4463SOL    HW224852   4.082   2.994   0.039 -0.1110  2.3565 -1.4613
 4464SOL     OW24853   0.825   2.229   6.457 -0.4754  0.0847  0.1260
 4464SOL    HW124854   0.830   2.197   6.367 -0.8077 -0.5260  0.3241
 4464SOL    HW224855   0.758   2.169   6.489 -0.2658  0.2862  0.9566
 4465SOL     OW24856   1.663   3.466  10.985 -1.0786 -0.5360 -0.1854
 4465SOL    HW124857   1.743   3.493  10.940 -0.6195  0.9283  1.5032
 4465SOL    HW224858   1.694   3.455  11.075  0.2944  0.3129 -0.5550
 4466SOL     OW24859   1.555   0.138   9.230 -0.4689  0.2608  0.0859
 4466SOL    HW124860   1.517   0.118   9.316 -0.6748 -1.9735 -0.5294
 4466SOL    HW224861   1.487   0.200   9.206 -1.7340 -1.2164 -0.1458
 4467SOL     OW24862   4.033   1.400   8.124  0.0371 -0.1412  0.1405
 4467SOL    HW124863   4.037   1.337   8.053  2.0722 -1.1557  1.1400
 4467SOL    HW224864   3.974   1.347   8.177  0.2795  1.4647  2.0657
 4468SOL     OW24865   0.902   4.649   1.011 -0.4110  0.5991  0.0191
 4468SOL    HW124866   0.845   4.637   1.087  0.8885 -0.2302  0.8467
 4468SOL    HW224867   0.925   4.559   0.988  0.1069  0.7476 -0.0351
 4469SOL     OW24868   2.748   3.470   9.318 -0.0978 -0.5831  0.5350
 4469SOL    HW124869   2.689   3.502   9.250  0.2346 -1.4028 -0.1231
 4469SOL    HW224870   2.784   3.551   9.354 -1.4022  0.3456 -0.2192
 4470SOL     OW24871   4.423   0.236   5.905 -0.2903  0.6280 -0.3058
 4470SOL    HW124872   4.453   0.229   5.996 -1.6890  0.7821  0.1662
 4470SOL    HW224873   4.351   0.297   5.918 -1.4730 -0.4018 -1.9761
 4471SOL     OW24874   3.863   3.709  15.341  0.4450  0.0709  0.4779
 4471SOL    HW124875   3.906   3.779  15.291 -0.4468 -1.1085 -1.9281
 4471SOL    HW224876   3.936   3.646  15.343  2.0547  1.9580  1.5745
 4472SOL     OW24877   1.268   1.195   0.897 -0.0505 -0.2979 -0.0391
 4472SOL    HW124878   1.194   1.192   0.958 -0.7237 -1.0850 -0.8964
 4472SOL    HW224879   1.232   1.230   0.816 -0.8222  0.8701  0.8015
 4473SOL     OW24880   0.600   1.782   5.865 -0.5157 -0.1277 -0.6404
 4473SOL    HW124881   0.641   1.698   5.886 -0.5161  0.4118  1.4940
 4473SOL    HW224882   0.510   1.755   5.882 -0.5491  1.1915  1.2847
 4474SOL     OW24883   2.355   4.040   9.393 -0.0762 -0.1187 -0.3122
 4474SOL    HW124884   2.354   3.947   9.368 -2.3061 -0.3622  0.6661
 4474SOL    HW224885   2.349   4.024   9.487  1.5827 -0.6799 -0.3088
 4475SOL     OW24886   2.722   0.945   6.644  0.1041 -0.4329 -0.1469
 4475SOL    HW124887   2.720   0.919   6.552  0.0381 -1.9564  0.2951
 4475SOL    HW224888   2.643   0.911   6.685 -1.1185  1.2581 -1.0978
 4476SOL     OW24889   1.054   0.811   4.653 -0.6719 -0.0232  0.3754
 4476SOL    HW124890   0.966   0.802   4.617 -0.8028  2.8171 -0.0237
 4476SOL    HW224891   1.107   0.789   4.577  0.2691  2.5892  0.2647
 4477SOL     OW24892   3.035   4.622   2.799 -0.0928  0.1364  0.0805
 4477SOL    HW124893   3.087   4.644   2.877  1.2761 -2.4446 -0.1148
 4477SOL    HW224894   3.093   4.660   2.734  0.6446 -2.6200 -0.8812
 4478SOL     OW24895   0.591   1.708  13.341  0.6001 -0.0349 -0.1305
 4478SOL    HW124896   0.511   1.741  13.382  0.1950 -0.4359 -0.6036
 4478SOL    HW224897   0.646   1.708  13.419  1.5725 -0.6752 -0.8182
 4479SOL     OW24898   1.262   3.684   5.956 -0.1492 -0.0810  0.4868
 4479SOL    HW124899   1.319   3.752   5.919  0.4587 -0.1376  1.3135
 4479SOL    HW224900   1.284   3.610   5.899  0.3986  0.7127 -0.3325
 4480SOL     OW24901   0.217   1.360   2.190 -0.0796 -0.0089 -0.1669
 4480SOL    HW124902   0.222   1.455   2.177  1.9484  0.0726  1.2875
 4480SOL    HW224903   0.199   1.327   2.102 -0.8205 -0.1534  0.0386
 4481SOL     OW24904   0.137   4.067   2.023 -0.3327 -0.1120 -0.1796
 4481SOL    HW124905   0.184   4.070   2.107  0.8461  2.0088 -0.9100
 4481SOL    HW224906   0.103   4.157   2.024  2.6107  1.0104 -2.2734
 4482SOL     OW24907   2.621   1.784  17.289 -0.4539  0.2084 -0.4069
 4482SOL    HW124908   2.686   1.715  17.302 -1.1127 -0.3279  0.0390
 4482SOL    HW224909   2.540   1.734  17.292 -0.1133 -0.2013  2.3680
 4483SOL     OW24910   1.306   2.656  10.005 -0.5359 -1.1450  0.5343
 4483SOL    HW124911   1.222   2.639   9.960 -0.5713 -0.2149  0.2454
 4483SOL    HW224912   1.369   2.607   9.953 -1.0705  0.7144 -1.8674
 4484SOL     OW24913   2.781   4.051  17.201  0.3516 -0.0368 -0.1337
 4484SOL    HW124914   2.778   4.028  17.293 -0.0074 -0.5101 -0.2673
 4484SOL    HW224915   2.875   4.061  17.184 -0.0585  0.4122 -2.2708
 4485SOL     OW24916   2.080   4.219   2.444  0.0646 -0.6503  0.0484
 4485SOL    HW124917   2.132   4.147   2.478 -0.4477 -0.8393  0.4425
 4485SOL    HW224918   2.127   4.258   2.370  0.4150  0.5853  0.9311
 4486SOL     OW24919   3.945   2.094   4.331 -0.1836 -0.3541 -0.6183
 4486SOL    HW124920   3.896   2.067   4.409 -0.5098  0.4916 -0.5250
 4486SOL    HW224921   4.034   2.068   4.352  0.0534 -0.3746 -1.6487
 4487SOL     OW24922   2.130   3.408   5.817  0.2868  0.4281 -0.4144
 4487SOL    HW124923   2.158   3.474   5.753 -1.4455  0.5495 -1.0302
 4487SOL    HW224924   2.091   3.334   5.772 -0.3169  0.9557 -0.7536
 4488SOL     OW24925   1.515   0.502   8.156 -0.1282  0.0284  0.1953
 4488SOL    HW124926   1.567   0.471   8.230  2.2391  1.0440 -1.0480
 4488SOL    HW224927   1.477   0.584   8.186  2.7772  2.1376 -1.9960
 4489SOL     OW24928   1.262   4.428   4.391  0.6740  0.6955 -0.1952
 4489SOL    HW124929   1.247   4.409   4.298  0.1585  1.3700 -0.2470
 4489SOL    HW224930   1.299   4.516   4.383  0.0115  1.0930  1.0889
 4490SOL     OW24931   3.421   0.307  14.737  0.3247  0.6051  0.2067
 4490SOL    HW124932   3.335   0.297  14.778  1.1876 -1.7913  1.4242
 4490SOL    HW224933   3.396   0.285  14.648  0.2959  3.5657 -0.5362
 4491SOL     OW24934   3.499   3.685   1.856 -0.1577 -0.1557  0.0600
 4491SOL    HW124935   3.539   3.635   1.785  0.8733  2.6563 -1.3090
 4491SOL    HW224936   3.410   3.657   1.836 -0.9963  2.3227  0.2941
 4492SOL     OW24937   0.451   2.903   7.712  0.0140  0.1562  0.0304
 4492SOL    HW124938   0.424   2.977   7.658  3.2105  0.1978 -1.4977
 4492SOL    HW224939   0.427   2.834   7.650 -1.6255  0.5484  0.2349
 4493SOL     OW24940   3.036   4.007   5.134  0.0629  0.0498  0.4207
 4493SOL    HW124941   2.957   3.973   5.176 -1.3194  0.6744 -1.6495
 4493SOL    HW224942   2.999   4.070   5.071  1.1019 -0.0818 -0.3147
 4494SOL     OW24943   0.939   3.702   1.938  0.2295  0.5103 -0.2556
 4494SOL    HW124944   1.032   3.725   1.929  0.3597  0.5224  1.1553
 4494SOL    HW224945   0.917   3.763   2.008 -1.6671 -0.3440 -0.1319
 4495SOL     OW24946   2.711   4.030   3.244  0.4258 -0.7035  0.1296
 4495SOL    HW124947   2.787   4.013   3.188  1.0531  1.4127  0.3648
 4495SOL    HW224948   2.738   4.104   3.298  0.2807 -2.1542  2.1774
 4496SOL     OW24949   0.693   0.423   4.672  0.4185  0.1795 -0.1752
 4496SOL    HW124950   0.704   0.362   4.745  0.9859 -0.8693 -1.1485
 4496SOL    HW224951   0.742   0.388   4.598 -0.1149  1.6652 -1.2266
 4497SOL     OW24952   0.640   2.950   1.874 -0.0418 -0.0915 -0.2086
 4497SOL    HW124953   0.563   2.961   1.818 -0.1818  1.4313  0.2801
 4497SOL    HW224954   0.651   3.036   1.914  1.0691 -1.1604  1.7291
 4498SOL     OW24955   2.450   3.600  15.745 -0.2138 -0.4501  0.0243
 4498SOL    HW124956   2.503   3.637  15.674  1.9984 -0.7606  1.5191
 4498SOL    HW224957   2.370   3.637  15.708 -0.5974 -2.5305 -1.2566
 4499SOL     OW24958   4.432   4.577  12.842 -0.5699  0.2728  0.0895
 4499SOL    HW124959   4.505   4.537  12.889  0.3874  0.1700 -1.4742
 4499SOL    HW224960   4.381   4.620  12.910  0.0114  2.0529 -0.6022
 4500SOL     OW24961   0.124   1.345   2.737  0.2805 -0.5661 -0.4738
 4500SOL    HW124962   0.176   1.421   2.710  0.8015 -0.9215 -0.4761
 4500SOL    HW224963   0.050   1.357   2.677  1.8708 -0.1189 -2.3658
 4501SOL     OW24964   3.492   3.391   4.865 -0.0831  0.8669 -0.0770
 4501SOL    HW124965   3.529   3.426   4.784 -1.3299  1.3049 -0.4582
 4501SOL    HW224966   3.408   3.367   4.827 -0.4592  2.6897 -0.3881
 4502SOL     OW24967   2.854   1.557   9.491 -0.0442 -0.0902 -0.7919
 4502SOL    HW124968   2.799   1.535   9.566 -0.6873 -0.2249 -1.2997
 4502SOL    HW224969   2.787   1.550   9.423 -0.1086 -0.6756 -0.6661
 4503SOL     OW24970   1.252   4.368   9.507 -0.2911 -0.3098  0.7693
 4503SOL    HW124971   1.203   4.337   9.583 -0.9291 -1.0411  0.0594
 4503SOL    HW224972   1.186   4.388   9.440  1.4969  0.4977 -0.7344
 4504SOL     OW24973   1.411   0.620   2.229  0.7577 -0.1159  0.1637
 4504SOL    HW124974   1.345   0.556   2.256 -0.7824  0.8015 -1.4973
 4504SOL    HW224975   1.434   0.579   2.146 -4.0483 -1.6564 -0.3949
 4505SOL     OW24976   4.577   2.815   8.429  0.3800 -0.1916 -0.2589
 4505SOL    HW124977   4.540   2.896   8.465 -1.1320 -1.6243  1.3775
 4505SOL    HW224978   4.669   2.812   8.454 -0.0483 -0.8621  1.2331
 4506SOL     OW24979   2.954   4.367   3.903  0.4337 -0.5809 -0.1204
 4506SOL    HW124980   2.891   4.320   3.848 -0.5717 -1.0146  1.3972
 4506SOL    HW224981   2.915   4.453   3.887  0.2033 -0.4712  1.0462
 4507SOL     OW24982   2.339   2.938   6.237  0.2566 -0.4396  0.5037
 4507SOL    HW124983   2.412   2.877   6.241 -1.1048 -1.9555  2.2203
 4507SOL    HW224984   2.391   3.018   6.224 -1.9729  1.0922  1.0152
 4508SOL     OW24985   4.173   1.324  13.608 -0.1564 -0.2844  0.1217
 4508SOL    HW124986   4.167   1.418  13.595  2.1617 -0.2774 -0.7575
 4508SOL    HW224987   4.205   1.328  13.699 -1.1905 -1.6812  0.5550
 4509SOL     OW24988   0.118   2.200  12.365 -0.1303  0.0146 -0.3605
 4509SOL    HW124989   0.119   2.219  12.459 -2.5852 -1.5711  0.0035
 4509SOL    HW224990   0.076   2.283  12.341 -0.4335  0.1432  0.6107
 4510SOL     OW24991   3.212   2.039   8.882 -0.1836  0.6594 -0.0032
 4510SOL    HW124992   3.186   1.948   8.864 -2.7721  1.3178  0.4359
 4510SOL    HW224993   3.306   2.040   8.861  0.3026  0.4036  2.0956
 4511SOL     OW24994   4.062   4.096  10.634  0.1495 -0.6932  0.3925
 4511SOL    HW124995   4.002   4.171  10.628 -2.1416 -2.4065  1.9957
 4511SOL    HW224996   4.145   4.127  10.598 -0.1966 -0.7377 -0.4485
 4512SOL     OW24997   1.728   4.215   5.400 -0.2200  0.0299 -0.2689
 4512SOL    HW124998   1.639   4.181   5.415 -0.1708  0.0889  0.1440
 4512SOL    HW224999   1.732   4.304   5.434 -1.3008 -0.3351  0.8461
 4513SOL     OW25000   3.031   2.406   3.005  0.3421  0.2399  0.1034
 4513SOL    HW125001   3.063   2.420   2.916 -1.7280  0.5812 -0.5887
 4513SOL    HW225002   3.028   2.493   3.043  0.3658  0.8447 -1.2740
 4514SOL     OW25003   0.234   1.678   8.624  0.1934 -0.4537  0.1745
 4514SOL    HW125004   0.270   1.655   8.710 -0.6365  1.7848  1.1273
 4514SOL    HW225005   0.307   1.729   8.590  1.2383 -2.4447 -0.5907
 4515SOL     OW25006   1.113   0.882  15.280  0.5649  0.0817  0.1745
 4515SOL    HW125007   1.076   0.897  15.367 -2.3498  1.1867 -1.2531
 4515SOL    HW225008   1.204   0.869  15.308  0.8687 -0.3330 -1.0343
 4516SOL     OW25009   1.698   3.764   1.860  0.0156 -0.7739 -0.3582
 4516SOL    HW125010   1.615   3.798   1.828 -0.1869  0.4760  1.5730
 4516SOL    HW225011   1.693   3.760   1.955  1.3076 -1.2260 -0.3074
 4517SOL     OW25012   2.804   0.389   5.366  0.0130 -0.1575  0.0517
 4517SOL    HW125013   2.737   0.382   5.434  0.4426 -3.7790  0.0828
 4517SOL    HW225014   2.849   0.308   5.390 -2.2862 -1.7266 -1.0070
 4518SOL     OW25015   1.083   0.206  11.577  0.1132  0.0275 -0.2442
 4518SOL    HW125016   1.033   0.260  11.515  0.4229  0.9402  0.3055
 4518SOL    HW225017   1.173   0.215  11.548 -0.6749 -1.0836 -2.9685
 4519SOL     OW25018   1.728   2.914   2.018  0.0750  0.4347  0.5790
 4519SOL    HW125019   1.726   2.860   2.097 -0.4994 -1.4953 -0.7451
 4519SOL    HW225020   1.638   2.913   1.984 -0.0746 -2.5830  1.0288
 4520SOL     OW25021   3.807   3.566   4.146 -0.2832 -0.0643  1.0321
 4520SOL    HW125022   3.751   3.583   4.221  2.7824  1.0453  3.0307
 4520SOL    HW225023   3.877   3.625   4.173  3.4773 -3.2678 -1.8453
 4521SOL     OW25024   0.643   1.424   8.362  0.3072  0.0779 -0.2425
 4521SOL    HW125025   0.638   1.510   8.321 -0.1498 -0.2678 -0.9084
 4521SOL    HW225026   0.735   1.426   8.389  0.1061  0.8263  0.3942
 4522SOL     OW25027   4.040   2.404   3.058  0.3054  0.2515  0.1739
 4522SOL    HW125028   4.121   2.353   3.045  0.5723  0.2608  1.7157
 4522SOL    HW225029   4.055   2.430   3.149  0.0134 -1.3008  0.6776
 4523SOL     OW25030   3.947   1.798   5.473  0.4037  0.4531  0.6300
 4523SOL    HW125031   3.854   1.815   5.489 -0.0813 -1.5924  0.0307
 4523SOL    HW225032   3.989   1.831   5.552  0.1389 -1.0938  1.4101
 4524SOL     OW25033   1.843   4.307   2.536 -0.0439  0.4682  0.3884
 4524SOL    HW125034   1.821   4.378   2.475 -1.6226  0.4736  0.9562
 4524SOL    HW225035   1.929   4.280   2.504 -0.8706 -2.0587  0.2865
 4525SOL     OW25036   1.826   0.407   5.996 -0.8942 -0.4576 -0.6470
 4525SOL    HW125037   1.737   0.405   5.961 -1.7246 -0.6794  1.5237
 4525SOL    HW225038   1.826   0.332   6.055  0.8739  0.4657  0.5211
 4526SOL     OW25039   4.304   3.313   3.360  0.1733 -0.3209 -0.8664
 4526SOL    HW125040   4.322   3.290   3.269  0.2976 -2.6434 -0.2481
 4526SOL    HW225041   4.245   3.243   3.388  0.3792 -0.5763 -1.0643
 4527SOL     OW25042   1.395   0.218   2.503 -0.0712 -0.5163  0.5005
 4527SOL    HW125043   1.336   0.214   2.578 -3.2127  1.2961 -1.8975
 4527SOL    HW225044   1.478   0.240   2.545  0.3850 -2.0664  0.4159
 4528SOL     OW25045   1.754   4.216   8.207  0.9054  0.5092 -0.0265
 4528SOL    HW125046   1.676   4.263   8.236  0.3301 -0.2862 -0.3117
 4528SOL    HW225047   1.777   4.177   8.291 -1.3787 -2.1541 -0.6594
 4529SOL     OW25048   3.260   1.773  14.033  0.9476  0.2849  0.2015
 4529SOL    HW125049   3.302   1.755  14.117  2.5527 -0.6822 -0.8058
 4529SOL    HW225050   3.176   1.731  14.052 -0.1185  1.2756 -2.2942
 4530SOL     OW25051   0.765   0.299   9.211 -0.1434  0.5480 -0.4588
 4530SOL    HW125052   0.847   0.264   9.247  0.3008  1.7010 -0.3540
 4530SOL    HW225053   0.738   0.231   9.149  0.4372  0.4859 -0.6479
 4531SOL     OW25054   0.421   2.734   4.752 -0.0071 -0.0053  0.7483
 4531SOL    HW125055   0.446   2.780   4.672  1.3480 -2.6635 -0.3511
 4531SOL    HW225056   0.366   2.661   4.722  2.9956 -0.8146 -2.7453
 4532SOL     OW25057   0.713   1.584  15.148 -0.1207  0.1301 -0.5204
 4532SOL    HW125058   0.791   1.552  15.102 -1.2878 -1.6624 -1.2630
 4532SOL    HW225059   0.765   1.637  15.209  0.3142 -2.4226  1.3072
 4533SOL     OW25060   2.117   1.649  12.605 -0.1652 -0.0226 -0.8388
 4533SOL    HW125061   2.100   1.583  12.672 -0.9944  2.3061  1.2728
 4533SOL    HW225062   2.106   1.598  12.525  0.4020 -1.0306 -0.2674
 4534SOL     OW25063   1.967   3.019  12.527 -0.1079 -0.0727 -0.1737
 4534SOL    HW125064   2.042   3.026  12.468 -0.9428  2.4454 -0.9629
 4534SOL    HW225065   1.988   3.086  12.593 -0.4568 -0.0971 -0.0383
 4535SOL     OW25066   3.811   3.703   5.373  0.3692 -0.6397  0.1984
 4535SOL    HW125067   3.752   3.632   5.348 -2.0349  1.8975 -1.3672
 4535SOL    HW225068   3.748   3.758   5.419  0.8800  1.4142 -1.5840
 4536SOL     OW25069   2.925   0.940   2.379  0.0006 -0.5863 -0.2694
 4536SOL    HW125070   2.897   0.855   2.343  1.0584 -1.0508  0.0183
 4536SOL    HW225071   2.988   0.982   2.321  0.3557 -0.5635  0.1342
 4537SOL     OW25072   3.268   0.795   3.593 -0.2670  0.2600  0.3627
 4537SOL    HW125073   3.354   0.828   3.620  0.8181 -2.9984  0.9694
 4537SOL    HW225074   3.289   0.701   3.591  1.5829  0.7401 -2.6580
 4538SOL     OW25075   3.699   3.446  15.352 -0.2923  0.3112  0.3773
 4538SOL    HW125076   3.654   3.502  15.288 -0.4343  1.2168  1.2808
 4538SOL    HW225077   3.618   3.401  15.377 -1.2585  0.7899 -1.7972
 4539SOL     OW25078   3.584   3.986   4.682  0.4228 -0.2521 -0.1010
 4539SOL    HW125079   3.554   3.905   4.639  0.2439 -0.7867  1.0484
 4539SOL    HW225080   3.585   3.970   4.776  1.1021 -0.0756 -0.0811
 4540SOL     OW25081   4.171   1.686   2.348 -0.4619 -0.2809  0.3549
 4540SOL    HW125082   4.095   1.638   2.382  0.0645  0.2002  2.2319
 4540SOL    HW225083   4.211   1.620   2.291 -0.4299  0.4851 -0.4889
 4541SOL     OW25084   2.609   1.254   6.354  0.0802 -0.1910 -0.3768
 4541SOL    HW125085   2.530   1.265   6.406 -2.7232  0.8339 -4.8524
 4541SOL    HW225086   2.670   1.229   6.424  0.3644  0.4403 -0.3966
 4542SOL     OW25087   3.504   3.397   8.542  0.1990  0.0464  0.4459
 4542SOL    HW125088   3.467   3.485   8.534 -1.3753 -0.4763  1.8597
 4542SOL    HW225089   3.463   3.375   8.625 -2.3296  0.0580 -0.8036
 4543SOL     OW25090   2.719   4.686   6.548 -0.0143  0.1014  0.3272
 4543SOL    HW125091   2.642   4.700   6.603 -0.0547 -2.0962  0.8427
 4543SOL    HW225092   2.686   4.611   6.498 -2.0137  0.7311  0.6932
 4544SOL     OW25093   2.248   1.803   8.562  0.1955  0.6020 -0.1260
 4544SOL    HW125094   2.189   1.772   8.493 -1.4191  0.0859  1.4829
 4544SOL    HW225095   2.307   1.850   8.503  0.5920 -0.1860 -0.3628
 4545SOL     OW25096   2.582   0.292   5.487 -0.8579  0.2191 -0.4391
 4545SOL    HW125097   2.614   0.243   5.563 -0.3952  1.8723  0.4447
 4545SOL    HW225098   2.554   0.223   5.427 -1.1267 -0.1728  0.1396
 4546SOL     OW25099   0.853   4.703  11.010 -0.2813 -0.0325  0.0310
 4546SOL    HW125100   0.853   4.662  11.096 -1.0501 -0.2927 -0.0897
 4546SOL    HW225101   0.946   4.694  10.988  0.2537  2.6202  1.1643
 4547SOL     OW25102   2.200   4.082  13.279  0.4838 -0.5186 -0.3618
 4547SOL    HW125103   2.277   4.052  13.230 -0.4116 -1.4102 -1.2298
 4547SOL    HW225104   2.142   4.006  13.279  0.1922 -0.2974 -1.1396
 4548SOL     OW25105   3.278   2.127   6.741  0.0392  0.3852 -0.4750
 4548SOL    HW125106   3.225   2.173   6.806  0.8356  0.6556 -0.0206
 4548SOL    HW225107   3.212   2.116   6.673 -1.4956 -0.5629  1.1848
 4549SOL     OW25108   2.799   4.358   5.497  0.1366  0.1206 -0.2425
 4549SOL    HW125109   2.812   4.437   5.445  0.3371  1.1151  1.3098
 4549SOL    HW225110   2.722   4.385   5.549  1.1404  0.4160  1.0896
 4550SOL     OW25111   3.481   2.299   6.411 -0.2496 -0.1693 -0.2259
 4550SOL    HW125112   3.404   2.355   6.420  1.1397  1.6798  0.1498
 4550SOL    HW225113   3.489   2.255   6.495 -2.3733 -0.9336 -0.4276
 4551SOL     OW25114   2.505   3.492   4.682  0.0091  0.5979 -0.0737
 4551SOL    HW125115   2.533   3.420   4.739 -2.0160 -0.7399 -0.7599
 4551SOL    HW225116   2.439   3.450   4.627 -2.3706  3.3284  0.6632
 4552SOL     OW25117   2.525   0.648  14.715  1.0206  0.3076  0.5413
 4552SOL    HW125118   2.542   0.639  14.621 -0.7719 -1.0191  0.3282
 4552SOL    HW225119   2.483   0.734  14.704 -0.5755 -0.5160  0.1610
 4553SOL     OW25120   1.430   3.416   9.189 -0.0404  0.1051  0.9841
 4553SOL    HW125121   1.372   3.482   9.153  0.6173  0.6659  0.9505
 4553SOL    HW225122   1.366   3.356   9.227  0.8540  1.2061  4.2057
 4554SOL     OW25123   2.814   2.204   2.461  0.0836  0.5908 -0.1724
 4554SOL    HW125124   2.797   2.298   2.461  1.7538  0.8955  0.4493
 4554SOL    HW225125   2.796   2.191   2.368 -1.9283  1.3331  0.1071
 4555SOL     OW25126   3.044   2.310   4.590  0.6305 -0.5415  0.1901
 4555SOL    HW125127   3.138   2.295   4.582  0.1179 -2.6211 -2.1433
 4555SOL    HW225128   3.011   2.221   4.602  0.0286 -0.2747  0.4897
 4556SOL     OW25129   2.316   1.980   3.159 -0.0952 -0.0580 -0.1723
 4556SOL    HW125130   2.331   2.061   3.111 -1.0879 -0.0809 -0.5186
 4556SOL    HW225131   2.407   1.951   3.156  0.7531  2.7832 -1.3740
 4557SOL     OW25132   0.239   2.212  14.398 -0.4757 -0.0984 -0.0462
 4557SOL    HW125133   0.164   2.256  14.360 -0.2685  0.1938 -0.1152
 4557SOL    HW225134   0.284   2.286  14.438 -1.7717 -0.3263  1.8163
 4558SOL     OW25135   4.501   2.110   5.007 -0.4229 -0.1718 -0.0935
 4558SOL    HW125136   4.482   2.180   5.070 -0.4220 -0.7990  0.5919
 4558SOL    HW225137   4.499   2.031   5.060  1.8090 -0.6457 -0.7402
 4559SOL     OW25138   1.372   4.627  17.094 -0.1730 -0.5033  0.4097
 4559SOL    HW125139   1.304   4.572  17.133 -2.0537  1.0445 -0.6007
 4559SOL    HW225140   1.349   4.716  17.124  0.0263 -0.8197  1.4929
 4560SOL     OW25141   0.060   1.067   4.215  0.1474  0.1087 -0.1577
 4560SOL    HW125142   0.031   1.108   4.133  0.4160  0.1666 -0.2222
 4560SOL    HW225143   4.707   1.095   4.269 -1.1139 -1.1212 -1.2372
 4561SOL     OW25144   2.423   2.294  17.121 -0.1373 -0.0078 -0.0020
 4561SOL    HW125145   2.457   2.227  17.061 -3.8350  0.3394 -2.4756
 4561SOL    HW225146   2.346   2.335  17.083 -0.3034  0.3815  0.7693
 4562SOL     OW25147   4.487   1.757   6.384  0.1915  0.2121  0.1782
 4562SOL    HW125148   4.577   1.733   6.363  0.8613  1.4157  1.6653
 4562SOL    HW225149   4.470   1.704   6.462 -0.8441  0.5340  0.1689
 4563SOL     OW25150   0.962   3.945   4.732 -0.0917  0.0701  0.1938
 4563SOL    HW125151   0.898   3.984   4.792  1.5177  2.1930  0.5098
 4563SOL    HW225152   0.905   3.886   4.682  0.1246 -0.6943  0.8523
 4564SOL     OW25153   1.325   1.692   2.714 -0.1339 -0.3191 -0.3136
 4564SOL    HW125154   1.328   1.664   2.623 -0.9831  0.3304 -0.5426
 4564SOL    HW225155   1.394   1.759   2.713  0.3988 -0.8889 -1.1554
 4565SOL     OW25156   1.524   3.876   8.294 -0.6092  0.7271  0.1304
 4565SOL    HW125157   1.533   3.784   8.271  0.2287  0.6421  0.7607
 4565SOL    HW225158   1.433   3.893   8.271 -0.3467  1.0435 -0.6742
 4566SOL     OW25159   2.404   2.008   4.459 -0.0311  0.2284  0.2905
 4566SOL    HW125160   2.423   1.916   4.473 -0.3916 -0.7381 -5.7189
 4566SOL    HW225161   2.345   1.997   4.385  0.9861 -2.3016 -0.1180
 4567SOL     OW25162   4.323   2.256   8.003  0.2003  0.5359  0.2317
 4567SOL    HW125163   4.282   2.250   7.917  1.7569 -2.0885 -0.3427
 4567SOL    HW225164   4.337   2.349   8.020  0.1210  0.1640  2.4096
 4568SOL     OW25165   2.382   3.110  12.129  0.1482 -0.3752  0.3090
 4568SOL    HW125166   2.340   3.096  12.045 -1.6690 -0.3832  1.2154
 4568SOL    HW225167   2.321   3.174  12.164  0.8481  1.2511 -1.4765
 4569SOL     OW25168   0.455   2.106  10.480  0.4435  0.1461 -0.6492
 4569SOL    HW125169   0.408   2.188  10.465  1.8499  1.2832  0.9904
 4569SOL    HW225170   0.517   2.135  10.548 -2.3146  4.3331  0.0270
 4570SOL     OW25171   1.045   1.925   8.430 -0.0339 -0.0362 -0.4542
 4570SOL    HW125172   0.959   1.958   8.406  0.4774  1.3031 -0.4228
 4570SOL    HW225173   1.092   2.008   8.438 -0.2485  0.1899 -1.6026
 4571SOL     OW25174   1.563   3.387   3.578 -0.0997 -0.5747 -0.2152
 4571SOL    HW125175   1.576   3.343   3.494  2.6116  0.9384 -0.5892
 4571SOL    HW225176   1.618   3.330   3.631 -0.4529  0.7946  1.6542
 4572SOL     OW25177   3.390   0.705  11.373 -0.3296  0.3160 -0.2359
 4572SOL    HW125178   3.363   0.614  11.381  0.5764  0.2196  1.8074
 4572SOL    HW225179   3.484   0.685  11.377 -0.3683  0.2257  0.2649
 4573SOL     OW25180   1.692   0.307   2.460  0.3137  0.5129 -0.2644
 4573SOL    HW125181   1.729   0.309   2.372  0.2477  1.6345 -0.2682
 4573SOL    HW225182   1.762   0.348   2.511  0.5836 -0.1849 -0.0641
 4574SOL     OW25183   1.975   2.945   2.183  0.4935 -0.7453  0.5340
 4574SOL    HW125184   1.922   2.912   2.256  0.6331  1.8596  1.8477
 4574SOL    HW225185   1.991   2.866   2.132 -0.8421 -0.9301  0.3879
 4575SOL     OW25186   1.255   1.493   5.904  0.3169 -0.0536 -0.2010
 4575SOL    HW125187   1.251   1.573   5.956  3.3631  0.0857 -0.1801
 4575SOL    HW225188   1.252   1.527   5.815  0.7968  1.9203  0.5387
 4576SOL     OW25189   3.394   4.669   3.406  0.1744 -0.7471 -0.1124
 4576SOL    HW125190   3.346   0.025   3.375  0.0726 -0.4389  0.8252
 4576SOL    HW225191   3.325   4.624   3.455 -0.8018  0.0033 -0.7921
 4577SOL     OW25192   3.434   4.083  13.363  0.1924 -0.1673 -0.4058
 4577SOL    HW125193   3.452   3.991  13.384 -2.8334 -0.4741  0.7806
 4577SOL    HW225194   3.478   4.120  13.440 -1.2167 -0.1367  0.3944
 4578SOL     OW25195   1.006   4.547   6.262 -0.1110  0.1425 -0.1907
 4578SOL    HW125196   0.971   4.544   6.174  0.9002 -0.1878 -0.5826
 4578SOL    HW225197   0.931   4.514   6.311  1.7385 -0.6099  2.1682
 4579SOL     OW25198   1.048   4.194   0.624 -0.0808 -0.1908 -0.0820
 4579SOL    HW125199   1.063   4.105   0.656 -0.8254 -0.4824 -0.5421
 4579SOL    HW225200   0.977   4.180   0.561 -1.4559 -0.5444  1.5678
 4580SOL     OW25201   0.127   2.552   7.063  0.5162 -0.2655  0.0351
 4580SOL    HW125202   0.165   2.636   7.087  0.4253  0.6503 -3.0711
 4580SOL    HW225203   0.137   2.573   6.970 -0.6564 -2.1157 -0.5084
 4581SOL     OW25204   2.812   2.404  15.162 -0.3107  0.4687 -0.1277
 4581SOL    HW125205   2.734   2.421  15.215  0.9599  1.2490  1.4950
 4581SOL    HW225206   2.855   2.489  15.161 -0.2994  0.4637 -0.0639
 4582SOL     OW25207   4.529   3.330   5.077 -0.6617 -0.0098  1.0982
 4582SOL    HW125208   4.491   3.414   5.049 -0.7235 -0.2514  0.4550
 4582SOL    HW225209   4.535   3.355   5.169 -3.2884  1.4744  0.8832
 4583SOL     OW25210   4.587   3.121   1.190  0.4501  0.0742 -0.0753
 4583SOL    HW125211   4.681   3.136   1.197  0.6073 -1.2632  0.5664
 4583SOL    HW225212   4.546   3.164   1.265  0.6987 -0.8209  0.5720
 4584SOL     OW25213   4.286   0.658   6.205  0.2458  0.0349 -0.5125
 4584SOL    HW125214   4.223   0.722   6.238  0.0600 -0.6916  0.5699
 4584SOL    HW225215   4.246   0.640   6.120 -2.2378 -0.8502  0.8386
 4585SOL     OW25216   3.805   0.870   1.011 -0.3334 -0.4848  0.4199
 4585SOL    HW125217   3.788   0.801   0.948  1.0747  0.7986 -1.3794
 4585SOL    HW225218   3.713   0.894   1.022  0.0441 -0.0009  2.6021
 4586SOL     OW25219   3.950   0.271   6.692 -0.1334 -0.5459 -0.5464
 4586SOL    HW125220   4.017   0.217   6.650  0.5225  0.9430 -1.4130
 4586SOL    HW225221   3.978   0.362   6.684 -0.4071 -0.3075  1.2509
 4587SOL     OW25222   3.848   1.220   1.979  0.7278  0.3163  0.2797
 4587SOL    HW125223   3.884   1.134   1.957 -0.2143  0.6477 -2.5365
 4587SOL    HW225224   3.923   1.265   2.017 -1.4342  1.0361  3.6907
 4588SOL     OW25225   1.775   3.982  10.203  0.1346  0.4117 -0.1138
 4588SOL    HW125226   1.870   3.993  10.207  0.2460 -0.6257  0.0291
 4588SOL    HW225227   1.765   4.029  10.120 -0.2084 -3.1004 -2.0481
 4589SOL     OW25228   2.700   4.578   3.922 -0.2670  0.1214 -0.0405
 4589SOL    HW125229   2.653   4.650   3.965  1.0739 -0.3023  2.1666
 4589SOL    HW225230   2.649   4.505   3.959 -2.5101  1.4274 -0.5877
 4590SOL     OW25231   4.474   0.186  11.588  0.3673 -0.1672  0.0703
 4590SOL    HW125232   4.449   0.277  11.601  1.5286  0.0564  0.7666
 4590SOL    HW225233   4.567   0.209  11.589  0.7777 -1.6609 -2.1711
 4591SOL     OW25234   4.351   2.298   6.765  0.3417  0.1826  0.3217
 4591SOL    HW125235   4.337   2.370   6.827  1.6680  0.1992  0.6052
 4591SOL    HW225236   4.367   2.226   6.826  0.5804 -0.8035 -0.9050
 4592SOL     OW25237   3.285   4.176  10.754  0.3534 -0.0904  0.2205
 4592SOL    HW125238   3.242   4.205  10.674  2.0623 -0.3440 -0.8067
 4592SOL    HW225239   3.340   4.250  10.779 -0.2339  0.4613 -0.1204
 4593SOL     OW25240   3.859   1.082  15.246  0.0998  0.0297  0.2959
 4593SOL    HW125241   3.845   0.991  15.220  0.3557 -0.2592  1.1798
 4593SOL    HW225242   3.872   1.080  15.341 -2.7902  0.4469  0.7031
 4594SOL     OW25243   1.025   0.016   9.246  0.0182 -0.0511 -0.4510
 4594SOL    HW125244   1.108   0.056   9.219  0.1923  0.3982  0.7308
 4594SOL    HW225245   1.032   0.042   9.338 -0.8315  0.5296 -0.5556
 4595SOL     OW25246   4.086   0.376   5.279  0.6893  0.8512 -0.1730
 4595SOL    HW125247   4.102   0.316   5.352  0.7116 -2.2200 -2.7320
 4595SOL    HW225248   4.140   0.328   5.217  1.8301  1.6333  0.2227
 4596SOL     OW25249   1.227   1.084  16.286  0.2195 -0.0316 -0.3480
 4596SOL    HW125250   1.258   1.017  16.225  1.4014  0.5879 -0.4279
 4596SOL    HW225251   1.162   1.123  16.229  1.4207  0.1098 -1.6290
 4597SOL     OW25252   3.558   3.809   3.283  0.2028 -0.9288  0.3976
 4597SOL    HW125253   3.641   3.841   3.246 -0.8692  3.2880  1.6710
 4597SOL    HW225254   3.582   3.816   3.375  1.0089 -1.0442  0.1975
 4598SOL     OW25255   4.163   0.031   0.577 -0.5997 -0.1540 -0.0394
 4598SOL    HW125256   4.242   4.704   0.551 -1.5130 -0.4989 -2.1949
 4598SOL    HW225257   4.206   0.113   0.601  2.4545 -0.8777 -2.9522
 4599SOL     OW25258   4.654   4.049  15.058 -0.2074 -0.0903  0.1963
 4599SOL    HW125259   4.569   4.025  15.022  0.0092 -1.3430  0.5040
 4599SOL    HW225260   4.650   4.141  15.082  1.2132 -0.3734  1.5656
 4600SOL     OW25261   3.802   3.389   3.577 -0.7465 -0.0285 -0.7814
 4600SOL    HW125262   3.853   3.386   3.496  2.3865 -1.5066  1.2788
 4600SOL    HW225263   3.716   3.410   3.540 -0.9264  2.0753  0.8314
 4601SOL     OW25264   2.733   1.443   4.602 -0.1894  0.3837  0.4923
 4601SOL    HW125265   2.691   1.409   4.681 -0.6926 -0.1736 -0.0144
 4601SOL    HW225266   2.706   1.534   4.596 -2.3777 -0.2217  1.2116
 4602SOL     OW25267   0.721   3.727   3.360  0.0044  0.2194  0.0919
 4602SOL    HW125268   0.781   3.665   3.321 -0.0961  1.0067 -1.3205
 4602SOL    HW225269   0.729   3.811   3.315 -2.1200 -0.1290 -0.9303
 4603SOL     OW25270   0.307   1.120  16.705  0.5989 -0.6188 -0.4444
 4603SOL    HW125271   0.332   1.048  16.763 -0.5163 -1.9103 -1.5634
 4603SOL    HW225272   0.222   1.151  16.737  0.1655  0.0861 -2.2774
 4604SOL     OW25273   1.227   3.887   4.669 -0.3012  0.6164 -0.0978
 4604SOL    HW125274   1.251   3.835   4.746  3.1372  2.3606  0.0093
 4604SOL    HW225275   1.138   3.918   4.687 -0.5531 -0.3689  0.3943
 4605SOL     OW25276   1.021   0.635   3.779  0.3494  0.1747  0.3268
 4605SOL    HW125277   1.014   0.726   3.750  2.4372 -0.6410 -2.6342
 4605SOL    HW225278   1.010   0.639   3.874 -1.2789  2.5660  0.0446
 4606SOL     OW25279   2.855   2.675   7.561  0.4980 -0.0671 -0.5988
 4606SOL    HW125280   2.788   2.698   7.498 -0.9641  2.0953  1.7496
 4606SOL    HW225281   2.836   2.729   7.638 -0.5616 -0.8815 -0.2889
 4607SOL     OW25282   4.695   0.301   2.461  0.2642  0.0812 -0.3829
 4607SOL    HW125283   4.634   0.338   2.397 -0.4517 -2.8748 -1.4076
 4607SOL    HW225284   4.703   0.373   2.524 -0.8994  1.1448 -1.4597
 4608SOL     OW25285   1.036   4.530   7.272 -0.5328  0.5272  0.4995
 4608SOL    HW125286   1.068   4.512   7.184 -1.2420  1.0257  0.1382
 4608SOL    HW225287   0.943   4.547   7.254 -0.2087  1.5242 -0.2601
 4609SOL     OW25288   4.163   1.898  10.391  0.1902 -0.7147  0.0740
 4609SOL    HW125289   4.233   1.846  10.431 -0.9938 -2.3230  0.0186
 4609SOL    HW225290   4.135   1.834  10.326 -1.6364 -1.6926  1.8095
 4610SOL     OW25291   0.787   2.288   0.165 -0.0522  0.2884  0.1222
 4610SOL    HW125292   0.750   2.266   0.080 -0.4575 -0.0830  0.3941
 4610SOL    HW225293   0.731   2.351   0.211  0.8481 -0.5469  2.3582
 4611SOL     OW25294   2.097   0.216  14.453  0.5862 -0.2630 -0.1148
 4611SOL    HW125295   2.018   0.236  14.505  0.2053  1.2488 -1.2996
 4611SOL    HW225296   2.139   0.170  14.526  1.1217 -1.8312 -1.4208
 4612SOL     OW25297   1.703   1.260   1.609  0.2307 -0.2539 -0.1680
 4612SOL    HW125298   1.770   1.227   1.549 -0.0433  0.4147 -0.8411
 4612SOL    HW225299   1.730   1.349   1.633 -1.2007  0.3326 -0.7407
 4613SOL     OW25300   2.116   0.391   2.429 -0.1666 -0.1052  0.2839
 4613SOL    HW125301   2.130   0.452   2.356  1.0011 -0.9573 -0.2140
 4613SOL    HW225302   2.198   0.348   2.455  0.5673  0.8810 -0.3645
 4614SOL     OW25303   4.616   1.212   1.569  0.0624  0.3299  0.3042
 4614SOL    HW125304   4.596   1.273   1.498  0.4975 -1.2230 -1.1501
 4614SOL    HW225305   4.563   1.134   1.552 -0.6465  1.3505 -2.1328
 4615SOL     OW25306   2.163   3.216   7.708 -0.2869 -0.3167 -0.3818
 4615SOL    HW125307   2.221   3.281   7.747 -3.2675  1.1858  1.4986
 4615SOL    HW225308   2.209   3.206   7.624  0.8132 -1.3914  0.3424
 4616SOL     OW25309   3.719   1.826   5.936 -0.3004 -0.2690 -0.5679
 4616SOL    HW125310   3.808   1.790   5.930 -1.1077 -2.0070 -1.9046
 4616SOL    HW225311   3.677   1.753   5.891 -1.1510  0.4206 -0.8919
 4617SOL     OW25312   1.295   0.759   8.102 -0.2998  0.3876 -0.1073
 4617SOL    HW125313   1.311   0.776   8.009 -0.3925  0.6192 -0.0821
 4617SOL    HW225314   1.384   0.748   8.135 -0.6906 -0.1034  0.7882
 4618SOL     OW25315   2.848   2.201   7.155 -0.2465  0.1429  0.0662
 4618SOL    HW125316   2.857   2.285   7.200  2.5781 -0.4220  0.5740
 4618SOL    HW225317   2.836   2.144   7.231  0.5828 -0.1018  0.0115
 4619SOL     OW25318   2.292   1.125   4.127  1.0050 -0.4772  0.5089
 4619SOL    HW125319   2.225   1.103   4.192  1.5938 -0.3941  1.1408
 4619SOL    HW225320   2.365   1.064   4.138  1.7835  0.5523  1.1519
 4620SOL     OW25321   0.156   4.036   1.307  0.5258 -0.2607  0.4548
 4620SOL    HW125322   0.181   4.018   1.397 -0.2714 -0.8270  0.5586
 4620SOL    HW225323   0.245   4.038   1.272  0.4572 -0.4567  0.2682
 4621SOL     OW25324   1.289   3.708  13.905 -0.8759 -0.1425  0.1162
 4621SOL    HW125325   1.351   3.678  13.971 -1.0020  1.7542  1.0969
 4621SOL    HW225326   1.301   3.802  13.918  1.9923 -0.8590  2.6397
 4622SOL     OW25327   2.775   3.266   5.086 -0.8834  0.6734 -0.3124
 4622SOL    HW125328   2.757   3.229   5.172 -0.8127 -0.9503 -0.9968
 4622SOL    HW225329   2.857   3.312   5.105  0.4700 -2.4066  1.2753
 4623SOL     OW25330   0.031   4.408   3.483 -0.2616  0.3339  0.4736
 4623SOL    HW125331   4.684   4.366   3.431  0.7698 -0.2843 -0.3536
 4623SOL    HW225332   0.044   4.497   3.448  0.4348  0.4292  0.9606
 4624SOL     OW25333   0.929   3.276   6.346 -0.2680 -0.3645  0.0965
 4624SOL    HW125334   1.024   3.288   6.350 -0.5118  1.9649 -1.1640
 4624SOL    HW225335   0.898   3.354   6.391  1.8187  1.7500 -2.1187
 4625SOL     OW25336   1.395   2.113   6.524  0.1185  0.4282  0.1942
 4625SOL    HW125337   1.333   2.086   6.456  0.7506 -0.7617  0.0861
 4625SOL    HW225338   1.412   2.200   6.488 -2.4910  1.3407  1.1628
 4626SOL     OW25339   0.216   3.511   6.072  0.4859 -0.1472 -0.3251
 4626SOL    HW125340   0.261   3.520   5.987 -0.5912  0.5700 -0.8252
 4626SOL    HW225341   0.251   3.427   6.101  0.1861  0.4206  1.6769
 4627SOL     OW25342   1.260   0.606   4.209 -0.6238 -0.3736 -0.3324
 4627SOL    HW125343   1.310   0.652   4.141  1.1252 -1.0144  0.5218
 4627SOL    HW225344   1.300   0.635   4.291  1.1366  0.2121 -1.3922
 4628SOL     OW25345   0.427   3.226  14.501 -0.7922 -0.0570  0.2627
 4628SOL    HW125346   0.335   3.236  14.475 -0.4326  0.4822 -0.7985
 4628SOL    HW225347   0.426   3.267  14.587 -0.4698  0.2540  0.1179
 4629SOL     OW25348   1.513   4.016  10.281  0.1328  0.1149  0.3620
 4629SOL    HW125349   1.608   4.003  10.277  0.0690  0.2004 -1.3077
 4629SOL    HW225350   1.510   4.061  10.366  0.5521  0.2579  0.2987
 4630SOL     OW25351   4.238   0.346   3.234 -0.4176 -0.3029 -0.0476
 4630SOL    HW125352   4.163   0.398   3.205 -0.9959 -0.7840  0.5630
 4630SOL    HW225353   4.220   0.260   3.196 -1.3688 -0.7877  1.4635
 4631SOL     OW25354   0.347   0.584  14.901 -0.4457  0.2020 -0.2205
 4631SOL    HW125355   0.385   0.617  14.819  0.1709  1.1392  0.4439
 4631SOL    HW225356   0.300   0.504  14.877  2.2645 -0.8887 -1.8565
 4632SOL     OW25357   3.651   1.189  11.913  0.3727  0.0711  0.3130
 4632SOL    HW125358   3.722   1.238  11.871 -0.9856 -0.1001 -2.1778
 4632SOL    HW225359   3.615   1.269  11.952  0.3497 -1.4378  3.3640
 4633SOL     OW25360   3.549   4.224   2.131  0.1903  0.2357  0.0036
 4633SOL    HW125361   3.635   4.234   2.090 -0.3995  1.6765 -0.9143
 4633SOL    HW225362   3.498   4.199   2.054  0.6937  0.7932 -0.5182
 4634SOL     OW25363   4.569   2.571   6.792 -0.5237 -0.1315 -0.0549
 4634SOL    HW125364   4.487   2.563   6.841 -0.0869 -2.2084  0.3332
 4634SOL    HW225365   4.624   2.612   6.858 -0.8893 -1.0361  0.8214
 4635SOL     OW25366   2.358   0.403   7.705 -0.4493  0.7232 -0.3077
 4635SOL    HW125367   2.278   0.454   7.716 -2.4711 -2.2095 -1.4557
 4635SOL    HW225368   2.334   0.335   7.641  0.6483  0.8734 -0.8854
 4636SOL     OW25369   3.004   1.769   3.330  0.5304 -0.1811 -0.1386
 4636SOL    HW125370   3.087   1.729   3.355 -0.3174 -0.1140  2.7851
 4636SOL    HW225371   2.964   1.703   3.274 -2.2535  0.3010  1.2562
 4637SOL     OW25372   3.039   2.910   8.303 -0.0760 -0.0098 -0.0566
 4637SOL    HW125373   3.053   2.874   8.391 -0.6415 -2.8047 -1.0980
 4637SOL    HW225374   3.074   2.996   8.325 -0.2271  0.0071  0.1230
 4638SOL     OW25375   1.311   4.642   5.560 -0.1474  0.2796 -0.0155
 4638SOL    HW125376   1.375   4.605   5.500  0.7374 -2.1330  2.4394
 4638SOL    HW225377   1.335   0.014   5.551 -1.2251  0.5550 -0.0680
 4639SOL     OW25378   1.957   3.558   1.569  0.3551 -0.1546 -0.4172
 4639SOL    HW125379   1.865   3.546   1.548  0.2131 -2.9392  1.8267
 4639SOL    HW225380   1.958   3.630   1.633  2.2879 -1.5547  1.1179
 4640SOL     OW25381   4.124   0.557  15.733  0.2006 -0.4363  0.9044
 4640SOL    HW125382   4.084   0.475  15.705  1.2578 -0.7256  0.2674
 4640SOL    HW225383   4.048   0.593  15.778 -0.7245 -0.2168 -0.8339
 4641SOL     OW25384   4.340   1.999   7.122  0.0462  0.1455 -0.0783
 4641SOL    HW125385   4.358   1.997   7.216  2.4341  0.9805 -0.5154
 4641SOL    HW225386   4.295   1.917   7.103 -0.9529  0.0358  2.8480
 4642SOL     OW25387   2.225   0.149  17.511  0.4492 -0.1332 -0.2579
 4642SOL    HW125388   2.289   0.185  17.572 -0.7267  1.8787 -0.2020
 4642SOL    HW225389   2.283   0.127  17.439  1.2882 -1.3364  0.7837
 4643SOL     OW25390   1.784   2.956   2.648  0.0935  0.3345 -0.8624
 4643SOL    HW125391   1.816   3.032   2.697 -1.1942 -0.8300  1.8470
 4643SOL    HW225392   1.847   2.948   2.578  0.6144  1.1399 -0.4747
 4644SOL     OW25393   0.445   3.872   8.674 -0.2052  0.2078  0.1849
 4644SOL    HW125394   0.389   3.838   8.604 -0.0077  3.8435 -1.7370
 4644SOL    HW225395   0.533   3.866   8.637  0.1698  0.7496  0.9775
 4645SOL     OW25396   2.000   0.011   4.016  0.9021 -0.2198 -0.2515
 4645SOL    HW125397   1.963   0.080   3.961 -1.7466 -0.1086  1.7077
 4645SOL    HW225398   1.963   4.657   3.969 -1.1977  0.4470  0.3775
 4646SOL     OW25399   3.941   0.990   7.802 -0.3155  0.4385  0.7808
 4646SOL    HW125400   4.001   1.027   7.867 -0.2849 -2.0262  2.1897
 4646SOL    HW225401   3.873   0.952   7.859 -0.5588 -0.8169 -0.3570
 4647SOL     OW25402   0.536   3.149   5.140  0.0519  0.0350  0.4709
 4647SOL    HW125403   0.440   3.150   5.143  0.0641 -0.8810  1.1044
 4647SOL    HW225404   0.561   3.075   5.085  0.6006  0.3339  0.3222
 4648SOL     OW25405   4.529   0.166   1.128  0.2124  0.1458  1.0120
 4648SOL    HW125406   4.578   0.102   1.077  1.9002  1.5834  0.8240
 4648SOL    HW225407   4.498   0.123   1.208 -0.1026  0.7780  1.2315
 4649SOL     OW25408   1.321   4.697   4.029 -0.5399  0.0477  0.0242
 4649SOL    HW125409   1.344   4.621   3.976  0.0218  0.0643  0.2414
 4649SOL    HW225410   1.232   0.002   4.003  0.0104 -0.6756 -2.5795
 4650SOL     OW25411   0.197   0.827  12.782  0.5038 -0.0527  0.5386
 4650SOL    HW125412   0.253   0.876  12.722 -1.2723  0.1740 -0.9695
 4650SOL    HW225413   0.240   0.743  12.766  2.0555  0.2520  3.2751
 4651SOL     OW25414   4.085   0.862  13.334  0.7569  0.2972 -1.1970
 4651SOL    HW125415   4.122   0.792  13.280  0.8774  2.4003 -3.8685
 4651SOL    HW225416   4.081   0.931  13.268  1.0080 -1.2279 -2.8055
 4652SOL     OW25417   4.399   1.330   8.612  0.3591  0.4568 -1.2096
 4652SOL    HW125418   4.338   1.365   8.547  0.6968  0.7580 -1.3683
 4652SOL    HW225419   4.372   1.375   8.692 -1.3469  0.1185 -1.5847
 4653SOL     OW25420   4.101   2.086   5.134  0.3996  0.4166  0.1497
 4653SOL    HW125421   4.053   2.080   5.052  1.6451  1.8973 -0.6985
 4653SOL    HW225422   4.105   1.995   5.165  1.6399  0.8732  1.3361
 4654SOL     OW25423   0.174   0.842   0.460 -0.3937  0.4721  0.2662
 4654SOL    HW125424   0.204   0.860   0.549 -1.7915 -1.6847  1.1850
 4654SOL    HW225425   0.196   0.749   0.452  0.6201  0.8667 -1.5669
 4655SOL     OW25426   2.801   2.887   8.641  0.1859  0.4571  0.1055
 4655SOL    HW125427   2.717   2.905   8.683  0.7351 -2.2793  2.3833
 4655SOL    HW225428   2.820   2.978   8.620 -0.0405  0.7840  1.3462
 4656SOL     OW25429   3.752   0.590   4.734 -0.4929  0.1794  0.2510
 4656SOL    HW125430   3.765   0.662   4.796  0.8546 -0.4123  0.6629
 4656SOL    HW225431   3.822   0.531   4.762 -1.7876 -1.3594  0.2623
 4657SOL     OW25432   0.008   0.428   1.017 -0.2888 -0.2032  0.3802
 4657SOL    HW125433   0.059   0.445   1.096  1.0921 -0.2289 -0.4995
 4657SOL    HW225434   0.049   0.502   0.971 -1.7287  0.1735 -0.2975
 4658SOL     OW25435   4.053   4.255   4.399 -0.1531 -0.1865 -0.1803
 4658SOL    HW125436   4.030   4.292   4.314 -1.6464  1.5697  1.0018
 4658SOL    HW225437   4.039   4.325   4.463  2.5840  0.9830 -0.8474
 4659SOL     OW25438   1.631   3.602   8.267 -0.0005  0.2938 -0.2268
 4659SOL    HW125439   1.634   3.567   8.178 -1.1805  1.6682 -0.8078
 4659SOL    HW225440   1.671   3.529   8.314  0.7261  1.0898  0.3900
 4660SOL     OW25441   1.121   4.720   8.890  0.1968 -0.2059  0.8349
 4660SOL    HW125442   1.189   0.033   8.831  0.5906 -0.4298  1.1617
 4660SOL    HW225443   1.150   0.017   8.979  0.5383 -1.9548  1.0666
 4661SOL     OW25444   4.468   0.532   3.124  0.0905  0.0530  0.2287
 4661SOL    HW125445   4.390   0.495   3.165 -0.8024  1.9342  0.2537
 4661SOL    HW225446   4.480   0.470   3.052  1.7825 -0.5733  1.0432
 4662SOL     OW25447   4.700   1.854   5.575  0.2849  0.9093  0.7057
 4662SOL    HW125448   0.049   1.896   5.625  0.5230  0.5161  0.7044
 4662SOL    HW225449   4.658   1.807   5.647 -0.9460 -0.0468 -0.6448
 4663SOL     OW25450   1.989   2.814  13.316 -0.6049  0.3449  0.4730
 4663SOL    HW125451   1.900   2.781  13.305  0.3489 -2.0545 -0.2536
 4663SOL    HW225452   2.026   2.797  13.229 -0.6837  0.2317  0.4608
 4664SOL     OW25453   0.991   3.658  10.294  0.7816 -0.2677  0.0284
 4664SOL    HW125454   1.011   3.580  10.346  0.4376 -0.2932  0.1242
 4664SOL    HW225455   1.083   3.677  10.273  0.9706 -0.6362  0.5137
 4665SOL     OW25456   2.757   2.301   7.897 -0.1358  0.9364 -0.3305
 4665SOL    HW125457   2.738   2.269   7.986  1.8772 -1.2885 -0.7135
 4665SOL    HW225458   2.852   2.294   7.891 -0.1739 -0.7839  1.0236
 4666SOL     OW25459   3.205   4.358  11.760 -0.4297  0.0089  0.6885
 4666SOL    HW125460   3.228   4.299  11.687  0.4253 -0.3352  1.2301
 4666SOL    HW225461   3.120   4.328  11.793 -0.1354 -1.3419  0.2406
 4667SOL     OW25462   4.111   3.517   3.392 -0.1209  0.8340 -0.1799
 4667SOL    HW125463   4.177   3.448   3.389  0.7537  1.6093  1.6287
 4667SOL    HW225464   4.129   3.553   3.305  0.6710  2.8270  0.8107
 4668SOL     OW25465   3.664   3.196   4.402  0.0499 -0.1323 -0.7857
 4668SOL    HW125466   3.665   3.149   4.318  0.5575 -0.4151 -0.6211
 4668SOL    HW225467   3.754   3.229   4.401 -1.0671  2.8509 -1.7956
 4669SOL     OW25468   1.615   0.606   7.691 -0.7011 -0.8405  0.5163
 4669SOL    HW125469   1.574   0.668   7.631  1.8116 -0.2358 -0.5901
 4669SOL    HW225470   1.564   0.528   7.671  1.7802 -1.6341 -2.6482
 4670SOL     OW25471   3.147   2.791   1.897  0.5164 -1.0276 -0.5823
 4670SOL    HW125472   3.193   2.720   1.853  2.4102  0.6047 -1.2409
 4670SOL    HW225473   3.080   2.742   1.944  1.4619  0.9405  2.8228
 4671SOL     OW25474   4.670   1.890  11.617 -0.5356 -0.6129  0.1034
 4671SOL    HW125475   4.587   1.922  11.653 -1.2285 -0.6881 -1.4136
 4671SOL    HW225476   0.007   1.965  11.608 -0.1687 -1.0853 -1.5112
 4672SOL     OW25477   0.882   0.222   5.334 -0.1694 -0.1827 -0.1708
 4672SOL    HW125478   0.841   0.263   5.259  2.0521  0.0825 -1.2337
 4672SOL    HW225479   0.809   0.169   5.368  0.1241 -1.0523 -0.8956
 4673SOL     OW25480   2.346   3.835   8.555  0.1323 -0.1160 -0.1893
 4673SOL    HW125481   2.328   3.750   8.594 -0.6299 -0.2737 -0.8831
 4673SOL    HW225482   2.267   3.880   8.588 -1.5580 -2.2296 -1.3758
 4674SOL     OW25483   1.940   4.226   5.946 -0.1692  0.3433 -0.3307
 4674SOL    HW125484   1.860   4.267   5.977 -1.0821 -1.9204  0.2162
 4674SOL    HW225485   2.001   4.230   6.020 -0.9656 -0.9896  0.3872
 4675SOL     OW25486   0.004   3.151   3.132 -0.0472  0.4158 -0.3388
 4675SOL    HW125487   4.703   3.241   3.157 -0.9256  0.2150 -0.3796
 4675SOL    HW225488   0.003   3.100   3.213  0.6140 -0.3541 -0.8265
 4676SOL     OW25489   1.383   1.512   4.493  0.0854  0.1567 -0.0264
 4676SOL    HW125490   1.423   1.469   4.417 -0.2184  0.8743 -0.5987
 4676SOL    HW225491   1.451   1.574   4.517 -0.7610  1.5618 -1.2628
 4677SOL     OW25492   1.184   0.598  12.258  0.4366 -0.3617 -0.3223
 4677SOL    HW125493   1.278   0.580  12.258  0.9385  2.2470 -0.6736
 4677SOL    HW225494   1.173   0.612  12.164  1.6721 -3.5188 -0.9476
 4678SOL     OW25495   0.828   2.682   3.305  0.4410 -0.1008  0.2142
 4678SOL    HW125496   0.734   2.699   3.311  0.9224  2.1789  1.7498
 4678SOL    HW225497   0.858   2.742   3.374 -1.6990 -1.6115  2.4438
 4679SOL     OW25498   3.393   2.014   5.655  0.2452  0.1901 -0.1336
 4679SOL    HW125499   3.353   2.001   5.741 -1.6968 -1.1037 -1.2213
 4679SOL    HW225500   3.483   2.034   5.681  0.5313  0.0883 -1.0400
 4680SOL     OW25501   0.154   1.362  11.005  0.2030  0.0901 -0.2844
 4680SOL    HW125502   0.149   1.277  11.047  1.9041 -1.3512 -3.0222
 4680SOL    HW225503   0.151   1.424  11.079 -1.5184  1.2977 -1.3662
 4681SOL     OW25504   3.752   1.912   7.815 -0.1256  0.3350 -0.1969
 4681SOL    HW125505   3.732   1.828   7.773  0.2723  0.0626  0.1492
 4681SOL    HW225506   3.798   1.952   7.741  1.4608  1.3639  1.3500
 4682SOL     OW25507   3.862   1.446   6.026  0.3735  0.7406  0.0689
 4682SOL    HW125508   3.945   1.433   5.980 -0.0540  0.3713 -0.5912
 4682SOL    HW225509   3.804   1.378   5.993 -0.0245  0.3314  1.5871
 4683SOL     OW25510   4.158   1.005  17.557 -0.1366 -0.0121  0.4418
 4683SOL    HW125511   4.222   1.055  17.609  0.1191  0.2964 -0.1774
 4683SOL    HW225512   4.141   0.939  17.625  0.3190 -1.2019 -0.5823
 4684SOL     OW25513   0.295   2.311   0.705 -0.1060 -0.6940  0.2540
 4684SOL    HW125514   0.217   2.286   0.755 -1.2642 -1.9883 -2.1722
 4684SOL    HW225515   0.272   2.287   0.615 -0.9352  0.3885  0.1782
 4685SOL     OW25516   1.998   0.103   7.269  0.3103 -0.3396 -0.6352
 4685SOL    HW125517   1.977   0.025   7.218 -1.4675 -1.2980  1.5585
 4685SOL    HW225518   1.915   0.150   7.266 -0.1957 -1.1669  0.7053
 4686SOL     OW25519   0.899   1.588   3.154  0.4050  0.4756  0.0049
 4686SOL    HW125520   0.923   1.519   3.217 -3.2879 -0.7382  0.0817
 4686SOL    HW225521   0.919   1.556   3.066 -3.3274 -3.1150  0.4705
 4687SOL     OW25522   0.886   0.262   4.043 -0.4336  0.3278 -0.1031
 4687SOL    HW125523   0.918   0.312   4.118 -1.3653  0.9444 -0.1206
 4687SOL    HW225524   0.863   0.328   3.977  0.3043  0.1908 -0.5037
 4688SOL     OW25525   2.246   0.042  13.934  0.2815  0.1537 -0.6434
 4688SOL    HW125526   2.265   0.125  13.891 -2.5547  0.3403 -1.4971
 4688SOL    HW225527   2.179   0.074  13.994  0.4241  0.2935 -0.5585
 4689SOL     OW25528   2.654   3.861   9.390  0.1143 -0.4509 -0.6231
 4689SOL    HW125529   2.718   3.808   9.342 -0.2999  1.5114 -3.3476
 4689SOL    HW225530   2.589   3.871   9.321 -1.2724 -0.0592  0.7458
 4690SOL     OW25531   4.018   3.980   5.999 -0.3033 -0.7684  0.3929
 4690SOL    HW125532   3.967   3.914   5.953  0.0808 -1.0344  0.3442
 4690SOL    HW225533   3.950   4.044   5.980 -0.1430 -0.9656 -0.8219
 4691SOL     OW25534   0.953   4.405  15.173 -0.3575  0.6691 -0.1524
 4691SOL    HW125535   1.005   4.325  15.175 -2.3808 -0.6368 -0.7259
 4691SOL    HW225536   1.017   4.463  15.129 -1.0141  1.0372 -0.6182
 4692SOL     OW25537   3.368   2.451   7.413 -0.0224 -0.1557 -0.1772
 4692SOL    HW125538   3.294   2.486   7.362  1.5094 -0.2660 -2.4886
 4692SOL    HW225539   3.342   2.359   7.417  0.7490 -0.4707 -2.2877
 4693SOL     OW25540   0.361   1.900  15.101 -0.8094  0.4599  0.0159
 4693SOL    HW125541   0.398   1.837  15.039  0.0946  1.1644 -0.1563
 4693SOL    HW225542   0.414   1.977  15.081  1.4911 -1.3368 -0.7614
 4694SOL     OW25543   2.581   2.832   7.794  0.2554 -0.6379 -0.0448
 4694SOL    HW125544   2.563   2.744   7.763  0.7715 -1.1551  1.1336
 4694SOL    HW225545   2.675   2.844   7.780 -0.2181  1.1784 -1.7141
 4695SOL     OW25546   3.851   4.650   6.491 -0.1900  0.1385 -0.4545
 4695SOL    HW125547   3.796   4.620   6.419  1.5768 -0.7430 -1.4303
 4695SOL    HW225548   3.821   0.020   6.496 -2.6687 -0.5817 -2.3155
 4696SOL     OW25549   2.876   4.697   3.218  0.3484 -0.7338 -0.2764
 4696SOL    HW125550   2.808   0.031   3.259 -0.4483 -0.0985 -2.4237
 4696SOL    HW225551   2.955   0.030   3.226  0.2479 -0.6545  0.1680
 4697SOL     OW25552   3.117   3.920   8.525  0.5346  0.1413 -0.5157
 4697SOL    HW125553   3.156   4.005   8.546  0.4063  0.0252  0.2011
 4697SOL    HW225554   3.089   3.943   8.436 -0.9615  0.7791  0.1201
 4698SOL     OW25555   3.815   4.534   3.095  0.1585  0.0497 -0.2253
 4698SOL    HW125556   3.866   4.452   3.098 -2.1728 -1.3809  0.1918
 4698SOL    HW225557   3.873   4.600   3.133  1.2068 -0.7063 -0.4989
 4699SOL     OW25558   4.035   1.838  14.168  0.2165 -0.0736 -0.6375
 4699SOL    HW125559   4.106   1.786  14.206  0.7253  1.8397  1.0421
 4699SOL    HW225560   4.087   1.879  14.098 -0.6551  1.8071 -0.1927
 4700SOL     OW25561   0.102   2.236  13.540  0.9177  0.4762  0.3462
 4700SOL    HW125562   0.118   2.220  13.632 -0.2564 -1.7186  0.1603
 4700SOL    HW225563   0.007   2.226  13.536  1.0426 -0.2761 -0.8439
 4701SOL     OW25564   1.380   3.247   6.097 -0.3152  0.0499  0.2317
 4701SOL    HW125565   1.348   3.234   6.008 -1.1749  0.8527  0.4279
 4701SOL    HW225566   1.307   3.266   6.156 -1.7293  1.2334 -1.8977
 4702SOL     OW25567   2.477   1.482   6.888 -0.5204  0.2182  0.4055
 4702SOL    HW125568   2.423   1.445   6.957 -0.6865  2.0739  1.2856
 4702SOL    HW225569   2.514   1.558   6.934 -0.1003  1.3912 -1.8622
 4703SOL     OW25570   4.065   1.115   8.042 -0.0332 -0.8497  0.0834
 4703SOL    HW125571   3.989   1.125   8.099  0.4692  1.1268  0.3984
 4703SOL    HW225572   4.123   1.086   8.112  2.2206  1.8160 -0.6962
 4704SOL     OW25573   3.500   4.526  15.855  0.3882 -0.2957  0.7235
 4704SOL    HW125574   3.522   4.608  15.811 -3.2294  0.3676  0.1473
 4704SOL    HW225575   3.501   4.466  15.780  2.3367  2.4289 -1.3972
 4705SOL     OW25576   4.067   1.285   9.573  0.6012  0.4021 -0.0307
 4705SOL    HW125577   4.094   1.217   9.634  1.6837  2.1241  1.4080
 4705SOL    HW225578   4.149   1.334   9.584  0.6060  0.8264 -2.0088
 4706SOL     OW25579   2.358   1.463   4.391 -0.9548  0.0262 -0.2144
 4706SOL    HW125580   2.376   1.537   4.449 -1.3304 -0.3853  0.4261
 4706SOL    HW225581   2.449   1.444   4.369 -0.4946 -1.4778  2.9681
 4707SOL     OW25582   2.359   0.301   2.613 -0.1273 -0.5981 -0.3117
 4707SOL    HW125583   2.377   0.388   2.578 -1.0707 -0.2189  0.1548
 4707SOL    HW225584   2.449   0.278   2.639 -0.2054 -0.8611 -0.2717
 4708SOL     OW25585   1.771   0.072   2.541 -0.1132  0.4901 -0.0013
 4708SOL    HW125586   1.858   0.109   2.525  0.7748 -0.9923  1.4362
 4708SOL    HW225587   1.726   0.156   2.527 -2.0736 -0.2513  1.9201
 4709SOL     OW25588   3.861   0.584   3.431  0.5536 -0.1748  0.5169
 4709SOL    HW125589   3.769   0.573   3.408  1.1162 -3.2559 -0.3356
 4709SOL    HW225590   3.879   0.493   3.408 -0.1704  0.3951 -2.3372
 4710SOL     OW25591   1.408   4.201   3.011 -0.0683 -0.0467  0.1846
 4710SOL    HW125592   1.435   4.251   2.934 -2.1603  2.2879  0.9630
 4710SOL    HW225593   1.364   4.265   3.068  1.9484  0.2812  1.3780
 4711SOL     OW25594   0.064   3.522   3.927 -0.6963 -0.0090 -0.6664
 4711SOL    HW125595   4.715   3.484   3.980 -2.1892  0.4540 -2.3120
 4711SOL    HW225596   0.021   3.540   3.843  1.2252 -0.5765 -1.7735
 4712SOL     OW25597   0.621   1.748   4.984  0.2610 -0.1113  0.3209
 4712SOL    HW125598   0.535   1.765   4.947  0.1800  0.1309  0.6196
 4712SOL    HW225599   0.608   1.657   5.013 -1.2574  0.7046  2.1474
 4713SOL     OW25600   3.656   1.288  13.294 -0.2636  0.7176 -0.2264
 4713SOL    HW125601   3.665   1.194  13.311  0.0446  1.2683  2.5672
 4713SOL    HW225602   3.744   1.304  13.260  0.2137  1.7231  1.4797
 4714SOL     OW25603   2.048   4.669   6.498 -0.1813 -0.3133  0.8077
 4714SOL    HW125604   2.103   4.663   6.577 -0.2457 -0.0122  0.8728
 4714SOL    HW225605   1.963   4.636   6.528 -0.3094  1.2427  2.1526
 4715SOL     OW25606   0.335   2.803   1.873  0.2753 -0.5731  0.1269
 4715SOL    HW125607   0.252   2.786   1.918  0.7555  2.5557  2.1951
 4715SOL    HW225608   0.365   2.712   1.867  1.2424 -0.0369 -2.8943
 4716SOL     OW25609   0.796   3.748   4.941 -0.7224  0.0101 -0.3420
 4716SOL    HW125610   0.731   3.797   4.891 -0.7045  0.6173  0.2365
 4716SOL    HW225611   0.847   3.820   4.978 -1.5087  0.2487  0.2811
 4717SOL     OW25612   2.769   0.208   8.356  0.1709 -0.3920 -0.4650
 4717SOL    HW125613   2.793   0.195   8.448  0.6894 -0.9302 -0.6746
 4717SOL    HW225614   2.695   0.148   8.342 -1.1482  0.5403  2.5620
 4718SOL     OW25615   0.212   2.186   4.226 -0.1031  0.2133 -0.2541
 4718SOL    HW125616   0.264   2.264   4.243 -2.5456  1.5933  0.8833
 4718SOL    HW225617   0.248   2.154   4.143 -1.2027 -3.5864  0.7238
 4719SOL     OW25618   3.680   0.887   6.894 -0.1164 -0.3649 -0.0844
 4719SOL    HW125619   3.748   0.952   6.914 -0.4745 -0.7508  2.3664
 4719SOL    HW225620   3.667   0.842   6.977 -0.6366 -1.6508 -0.8589
 4720SOL     OW25621   2.211   1.844   2.947 -0.4945  0.1116 -0.9459
 4720SOL    HW125622   2.225   1.891   3.030 -2.0463  0.5043 -0.9117
 4720SOL    HW225623   2.249   1.905   2.884  0.7011 -1.0447 -1.3579
 4721SOL     OW25624   4.288   4.231   6.614  0.2473 -0.0845 -0.2205
 4721SOL    HW125625   4.253   4.302   6.561 -1.0740  0.4143  1.3054
 4721SOL    HW225626   4.209   4.178   6.608  0.3896 -0.1660 -1.3007
 4722SOL     OW25627   3.165   0.212   5.180 -0.3042 -0.3014 -0.1195
 4722SOL    HW125628   3.220   0.144   5.218 -1.0318  0.1194  1.6827
 4722SOL    HW225629   3.115   0.167   5.112 -2.7423  2.5649 -0.2421
 4723SOL     OW25630   1.844   0.687   2.217 -0.4358  0.3161  0.7078
 4723SOL    HW125631   1.817   0.701   2.308  1.6911 -1.0624  1.5740
 4723SOL    HW225632   1.888   0.772   2.205 -1.3760  1.1147  2.9935
 4724SOL     OW25633   2.522   2.555   5.702  0.1308  0.1738  0.5429
 4724SOL    HW125634   2.436   2.595   5.717 -0.5262 -0.7952 -0.5948
 4724SOL    HW225635   2.553   2.618   5.638  0.8799  0.1556  0.8872
 4725SOL     OW25636   0.095   1.045   6.944  0.0535 -0.1327  0.6190
 4725SOL    HW125637   0.147   1.050   6.864  1.3305 -0.8811  1.3983
 4725SOL    HW225638   0.014   1.012   6.904  0.2055 -1.4990  1.4391
 4726SOL     OW25639   4.026   1.822   6.544  0.6395 -0.4032 -0.5126
 4726SOL    HW125640   4.101   1.830   6.484  1.7171 -0.7580  0.8020
 4726SOL    HW225641   3.961   1.773   6.494  0.6780  1.0848 -2.0517
 4727SOL     OW25642   3.317   3.209  14.548 -0.1627 -0.4896 -0.3434
 4727SOL    HW125643   3.355   3.291  14.580 -1.9255  0.0392  0.4129
 4727SOL    HW225644   3.387   3.189  14.486 -0.1892 -0.7799 -0.2782
 4728SOL     OW25645   0.509   2.756   5.884 -0.4149 -0.5130 -0.0846
 4728SOL    HW125646   0.491   2.834   5.937 -1.5241 -1.1790  0.5244
 4728SOL    HW225647   0.599   2.736   5.909 -0.8271  1.4013  2.9043
 4729SOL     OW25648   1.867   0.736   6.675  0.2125 -0.3452 -0.2380
 4729SOL    HW125649   1.829   0.766   6.758 -1.1815 -1.2899 -0.5246
 4729SOL    HW225650   1.893   0.820   6.638  0.7218 -0.3774  0.0517
 4730SOL     OW25651   1.257   1.088   3.339  0.0941  0.3263 -0.5135
 4730SOL    HW125652   1.283   1.026   3.271  0.2464  0.1685 -0.3087
 4730SOL    HW225653   1.322   1.066   3.405 -0.4991 -1.0070 -0.3805
 4731SOL     OW25654   2.743   0.567   4.965  0.4076 -0.2663  0.1814
 4731SOL    HW125655   2.826   0.606   4.992  0.1846  0.9158 -0.8406
 4731SOL    HW225656   2.689   0.595   5.039  0.2077  0.7974 -0.3633
 4732SOL     OW25657   0.138   4.515   2.679 -0.4023  0.0939 -0.5594
 4732SOL    HW125658   0.094   4.578   2.737 -0.5863 -0.6127  0.0746
 4732SOL    HW225659   0.062   4.486   2.629 -1.2894 -1.4065  1.6269
 4733SOL     OW25660   1.632   3.476   8.750 -0.2264  0.5392  1.0443
 4733SOL    HW125661   1.709   3.427   8.720 -2.1228 -1.4900 -0.5260
 4733SOL    HW225662   1.645   3.551   8.692 -0.7930  0.9990  1.5169
 4734SOL     OW25663   3.440   1.514   8.056 -0.4362  0.0340 -0.6096
 4734SOL    HW125664   3.442   1.601   8.015  0.5287  0.1196 -0.3851
 4734SOL    HW225665   3.413   1.450   7.990 -0.5468 -0.2997 -0.2390
 4735SOL     OW25666   4.592   1.484   0.204 -0.6600  0.2280 -0.3283
 4735SOL    HW125667   4.578   1.535   0.284  0.7818  0.2982 -0.1158
 4735SOL    HW225668   4.648   1.411   0.233  1.5554  1.2614 -1.9976
 4736SOL     OW25669   0.270   0.497   3.300  0.0651 -0.2090  0.3566
 4736SOL    HW125670   0.189   0.502   3.249  0.1057 -3.5591 -0.0452
 4736SOL    HW225671   0.230   0.485   3.386  2.0779 -1.0564  1.1672
 4737SOL     OW25672   2.542   0.141   2.139 -1.1732  0.4021 -0.5289
 4737SOL    HW125673   2.613   0.205   2.138  0.8438 -1.7669  1.8901
 4737SOL    HW225674   2.595   0.080   2.087 -1.0389 -1.8929  2.2942
 4738SOL     OW25675   4.254   1.081  16.223 -0.3115  0.1786  0.1179
 4738SOL    HW125676   4.347   1.096  16.238 -0.3447 -0.3236  0.8500
 4738SOL    HW225677   4.227   1.161  16.179  0.9165  0.6331  0.1858
 4739SOL     OW25678   0.259   0.646   8.964 -0.2719 -0.1732  0.3026
 4739SOL    HW125679   0.284   0.738   8.969  1.0651 -0.5855  1.0823
 4739SOL    HW225680   0.267   0.637   8.869 -1.2916  1.6976  0.0363
 4740SOL     OW25681   2.147   2.175   4.002  0.1831  0.2869  0.0000
 4740SOL    HW125682   2.081   2.188   4.070 -1.1477 -3.4207 -0.5841
 4740SOL    HW225683   2.193   2.259   3.995 -0.3047  0.6234  0.8109
 4741SOL     OW25684   4.439   4.196  13.505 -0.1563 -0.0079 -0.0149
 4741SOL    HW125685   4.506   4.242  13.555 -1.4784  1.5187  0.3697
 4741SOL    HW225686   4.497   4.140  13.454  0.3143 -0.0122  0.5368
 4742SOL     OW25687   0.327   0.876  12.281  0.1113  0.0289  0.1186
 4742SOL    HW125688   0.407   0.924  12.259 -0.0568 -1.0773 -2.9616
 4742SOL    HW225689   0.338   0.793  12.234  2.0493 -0.0028  0.6333
 4743SOL     OW25690   2.705   3.353   3.787  0.2256 -0.9959 -0.2983
 4743SOL    HW125691   2.667   3.379   3.871 -1.5278 -1.4221 -0.9609
 4743SOL    HW225692   2.753   3.276   3.819  0.8199 -0.9097 -0.9934
 4744SOL     OW25693   1.475   3.012   1.651 -0.4077  0.0926 -0.3732
 4744SOL    HW125694   1.403   2.975   1.703  0.3618 -0.4307  0.3090
 4744SOL    HW225695   1.420   3.055   1.585 -0.9061 -0.6270 -0.4337
 4745SOL     OW25696   3.476   0.739   2.757  0.3776 -0.2437  0.2373
 4745SOL    HW125697   3.458   0.802   2.688 -2.9565 -0.1765  1.1551
 4745SOL    HW225698   3.395   0.750   2.808  0.7638  0.1913  0.7523
 4746SOL     OW25699   2.196   2.651   6.460 -0.1464 -0.0649 -0.1965
 4746SOL    HW125700   2.262   2.704   6.506 -1.9694 -0.5070  2.9012
 4746SOL    HW225701   2.206   2.675   6.368 -0.1959  1.6104  0.2325
 4747SOL     OW25702   4.514   0.486  10.906 -0.2064 -0.2297 -0.0021
 4747SOL    HW125703   4.504   0.394  10.931 -2.5277 -0.2010 -0.9081
 4747SOL    HW225704   4.446   0.535  10.952 -0.4576  0.3961 -1.0585
 4748SOL     OW25705   2.866   4.386  16.276  0.0796 -0.7242 -0.2654
 4748SOL    HW125706   2.873   4.297  16.310 -1.1580 -0.2899  1.1056
 4748SOL    HW225707   2.922   4.380  16.199 -2.1241 -2.2248 -1.7113
 4749SOL     OW25708   4.364   1.071   1.956  0.7115 -0.5553 -0.2084
 4749SOL    HW125709   4.322   1.133   1.897 -1.7879 -0.8972  1.2026
 4749SOL    HW225710   4.281   1.043   1.995 -0.2214  0.1602 -1.6784
 4750SOL     OW25711   3.484   0.772  13.179 -0.0055  0.0697 -0.2901
 4750SOL    HW125712   3.483   0.847  13.239 -2.3310  0.4110 -0.7783
 4750SOL    HW225713   3.578   0.756  13.170 -0.2835  0.1608 -3.2273
 4751SOL     OW25714   1.452   4.692   0.509  0.1939 -0.3149 -0.5889
 4751SOL    HW125715   1.467   0.060   0.477  0.1814 -0.4382 -0.9359
 4751SOL    HW225716   1.473   4.640   0.431 -0.9036  2.1287 -2.5271
 4752SOL     OW25717   1.936   4.622   3.512  0.5684  0.7196 -0.3744
 4752SOL    HW125718   1.879   4.643   3.437 -1.9497 -0.4921  1.1874
 4752SOL    HW225719   1.882   4.561   3.563 -1.2440  2.2265 -0.5197
 4753SOL     OW25720   0.227   3.417   4.666 -0.4368 -0.3356  0.2823
 4753SOL    HW125721   0.286   3.354   4.707  0.7132  0.2140 -0.5236
 4753SOL    HW225722   0.165   3.355   4.626 -1.0178  0.8800 -0.7161
 4754SOL     OW25723   4.688   1.136   4.921 -0.1537 -0.0953 -0.4687
 4754SOL    HW125724   0.054   1.095   4.919 -0.3437 -0.5175  0.1618
 4754SOL    HW225725   4.628   1.081   4.870  1.0647 -0.2549 -1.7387
 4755SOL     OW25726   4.516   2.271   4.781 -0.2669 -0.6794  0.4586
 4755SOL    HW125727   4.505   2.209   4.852 -1.6200  0.4489  1.2174
 4755SOL    HW225728   4.603   2.240   4.754 -0.4371 -1.5476  0.9255
 4756SOL     OW25729   0.834   1.291   7.455  0.4363  0.2331 -0.0124
 4756SOL    HW125730   0.848   1.203   7.422  0.4977 -0.3236  1.5019
 4756SOL    HW225731   0.861   1.348   7.383  1.3289  1.9342  1.6635
 4757SOL     OW25732   2.395   1.702   4.537  0.4242  0.0582  0.1920
 4757SOL    HW125733   2.446   1.739   4.609  2.3275  0.4389 -1.3348
 4757SOL    HW225734   2.304   1.721   4.561  0.2042 -1.7667  0.8158
 4758SOL     OW25735   3.963   4.553   7.053 -0.4486 -0.0872 -0.0141
 4758SOL    HW125736   3.878   4.525   7.020 -1.0929  1.6686  0.1746
 4758SOL    HW225737   4.020   4.494   7.003 -0.4910 -1.2336  1.2806
 4759SOL     OW25738   0.056   1.056   0.262 -0.4100 -0.1582  0.0956
 4759SOL    HW125739   0.113   1.007   0.321 -1.3247 -0.7492  0.4974
 4759SOL    HW225740   0.080   1.018   0.177  0.0932  0.4483 -0.0256
 4760SOL     OW25741   3.164   3.964   1.118  0.2624 -0.0961  0.5529
 4760SOL    HW125742   3.228   3.902   1.082  0.1431  1.2694 -1.9129
 4760SOL    HW225743   3.200   4.049   1.094  1.8408 -0.9291 -0.0461
 4761SOL     OW25744   3.958   3.768   5.114 -0.2184 -0.1304 -0.4101
 4761SOL    HW125745   3.972   3.816   5.196  1.8424 -0.3557 -0.6383
 4761SOL    HW225746   3.927   3.835   5.052 -2.5913 -1.2225 -0.3716
 4762SOL     OW25747   4.456   4.186   4.295 -0.1234  0.2515 -0.1254
 4762SOL    HW125748   4.522   4.143   4.349  0.3428  1.1663  0.0386
 4762SOL    HW225749   4.491   4.275   4.292 -0.2189  0.3011  0.2063
 4763SOL     OW25750   2.690   0.816   4.072  0.0749 -0.3026  0.7041
 4763SOL    HW125751   2.696   0.890   4.012  1.4077  0.0099  1.2252
 4763SOL    HW225752   2.772   0.817   4.121 -0.2086  2.0670  1.1753
 4764SOL     OW25753   1.671   0.487  14.763 -0.0205 -0.2548  0.6518
 4764SOL    HW125754   1.673   0.434  14.843 -0.1216 -1.9070 -0.4443
 4764SOL    HW225755   1.746   0.546  14.771  0.7396 -1.1444  0.0357
 4765SOL     OW25756   1.326   1.100   1.344 -0.2085 -0.0329 -0.3529
 4765SOL    HW125757   1.248   1.151   1.322 -0.9275 -0.9081  0.1952
 4765SOL    HW225758   1.318   1.092   1.439  0.3152 -3.5476 -0.6169
 4766SOL     OW25759   4.166   0.606   5.389 -0.0970 -0.7550  0.2667
 4766SOL    HW125760   4.142   0.558   5.310 -1.7173 -0.0079  0.2929
 4766SOL    HW225761   4.140   0.539   5.452  0.9288  1.3467  2.9576
 4767SOL     OW25762   0.634   0.856   7.653 -0.1259 -0.2051  0.4801
 4767SOL    HW125763   0.669   0.943   7.670  1.4759 -0.4364 -1.6236
 4767SOL    HW225764   0.547   0.872   7.617 -0.1115 -1.9541 -0.3231
 4768SOL     OW25765   4.502   0.240   0.411 -0.5195 -0.6049  0.3430
 4768SOL    HW125766   4.539   0.230   0.499 -1.2443 -0.4520  0.6624
 4768SOL    HW225767   4.580   0.238   0.356  0.5117  1.2697  1.7116
 4769SOL     OW25768   3.892   4.313  10.614  0.0941  0.1903 -0.2469
 4769SOL    HW125769   3.892   4.328  10.519 -1.7702 -1.1234 -0.4534
 4769SOL    HW225770   3.799   4.300  10.630  0.1508  0.6518  0.4456
 4770SOL     OW25771   0.638   4.033  16.494 -0.1377 -0.4268  0.4287
 4770SOL    HW125772   0.578   4.100  16.528  0.7854  0.6534 -0.1012
 4770SOL    HW225773   0.670   4.084  16.421 -1.9838  0.5013  0.2553
 4771SOL     OW25774   2.585   3.347   0.610  0.5376 -0.0021 -0.4289
 4771SOL    HW125775   2.633   3.353   0.693 -1.8850 -1.6706  1.0787
 4771SOL    HW225776   2.534   3.268   0.625  1.9645 -1.2547 -2.1724
 4772SOL     OW25777   2.331   3.370   3.393  0.0374 -0.0676  0.3917
 4772SOL    HW125778   2.303   3.361   3.302 -0.7489 -3.0877  0.9253
 4772SOL    HW225779   2.323   3.465   3.399 -3.2077 -0.3290  0.2033
 4773SOL     OW25780   3.550   1.674   7.251  0.2917  0.2046  0.1710
 4773SOL    HW125781   3.547   1.762   7.287 -2.4123  0.7464 -1.3921
 4773SOL    HW225782   3.468   1.663   7.204  0.9776  1.0928 -1.2182
 4774SOL     OW25783   1.185   3.015   3.374  0.0403  0.1888  0.4276
 4774SOL    HW125784   1.226   3.098   3.399  0.3501  0.3833 -0.7191
 4774SOL    HW225785   1.164   3.043   3.285  2.8795 -2.5637 -1.0971
 4775SOL     OW25786   1.481   4.653   2.859 -0.2956  0.5400  0.2650
 4775SOL    HW125787   1.414   4.607   2.809  1.6911  1.0688 -2.8459
 4775SOL    HW225788   1.527   4.586   2.911 -0.2370 -0.5223 -1.1510
 4776SOL     OW25789   0.047   1.962   7.152 -0.2363  0.3874 -0.5834
 4776SOL    HW125790   4.701   1.936   7.216  0.3469 -0.7649 -0.4313
 4776SOL    HW225791   0.020   2.053   7.140  0.1406  0.6187  0.3460
 4777SOL     OW25792   4.662   1.095   7.837 -0.1169  0.3135  0.2203
 4777SOL    HW125793   0.009   1.072   7.773 -1.1117  0.7696 -0.9967
 4777SOL    HW225794   4.677   1.187   7.862 -0.2241  0.7813 -1.3957
 4778SOL     OW25795   3.136   2.697  10.256  0.1451 -0.4192 -0.2857
 4778SOL    HW125796   3.045   2.674  10.235  0.1697 -0.1717 -0.6676
 4778SOL    HW225797   3.182   2.649  10.187 -0.7076 -0.1404 -1.0528
 4779SOL     OW25798   4.175   2.155  14.338 -0.4493 -0.2005  0.0374
 4779SOL    HW125799   4.260   2.184  14.303 -0.2842  1.4261  1.8101
 4779SOL    HW225800   4.147   2.243  14.364  2.9767 -0.6360  5.1125
 4780SOL     OW25801   1.092   2.095   5.222  0.4332 -0.4766  0.5961
 4780SOL    HW125802   1.111   2.044   5.143 -0.3903  1.2113 -0.6903
 4780SOL    HW225803   1.039   2.167   5.186  1.2625 -0.5018 -0.6823
 4781SOL     OW25804   3.260   0.248   0.356  0.1909  0.2115  0.5118
 4781SOL    HW125805   3.172   0.259   0.392  1.0205  0.9330  2.3396
 4781SOL    HW225806   3.243   0.168   0.306  0.5726  1.2080 -1.1954
 4782SOL     OW25807   3.438   3.210   2.545  0.1617  0.4340 -0.0284
 4782SOL    HW125808   3.355   3.163   2.554  0.4074  0.0228  0.0523
 4782SOL    HW225809   3.504   3.141   2.551  0.1591  0.3797 -0.6189
 4783SOL     OW25810   0.035   2.910  17.112  0.6938  0.1076  0.6774
 4783SOL    HW125811   4.665   2.907  17.083  0.9335 -0.9344  0.0525
 4783SOL    HW225812   0.076   2.982  17.063  0.2999 -0.2059 -0.0977
 4784SOL     OW25813   4.373   1.127   7.002 -0.1626 -0.1171  0.3857
 4784SOL    HW125814   4.389   1.122   7.096  2.0177 -1.4638 -0.0755
 4784SOL    HW225815   4.400   1.216   6.978  0.1866  0.0492  1.4053
 4785SOL     OW25816   2.771   1.939  11.450  0.3735 -0.0480 -0.0031
 4785SOL    HW125817   2.837   1.961  11.385  0.5884  0.6555  0.4581
 4785SOL    HW225818   2.833   1.899  11.510  0.6720  0.6270  0.1409
 4786SOL     OW25819   3.539   2.877   2.227 -0.5452 -0.0988  0.4570
 4786SOL    HW125820   3.469   2.814   2.242 -0.8767  0.1980  0.1676
 4786SOL    HW225821   3.488   2.938   2.173 -0.5658  0.2062  0.8158
 4787SOL     OW25822   1.723   1.813   9.461 -0.1732  0.7416  0.0418
 4787SOL    HW125823   1.719   1.799   9.366 -1.6627 -0.1861  0.2407
 4787SOL    HW225824   1.669   1.892   9.473  0.1929  0.9439  0.3800
 4788SOL     OW25825   2.080   3.486  10.516 -1.2552 -0.1650  0.1649
 4788SOL    HW125826   1.990   3.516  10.512 -0.6621  1.3244 -1.5791
 4788SOL    HW225827   2.113   3.549  10.581  0.8055 -0.5863 -0.4517
 4789SOL     OW25828   0.219   3.253  16.479  0.0435  0.0813 -0.5089
 4789SOL    HW125829   0.149   3.306  16.517 -1.1266 -1.2391 -0.8325
 4789SOL    HW225830   0.206   3.167  16.518 -0.4252  0.1156 -0.5912
 4790SOL     OW25831   4.577   1.692  14.995  0.3508 -0.1166  0.2593
 4790SOL    HW125832   4.518   1.636  15.046 -1.2372  0.6770 -0.6991
 4790SOL    HW225833   4.651   1.637  14.969  0.3157 -0.2342  0.4049
 4791SOL     OW25834   3.116   3.018   9.704 -0.6786 -0.1519  0.1790
 4791SOL    HW125835   3.172   3.053   9.635 -1.0408 -0.3220 -0.2020
 4791SOL    HW225836   3.039   3.075   9.696 -1.7507 -1.3019  2.1151
 4792SOL     OW25837   3.748   1.132   2.511  0.5915  0.3902 -0.1362
 4792SOL    HW125838   3.789   1.082   2.439 -1.2619 -2.9841  1.1426
 4792SOL    HW225839   3.656   1.112   2.492  1.6007 -2.2422 -2.3398
 4793SOL     OW25840   4.491   3.487   8.952  0.3037 -0.3861 -0.2772
 4793SOL    HW125841   4.480   3.403   8.996  2.7537  0.3370  1.6853
 4793SOL    HW225842   4.562   3.478   8.887 -2.3465 -0.1283 -3.2120
 4794SOL     OW25843   3.928   4.705   4.067  0.4734  0.4959  0.0008
 4794SOL    HW125844   3.997   4.679   4.129  1.3442  0.7261 -0.8617
 4794SOL    HW225845   3.933   0.079   4.060 -1.9630  0.8030  2.7821
 4795SOL     OW25846   3.561   0.797   2.333 -0.0418  0.2322 -0.9191
 4795SOL    HW125847   3.567   0.722   2.393 -0.0195 -0.1552 -1.4070
 4795SOL    HW225848   3.518   0.863   2.387 -1.9435 -2.4438  0.8388
 4796SOL     OW25849   3.153   2.821   8.551 -0.2417  0.1641  0.3856
 4796SOL    HW125850   3.101   2.813   8.631  2.1346  2.1556  2.1088
 4796SOL    HW225851   3.192   2.905   8.576  0.2360 -0.7149  2.5534
 4797SOL     OW25852   3.079   2.094   6.969 -0.5472 -0.0575  0.0265
 4797SOL    HW125853   3.040   2.100   7.056  0.5700 -0.3995  0.5465
 4797SOL    HW225854   3.009   2.078   6.905 -0.4102  1.3624 -0.4870
 4798SOL     OW25855   1.402   2.339   4.008  0.0066  0.2339 -0.3353
 4798SOL    HW125856   1.493   2.357   3.985  0.3422  2.7140  2.8134
 4798SOL    HW225857   1.387   2.256   3.963 -1.1978  1.4696 -2.2357
 4799SOL     OW25858   3.915   2.227   7.168 -0.3657  0.2783  0.3897
 4799SOL    HW125859   4.006   2.200   7.157 -0.8480 -1.2444  0.0836
 4799SOL    HW225860   3.918   2.282   7.245  1.6901  1.8875 -0.8568
 4800SOL     OW25861   3.027   0.743  16.273 -0.3356 -0.7854 -0.2338
 4800SOL    HW125862   2.935   0.771  16.275  0.6749  2.5672 -1.3639
 4800SOL    HW225863   3.044   0.759  16.180 -0.5464 -0.1948 -0.1676
 4801SOL     OW25864   3.272   0.913  11.532  0.1860 -0.7489 -0.5931
 4801SOL    HW125865   3.304   0.839  11.480 -1.5851 -1.9587  0.0568
 4801SOL    HW225866   3.192   0.880  11.574  0.2846 -2.0341 -1.4033
 4802SOL     OW25867   4.476   3.568  16.581  0.0695  0.1144  0.4490
 4802SOL    HW125868   4.397   3.519  16.558 -0.5441  0.7528  1.1899
 4802SOL    HW225869   4.482   3.542  16.673 -0.2571  0.2820  0.5191
 4803SOL     OW25870   4.140   0.694   4.111 -0.3145 -0.9233  0.7708
 4803SOL    HW125871   4.182   0.638   4.045  3.4903  0.1647  2.2926
 4803SOL    HW225872   4.146   0.643   4.192  0.5424 -2.4011 -0.2187
 4804SOL     OW25873   3.707   0.317  10.630  0.1177 -0.4552  0.1283
 4804SOL    HW125874   3.720   0.288  10.539  0.3881 -1.2564  0.4293
 4804SOL    HW225875   3.687   0.411  10.623 -0.4691 -0.6859 -1.3096
 4805SOL     OW25876   0.704   1.099  13.134 -0.2641  0.0349  0.1475
 4805SOL    HW125877   0.693   1.194  13.123 -0.9128 -0.2355 -1.5226
 4805SOL    HW225878   0.702   1.100  13.230  0.8941  0.3564  0.1714
 4806SOL     OW25879   2.416   4.612   2.851  0.0130 -0.4791  0.4012
 4806SOL    HW125880   2.373   4.697   2.860 -1.2163 -0.7103 -3.2708
 4806SOL    HW225881   2.440   4.587   2.941 -0.5011  0.2891  0.7486
 4807SOL     OW25882   1.016   1.190   9.363  0.2807  0.6346  0.3283
 4807SOL    HW125883   1.102   1.179   9.403 -0.3847  1.1430  1.9186
 4807SOL    HW225884   1.033   1.143   9.281  0.0329  1.1608 -0.0283
 4808SOL     OW25885   1.618   0.432   4.262  0.0295  0.0037  0.2684
 4808SOL    HW125886   1.580   0.347   4.242 -1.5622  0.5864  0.8110
 4808SOL    HW225887   1.570   0.495   4.207  1.8684 -1.9261 -3.5414
 4809SOL     OW25888   1.660   1.994   9.763  0.2573  0.7289  0.0153
 4809SOL    HW125889   1.663   2.036   9.849  1.9150  0.7620 -0.0532
 4809SOL    HW225890   1.716   1.919   9.782  0.8939  0.5628 -2.5314
 4810SOL     OW25891   1.215   4.602   7.909  0.0165  0.5332 -0.0478
 4810SOL    HW125892   1.263   4.684   7.901  1.4348 -0.4088 -1.2476
 4810SOL    HW225893   1.207   4.575   7.818 -0.5952  1.0444 -0.1404
 4811SOL     OW25894   1.449   4.285  15.203 -0.4487  0.4033  0.5649
 4811SOL    HW125895   1.528   4.268  15.254 -0.2206 -0.7939 -0.1776
 4811SOL    HW225896   1.389   4.260  15.274 -1.0193 -1.4133 -0.5730
 4812SOL     OW25897   2.400   2.569  15.448 -0.5436 -0.0191 -0.3267
 4812SOL    HW125898   2.366   2.594  15.362 -0.2880  0.0901 -0.3972
 4812SOL    HW225899   2.369   2.637  15.507  0.2205 -0.2720  0.3612
 4813SOL     OW25900   0.583   4.355   1.871 -0.3541  0.2880  0.4457
 4813SOL    HW125901   0.493   4.338   1.844  0.2484 -1.5562 -0.4013
 4813SOL    HW225902   0.573   4.449   1.856  3.4984  0.7268  0.6451
 4814SOL     OW25903   0.063   3.479   7.608  0.2402 -0.5581  0.1575
 4814SOL    HW125904   0.071   3.564   7.564  1.5272 -1.2660 -0.9667
 4814SOL    HW225905   0.067   3.415   7.537  2.6885 -0.2226 -0.0046
 4815SOL     OW25906   1.902   2.333   5.115 -0.0664 -0.4678 -0.6195
 4815SOL    HW125907   1.827   2.300   5.165  0.4662  2.0360  1.8546
 4815SOL    HW225908   1.865   2.376   5.038  0.5516 -1.2231 -1.3277
 4816SOL     OW25909   0.825   2.344   1.109  0.0005  0.2629 -0.7791
 4816SOL    HW125910   0.835   2.299   1.024 -0.1933 -1.3362  0.0430
 4816SOL    HW225911   0.734   2.370   1.095 -0.9723 -1.4839  2.3922
 4817SOL     OW25912   3.725   0.908   5.171 -0.3885  0.1615 -0.0994
 4817SOL    HW125913   3.804   0.938   5.216  0.1422 -0.0662 -0.8915
 4817SOL    HW225914   3.715   0.824   5.216  2.4094 -1.2189 -2.0816
 4818SOL     OW25915   1.540   0.746   1.602 -0.2303 -0.5902  0.6418
 4818SOL    HW125916   1.566   0.763   1.511  2.0232 -0.9220  1.2065
 4818SOL    HW225917   1.453   0.780   1.621  0.1134  2.3385 -2.9143
 4819SOL     OW25918   3.659   4.477  13.203  0.4557  0.5445  0.1963
 4819SOL    HW125919   3.690   4.567  13.215  2.4771  0.0827 -1.5980
 4819SOL    HW225920   3.568   4.500  13.182  0.8345  1.2198 -0.6793
 4820SOL     OW25921   3.971   4.549   1.608  0.7085 -0.3433 -0.1431
 4820SOL    HW125922   3.968   4.473   1.667  0.5459  0.1268  0.4580
 4820SOL    HW225923   3.880   4.540   1.580  0.3601 -1.7534  1.4460
 4821SOL     OW25924   1.043   1.051  14.810  0.4451 -0.3428  0.2362
 4821SOL    HW125925   1.082   0.984  14.754 -0.3978 -1.2225  0.7123
 4821SOL    HW225926   1.028   1.002  14.890 -4.8317  0.6684 -0.1156
 4822SOL     OW25927   0.980   0.184   2.377  0.5848 -0.4812 -0.1047
 4822SOL    HW125928   0.980   0.260   2.436 -0.0978 -0.2973 -0.3319
 4822SOL    HW225929   0.968   0.234   2.296 -0.7330  0.1869  0.4880
 4823SOL     OW25930   0.531   3.445   2.241 -0.1300 -0.1756  0.6256
 4823SOL    HW125931   0.518   3.532   2.203  0.3162 -0.6553 -0.5865
 4823SOL    HW225932   0.621   3.444   2.272 -0.3451 -2.6595  1.1790
 4824SOL     OW25933   1.817   4.492  10.521 -0.0537  0.1935  0.1627
 4824SOL    HW125934   1.834   4.419  10.579  1.1311  1.3625  1.2867
 4824SOL    HW225935   1.723   4.497  10.539 -0.8657 -2.1815 -3.2565
 4825SOL     OW25936   0.274   2.961   3.344  0.1667  0.2249  0.2952
 4825SOL    HW125937   0.355   3.008   3.322 -0.0931  0.3770 -0.3396
 4825SOL    HW225938   0.245   2.953   3.253  1.0174 -1.9534  0.2250
 4826SOL     OW25939   1.146   3.538   7.360  0.0327 -0.2770 -0.0220
 4826SOL    HW125940   1.233   3.499   7.348  0.4190  1.3674 -2.7247
 4826SOL    HW225941   1.167   3.590   7.437  0.8612  1.0438 -1.1318
 4827SOL     OW25942   1.627   1.987   7.831 -0.4216  0.6125  0.2145
 4827SOL    HW125943   1.615   1.936   7.911  0.8368  0.3025  0.1973
 4827SOL    HW225944   1.547   1.967   7.782 -0.6028  1.3667  0.2013
 4828SOL     OW25945   1.565   2.995   7.819 -0.3156  0.9840  0.5029
 4828SOL    HW125946   1.510   2.994   7.740 -0.7972  0.4113  0.8422
 4828SOL    HW225947   1.515   3.067   7.857  0.1681  0.9799  1.1481
 4829SOL     OW25948   0.030   2.996  10.871  0.3260  0.0355  0.2931
 4829SOL    HW125949   4.720   2.906  10.876  2.0044 -0.6643 -1.7465
 4829SOL    HW225950   0.124   2.987  10.855  0.1270  1.2053 -1.5618
 4830SOL     OW25951   4.460   0.440   1.160  0.4220  0.2694  0.4916
 4830SOL    HW125952   4.484   0.359   1.204  1.4974  0.6216  0.5493
 4830SOL    HW225953   4.514   0.427   1.083  2.2153 -0.6910  1.9191
 4831SOL     OW25954   4.281   0.292   8.256  0.0838 -0.1173  0.2429
 4831SOL    HW125955   4.205   0.242   8.226  0.1944  0.8542 -1.6930
 4831SOL    HW225956   4.354   0.254   8.206  0.5264 -0.4910  1.1888
 4832SOL     OW25957   3.183   2.261   3.698 -0.2836 -0.3847 -0.4918
 4832SOL    HW125958   3.249   2.285   3.763  0.3028  0.0380 -1.2313
 4832SOL    HW225959   3.223   2.292   3.616  1.6447 -1.2781  0.1204
 4833SOL     OW25960   4.179   0.443  16.902  0.1726 -0.4370 -0.3894
 4833SOL    HW125961   4.240   0.388  16.950 -1.4603 -1.9432 -0.0421
 4833SOL    HW225962   4.182   0.426  16.807 -3.6713  0.2196 -0.6407
 4834SOL     OW25963   4.247   4.396   2.975  0.5108 -0.2660  0.2311
 4834SOL    HW125964   4.246   4.348   2.892 -0.6485  1.0087 -0.5047
 4834SOL    HW225965   4.207   4.478   2.944 -1.0144 -0.8351  0.6627
 4835SOL     OW25966   3.084   1.468   7.949 -0.5861  0.7157  0.1137
 4835SOL    HW125967   3.020   1.466   8.020 -0.9720  1.6748 -0.2102
 4835SOL    HW225968   3.027   1.493   7.877  1.1595  0.8132 -1.2420
 4836SOL     OW25969   0.847   1.315  14.077  0.1198 -0.1227  0.2685
 4836SOL    HW125970   0.888   1.310  14.163 -0.4602 -2.3347  0.4175
 4836SOL    HW225971   0.767   1.262  14.084  0.0350  0.1678  1.5152
 4837SOL     OW25972   4.454   0.310  17.382  0.6082 -0.1472  0.2882
 4837SOL    HW125973   4.445   0.269  17.467 -1.5732 -0.7460 -0.2274
 4837SOL    HW225974   4.435   0.233  17.328  0.5169  0.3708 -0.4253
 4838SOL     OW25975   1.973   2.015   1.536  0.2154 -0.1146  0.1570
 4838SOL    HW125976   2.035   1.944   1.556  0.9304  0.4833  0.0811
 4838SOL    HW225977   2.022   2.092   1.566  1.7660 -1.2336  0.5217
 4839SOL     OW25978   1.933   2.418   9.426  0.1557 -0.2034  0.5101
 4839SOL    HW125979   1.986   2.365   9.485 -0.0103  0.3166  1.1183
 4839SOL    HW225980   1.996   2.490   9.412  0.3716 -0.3590  0.6870
 4840SOL     OW25981   4.418   1.533   1.665  0.2235  0.1830 -0.1636
 4840SOL    HW125982   4.366   1.553   1.588 -0.2107  1.5296  0.4817
 4840SOL    HW225983   4.505   1.514   1.631  0.3530  1.2512 -0.4049
 4841SOL     OW25984   0.447   0.665   1.859 -0.0688  0.8417 -0.5985
 4841SOL    HW125985   0.465   0.585   1.810  0.0503 -0.1259  0.9910
 4841SOL    HW225986   0.521   0.722   1.838  1.7244 -1.0362  0.6594
 4842SOL     OW25987   3.501   1.739   0.680 -0.0244  0.6851 -0.0958
 4842SOL    HW125988   3.551   1.702   0.608 -1.0908  0.9282 -0.9610
 4842SOL    HW225989   3.451   1.812   0.642  0.2367  1.0507  0.2504
 4843SOL     OW25990   1.867   3.897   7.154 -0.5431 -0.0274  0.0496
 4843SOL    HW125991   1.919   3.870   7.230  2.4955  1.6162 -1.4373
 4843SOL    HW225992   1.816   3.820   7.130 -0.3257 -0.1285 -0.0817
 4844SOL     OW25993   2.476   4.418  10.822  0.1644  0.7157 -0.0165
 4844SOL    HW125994   2.407   4.471  10.860 -1.6625 -2.0820  0.5008
 4844SOL    HW225995   2.554   4.425  10.877  0.6652 -0.9297 -0.5274
 4845SOL     OW25996   3.356   3.725   8.354 -0.4964  0.5834  0.4833
 4845SOL    HW125997   3.378   3.676   8.433 -0.3977 -0.1385 -0.0006
 4845SOL    HW225998   3.412   3.801   8.367  0.3648 -0.2127  1.4025
 4846SOL     OW25999   0.896   4.078  15.740  0.0629 -0.0162  0.1967
 4846SOL    HW126000   0.958   4.151  15.736  0.3198 -0.3688 -2.2435
 4846SOL    HW226001   0.815   4.117  15.707  1.5556  2.4119 -0.5966
 4847SOL     OW26002   3.806   3.678   7.744 -0.0362 -0.1624  0.6679
 4847SOL    HW126003   3.782   3.671   7.652  0.0525 -1.3789  0.7447
 4847SOL    HW226004   3.738   3.735   7.780 -0.8309 -1.9853  2.0056
 4848SOL     OW26005   2.637   3.478  17.340  0.0996  0.2461  0.2230
 4848SOL    HW126006   2.649   3.486  17.434  2.1165 -0.5693  0.0473
 4848SOL    HW226007   2.578   3.403  17.331 -0.5205  0.3845  3.3382
 4849SOL     OW26008   0.287   2.058   2.027  0.1177  0.0862 -0.3015
 4849SOL    HW126009   0.375   2.096   2.033  0.1845 -0.3812  1.6852
 4849SOL    HW226010   0.265   2.045   2.120 -0.7523 -0.7987 -0.6358
 4850SOL     OW26011   1.612   4.107  14.179 -0.0894  0.1833  0.0165
 4850SOL    HW126012   1.611   4.124  14.084 -1.8380 -2.0559 -0.3809
 4850SOL    HW226013   1.552   4.032  14.184 -1.2713  1.1332  0.1585
 4851SOL     OW26014   3.247   3.815   4.016  0.1691  0.0907  0.1980
 4851SOL    HW126015   3.287   3.789   4.098 -0.2636 -2.7044 -0.4958
 4851SOL    HW226016   3.163   3.849   4.046 -0.0075  1.6096 -1.9472
 4852SOL     OW26017   2.399   1.984  12.935  0.0671 -0.5162  0.5669
 4852SOL    HW126018   2.318   2.030  12.914 -0.5173 -2.0000 -0.4092
 4852SOL    HW226019   2.447   2.052  12.982 -0.1037 -2.3112  3.3319
 4853SOL     OW26020   1.171   3.784   2.828 -0.1201  0.0951 -0.2377
 4853SOL    HW126021   1.215   3.744   2.903  0.4488 -2.0840 -1.7290
 4853SOL    HW226022   1.081   3.753   2.835  0.7948 -2.2055  1.3460
 4854SOL     OW26023   1.498   0.494   2.009  0.4876  0.5258  0.4834
 4854SOL    HW126024   1.538   0.457   1.931 -2.5711  0.9474 -1.3078
 4854SOL    HW226025   1.418   0.442   2.009  1.3385 -0.7642 -0.7631
 4855SOL     OW26026   1.799   2.647   5.693 -0.1350 -0.3050 -0.1500
 4855SOL    HW126027   1.773   2.580   5.757 -1.9798 -0.6742 -1.3156
 4855SOL    HW226028   1.888   2.659   5.728 -0.2925  0.9989 -0.2142
 4856SOL     OW26029   2.212   3.797   9.273 -0.3262 -0.3097 -0.5264
 4856SOL    HW126030   2.248   3.754   9.351 -3.6856 -1.7305  0.2353
 4856SOL    HW226031   2.227   3.732   9.205 -2.8278 -0.4742 -0.9118
 4857SOL     OW26032   1.175   2.406   1.111 -0.3532  0.3037 -0.1081
 4857SOL    HW126033   1.131   2.346   1.051 -1.0528  1.5087 -0.7999
 4857SOL    HW226034   1.105   2.460   1.148 -0.5150  1.0120 -1.4558
 4858SOL     OW26035   3.827   2.075   5.439  0.2687  0.4732 -0.0372
 4858SOL    HW126036   3.904   2.086   5.383  0.8208 -0.4469  0.5392
 4858SOL    HW226037   3.759   2.115   5.386 -1.3305 -1.4609  0.5838
 4859SOL     OW26038   0.367   1.000   2.029  0.1206  0.1087 -0.4322
 4859SOL    HW126039   0.457   1.022   2.005  0.4551 -0.9722 -0.1508
 4859SOL    HW226040   0.330   1.070   1.975  0.4536 -0.6370 -1.6299
 4860SOL     OW26041   1.112   4.458   8.950 -0.1278  0.1586  0.3494
 4860SOL    HW126042   1.165   4.392   8.906  1.6470  0.8751  1.4008
 4860SOL    HW226043   1.138   4.543   8.914  0.8046  0.2307  1.1971
 4861SOL     OW26044   3.477   0.450   7.704  0.0230 -0.0863 -0.1140
 4861SOL    HW126045   3.425   0.421   7.780 -2.3951  1.7234 -1.0680
 4861SOL    HW226046   3.567   0.437   7.732  0.2519  2.7245  0.4463
 4862SOL     OW26047   4.293   0.802  10.725 -0.4313  0.4723  0.1684
 4862SOL    HW126048   4.200   0.795  10.742 -0.3417 -1.8119 -0.2385
 4862SOL    HW226049   4.339   0.751  10.791 -2.3387 -0.7311  0.5406
 4863SOL     OW26050   3.306   1.195   3.163  0.0659  0.3351 -0.1244
 4863SOL    HW126051   3.389   1.240   3.150  0.6661 -1.2915 -2.0198
 4863SOL    HW226052   3.244   1.259   3.128 -0.8975 -1.4266 -1.6334
 4864SOL     OW26053   3.662   3.603   5.627 -0.2444 -0.0880 -0.0417
 4864SOL    HW126054   3.659   3.530   5.564 -1.4540 -0.9499  1.0178
 4864SOL    HW226055   3.663   3.674   5.562  1.2917  0.2591  0.3654
 4865SOL     OW26056   0.093   4.296   4.163  0.0809 -0.0262  0.2429
 4865SOL    HW126057   0.013   4.306   4.214  0.3286 -0.5464  0.7209
 4865SOL    HW226058   0.073   4.341   4.081 -0.4560  0.8260  0.8423
 4866SOL     OW26059   3.655   0.888   4.642  0.3321 -0.3608  0.4685
 4866SOL    HW126060   3.635   0.850   4.557  0.5797  0.7205 -0.0720
 4866SOL    HW226061   3.602   0.838   4.704  0.2157 -0.4476  0.2999
 4867SOL     OW26062   3.856   3.692   3.625 -0.5312 -0.1022 -0.6500
 4867SOL    HW126063   3.810   3.620   3.668  0.0540  0.6840  1.3014
 4867SOL    HW226064   3.919   3.641   3.574 -0.6828  2.0982 -3.0085
 4868SOL     OW26065   0.369   1.821   5.409  0.3833  0.0170 -0.4701
 4868SOL    HW126066   0.353   1.863   5.325  0.7836  1.6348  0.2551
 4868SOL    HW226067   0.398   1.736   5.375 -0.6040 -0.2301 -0.6741
 4869SOL     OW26068   1.887   4.442  12.830 -0.1125 -0.0155 -0.4586
 4869SOL    HW126069   1.816   4.393  12.872  0.6056 -2.7709 -2.4621
 4869SOL    HW226070   1.848   4.515  12.781 -0.3398  0.5093  0.5022
 4870SOL     OW26071   3.980   0.252   0.209  0.4098  0.5043  0.7211
 4870SOL    HW126072   4.058   0.281   0.258 -1.1067  2.4595  1.9925
 4870SOL    HW226073   3.950   0.167   0.239  0.4029  0.1531 -0.2704
 4871SOL     OW26074   2.497   3.106   0.985 -0.0325 -0.1446 -0.2964
 4871SOL    HW126075   2.516   3.016   1.012 -0.2912  0.0770  0.6238
 4871SOL    HW226076   2.585   3.135   1.012 -0.2293 -0.6203  0.8696
 4872SOL     OW26077   2.680   2.578  13.869 -0.4697 -0.1033 -0.1271
 4872SOL    HW126078   2.693   2.630  13.949 -1.1300 -0.1717  0.0199
 4872SOL    HW226079   2.767   2.539  13.854  0.1047  0.1750  2.4397
 4873SOL     OW26080   3.715   0.049  12.908 -0.4543 -0.4450 -0.3892
 4873SOL    HW126081   3.769   0.099  12.847 -0.6595  1.0481  0.6448
 4873SOL    HW226082   3.686   4.709  12.839 -0.1092 -0.8905 -0.1416
 4874SOL     OW26083   2.752   3.155   4.685 -0.2408 -0.4896 -0.2008
 4874SOL    HW126084   2.810   3.089   4.723 -0.5683 -0.9078 -0.4262
 4874SOL    HW226085   2.805   3.230   4.713 -2.2561 -0.2217  2.8770
 4875SOL     OW26086   0.251   0.228   8.568  0.4214  0.1165 -0.6790
 4875SOL    HW126087   0.234   0.305   8.514 -0.9204  0.8343  0.7695
 4875SOL    HW226088   0.161   0.202   8.585  0.8787 -1.0602 -0.0637
 4876SOL     OW26089   1.283   2.576   3.271 -0.0104 -0.4197  0.1600
 4876SOL    HW126090   1.273   2.649   3.209  1.3992 -1.5093 -1.3594
 4876SOL    HW226091   1.192   2.547   3.279 -1.0470  2.7667  0.0907
 4877SOL     OW26092   1.777   2.570   2.242 -0.5772  0.0340 -0.5304
 4877SOL    HW126093   1.859   2.583   2.193 -1.0056 -1.1591 -1.5637
 4877SOL    HW226094   1.797   2.494   2.296  1.0724  2.2875  2.0153
 4878SOL     OW26095   3.183   0.143  15.701 -0.0222 -0.1023 -0.6540
 4878SOL    HW126096   3.235   0.068  15.671 -1.9754 -0.7623 -2.3707
 4878SOL    HW226097   3.179   0.126  15.795 -0.7601  0.2019 -0.6336
 4879SOL     OW26098   2.725   4.397   9.122 -0.0066  0.1864 -0.2926
 4879SOL    HW126099   2.665   4.470   9.103  1.3583  1.3716 -0.0451
 4879SOL    HW226100   2.662   4.326   9.132  1.2310 -1.1826 -2.2629
 4880SOL     OW26101   4.558   3.591   5.846 -0.2171 -0.0745  0.5347
 4880SOL    HW126102   4.546   3.515   5.789  1.6347 -0.4578  0.6720
 4880SOL    HW226103   4.523   3.660   5.790  1.3866 -0.9240 -1.4807
 4881SOL     OW26104   3.457   4.386  17.515  0.3895  0.1138 -0.1578
 4881SOL    HW126105   3.450   4.291  17.526 -1.7575  0.2874 -0.0950
 4881SOL    HW226106   3.549   4.406  17.502 -0.0017  2.4035  0.6757
 4882SOL     OW26107   1.680   3.558   0.748  0.1837  0.5831 -0.1565
 4882SOL    HW126108   1.586   3.570   0.756 -0.2380 -1.7549 -1.5924
 4882SOL    HW226109   1.703   3.651   0.750 -0.7250  0.8328 -1.5613
 4883SOL     OW26110   0.723   2.814   0.460  0.1518  0.2047  0.3382
 4883SOL    HW126111   0.652   2.816   0.523  0.8863  0.8585  1.1364
 4883SOL    HW226112   0.676   2.835   0.380  0.0183 -2.7771 -0.3913
 4884SOL     OW26113   3.278   2.125   0.275  0.0987  0.6253  0.6884
 4884SOL    HW126114   3.184   2.121   0.296 -0.2900  1.4082 -0.8726
 4884SOL    HW226115   3.278   2.121   0.179 -0.7360 -0.8935  0.7391
 4885SOL     OW26116   2.484   0.669   3.963 -0.4689  0.6551  0.1247
 4885SOL    HW126117   2.474   0.700   3.874  0.4712  0.8616  0.0906
 4885SOL    HW226118   2.570   0.698   3.992 -0.7834 -0.1259  1.8838
 4886SOL     OW26119   1.572   1.371   2.620  0.0979  0.4643  0.4351
 4886SOL    HW126120   1.530   1.419   2.692 -0.9670 -3.3867  2.3935
 4886SOL    HW226121   1.612   1.444   2.574  2.3488 -1.8654 -1.2329
 4887SOL     OW26122   1.660   2.857   5.585 -0.4522  0.1624  0.2688
 4887SOL    HW126123   1.699   2.774   5.613  1.4548  0.7206 -0.7523
 4887SOL    HW226124   1.570   2.824   5.582 -0.3766 -0.1204  1.0425
 4888SOL     OW26125   1.006   0.669  15.550  0.0622  0.2569 -0.1307
 4888SOL    HW126126   1.099   0.665  15.531  0.2979 -0.7940  1.1987
 4888SOL    HW226127   0.992   0.584  15.593 -0.4282 -0.0755 -0.9502
 4889SOL     OW26128   2.563   1.021   7.415  0.4520 -0.1500 -0.3300
 4889SOL    HW126129   2.512   0.994   7.339 -1.3501  1.5891  0.2661
 4889SOL    HW226130   2.591   0.936   7.450 -1.2167  0.3529  2.2920
 4890SOL     OW26131   4.287   2.798   2.382  0.3010  0.0188 -0.7369
 4890SOL    HW126132   4.316   2.740   2.311 -1.0663  1.1029 -2.1766
 4890SOL    HW226133   4.372   2.837   2.404  0.9283 -2.4958  1.2558
 4891SOL     OW26134   3.975   3.060   8.661  0.3563 -0.0381  0.2921
 4891SOL    HW126135   3.984   2.982   8.607  1.7431  1.6882 -1.9870
 4891SOL    HW226136   3.933   3.022   8.738 -1.7273 -0.5240 -1.0771
 4892SOL     OW26137   4.210   2.155   7.505  0.9254 -0.0484  0.3464
 4892SOL    HW126138   4.294   2.109   7.509  0.8627 -0.1841  0.0933
 4892SOL    HW226139   4.152   2.093   7.461  0.9288 -1.0169  1.7090
 4893SOL     OW26140   4.645   2.435   6.253  0.6106  0.1995  0.0633
 4893SOL    HW126141   4.624   2.480   6.334 -0.9419 -1.4185  0.5591
 4893SOL    HW226142   4.642   2.503   6.186  0.5054 -2.4094 -2.5846
 4894SOL     OW26143   0.702   2.895  13.371  0.4798 -0.0240  0.3406
 4894SOL    HW126144   0.667   2.984  13.363  0.4403  0.2740  3.9270
 4894SOL    HW226145   0.625   2.848  13.401 -0.3437  0.7914 -0.5053
 4895SOL     OW26146   1.268   1.181   9.518  0.3645  0.2560 -0.6288
 4895SOL    HW126147   1.251   1.272   9.497  2.0690  0.5505 -0.7431
 4895SOL    HW226148   1.361   1.190   9.538  0.6538  1.1096 -2.3857
 4896SOL     OW26149   3.074   2.080   3.904  0.2231  0.3436  0.6407
 4896SOL    HW126150   3.057   1.996   3.863  0.8077  0.1366  0.8351
 4896SOL    HW226151   3.100   2.132   3.828  0.1814  1.5256  1.4320
 4897SOL     OW26152   1.975   0.631  15.538 -0.2640  0.0124  0.6558
 4897SOL    HW126153   1.935   0.717  15.548 -2.0055 -0.6224 -0.9053
 4897SOL    HW226154   2.064   0.636  15.575  0.7915 -0.4994 -1.8411
 4898SOL     OW26155   4.181   3.995  10.263 -0.3328 -0.2474  0.0536
 4898SOL    HW126156   4.201   3.907  10.295 -2.3789 -0.2570  1.3194
 4898SOL    HW226157   4.166   3.979  10.170  0.7042 -0.2133 -0.1190
 4899SOL     OW26158   4.266   1.649  10.247  0.0194  0.2415  0.2347
 4899SOL    HW126159   4.293   1.589  10.317  0.1892 -0.1014 -0.1252
 4899SOL    HW226160   4.330   1.632  10.178  0.0173 -2.1909  0.8252
 4900SOL     OW26161   4.218   0.625   6.794  0.2514 -0.2581 -0.4138
 4900SOL    HW126162   4.286   0.666   6.848 -1.8149  1.8762  0.5322
 4900SOL    HW226163   4.236   0.531   6.788  1.1469 -0.2516  1.9716
 4901SOL     OW26164   1.765   3.180   2.205  0.2703 -0.7810  0.4495
 4901SOL    HW126165   1.751   3.262   2.252 -1.6060  0.2767 -1.9841
 4901SOL    HW226166   1.699   3.140   2.262  0.2679 -0.6827  0.5163
 4902SOL     OW26167   0.448   4.332   2.153 -0.6511 -0.1744 -0.1440
 4902SOL    HW126168   0.410   4.419   2.142  0.2587  0.3189  0.5856
 4902SOL    HW226169   0.533   4.349   2.113 -1.1608  0.0018 -1.1550
 4903SOL     OW26170   2.827   1.874   5.310 -0.1589 -0.1506  0.1325
 4903SOL    HW126171   2.742   1.904   5.276  0.4358  2.2090  0.7643
 4903SOL    HW226172   2.804   1.804   5.372 -2.9582  0.9854  0.3903
 4904SOL     OW26173   0.553   0.098   0.221 -0.0302 -0.7564  0.0610
 4904SOL    HW126174   0.601   0.145   0.153 -0.1248 -0.5234  0.1535
 4904SOL    HW226175   0.539   0.011   0.184 -0.9191 -1.5059  2.1614
 4905SOL     OW26176   3.330   1.899   3.249 -0.1973  0.2656 -0.8270
 4905SOL    HW126177   3.284   1.936   3.324 -0.9065  0.6202 -1.4443
 4905SOL    HW226178   3.410   1.952   3.256  0.3310 -0.6069 -0.2445
 4906SOL     OW26179   4.102   2.091  10.590 -0.2181  0.0518  0.4642
 4906SOL    HW126180   4.194   2.103  10.568 -0.3121 -1.2680 -0.6430
 4906SOL    HW226181   4.061   2.023  10.537  0.0145 -1.6413  2.4216
 4907SOL     OW26182   1.365   1.441  12.696  0.0992 -0.4364 -0.0299
 4907SOL    HW126183   1.434   1.387  12.657 -0.0369  0.5307 -1.5979
 4907SOL    HW226184   1.385   1.433  12.789  3.9626  1.6970 -0.6985
 4908SOL     OW26185   0.528   2.645  16.641 -0.3276  0.1283 -0.0689
 4908SOL    HW126186   0.437   2.616  16.647 -0.1569 -0.6935 -1.5291
 4908SOL    HW226187   0.566   2.608  16.721 -0.2813 -0.1046 -0.2014
 4909SOL     OW26188   3.708   2.379   3.639  0.0755 -0.3962 -0.7900
 4909SOL    HW126189   3.659   2.375   3.557  0.4143  0.0564 -1.0108
 4909SOL    HW226190   3.740   2.290   3.650 -0.8192 -0.4895  1.1616
 4910SOL     OW26191   2.463   0.357   5.756  0.2934 -0.0339  0.1653
 4910SOL    HW126192   2.440   0.321   5.842 -2.1732  0.4327 -0.3191
 4910SOL    HW226193   2.371   0.378   5.739 -0.0473 -0.1585  1.8389
 4911SOL     OW26194   1.226   0.519  15.470 -0.7286  0.1350  0.0570
 4911SOL    HW126195   1.299   0.578  15.492 -0.0005 -0.5258 -0.5922
 4911SOL    HW226196   1.239   0.444  15.528 -1.0370 -0.0665 -0.1388
 4912SOL     OW26197   4.432   4.214   6.831  0.3147 -0.9028  0.2808
 4912SOL    HW126198   4.377   4.262   6.893  0.7605 -3.1886  2.4217
 4912SOL    HW226199   4.378   4.226   6.752  1.7979 -0.2576 -0.6363
 4913SOL     OW26200   3.878   0.797  17.116  0.5217 -0.4211 -0.0348
 4913SOL    HW126201   3.966   0.761  17.124  0.5307 -0.2469  0.6308
 4913SOL    HW226202   3.894   0.835  17.030 -3.3775  1.1099 -0.0924
 4914SOL     OW26203   1.196   0.633  13.208 -0.5018 -0.3156  0.1847
 4914SOL    HW126204   1.181   0.602  13.119  0.8540  1.8928 -0.8242
 4914SOL    HW226205   1.291   0.626  13.208 -0.3561  1.6598 -0.4634
 4915SOL     OW26206   0.240   1.437   5.176 -0.7104 -0.2423 -0.3309
 4915SOL    HW126207   0.251   1.356   5.226  0.2708 -0.2778 -0.5899
 4915SOL    HW226208   0.159   1.419   5.130 -0.7878 -0.2808 -0.1790
 4916SOL     OW26209   1.925   4.597   4.484  0.2327 -0.0511 -0.2414
 4916SOL    HW126210   1.885   4.521   4.441 -0.7288  0.7241 -0.7023
 4916SOL    HW226211   1.927   4.660   4.412 -0.0774  0.3953  0.1449
 4917SOL     OW26212   2.076   1.170   2.040  0.3888  0.2448 -0.1965
 4917SOL    HW126213   2.160   1.129   2.022  0.4859 -0.2340  1.3179
 4917SOL    HW226214   2.096   1.201   2.129  0.0400  0.7437 -0.2889
 4918SOL     OW26215   4.402   0.643   0.368 -0.3327 -0.5431 -0.2193
 4918SOL    HW126216   4.329   0.599   0.324 -0.8639 -0.7799  0.9118
 4918SOL    HW226217   4.364   0.649   0.455  1.9692 -0.7633  0.8072
 4919SOL     OW26218   0.383   1.244  13.211  0.5255  0.4724  0.3452
 4919SOL    HW126219   0.405   1.151  13.217  0.2794  0.3874 -0.1237
 4919SOL    HW226220   0.293   1.230  13.184  0.1684  0.6567  1.4322
 4920SOL     OW26221   0.560   2.833   3.604  0.0238  0.0118  0.4303
 4920SOL    HW126222   0.498   2.903   3.623 -0.7774 -0.6897  0.3949
 4920SOL    HW226223   0.639   2.866   3.645  1.0331 -1.1526 -0.5490
 4921SOL     OW26224   4.577   3.100  15.297 -0.3396 -0.2546 -0.1379
 4921SOL    HW126225   4.558   3.124  15.206  1.6767  2.0632  0.0849
 4921SOL    HW226226   4.670   3.082  15.302 -0.5317 -0.5841  2.6347
 4922SOL     OW26227   1.654   3.945   7.794  0.5945  0.1650  0.4304
 4922SOL    HW126228   1.639   3.875   7.730  1.4156  2.4451 -2.2792
 4922SOL    HW226229   1.714   3.998   7.741  1.8034 -1.5932  0.0337
 4923SOL     OW26230   0.278   3.778   3.444  0.0673 -0.2853 -0.2482
 4923SOL    HW126231   0.206   3.792   3.383 -0.2013  1.6473  0.4946
 4923SOL    HW226232   0.349   3.787   3.380 -1.4996 -0.0884 -1.9538
 4924SOL     OW26233   2.285   0.122   9.541  0.3503  0.1947  0.2102
 4924SOL    HW126234   2.198   0.162   9.541  0.2771  0.0333  0.9917
 4924SOL    HW226235   2.288   0.086   9.453  2.5212 -0.7908  0.6995
 4925SOL     OW26236   3.661   3.489   0.112  0.1316 -0.3524  0.0916
 4925SOL    HW126237   3.713   3.569   0.102  0.4166 -0.3145  1.9567
 4925SOL    HW226238   3.669   3.470   0.205 -0.4391  2.3877  0.7226
 4926SOL     OW26239   0.536   1.494   0.750  0.5198  0.0886 -0.2529
 4926SOL    HW126240   0.549   1.561   0.817  1.2130  1.9152 -2.2241
 4926SOL    HW226241   0.568   1.531   0.668 -0.4041  0.7950 -0.3004
 4927SOL     OW26242   3.353   4.140   9.218 -0.1895  0.6763 -0.1298
 4927SOL    HW126243   3.381   4.170   9.305 -0.8765 -0.7239  0.5670
 4927SOL    HW226244   3.384   4.050   9.214 -0.3742  0.5928  0.3337
 4928SOL     OW26245   2.535   0.100   6.271  0.5416  0.3213 -0.2749
 4928SOL    HW126246   2.464   0.055   6.317 -1.3833  1.9159 -1.6714
 4928SOL    HW226247   2.506   0.191   6.269 -1.9187 -0.4138  1.5110
 4929SOL     OW26248   3.329   3.561   1.217  0.2205 -0.7250  0.3449
 4929SOL    HW126249   3.418   3.564   1.254  0.3066 -0.2311  0.1000
 4929SOL    HW226250   3.340   3.502   1.143 -0.9058 -0.6279  0.1008
 4930SOL     OW26251   0.619   0.128   2.877  0.3189 -0.0405 -0.0755
 4930SOL    HW126252   0.534   0.117   2.919  0.1312 -1.4552 -0.8026
 4930SOL    HW226253   0.597   0.140   2.785 -0.9076 -1.1378  0.0747
 4931SOL     OW26254   1.217   1.320   3.189 -0.3675 -0.4642 -0.1073
 4931SOL    HW126255   1.197   1.270   3.110  0.5375  1.5973 -1.6717
 4931SOL    HW226256   1.241   1.249   3.248 -1.6761 -0.0603  0.9314
 4932SOL     OW26257   2.756   4.427   1.870  0.5143 -0.5877 -0.5671
 4932SOL    HW126258   2.812   4.351   1.852 -0.3146 -1.1283 -0.8814
 4932SOL    HW226259   2.775   4.470   1.787 -0.2340 -0.8263 -0.8611
 4933SOL     OW26260   4.244   3.268  13.276  1.2402  0.0666  0.9019
 4933SOL    HW126261   4.207   3.349  13.242  1.3191  0.9329  2.8476
 4933SOL    HW226262   4.334   3.296  13.292  1.3691  0.2404 -0.1798
 4934SOL     OW26263   0.156   2.218   8.404  0.0667 -0.7519  0.1105
 4934SOL    HW126264   0.208   2.207   8.324  0.6984 -0.3791  0.4643
 4934SOL    HW226265   0.102   2.140   8.397 -0.7400 -0.0677 -1.5169
 4935SOL     OW26266   3.479   3.587   6.372  0.4663 -0.3234 -0.1456
 4935SOL    HW126267   3.400   3.534   6.385  0.2079  0.0845 -0.0491
 4935SOL    HW226268   3.543   3.554   6.434 -0.6221 -1.8980  0.1286
 4936SOL     OW26269   4.102   3.834   8.149  0.8089 -0.0810  0.5470
 4936SOL    HW126270   4.163   3.778   8.100 -0.8149 -1.1077 -0.2728
 4936SOL    HW226271   4.057   3.862   8.070  1.8623  1.5663  0.5190
 4937SOL     OW26272   2.318   2.811  15.518  0.3159  0.1412 -0.0473
 4937SOL    HW126273   2.263   2.887  15.538  2.9933  1.4217  2.4048
 4937SOL    HW226274   2.400   2.854  15.495  1.1995 -0.0051  2.7958
 4938SOL     OW26275   4.070   2.590   5.093  0.3708 -0.3715 -0.0858
 4938SOL    HW126276   4.008   2.621   5.028 -0.0669  1.1500  1.0639
 4938SOL    HW226277   4.089   2.665   5.149 -0.5615  0.9278 -1.5246
 4939SOL     OW26278   0.636   4.131  17.481 -0.1095  0.5022 -0.2523
 4939SOL    HW126279   0.692   4.066  17.522 -0.5669  1.2161  1.4969
 4939SOL    HW226280   0.550   4.091  17.492  0.2037 -0.1718 -0.2565
 4940SOL     OW26281   0.033   0.468   3.150 -0.8316  0.2087  0.3664
 4940SOL    HW126282   0.030   0.374   3.169  0.9840 -0.0836 -0.7120
 4940SOL    HW226283   4.665   0.503   3.157  0.2641  2.7019  1.5919
 4941SOL     OW26284   3.157   4.404   6.715  0.3994 -0.2359  0.0356
 4941SOL    HW126285   3.193   4.379   6.800 -0.0934  3.1020  1.2122
 4941SOL    HW226286   3.066   4.382   6.732  0.4046 -0.6792 -0.4871
 4942SOL     OW26287   1.800   1.303   3.950 -0.0555  0.4962 -0.0346
 4942SOL    HW126288   1.879   1.249   3.949 -0.6607 -0.3705 -0.7256
 4942SOL    HW226289   1.832   1.389   3.925  0.7497  0.7353  1.8500
 4943SOL     OW26290   4.245   0.845  14.060 -0.1359 -0.1435  0.2944
 4943SOL    HW126291   4.222   0.828  13.969  0.7695  1.3864 -0.2171
 4943SOL    HW226292   4.177   0.909  14.082 -0.1285 -0.0242 -0.0385
 4944SOL     OW26293   0.825   0.457   3.844 -0.2871 -0.2987  0.1914
 4944SOL    HW126294   0.903   0.507   3.819 -0.2197 -2.0561 -3.1562
 4944SOL    HW226295   0.764   0.531   3.844  2.7732  2.2343 -1.4093
 4945SOL     OW26296   3.470   3.977   7.773 -0.1188  0.0677 -0.1050
 4945SOL    HW126297   3.431   4.018   7.850  0.0953 -0.4488  0.2778
 4945SOL    HW226298   3.415   4.004   7.699 -0.7237 -1.6911 -0.2990
 4946SOL     OW26299   0.626   1.002   1.961  0.4551  0.0740  0.6525
 4946SOL    HW126300   0.716   0.993   1.929  0.0454 -1.0426 -0.1554
 4946SOL    HW226301   0.603   1.056   1.885  0.8082 -1.1402 -0.3064
 4947SOL     OW26302   0.142   0.445   3.566 -0.2282  0.1156 -0.1359
 4947SOL    HW126303   0.078   0.396   3.618  0.0433 -0.3077 -0.2017
 4947SOL    HW226304   0.211   0.382   3.587 -0.6202 -0.5476 -0.8616
 4948SOL     OW26305   3.223   3.899   2.099 -0.2093  0.5121 -0.5155
 4948SOL    HW126306   3.312   3.898   2.064  0.1785 -1.4478  0.5731
 4948SOL    HW226307   3.239   3.821   2.152 -0.1325  0.0548 -1.2079
 4949SOL     OW26308   2.385   3.642   3.480 -0.5196 -0.2262 -0.0804
 4949SOL    HW126309   2.431   3.564   3.513  0.4495 -0.4563 -2.0070
 4949SOL    HW226310   2.448   3.684   3.422 -1.5230  0.5243 -0.6269
 4950SOL     OW26311   3.435   1.540  16.986 -0.5828  0.2663  1.0045
 4950SOL    HW126312   3.356   1.507  17.029  1.0930 -2.7392  1.7994
 4950SOL    HW226313   3.402   1.611  16.931  1.4934 -0.1220 -0.7401
 4951SOL     OW26314   3.586   3.339   6.836  0.0555 -0.2113 -0.2097
 4951SOL    HW126315   3.494   3.319   6.854 -0.4886  1.1681 -1.5211
 4951SOL    HW226316   3.592   3.428   6.871 -0.7032 -0.0798 -0.4170
 4952SOL     OW26317   1.556   1.357  17.395 -0.0743 -0.0969 -0.2350
 4952SOL    HW126318   1.487   1.298  17.363 -1.6920  1.2248  0.7989
 4952SOL    HW226319   1.514   1.442  17.407 -0.2286 -0.1760 -0.2043
 4953SOL     OW26320   2.888   2.785  17.553  0.2105  0.2455 -0.0564
 4953SOL    HW126321   2.830   2.762  17.481  1.5135 -0.9969 -0.7206
 4953SOL    HW226322   2.854   2.711  17.604  1.0647 -0.1447 -0.0413
 4954SOL     OW26323   4.219   1.897   3.058 -0.2396 -0.1016  0.2121
 4954SOL    HW126324   4.148   1.940   3.010  1.3314  1.4077 -0.7723
 4954SOL    HW226325   4.199   1.803   3.057 -2.3811  0.3335  2.1755
 4955SOL     OW26326   0.710   0.171  15.059  0.0290  0.2025  0.2681
 4955SOL    HW126327   0.621   0.181  15.094  0.1294  0.9531  0.3161
 4955SOL    HW226328   0.737   0.087  15.095 -1.5238  0.1351  1.2550
 4956SOL     OW26329   1.303   4.116  10.133 -0.7222 -0.3288  0.1221
 4956SOL    HW126330   1.348   4.135  10.051  1.9378 -1.0448  1.4275
 4956SOL    HW226331   1.376   4.087  10.188  0.1719  0.5236 -0.6130
 4957SOL     OW26332   0.395   2.963   0.336  0.2686 -0.0410  0.2646
 4957SOL    HW126333   0.348   2.919   0.407 -1.7649 -0.3897 -1.2818
 4957SOL    HW226334   0.444   3.030   0.383 -1.0088  0.0019  1.5652
 4958SOL     OW26335   4.720   1.374   7.854  0.4145 -0.0356  0.1824
 4958SOL    HW126336   4.680   1.415   7.931  3.2313  0.6620  1.2806
 4958SOL    HW226337   0.020   1.446   7.795  0.7687 -1.4383 -1.3912
 4959SOL     OW26338   0.055   2.020  10.238 -0.2037 -0.8879 -0.2398
 4959SOL    HW126339   4.699   2.065  10.273  0.3557 -0.9219  1.0144
 4959SOL    HW226340   0.105   2.026  10.319  2.6269  0.2312 -2.0239
 4960SOL     OW26341   0.353   2.906  14.141  0.5155  0.7875 -0.1434
 4960SOL    HW126342   0.350   2.822  14.187  0.6170 -1.2300 -3.9005
 4960SOL    HW226343   0.419   2.952  14.193  0.2434  1.0140  0.0065
 4961SOL     OW26344   2.895   1.290   2.684 -0.4055  0.4201 -0.6745
 4961SOL    HW126345   2.909   1.384   2.673  1.8155 -0.0483 -1.7183
 4961SOL    HW226346   2.845   1.277   2.603 -2.0634  1.4801  0.1721
 4962SOL     OW26347   1.340   3.087   7.121  0.2675 -0.3942 -0.7303
 4962SOL    HW126348   1.282   3.048   7.056 -1.1759 -0.1902  0.4274
 4962SOL    HW226349   1.391   3.144   7.064 -2.5113  1.0065 -1.8112
 4963SOL     OW26350   4.284   3.808   4.487  0.7630 -0.0576 -0.4789
 4963SOL    HW126351   4.282   3.904   4.491  0.1798 -0.1869  2.4615
 4963SOL    HW226352   4.307   3.804   4.395 -0.7693  2.3994 -0.9672
 4964SOL     OW26353   2.214   0.934   3.706  0.0172 -0.4762 -0.1134
 4964SOL    HW126354   2.237   0.977   3.624  0.9647  0.8171  0.8371
 4964SOL    HW226355   2.275   0.861   3.707  0.8963  0.2595 -0.0448
 4965SOL     OW26356   3.094   2.678   0.733  0.1913  0.2663  0.1030
 4965SOL    HW126357   3.020   2.655   0.678  0.7880  0.9598 -0.9957
 4965SOL    HW226358   3.145   2.736   0.677 -1.1527  0.8932 -0.4660
 4966SOL     OW26359   4.163   0.096   9.151  0.2675 -0.2674 -0.1953
 4966SOL    HW126360   4.111   0.016   9.158  1.4172 -1.0008 -0.1573
 4966SOL    HW226361   4.113   0.149   9.214  0.8211 -0.1966  0.1850
 4967SOL     OW26362   1.776   4.719  15.336 -0.0527 -0.9149  0.5659
 4967SOL    HW126363   1.811   4.642  15.291  0.8067 -0.1609 -0.0325
 4967SOL    HW226364   1.855   0.043  15.365  0.1549 -0.0260 -1.3482
 4968SOL     OW26365   0.324   2.455   4.152  0.1766 -0.4595  0.5168
 4968SOL    HW126366   0.255   2.511   4.188  1.1221  2.1265 -1.7538
 4968SOL    HW226367   0.384   2.449   4.227 -2.3050  1.9469  2.6609
 4969SOL     OW26368   1.792   0.199   1.973 -0.8026  0.2341  0.1082
 4969SOL    HW126369   1.863   0.144   2.006  0.2338  2.2072  1.1408
 4969SOL    HW226370   1.743   0.233   2.048 -3.2735  0.1207 -1.4528
 4970SOL     OW26371   2.324   3.694   3.001 -0.4821 -0.0648 -0.5392
 4970SOL    HW126372   2.396   3.742   3.043 -1.5746  2.5292 -1.6096
 4970SOL    HW226373   2.374   3.645   2.936 -0.1536  0.3077 -0.5704
 4971SOL     OW26374   3.682   3.032   2.475 -0.1975  0.7289 -0.1851
 4971SOL    HW126375   3.729   2.982   2.408  1.0930  1.3896  0.2494
 4971SOL    HW226376   3.652   3.113   2.434 -0.4610 -0.6343 -2.7125
 4972SOL     OW26377   0.779   0.932   3.303 -0.0438  0.1816 -0.3066
 4972SOL    HW126378   0.833   0.981   3.366  0.4186  0.3530 -0.8394
 4972SOL    HW226379   0.750   1.011   3.258 -1.0830 -0.0905 -0.1059
 4973SOL     OW26380   3.111   2.002   5.599 -0.3063 -0.1679 -0.0391
 4973SOL    HW126381   3.115   2.068   5.669 -3.2613  0.5511 -0.5438
 4973SOL    HW226382   3.198   2.008   5.560 -0.6582  0.7594 -0.6881
 4974SOL     OW26383   4.095   1.386  11.269 -0.4090  0.0411 -0.0321
 4974SOL    HW126384   4.141   1.317  11.317 -0.5861 -1.7689 -2.4219
 4974SOL    HW226385   4.167   1.417  11.213 -0.9942 -2.9598 -2.4523
 4975SOL     OW26386   2.935   2.970   2.106  0.0799 -0.6998  0.1958
 4975SOL    HW126387   2.979   2.923   2.178 -0.6604  0.5123  1.4421
 4975SOL    HW226388   2.855   2.918   2.119  0.8753 -2.7406 -2.9501
 4976SOL     OW26389   0.606   3.811   6.215  0.6205  0.3075 -0.0138
 4976SOL    HW126390   0.675   3.790   6.152  1.9061  1.3176  1.0523
 4976SOL    HW226391   0.612   3.745   6.285 -3.0566  0.3437  0.3086
 4977SOL     OW26392   3.514   0.106   2.854  1.0414 -0.6738 -0.6154
 4977SOL    HW126393   3.596   0.061   2.836  1.7320  0.6290 -0.7503
 4977SOL    HW226394   3.507   0.065   2.940 -2.1367  1.0006 -0.0657
 4978SOL     OW26395   4.255   2.391   8.680  0.1570 -0.0652  0.1707
 4978SOL    HW126396   4.216   2.475   8.656  0.1378 -0.0073  0.4123
 4978SOL    HW226397   4.313   2.424   8.748 -1.0319  2.3633  0.0060
 4979SOL     OW26398   4.078   1.407   5.880 -0.2058 -0.1270 -0.9009
 4979SOL    HW126399   4.110   1.438   5.795  0.7230  0.0993 -0.4785
 4979SOL    HW226400   4.111   1.318   5.871  0.4385  0.0423 -0.3095
 4980SOL     OW26401   1.009   0.929  15.543  0.2086  0.8257  0.0384
 4980SOL    HW126402   0.985   0.837  15.553  0.4074  0.7555 -0.1329
 4980SOL    HW226403   1.076   0.929  15.611  1.2206 -2.8485 -0.9392
 4981SOL     OW26404   0.204   2.295   9.102 -0.1022 -0.3399  0.2716
 4981SOL    HW126405   0.114   2.328   9.106  0.1487  0.6302 -1.9697
 4981SOL    HW226406   0.228   2.376   9.056 -1.7471  0.6789  1.1917
 4982SOL     OW26407   1.444   2.434   2.021 -0.0622 -0.0359  1.0087
 4982SOL    HW126408   1.475   2.518   2.053  2.0582 -0.5579  0.3537
 4982SOL    HW226409   1.365   2.425   2.074 -0.1896  0.5629  0.9183
 4983SOL     OW26410   2.392   2.273   6.675  0.2630  0.4929  0.2264
 4983SOL    HW126411   2.321   2.288   6.737 -0.5218 -0.3939 -0.4705
 4983SOL    HW226412   2.399   2.350   6.618  0.0657 -1.1643 -1.9955
 4984SOL     OW26413   0.246   1.619  15.598  0.0931 -0.1967 -0.0690
 4984SOL    HW126414   0.194   1.696  15.574 -1.9131 -1.2687  0.8512
 4984SOL    HW226415   0.314   1.650  15.658 -1.6971  0.8021  1.4506
 4985SOL     OW26416   3.746   3.060  10.473 -0.3521 -0.3450 -0.2878
 4985SOL    HW126417   3.700   2.981  10.500 -2.2447  1.4899  1.9475
 4985SOL    HW226418   3.739   3.058  10.377  1.2950  0.6634 -0.4332
 4986SOL     OW26419   2.797   4.135   5.782  0.1356 -0.2959  0.1787
 4986SOL    HW126420   2.718   4.120   5.730 -0.5928  0.2099  1.1444
 4986SOL    HW226421   2.852   4.184   5.720  2.3703 -2.4905  0.3971
 4987SOL     OW26422   2.855   2.781   9.298 -0.3655 -0.2692 -0.4427
 4987SOL    HW126423   2.837   2.738   9.381 -1.4395  1.7602  0.3586
 4987SOL    HW226424   2.826   2.870   9.315 -1.3524 -0.6687 -0.0331
 4988SOL     OW26425   4.655   3.785   3.781 -0.2224  0.7238 -0.0810
 4988SOL    HW126426   0.020   3.762   3.746 -0.6881 -0.2638 -0.5794
 4988SOL    HW226427   4.619   3.711   3.831  0.7427 -0.4235 -1.0941
 4989SOL     OW26428   3.696   1.602  14.924 -0.3063  0.4621 -0.2665
 4989SOL    HW126429   3.649   1.582  14.844 -2.1475  1.6673  0.5119
 4989SOL    HW226430   3.772   1.544  14.922 -0.4370  0.2243  1.7768
 4990SOL     OW26431   2.885   0.181  15.303  0.1239  0.3235  0.4005
 4990SOL    HW126432   2.966   0.173  15.354  1.0786  1.9173 -0.8957
 4990SOL    HW226433   2.853   0.265  15.334 -1.7979  0.3556 -1.6794
 4991SOL     OW26434   4.422   0.598   9.423 -0.0329  0.0323  0.1390
 4991SOL    HW126435   4.414   0.688   9.391 -0.4908  0.5813  1.7897
 4991SOL    HW226436   4.471   0.615   9.504  3.2077 -1.6701 -1.4449
 4992SOL     OW26437   1.921   1.799   5.861 -0.2279 -0.0181 -0.6021
 4992SOL    HW126438   1.883   1.886   5.845  0.2041 -0.2591 -2.8919
 4992SOL    HW226439   2.013   1.824   5.873 -0.1608 -0.6424  0.1705
 4993SOL     OW26440   1.263   3.407   8.683 -0.2689  0.3171 -0.0910
 4993SOL    HW126441   1.316   3.390   8.761 -3.0447  0.5901  1.8431
 4993SOL    HW226442   1.239   3.499   8.693  2.6586  1.1409 -0.6074
 4994SOL     OW26443   3.692   1.796   9.535 -0.0525  0.3218  0.4105
 4994SOL    HW126444   3.722   1.778   9.445 -0.7621  3.4576 -0.4402
 4994SOL    HW226445   3.598   1.786   9.517 -0.0641 -0.7213  1.0623
 4995SOL     OW26446   1.227   3.940   3.364 -0.5679 -0.2961  0.2595
 4995SOL    HW126447   1.171   3.893   3.426 -2.2341  0.8386 -0.3818
 4995SOL    HW226448   1.165   3.979   3.302  0.1574 -0.9867 -0.8929
 4996SOL     OW26449   4.443   0.651   2.069 -0.1694  0.2977  0.1665
 4996SOL    HW126450   4.530   0.691   2.069 -0.1943  0.3806  3.4557
 4996SOL    HW226451   4.392   0.716   2.118 -3.9862 -1.9135 -0.8667
 4997SOL     OW26452   0.566   4.027   4.195 -0.0133 -0.5020 -0.3358
 4997SOL    HW126453   0.502   3.961   4.221 -1.8125  0.5982 -1.9363
 4997SOL    HW226454   0.513   4.106   4.210  1.2063  0.4377 -0.9527
 4998SOL     OW26455   1.994   0.655   3.483 -0.1991 -0.5118  0.4308
 4998SOL    HW126456   2.030   0.639   3.570 -0.1628 -1.2034  0.2914
 4998SOL    HW226457   2.058   0.623   3.420 -2.2840 -0.0456 -1.9372
 4999SOL     OW26458   2.183   2.054   7.111 -0.4594 -0.5173  0.4040
 4999SOL    HW126459   2.151   2.022   7.026 -1.4254  2.1770 -0.2461
 4999SOL    HW226460   2.112   2.116   7.130 -1.5213 -1.6172  0.0220
 5000SOL     OW26461   3.506   1.505   7.011  0.9756 -0.2259 -0.2486
 5000SOL    HW126462   3.478   1.596   7.016  0.9093 -0.1505 -1.7833
 5000SOL    HW226463   3.473   1.456   7.087  2.3952  0.4112  0.7743
 5001SOL     OW26464   3.012   3.559   0.316 -0.2815  0.2806 -0.5025
 5001SOL    HW126465   2.978   3.539   0.403  1.9543 -2.1412 -0.1646
 5001SOL    HW226466   3.089   3.504   0.331  0.7716  1.0079 -3.2527
 5002SOL     OW26467   2.836   0.322   8.955  0.1616  0.1894  0.2164
 5002SOL    HW126468   2.880   0.253   9.004 -1.7270 -1.0004  0.2469
 5002SOL    HW226469   2.845   0.291   8.865  0.9052  0.5801  0.1525
 5003SOL     OW26470   2.598   0.041   5.697  0.6716 -0.1107 -0.3630
 5003SOL    HW126471   2.593   0.088   5.781  0.0065  0.3902 -0.6859
 5003SOL    HW226472   2.505   0.054   5.678  1.1341  2.7805 -0.5704
 5004SOL     OW26473   4.576   3.523   3.092  0.4725 -0.4261  0.1899
 5004SOL    HW126474   4.661   3.509   3.134  0.9109 -2.1413 -1.3055
 5004SOL    HW226475   4.518   3.552   3.163 -1.9613 -0.6723 -1.6936
 5005SOL     OW26476   2.317   1.398   1.412 -0.3710  0.3022  0.1005
 5005SOL    HW126477   2.366   1.447   1.346  1.2661  0.4369  1.4177
 5005SOL    HW226478   2.302   1.322   1.357 -0.4484 -0.0560  0.6105
 5006SOL     OW26479   1.702   1.628  11.838  0.6940  0.2556  0.6711
 5006SOL    HW126480   1.757   1.550  11.827  0.8119  0.4981 -0.5066
 5006SOL    HW226481   1.627   1.588  11.881  0.5582 -1.4605 -1.1087
 5007SOL     OW26482   0.351   0.498   4.596 -0.4353 -0.3409  0.5027
 5007SOL    HW126483   0.407   0.559   4.644  1.1566  0.1636 -2.0136
 5007SOL    HW226484   0.376   0.516   4.505 -0.9116  1.8122  0.8119
 5008SOL     OW26485   0.484   0.202   4.107  0.5198 -0.0275  0.2372
 5008SOL    HW126486   0.476   0.296   4.093  1.6864  0.1266  0.6010
 5008SOL    HW226487   0.527   0.175   4.026  0.3938 -0.7424  0.4055
 5009SOL     OW26488   4.703   0.326   6.518  0.6227 -0.1165  0.1705
 5009SOL    HW126489   4.624   0.329   6.572  0.7245 -1.3926  0.3765
 5009SOL    HW226490   4.683   0.260   6.452 -0.6267 -0.8485  1.2690
 5010SOL     OW26491   2.780   4.192   9.983  0.3074  0.5071  0.1918
 5010SOL    HW126492   2.834   4.258   9.941  1.9121  0.4348  2.1703
 5010SOL    HW226493   2.711   4.259   9.976 -1.3612 -1.1756  0.3840
 5011SOL     OW26494   4.118   1.495  14.678  0.4010 -0.6452  0.4737
 5011SOL    HW126495   4.083   1.430  14.617  0.7163  0.0994 -0.4944
 5011SOL    HW226496   4.081   1.580  14.656  0.3383 -0.0071  3.0469
 5012SOL     OW26497   2.531   2.248   5.692 -0.1296 -0.1802 -0.8130
 5012SOL    HW126498   2.626   2.239   5.689 -0.2041 -1.7267  1.4654
 5012SOL    HW226499   2.524   2.343   5.681  0.2335 -0.1121 -0.4491
 5013SOL     OW26500   3.882   3.793  10.079 -0.3367 -0.3952 -0.3511
 5013SOL    HW126501   3.840   3.736  10.015 -0.1667 -1.9437  0.9154
 5013SOL    HW226502   3.815   3.812  10.145  0.0293  0.8771 -0.3436
 5014SOL     OW26503   3.019   3.190  10.049 -0.5247  0.4073  0.0820
 5014SOL    HW126504   3.101   3.213  10.093 -0.5952  0.1276  0.3590
 5014SOL    HW226505   3.032   3.096  10.040  1.3677  0.5979  0.7644
 5015SOL     OW26506   2.154   0.843   8.596  0.3651 -0.1708  0.4420
 5015SOL    HW126507   2.059   0.850   8.590  0.4325  2.3751  2.2647
 5015SOL    HW226508   2.179   0.884   8.678  1.3965 -0.9849  0.5316
 5016SOL     OW26509   0.101   3.778   5.939  0.5295  0.0090 -0.2303
 5016SOL    HW126510   0.079   3.686   5.955 -0.2870 -0.0910 -1.8772
 5016SOL    HW226511   0.141   3.772   5.852 -0.5119 -0.5830 -0.6683
 5017SOL     OW26512   1.424   0.135   9.472  0.0899  0.3656 -0.5163
 5017SOL    HW126513   1.379   0.216   9.496  0.3717  0.5251 -0.5242
 5017SOL    HW226514   1.369   0.066   9.508  1.3049 -0.3087  0.0103
 5018SOL     OW26515   0.253   3.592   5.377  0.4281 -0.6191 -0.6371
 5018SOL    HW126516   0.229   3.537   5.452  0.8271 -0.8118 -0.6515
 5018SOL    HW226517   0.177   3.650   5.375  0.2674 -0.8069  0.0610
 5019SOL     OW26518   1.986   4.094   2.728  0.6531 -0.3895  0.0072
 5019SOL    HW126519   2.058   4.052   2.775 -0.0997 -0.0386  1.4771
 5019SOL    HW226520   2.014   4.088   2.637  1.5259 -0.6136  0.2897
 5020SOL     OW26521   1.651   1.748   2.042  0.5566  0.3313  0.2545
 5020SOL    HW126522   1.711   1.762   1.968  2.7651  1.2669  2.2378
 5020SOL    HW226523   1.616   1.836   2.057  3.0676  0.7942  3.2066
 5021SOL     OW26524   2.707   4.293  13.928 -0.0984  0.2117 -0.9411
 5021SOL    HW126525   2.709   4.200  13.949 -0.0684  0.2700 -0.6850
 5021SOL    HW226526   2.728   4.341  14.008  1.4620  1.6773 -2.2187
 5022SOL     OW26527   0.975   2.119   7.922  0.6817  0.6061 -0.1551
 5022SOL    HW126528   0.925   2.074   7.991  0.7417  0.1892 -0.3912
 5022SOL    HW226529   1.054   2.141   7.972  0.3646 -0.4122  0.7818
 5023SOL     OW26530   3.834   3.878   8.437  0.8159 -1.0154 -0.2715
 5023SOL    HW126531   3.860   3.953   8.384 -0.4455 -1.1986 -1.1406
 5023SOL    HW226532   3.895   3.811   8.407  0.2884 -0.7910 -1.8105
 5024SOL     OW26533   0.927   3.307  10.962 -0.6146 -0.2160 -0.3323
 5024SOL    HW126534   0.916   3.397  10.991 -2.0356  0.0915 -1.8620
 5024SOL    HW226535   0.837   3.278  10.946 -0.8407  0.1272  0.3208
 5025SOL     OW26536   1.480   1.718   8.632  0.7957 -0.1427 -0.1318
 5025SOL    HW126537   1.427   1.687   8.705  0.3770  2.5358  0.7044
 5025SOL    HW226538   1.422   1.760   8.569  3.8404 -0.1921 -2.9874
 5026SOL     OW26539   2.824   3.737   3.551 -0.1126  0.2202 -1.0331
 5026SOL    HW126540   2.860   3.648   3.549 -2.7530 -0.9185  0.7899
 5026SOL    HW226541   2.803   3.734   3.645 -1.6929  1.3166 -1.3499
 5027SOL     OW26542   0.718   0.709   5.378 -0.1072  0.6345 -0.4228
 5027SOL    HW126543   0.713   0.628   5.429  1.2570  0.2086 -0.9764
 5027SOL    HW226544   0.800   0.747   5.408  0.9393  0.5251 -3.2056
 5028SOL     OW26545   2.647   1.974   9.511 -0.3165  0.2627  0.2708
 5028SOL    HW126546   2.586   2.046   9.499 -0.3684  0.1621 -0.0785
 5028SOL    HW226547   2.602   1.924   9.579 -1.3184  0.9133  0.0779
 5029SOL     OW26548   1.368   0.068   7.492  0.0177 -0.0584 -0.3917
 5029SOL    HW126549   1.436   0.133   7.475 -0.0462  0.1002 -0.0393
 5029SOL    HW226550   1.347   0.063   7.399 -0.7545 -1.2316 -0.1428
 5030SOL     OW26551   2.087   4.202  10.347 -0.0169 -0.4982 -0.1098
 5030SOL    HW126552   2.083   4.146  10.269 -2.8929 -2.0737  1.1512
 5030SOL    HW226553   2.132   4.269  10.296 -1.9821  0.7215 -0.2591
 5031SOL     OW26554   1.413   3.840   3.208  0.1568 -0.1037  0.1174
 5031SOL    HW126555   1.341   3.868   3.264  2.4281  2.6606  1.7077
 5031SOL    HW226556   1.401   3.746   3.214 -1.1877  0.0632 -0.0566
 5032SOL     OW26557   0.648   0.082   4.769 -0.5862  0.5743 -0.8317
 5032SOL    HW126558   0.566   0.123   4.798 -0.0114  1.4277 -0.3807
 5032SOL    HW226559   0.626   0.065   4.678 -2.9980 -0.8746  0.0405
 5033SOL     OW26560   1.534   2.571   3.383  0.1128  0.4190  0.0260
 5033SOL    HW126561   1.444   2.553   3.410  0.3711 -0.9598 -0.0762
 5033SOL    HW226562   1.519   2.632   3.310 -1.5160  1.2422  1.0480
 5034SOL     OW26563   3.143   2.281  13.505  0.3281  0.8169  0.3823
 5034SOL    HW126564   3.203   2.215  13.471  0.8969 -0.2054  3.4200
 5034SOL    HW226565   3.114   2.318  13.421 -3.6184 -1.1805  0.8406
 5035SOL     OW26566   3.870   2.664   4.894 -0.3907 -0.2598  0.6197
 5035SOL    HW126567   3.916   2.671   4.811  0.3712  1.2882  1.1615
 5035SOL    HW226568   3.818   2.744   4.887  0.2399  0.0079 -0.8954
 5036SOL     OW26569   4.568   2.110  13.638 -0.3663  0.0021 -0.0450
 5036SOL    HW126570   4.578   2.187  13.694  0.0818  0.1573 -0.3419
 5036SOL    HW226571   4.499   2.143  13.580  0.1929  2.2264  0.5801
 5037SOL     OW26572   2.095   1.978   3.358  0.5061  0.1941  0.6516
 5037SOL    HW126573   2.143   1.938   3.287 -0.5318  1.0394 -0.5387
 5037SOL    HW226574   2.132   1.946   3.440 -0.8620 -2.7719  0.1162
 5038SOL     OW26575   2.339   1.419   8.172 -0.3607  0.0486 -0.2140
 5038SOL    HW126576   2.297   1.341   8.210 -0.6579  0.2156 -0.1969
 5038SOL    HW226577   2.379   1.466   8.244  0.9748 -1.3643 -0.0486
 5039SOL     OW26578   2.625   0.194   7.654 -0.5729 -0.0959 -0.1287
 5039SOL    HW126579   2.712   0.155   7.648 -1.0045 -1.2534  0.8752
 5039SOL    HW226580   2.641   0.249   7.730  0.1412 -0.3891 -0.0720
 5040SOL     OW26581   4.244   2.240   5.885 -0.1922  0.1697 -0.8064
 5040SOL    HW126582   4.175   2.192   5.839 -0.2335 -0.6741  0.1258
 5040SOL    HW226583   4.250   2.314   5.825  2.7311  0.1589 -0.5103
 5041SOL     OW26584   0.789   4.580  15.801 -0.5335 -0.2315  0.5069
 5041SOL    HW126585   0.759   4.670  15.794 -0.2137 -0.3444 -2.2717
 5041SOL    HW226586   0.874   4.595  15.843 -0.1441 -3.4893  0.9042
 5042SOL     OW26587   1.271   4.526   2.302 -0.5363  0.5361  0.5340
 5042SOL    HW126588   1.345   4.577   2.268 -0.6086 -0.8726 -1.7435
 5042SOL    HW226589   1.218   4.593   2.344  1.5854  1.1406  2.2835
 5043SOL     OW26590   2.499   4.300   1.861 -0.6011 -0.1635 -0.2806
 5043SOL    HW126591   2.591   4.324   1.868  0.0723 -3.0353  0.4327
 5043SOL    HW226592   2.458   4.381   1.893  0.7674  0.2044  0.5274
 5044SOL     OW26593   3.667   3.533   0.396  0.0015  0.0482  0.1564
 5044SOL    HW126594   3.579   3.572   0.400 -0.4613 -0.9790 -0.0005
 5044SOL    HW226595   3.725   3.603   0.426  0.9662 -0.7004  0.0278
 5045SOL     OW26596   1.668   4.338   3.215  0.1609 -0.0225  0.1623
 5045SOL    HW126597   1.619   4.259   3.235  2.1664 -0.6254  2.5963
 5045SOL    HW226598   1.747   4.315   3.264  0.8988  1.0248 -0.5252
 5046SOL     OW26599   2.419   2.100  14.149  0.4950 -0.0438  0.2942
 5046SOL    HW126600   2.435   2.162  14.078  0.1942 -0.8026 -0.4415
 5046SOL    HW226601   2.468   2.019  14.132  0.2789 -0.1440  0.1473
 5047SOL     OW26602   3.987   4.661   7.740  0.0104 -0.1491 -0.6424
 5047SOL    HW126603   4.039   4.702   7.671  0.6718  0.4082  0.1884
 5047SOL    HW226604   3.910   4.718   7.740  0.6648  0.7405  1.0063
 5048SOL     OW26605   2.887   2.891   1.751  0.1117  0.0942 -0.0165
 5048SOL    HW126606   2.957   2.898   1.816 -1.3604  2.9646  1.2541
 5048SOL    HW226607   2.927   2.940   1.679 -1.7816 -0.7579 -1.6466
 5049SOL     OW26608   4.276   0.458   6.413 -0.4035  0.3436  0.0514
 5049SOL    HW126609   4.181   0.461   6.404 -0.0225  1.1761 -3.5120
 5049SOL    HW226610   4.299   0.516   6.340  0.2489  1.9987  1.5661
 5050SOL     OW26611   2.188   1.634   0.383 -0.5825  0.4578  0.0759
 5050SOL    HW126612   2.197   1.646   0.289  2.5759  0.4721  0.3714
 5050SOL    HW226613   2.205   1.721   0.420 -0.1158 -1.0909  3.5325
 5051SOL     OW26614   2.066   0.759   2.778 -0.3826  0.7193  0.0534
 5051SOL    HW126615   2.139   0.763   2.840  0.3321 -0.0201 -0.7351
 5051SOL    HW226616   2.079   0.673   2.738  1.5523  0.9644  0.1529
 5052SOL     OW26617   3.317   2.497   5.109  0.1153 -0.3095  0.5297
 5052SOL    HW126618   3.346   2.586   5.091  0.9874 -0.2264  2.3482
 5052SOL    HW226619   3.377   2.474   5.180  0.7563 -0.1909  0.0167
 5053SOL     OW26620   1.495   0.056   8.961  0.1121 -0.4513 -0.5368
 5053SOL    HW126621   1.557   0.017   9.023 -1.0084 -0.3892  0.6429
 5053SOL    HW226622   1.552   0.124   8.928  1.2950  0.7736  3.9689
 5054SOL     OW26623   2.401   2.508   3.696  0.4225  0.2800  0.0665
 5054SOL    HW126624   2.449   2.466   3.767  0.8883 -1.2163 -1.1335
 5054SOL    HW226625   2.461   2.552   3.637 -0.1352 -0.3192 -0.9416
 5055SOL     OW26626   2.947   0.415  13.124 -0.4690  0.0873  0.2423
 5055SOL    HW126627   2.968   0.326  13.153 -0.5392 -0.0086 -0.0046
 5055SOL    HW226628   2.877   0.403  13.060 -1.8390  0.6177  1.6270
 5056SOL     OW26629   0.085   2.863  12.553 -0.2742  0.8626 -0.3669
 5056SOL    HW126630   0.171   2.859  12.596 -0.1199  1.4611 -0.6237
 5056SOL    HW226631   0.080   2.779  12.507 -0.0452 -0.5896  2.2621
 5057SOL     OW26632   2.228   4.104  13.570 -0.3502 -0.2608  0.0404
 5057SOL    HW126633   2.240   4.103  13.475 -2.0231 -1.2848 -0.1584
 5057SOL    HW226634   2.132   4.108  13.575 -0.3903  1.1331 -1.6979
 5058SOL     OW26635   2.052   0.843   5.252 -0.0041  0.1141 -0.0480
 5058SOL    HW126636   2.114   0.907   5.219  0.4774 -0.9284 -1.1770
 5058SOL    HW226637   1.971   0.874   5.212  0.7058  0.3367 -1.3079
 5059SOL     OW26638   4.513   1.469   3.808 -0.0315 -0.9079 -0.2578
 5059SOL    HW126639   4.429   1.424   3.816 -0.4378 -0.1787 -0.4368
 5059SOL    HW226640   4.530   1.454   3.715  0.3554 -1.2423 -0.1367
 5060SOL     OW26641   1.055   2.872   8.939 -0.1643  0.2321 -0.6344
 5060SOL    HW126642   1.032   2.803   8.877 -1.2527 -0.5101  0.5991
 5060SOL    HW226643   1.024   2.834   9.021  0.0596  0.7497 -0.3061
 5061SOL     OW26644   4.078   3.521  12.328 -0.2486 -0.0589  0.4510
 5061SOL    HW126645   4.151   3.530  12.388  0.3766  0.1896 -0.3513
 5061SOL    HW226646   4.106   3.443  12.281 -1.2866  0.6199 -1.2945
 5062SOL     OW26647   0.697   0.179   6.653 -0.1090 -0.1272 -0.1229
 5062SOL    HW126648   0.693   0.147   6.563  2.5898 -0.3709 -0.1526
 5062SOL    HW226649   0.627   0.242   6.666 -0.5562 -0.8274  0.8550
 5063SOL     OW26650   2.350   1.597   3.019 -0.2055  0.6497  0.5355
 5063SOL    HW126651   2.289   1.667   2.997  0.8068  1.2079 -0.5290
 5063SOL    HW226652   2.382   1.575   2.932 -0.0686 -0.1964  0.8041
 5064SOL     OW26653   4.468   2.051   4.035 -0.0190 -0.7430  0.5273
 5064SOL    HW126654   4.405   2.119   4.013  0.5331  0.3194  2.2066
 5064SOL    HW226655   4.424   1.973   4.001  0.5430  0.0793 -2.1414
 5065SOL     OW26656   0.875   2.443  16.803 -0.0530  0.0223 -0.3142
 5065SOL    HW126657   0.827   2.435  16.886  0.6200  0.2570  0.1040
 5065SOL    HW226658   0.818   2.395  16.743 -0.0543 -1.0016  0.4917
 5066SOL     OW26659   1.627   2.804   0.807  0.0027 -0.1482 -0.3140
 5066SOL    HW126660   1.650   2.712   0.823 -0.0446  0.1135  1.2696
 5066SOL    HW226661   1.716   2.839   0.817 -0.1985  0.0106  1.0126
 5067SOL     OW26662   3.186   3.767   8.747 -0.5953  0.0112 -0.0792
 5067SOL    HW126663   3.169   3.808   8.662  0.5886  0.9597  0.1511
 5067SOL    HW226664   3.199   3.841   8.806  0.8984 -1.2299  1.1485
 5068SOL     OW26665   3.287   2.076  13.376  0.6861  0.3332  0.4421
 5068SOL    HW126666   3.320   2.065  13.465 -1.6062 -0.9743  1.1202
 5068SOL    HW226667   3.362   2.053  13.322 -1.1558 -2.8042 -0.7954
 5069SOL     OW26668   2.896   3.393  17.429 -0.1716 -0.0853 -0.3194
 5069SOL    HW126669   2.858   3.383  17.516  0.9640 -0.8221  0.0784
 5069SOL    HW226670   2.828   3.354  17.374 -0.1512  2.9688 -2.5583
 5070SOL     OW26671   3.359   2.866  13.660 -0.0520 -0.1697 -0.2338
 5070SOL    HW126672   3.312   2.917  13.725  0.5077  0.3403 -0.2342
 5070SOL    HW226673   3.284   2.840  13.605  0.5261  2.8029 -2.4602
 5071SOL     OW26674   4.103   4.000  12.140  0.0974 -0.2091 -0.9924
 5071SOL    HW126675   4.076   3.961  12.057 -1.8811 -0.6526 -0.1298
 5071SOL    HW226676   4.104   3.916  12.186  0.0813 -0.1167 -0.8260
 5072SOL     OW26677   3.799   3.613  14.056 -0.2834 -0.0057 -0.1034
 5072SOL    HW126678   3.821   3.531  14.013 -0.1607  1.3229 -2.5496
 5072SOL    HW226679   3.753   3.660  13.986 -0.3227 -0.4104 -0.3465
 5073SOL     OW26680   1.043   1.637  10.420 -0.1787  0.4752 -0.2517
 5073SOL    HW126681   1.057   1.731  10.432  1.2525  0.1331  0.8084
 5073SOL    HW226682   1.106   1.608  10.486  1.5404  0.4668 -1.8759
 5074SOL     OW26683   2.359   2.468  10.654 -0.2596 -0.0556 -0.0910
 5074SOL    HW126684   2.362   2.548  10.601  0.5938  0.3320  0.5463
 5074SOL    HW226685   2.280   2.429  10.616  0.0965 -0.9068  0.0516
 5075SOL     OW26686   0.860   3.926   2.752  0.4571  0.1781 -0.0875
 5075SOL    HW126687   0.880   3.833   2.749  0.7984  0.2849 -1.4004
 5075SOL    HW226688   0.936   3.982   2.769  0.1059  1.1254 -1.6046
 5076SOL     OW26689   2.051   1.288   9.731 -0.1813  0.0551  0.1888
 5076SOL    HW126690   2.092   1.329   9.807 -0.6303 -0.6165  0.7898
 5076SOL    HW226691   2.080   1.350   9.663 -0.6804 -1.1546 -1.1240
 5077SOL     OW26692   3.052   0.375   7.895  0.2177  0.3686 -0.1987
 5077SOL    HW126693   3.147   0.370   7.909  0.3813  1.2534 -0.9884
 5077SOL    HW226694   3.038   0.468   7.912  0.7275  0.2963  0.6206
 5078SOL     OW26695   1.983   4.493  10.311 -0.0635  0.2725 -0.2794
 5078SOL    HW126696   1.927   4.513  10.387 -0.8647  2.3918 -1.4310
 5078SOL    HW226697   2.069   4.504  10.352  0.2969  1.3785 -1.3617
 5079SOL     OW26698   2.795   2.708  10.930  0.8770  0.3940 -0.1728
 5079SOL    HW126699   2.799   2.767  10.854 -1.5803  2.0069  0.9604
 5079SOL    HW226700   2.726   2.755  10.976  1.1449 -0.2746  0.8955
 5080SOL     OW26701   0.443   4.112   2.505  0.6754  0.1187  0.1945
 5080SOL    HW126702   0.513   4.049   2.523  1.2985  0.9695  0.7246
 5080SOL    HW226703   0.495   4.179   2.462  0.9603 -0.0224  0.3171
 5081SOL     OW26704   0.327   0.820   7.793 -0.0011 -0.4221  0.2616
 5081SOL    HW126705   0.278   0.878   7.734  0.7827  1.1423  1.1595
 5081SOL    HW226706   0.388   0.888   7.824 -0.2773  0.3524 -0.8915
 5082SOL     OW26707   1.148   2.774   1.929  0.0171 -0.2417  0.2751
 5082SOL    HW126708   1.117   2.863   1.944 -0.5821 -0.3967 -0.0337
 5082SOL    HW226709   1.076   2.725   1.970  1.6961 -1.9192  1.2083
 5083SOL     OW26710   1.096   3.299   7.528 -0.0754  0.5607 -0.3690
 5083SOL    HW126711   1.060   3.366   7.468 -0.3895  0.0588 -0.7391
 5083SOL    HW226712   1.155   3.242   7.480 -0.4191 -1.2468  1.3476
 5084SOL     OW26713   1.389   4.141   3.490 -0.4611 -0.1087  0.5267
 5084SOL    HW126714   1.340   4.060   3.478  0.4961 -0.8592  1.8395
 5084SOL    HW226715   1.341   4.195   3.553 -1.5476 -1.3543  0.7499
 5085SOL     OW26716   3.206   2.195   3.070 -0.3897 -0.3603 -0.2219
 5085SOL    HW126717   3.293   2.236   3.067  0.0441 -1.2237  0.3234
 5085SOL    HW226718   3.144   2.262   3.042 -1.9494 -0.8563  2.0350
 5086SOL     OW26719   2.344   0.217  11.287  0.2823 -0.2545  0.5867
 5086SOL    HW126720   2.360   0.288  11.224  0.1197  0.7887  1.7415
 5086SOL    HW226721   2.428   0.170  11.292  0.3980 -0.0960  0.1536
 5087SOL     OW26722   4.542   3.404  14.912 -0.2700  0.2940 -0.0846
 5087SOL    HW126723   4.493   3.434  14.836  0.7515  2.3689  0.0689
 5087SOL    HW226724   4.584   3.484  14.946 -1.1069  0.5757  0.2876
 5088SOL     OW26725   2.239   4.504   6.013  0.2995 -0.3878 -0.8067
 5088SOL    HW126726   2.175   4.531   5.947  0.1927 -1.0550 -0.9792
 5088SOL    HW226727   2.179   4.464   6.076  0.5682 -0.1779 -0.4213
 5089SOL     OW26728   3.825   3.060   3.191 -0.3281  0.5434 -0.4740
 5089SOL    HW126729   3.811   3.152   3.214  0.1540  0.8451 -1.3801
 5089SOL    HW226730   3.760   3.052   3.121  0.9038  0.6401 -1.6598
 5090SOL     OW26731   1.559   2.824  14.127  0.5512  0.5059 -0.3913
 5090SOL    HW126732   1.504   2.857  14.057 -0.8242  2.1788  1.4758
 5090SOL    HW226733   1.520   2.737  14.142  0.8661  0.6688  1.3664
 5091SOL     OW26734   0.291   4.223   8.116  0.2884 -0.1368  0.5338
 5091SOL    HW126735   0.303   4.318   8.107  0.8542 -0.1881  0.7307
 5091SOL    HW226736   0.204   4.222   8.155  0.7282 -1.4112  1.4557
 5092SOL     OW26737   2.772   1.305   8.664  0.3520 -0.2219 -0.0317
 5092SOL    HW126738   2.769   1.248   8.741  0.4489 -1.0033 -0.6140
 5092SOL    HW226739   2.736   1.244   8.600 -1.9418  0.5456  0.5232
 5093SOL     OW26740   1.503   1.127   7.520 -0.2540  0.2820 -0.4915
 5093SOL    HW126741   1.442   1.166   7.458 -0.7228  3.0334  1.7370
 5093SOL    HW226742   1.559   1.204   7.531 -0.3907 -0.0304  2.4543
 5094SOL     OW26743   3.073   0.409  12.032  0.1713 -0.8468  0.2935
 5094SOL    HW126744   3.040   0.325  12.064 -0.9870  1.2080  4.5028
 5094SOL    HW226745   3.082   0.461  12.112 -0.3703  1.8009 -1.3486
 5095SOL     OW26746   2.201   1.850   5.867  0.4225  0.0875 -0.4537
 5095SOL    HW126747   2.218   1.930   5.917 -1.4265 -0.5143  1.1681
 5095SOL    HW226748   2.255   1.861   5.789  1.5724  1.6980  0.5510
 5096SOL     OW26749   1.828   1.329   4.988 -0.8005  0.1987  0.1353
 5096SOL    HW126750   1.782   1.362   4.911 -0.4748 -0.3208 -0.2845
 5096SOL    HW226751   1.851   1.407   5.038 -1.2355  0.3877  0.0407
 5097SOL     OW26752   1.823   2.962  13.947  0.6714  0.3890 -0.0299
 5097SOL    HW126753   1.764   3.037  13.933  0.3887 -0.2008 -2.0825
 5097SOL    HW226754   1.846   2.966  14.040 -1.2893 -0.9739  0.5141
 5098SOL     OW26755   2.454   4.084   1.662 -0.0346  0.1600  0.6740
 5098SOL    HW126756   2.468   4.085   1.567 -0.2624  2.0494  0.6572
 5098SOL    HW226757   2.461   4.175   1.689  2.5980  0.2988 -0.4751
 5099SOL     OW26758   2.654   2.284   3.672 -0.5707 -0.2215  0.1757
 5099SOL    HW126759   2.712   2.209   3.660  0.5980  0.5601  0.9161
 5099SOL    HW226760   2.704   2.358   3.637 -0.5800 -0.4815 -0.3864
 5100SOL     OW26761   2.647   3.919   7.580 -0.8218 -0.1489  0.2598
 5100SOL    HW126762   2.694   3.917   7.663  0.7886  1.2233 -0.6106
 5100SOL    HW226763   2.609   4.006   7.587  0.3774  0.4245 -0.4371
 5101SOL     OW26764   2.720   3.242  11.429 -0.0494  0.1644  0.2129
 5101SOL    HW126765   2.647   3.205  11.477  0.3732 -2.1141 -0.8896
 5101SOL    HW226766   2.720   3.196  11.345  0.4370  0.7014 -0.0837
 5102SOL     OW26767   3.513   2.932   4.377  0.0855  0.1066 -0.5198
 5102SOL    HW126768   3.417   2.936   4.372  0.0650 -3.5128 -2.9448
 5102SOL    HW226769   3.529   2.853   4.430  0.3917  1.6227  1.6678
 5103SOL     OW26770   0.979   0.781   3.493  1.0620  0.1538  1.0682
 5103SOL    HW126771   1.057   0.777   3.439 -1.5631  0.3157 -2.6911
 5103SOL    HW226772   0.914   0.720   3.458  0.8045  0.9047  0.2252
 5104SOL     OW26773   0.962   2.003   1.920  0.0863 -0.1319  0.5155
 5104SOL    HW126774   0.932   1.992   2.010 -1.9387 -1.2031 -0.2926
 5104SOL    HW226775   0.916   1.930   1.878  1.4239 -0.8360  0.2751
 5105SOL     OW26776   2.003   4.346  16.374 -0.4356 -0.3010  0.4605
 5105SOL    HW126777   2.010   4.284  16.447  0.6540 -1.0998 -0.3256
 5105SOL    HW226778   1.910   4.341  16.351 -0.2974  0.3312 -0.2393
 5106SOL     OW26779   2.395   2.319   9.903 -0.0444 -0.3179 -0.0637
 5106SOL    HW126780   2.362   2.316   9.993  0.9728  1.2884  0.3667
 5106SOL    HW226781   2.471   2.261   9.905  0.2177  0.0351  0.3464
 5107SOL     OW26782   3.959   2.106   9.631 -0.1784 -0.0010  0.0657
 5107SOL    HW126783   3.926   2.162   9.701 -2.2759  1.1500 -1.8342
 5107SOL    HW226784   3.954   2.020   9.673  0.9368  0.2975  0.7948
 5108SOL     OW26785   3.012   4.719   6.718 -0.6015 -0.0169 -0.1048
 5108SOL    HW126786   3.042   4.701   6.808  1.2975  1.1212 -0.5016
 5108SOL    HW226787   3.029   0.093   6.719  1.0138 -0.3002  0.1530
 5109SOL     OW26788   1.943   2.577   2.931  0.2837 -0.5468 -0.6538
 5109SOL    HW126789   2.024   2.557   2.883  0.9071  1.0470 -0.2847
 5109SOL    HW226790   1.884   2.609   2.863 -1.1314 -0.2307  0.7403
 5110SOL     OW26791   1.086   2.654   8.478 -0.2091 -0.5097  0.3640
 5110SOL    HW126792   1.156   2.718   8.487 -1.6273  1.0264  0.4814
 5110SOL    HW226793   1.054   2.683   8.393  2.8764  1.3405 -0.1309
 5111SOL     OW26794   1.861   2.747   7.931 -0.0822 -0.1932  0.4437
 5111SOL    HW126795   1.917   2.747   7.854  0.5233 -0.4607  0.8817
 5111SOL    HW226796   1.875   2.830   7.977 -1.1877  1.2455 -1.8096
 5112SOL     OW26797   0.133   0.025   3.965 -0.2757 -0.5645 -0.4213
 5112SOL    HW126798   0.205   0.043   4.026  0.5693  1.2876 -1.9686
 5112SOL    HW226799   0.095   4.660   3.985 -0.1675 -0.8633 -1.4730
 5113SOL     OW26800   2.764   1.770   2.707 -0.5939 -0.4501 -0.4336
 5113SOL    HW126801   2.764   1.848   2.762 -2.5645 -0.5003 -0.3521
 5113SOL    HW226802   2.835   1.718   2.746  0.2537 -0.1611 -1.6010
 5114SOL     OW26803   1.914   1.383   7.505  0.5247  0.0390  0.2676
 5114SOL    HW126804   1.987   1.445   7.507 -0.4810  1.1766  1.9841
 5114SOL    HW226805   1.925   1.350   7.416  3.0882 -1.6576  1.1980
 5115SOL     OW26806   0.119   0.510   2.123  0.0434 -0.5412 -0.0702
 5115SOL    HW126807   0.163   0.587   2.086  2.3470  0.0049  3.7729
 5115SOL    HW226808   0.116   0.450   2.049 -0.5792  0.0411 -0.5217
 5116SOL     OW26809   3.611   2.228   7.840  0.2460  0.4682 -0.3254
 5116SOL    HW126810   3.576   2.307   7.798  0.5049  0.4468 -0.5833
 5116SOL    HW226811   3.589   2.155   7.781 -1.0499  0.3628  0.2970
 5117SOL     OW26812   4.311   2.463  11.310  0.2150 -0.3555 -0.5947
 5117SOL    HW126813   4.251   2.536  11.323  0.8016 -0.1503  0.8496
 5117SOL    HW226814   4.321   2.467  11.214  1.0472  2.2813 -0.3833
 5118SOL     OW26815   0.322   2.316   7.925 -0.7387  0.0674 -0.0396
 5118SOL    HW126816   0.264   2.294   7.852 -1.1128  1.3606 -0.1415
 5118SOL    HW226817   0.410   2.304   7.889 -1.6777 -2.3415 -1.5033
 5119SOL     OW26818   2.455   1.813  12.343  0.3543  0.2602  0.5901
 5119SOL    HW126819   2.382   1.755  12.321  1.2647 -0.9586  0.8040
 5119SOL    HW226820   2.414   1.898  12.329  1.7387  0.7792 -0.3205
 5120SOL     OW26821   1.150   2.477  14.145 -0.1875 -0.9321  0.4735
 5120SOL    HW126822   1.120   2.386  14.138 -0.5335 -0.6678 -1.2546
 5120SOL    HW226823   1.122   2.497  14.235 -1.7941  0.4855 -0.3451
 5121SOL     OW26824   3.951   0.171   8.694  0.0510 -0.4196 -0.2571
 5121SOL    HW126825   3.985   0.097   8.745 -0.1669 -1.4794 -1.6553
 5121SOL    HW226826   3.984   0.154   8.606 -2.1722 -1.5671 -0.8597
 5122SOL     OW26827   1.712   2.892   4.885 -0.6025  0.1640  0.9899
 5122SOL    HW126828   1.787   2.834   4.901  0.5629  0.3588 -3.5938
 5122SOL    HW226829   1.650   2.835   4.841  1.0071  0.4722 -1.7310
 5123SOL     OW26830   3.333   0.971   6.102  0.3630  0.0621 -0.6738
 5123SOL    HW126831   3.275   1.011   6.167  1.1163  2.2708 -1.3571
 5123SOL    HW226832   3.331   1.029   6.025 -0.7448 -2.2371 -2.3834
 5124SOL     OW26833   3.400   1.882   0.196  0.1301 -0.3500  0.3562
 5124SOL    HW126834   3.311   1.848   0.183 -1.5264  4.5071 -1.0707
 5124SOL    HW226835   3.389   1.976   0.205  2.2795  0.0519 -1.2365
 5125SOL     OW26836   2.823   2.913  12.817  0.4588  0.2742 -0.0079
 5125SOL    HW126837   2.849   2.998  12.783 -0.7092  0.7586  0.3221
 5125SOL    HW226838   2.807   2.865  12.736  1.6681  0.3319 -0.2847
 5126SOL     OW26839   3.952   3.542  17.064 -0.0324  0.0843 -0.6282
 5126SOL    HW126840   3.935   3.536  17.158 -1.9272 -2.8786 -1.1423
 5126SOL    HW226841   3.904   3.619  17.034 -1.4383 -0.5714 -0.0701
 5127SOL     OW26842   0.524   0.888   2.772 -0.6242  0.0316  0.1363
 5127SOL    HW126843   0.601   0.933   2.739  1.8766 -1.6585  3.6390
 5127SOL    HW226844   0.521   0.919   2.863 -0.9862 -0.5141  0.3130
 5128SOL     OW26845   0.001   0.401   5.761 -0.8706  0.0314 -0.2328
 5128SOL    HW126846   4.708   0.479   5.815  1.6430  0.4801 -0.2306
 5128SOL    HW226847   0.058   0.357   5.825 -0.1876 -1.5364 -1.9166
 5129SOL     OW26848   0.843   3.278   1.483 -0.0523 -0.3028 -0.7288
 5129SOL    HW126849   0.906   3.349   1.473 -0.5409 -0.3563 -4.1225
 5129SOL    HW226850   0.806   3.267   1.396  0.1981  0.0638 -0.8805
 5130SOL     OW26851   2.703   1.021   2.501 -0.5002 -0.8064  0.2152
 5130SOL    HW126852   2.700   1.102   2.451  0.8822 -0.7391  0.2236
 5130SOL    HW226853   2.798   1.009   2.495 -0.6296 -0.8333 -1.7154
 5131SOL     OW26854   2.516   4.529   9.005 -0.0933 -0.2133 -0.7292
 5131SOL    HW126855   2.462   4.594   8.960  0.9098  2.0039  1.3112
 5131SOL    HW226856   2.562   4.485   8.934 -0.8643 -2.5678  0.2218
 5132SOL     OW26857   3.399   2.014   7.781  0.0287  0.2465  0.0720
 5132SOL    HW126858   3.373   1.961   7.706  0.4232 -0.9708  0.7848
 5132SOL    HW226859   3.332   2.082   7.775 -1.4193 -1.1604  0.1142
 5133SOL     OW26860   2.164   4.429   5.206  0.4511 -0.3611 -0.2423
 5133SOL    HW126861   2.257   4.445   5.187  0.2287 -0.5780 -1.5170
 5133SOL    HW226862   2.122   4.437   5.121 -0.0322  1.2210  0.1451
 5134SOL     OW26863   4.027   1.739  14.647 -0.6593  0.4463  0.5623
 5134SOL    HW126864   4.017   1.787  14.730 -0.5234 -1.1727  1.5082
 5134SOL    HW226865   4.031   1.808  14.581  0.1964  1.2343  1.4271
 5135SOL     OW26866   4.228   0.446   7.326  0.0470  0.0169 -0.0583
 5135SOL    HW126867   4.156   0.470   7.384  1.8232 -0.1837  2.2027
 5135SOL    HW226868   4.234   0.534   7.287 -1.0449  0.0133 -0.2235
 5136SOL     OW26869   1.949   4.572   9.843 -0.5903 -0.6954 -0.2066
 5136SOL    HW126870   1.974   4.507   9.777 -0.0441 -0.2705 -0.4124
 5136SOL    HW226871   1.968   4.655   9.800  2.5144 -0.1699  2.1703
 5137SOL     OW26872   0.224   2.607   8.249 -0.9082 -0.3877  0.6587
 5137SOL    HW126873   0.201   2.696   8.225 -1.3308 -0.4176  0.9616
 5137SOL    HW226874   0.147   2.554   8.229 -0.1298 -1.2923 -0.0156
 5138SOL     OW26875   3.773   3.944   2.776  0.0909  0.7688  0.6185
 5138SOL    HW126876   3.793   3.887   2.702 -1.3790  0.8207  0.1787
 5138SOL    HW226877   3.809   4.024   2.738  0.6428 -0.1152 -0.6856
 5139SOL     OW26878   4.174   0.951   0.524 -0.0781  0.0762 -0.0334
 5139SOL    HW126879   4.258   0.936   0.568  0.3608  1.9488 -0.2368
 5139SOL    HW226880   4.206   0.982   0.439 -0.3865 -0.2091 -0.2525
 5140SOL     OW26881   3.861   4.693   2.791  0.4999 -0.0239  0.6027
 5140SOL    HW126882   3.875   0.065   2.807 -2.4021  0.3581  0.9462
 5140SOL    HW226883   3.857   4.692   2.695 -1.1643 -1.4974  0.6829
 5141SOL     OW26884   1.593   0.682   2.820 -0.0115  0.1713  0.0928
 5141SOL    HW126885   1.571   0.655   2.909  1.7887  1.2500  0.8713
 5141SOL    HW226886   1.511   0.666   2.773 -0.8742 -0.5049  1.7979
 5142SOL     OW26887   3.479   3.462  13.254 -0.5013 -0.1662  0.2662
 5142SOL    HW126888   3.496   3.500  13.168 -2.3868 -1.9775 -0.9091
 5142SOL    HW226889   3.572   3.449  13.274 -0.6239  1.3399  1.8232
 5143SOL     OW26890   3.430   1.528   6.113  0.5044  0.7519  0.1146
 5143SOL    HW126891   3.485   1.507   6.189  2.3754  0.7412 -1.2238
 5143SOL    HW226892   3.437   1.624   6.117 -0.2793  0.8287 -0.4562
 5144SOL     OW26893   0.865   3.647   6.865  0.1761  0.6348 -0.1561
 5144SOL    HW126894   0.844   3.562   6.902  0.2972  0.6822  0.0235
 5144SOL    HW226895   0.946   3.664   6.914 -0.0760 -0.2085  0.5597
 5145SOL     OW26896   4.512   2.950   7.043  0.3670  0.2003  0.2059
 5145SOL    HW126897   4.600   2.934   7.008  0.6284 -1.6779  1.6921
 5145SOL    HW226898   4.463   2.888   6.989  1.8490 -0.9486  0.1608
 5146SOL     OW26899   0.071   3.473   3.243 -0.2731  0.7459  0.2607
 5146SOL    HW126900   0.086   3.383   3.274  1.8485  1.5114  1.3892
 5146SOL    HW226901   0.152   3.518   3.264 -0.5247  2.1640 -1.8095
 5147SOL     OW26902   1.795   1.056   9.368 -0.0140 -0.6971  0.4495
 5147SOL    HW126903   1.770   1.097   9.451  1.4289  1.5629 -0.2406
 5147SOL    HW226904   1.712   1.055   9.321  0.9331 -0.5672 -1.2276
 5148SOL     OW26905   3.954   0.156  10.654  0.2938 -0.0328  0.2194
 5148SOL    HW126906   3.947   0.119  10.566  0.4888  1.0349 -0.2535
 5148SOL    HW226907   3.866   0.186  10.677 -0.4889 -1.9461 -0.2746
 5149SOL     OW26908   4.221   3.253   6.144 -0.1742 -0.0635  0.0212
 5149SOL    HW126909   4.271   3.178   6.113  1.3019  1.1863 -0.6745
 5149SOL    HW226910   4.233   3.310   6.068  0.0001  1.6376  1.3066
 5150SOL     OW26911   4.656   0.601   5.913 -0.5217  0.1309 -0.3902
 5150SOL    HW126912   4.570   0.594   5.872 -0.7909  1.4565 -0.0537
 5150SOL    HW226913   4.625   0.624   6.001  1.4263  0.7059  0.1636
 5151SOL     OW26914   3.387   2.393   3.024  0.1356  0.2255  0.1358
 5151SOL    HW126915   3.358   2.484   3.030  0.4573  0.3199  0.2497
 5151SOL    HW226916   3.369   2.387   2.930 -2.3082  1.4502  0.5201
 5152SOL     OW26917   0.589   0.317   5.283 -0.5369 -0.0611  0.0056
 5152SOL    HW126918   0.521   0.371   5.323 -0.2051 -0.5572  1.2345
 5152SOL    HW226919   0.635   0.377   5.224 -0.3121 -0.6265 -0.3946
 5153SOL     OW26920   0.883   1.687   7.371  0.0319 -0.5969 -0.0343
 5153SOL    HW126921   0.895   1.766   7.424  0.1373  0.8323 -2.1771
 5153SOL    HW226922   0.788   1.693   7.366  0.0042 -0.5865  0.5506
 5154SOL     OW26923   1.287   0.433  12.865 -0.4657  0.6044 -0.1337
 5154SOL    HW126924   1.225   0.504  12.880 -0.0218  0.5183  2.0184
 5154SOL    HW226925   1.306   0.441  12.771 -2.0681 -0.6709 -0.5603
 5155SOL     OW26926   3.900   0.130  14.358 -0.1662 -0.6951  0.5757
 5155SOL    HW126927   3.965   0.185  14.402  0.0828 -0.3486 -0.2106
 5155SOL    HW226928   3.842   0.109  14.431 -0.5346 -1.1941  0.1358
 5156SOL     OW26929   1.214   3.539   1.771  0.4704  0.5935 -0.6920
 5156SOL    HW126930   1.120   3.525   1.766  0.6228 -1.1278  1.2586
 5156SOL    HW226931   1.208   3.631   1.799  0.0837 -0.5131  2.8962
 5157SOL     OW26932   2.270   4.021   9.632 -0.0936  0.2427  0.6919
 5157SOL    HW126933   2.259   3.981   9.718  2.0336  1.8870  1.7234
 5157SOL    HW226934   2.256   4.114   9.649  1.9091  0.8468 -0.9941
 5158SOL     OW26935   3.020   4.243   5.601 -0.2809 -0.1902 -0.2197
 5158SOL    HW126936   2.948   4.292   5.560 -1.4940 -1.7005  0.1549
 5158SOL    HW226937   3.061   4.212   5.520 -1.0068 -0.7199 -0.3852
 5159SOL     OW26938   1.751   3.277   5.667  0.1558 -0.1440 -0.5287
 5159SOL    HW126939   1.688   3.209   5.647  1.0242 -0.9324 -0.6108
 5159SOL    HW226940   1.694   3.351   5.687 -0.8229 -1.2236  0.6809
 5160SOL     OW26941   2.573   4.213   2.726  0.2399 -0.1211  0.2045
 5160SOL    HW126942   2.527   4.130   2.739 -0.4867  0.0149 -1.4408
 5160SOL    HW226943   2.635   4.192   2.657 -0.6637  0.3639 -0.7591
 5161SOL     OW26944   0.994   1.631   4.795 -0.0855  0.0799  0.6320
 5161SOL    HW126945   0.983   1.602   4.704 -2.4158 -2.4515  1.7121
 5161SOL    HW226946   1.056   1.703   4.783  1.5066 -1.1577  1.4099
 5162SOL     OW26947   1.550   2.056   4.076  0.3482 -0.7483  0.0707
 5162SOL    HW126948   1.493   2.071   4.000  0.3390  0.4344  0.3142
 5162SOL    HW226949   1.632   2.040   4.030  0.2498  0.2112 -0.4347
 5163SOL     OW26950   2.782   3.421   2.348  0.5374 -0.1991  0.0931
 5163SOL    HW126951   2.750   3.335   2.320  2.5479 -0.6298 -0.8535
 5163SOL    HW226952   2.873   3.412   2.320  0.3347 -2.0814  0.0487
 5164SOL     OW26953   0.125   2.340   1.816  0.6219  0.1922  0.1587
 5164SOL    HW126954   0.127   2.293   1.732  1.5832  0.7734 -0.1451
 5164SOL    HW226955   0.047   2.301   1.854  0.0097  0.9976 -0.2754
 5165SOL     OW26956   2.446   1.580   1.274 -0.0400 -0.2801  0.2167
 5165SOL    HW126957   2.472   1.616   1.358 -0.6920 -0.8527  0.6649
 5165SOL    HW226958   2.525   1.593   1.222 -0.8068  1.4888 -0.4807
 5166SOL     OW26959   0.127   3.150  17.021 -0.2931  0.0166  0.1353
 5166SOL    HW126960   0.203   3.207  17.034 -1.9580  2.2316  0.0241
 5166SOL    HW226961   0.105   3.158  16.929  2.1768 -0.9271 -0.5471
 5167SOL     OW26962   4.616   2.846   3.970 -0.0712  0.0599 -0.0234
 5167SOL    HW126963   4.596   2.779   4.036  0.1359  1.0657  1.0742
 5167SOL    HW226964   4.642   2.796   3.893 -2.0037 -1.7180  0.5105
 5168SOL     OW26965   0.717   2.842   8.720 -0.2958 -0.1734  0.1498
 5168SOL    HW126966   0.727   2.837   8.625 -2.1948 -0.4245 -0.0509
 5168SOL    HW226967   0.796   2.798   8.751  0.1149  0.8419  0.5284
 5169SOL     OW26968   0.265   3.386  11.017 -0.0918  0.6801 -0.5664
 5169SOL    HW126969   0.238   3.297  11.040 -0.6312  1.5282  2.1237
 5169SOL    HW226970   0.355   3.389  11.048 -0.1146 -0.3043 -0.4123
 5170SOL     OW26971   3.270   1.466   8.274 -0.7036 -0.1670  0.1963
 5170SOL    HW126972   3.303   1.475   8.185 -0.7970 -2.7115 -0.1023
 5170SOL    HW226973   3.346   1.480   8.331 -1.7858  0.7973  1.3934
 5171SOL     OW26974   0.719   3.944   5.597 -0.0527  0.0292 -0.3120
 5171SOL    HW126975   0.736   3.958   5.690  3.7582 -3.2826 -0.5047
 5171SOL    HW226976   0.657   4.017   5.594  0.2187  0.2569 -0.4118
 5172SOL     OW26977   1.398   4.458   3.449  0.0177  0.5011  0.4480
 5172SOL    HW126978   1.356   4.526   3.396  0.8383 -0.0897 -0.9766
 5172SOL    HW226979   1.395   4.380   3.394  1.4483  0.8840 -0.1853
 5173SOL     OW26980   3.220   4.677  12.157 -0.5024 -0.0795 -0.3226
 5173SOL    HW126981   3.198   4.665  12.064  2.1680 -0.2444 -0.9298
 5173SOL    HW226982   3.226   4.584  12.178  0.7865  0.1428  0.2939
 5174SOL     OW26983   1.706   4.144   8.692  0.5687 -0.4684 -0.2722
 5174SOL    HW126984   1.662   4.085   8.632  0.4930 -2.8293  2.0819
 5174SOL    HW226985   1.679   4.231   8.661 -1.0002 -0.0080  2.3824
 5175SOL     OW26986   4.287   1.625   3.113  0.7040 -0.1524  0.0209
 5175SOL    HW126987   4.296   1.551   3.052 -3.7981 -0.8785  0.2685
 5175SOL    HW226988   4.300   1.580   3.197 -0.6133  2.1486  1.4453
 5176SOL     OW26989   0.843   3.502  15.104 -0.7530 -0.2113 -0.2745
 5176SOL    HW126990   0.911   3.509  15.037 -0.2052 -0.2365  0.2750
 5176SOL    HW226991   0.889   3.545  15.175 -0.3739  0.0330 -0.6686
 5177SOL     OW26992   3.091   0.291   0.120  0.0345 -0.2426  0.0661
 5177SOL    HW126993   3.108   0.200   0.144  2.1599  0.7774  2.3930
 5177SOL    HW226994   3.038   0.285   0.040 -0.2782 -1.1861  0.3481
 5178SOL     OW26995   2.358   0.464   6.208 -0.2293 -0.6043 -0.0740
 5178SOL    HW126996   2.393   0.527   6.272  1.2204 -0.9640 -0.4955
 5178SOL    HW226997   2.341   0.529   6.140  0.9879  0.5534  0.7078
 5179SOL     OW26998   0.806   2.282  12.208 -0.2203  0.3556  0.0756
 5179SOL    HW126999   0.743   2.225  12.165  0.4582  0.7795 -1.5149
 5179SOL    HW227000   0.874   2.216  12.220 -0.8605  0.0155  1.8267
 5180SOL     OW27001   1.418   2.231   4.371 -0.3378  0.3229 -0.1623
 5180SOL    HW127002   1.402   2.239   4.465  0.5189 -1.3273  0.1216
 5180SOL    HW227003   1.393   2.141   4.349  0.2411  0.1561 -0.1321
 5181SOL     OW27004   4.613   4.393   2.472 -0.7654  0.5689 -0.1897
 5181SOL    HW127005   4.570   4.454   2.412 -0.6412  1.8133  1.0051
 5181SOL    HW227006   4.589   4.427   2.558 -1.3366 -2.5268  0.8849
 5182SOL     OW27007   1.456   4.475  17.403  0.0378  0.0053 -0.4685
 5182SOL    HW127008   1.375   4.430  17.427 -0.7288  0.8159 -1.5541
 5182SOL    HW227009   1.526   4.416  17.431 -0.1541  0.9739  2.1158
 5183SOL     OW27010   1.997   1.396   1.815 -0.3250 -0.1418  0.6252
 5183SOL    HW127011   1.908   1.371   1.840  0.0443  1.0327  3.0712
 5183SOL    HW227012   1.988   1.401   1.720 -0.0419 -2.1911  0.4834
 5184SOL     OW27013   0.109   1.532   9.334  0.3944  0.2783  0.0276
 5184SOL    HW127014   0.089   1.540   9.427 -3.3654 -0.6825 -0.7145
 5184SOL    HW227015   0.131   1.624   9.317 -1.3559  0.7460  0.3317
 5185SOL     OW27016   3.612   4.172  11.700 -0.2629 -0.5920 -0.0871
 5185SOL    HW127017   3.682   4.107  11.702  0.1064 -0.1570  0.9991
 5185SOL    HW227018   3.542   4.143  11.759 -1.3312 -1.4294 -1.7663
 5186SOL     OW27019   1.631   0.182   5.977 -0.4496  0.1867  0.3367
 5186SOL    HW127020   1.564   0.115   5.991 -0.2430  0.5617  3.1636
 5186SOL    HW227021   1.693   0.140   6.037  0.6116  0.9231 -0.2349
 5187SOL     OW27022   4.606   3.799   1.181 -0.8020  0.2148 -0.7060
 5187SOL    HW127023   4.642   3.821   1.267  1.3949 -1.1822 -1.2556
 5187SOL    HW227024   4.604   3.704   1.172  1.8134  0.2668 -2.0818
 5188SOL     OW27025   3.482   3.816   5.955 -0.1326 -0.5990 -0.0253
 5188SOL    HW127026   3.431   3.757   6.011 -3.5097  2.6713  0.3970
 5188SOL    HW227027   3.508   3.888   6.013 -0.2112 -2.4074  2.2700
 5189SOL     OW27028   3.829   2.744  17.123 -0.3149 -0.0739  0.0605
 5189SOL    HW127029   3.781   2.697  17.191 -0.1223 -0.9050 -0.3849
 5189SOL    HW227030   3.799   2.835  17.123 -0.3853 -0.0961  0.6099
 5190SOL     OW27031   1.967   0.054   5.382 -0.4906  0.0429 -0.2977
 5190SOL    HW127032   1.952   0.148   5.397  0.7418  0.0507  0.8844
 5190SOL    HW227033   1.952   0.021   5.471 -1.5024  0.5811 -0.2691
 5191SOL     OW27034   2.567   3.582   7.762  0.0511  0.5983 -0.2279
 5191SOL    HW127035   2.541   3.664   7.804 -2.7930 -1.1130  1.3735
 5191SOL    HW227036   2.588   3.532   7.841  1.7163  0.5315 -0.7076
 5192SOL     OW27037   4.530   2.471   6.518  0.0754  0.3393 -0.0297
 5192SOL    HW127038   4.473   2.397   6.539  0.0275  0.1976 -0.6548
 5192SOL    HW227039   4.496   2.535   6.579 -1.1491 -0.5951  0.2620
 5193SOL     OW27040   0.716   0.754   4.125 -0.2333  0.5889  0.0146
 5193SOL    HW127041   0.751   0.668   4.149 -0.1413 -0.0341 -2.3236
 5193SOL    HW227042   0.622   0.749   4.143  0.0987 -2.0443  0.8993
 5194SOL     OW27043   1.306   0.719   5.119  0.6890 -0.1798 -0.2420
 5194SOL    HW127044   1.228   0.708   5.064  0.0973  1.0379  0.3434
 5194SOL    HW227045   1.373   0.667   5.077  1.4425  0.4216  0.2135
 5195SOL     OW27046   2.453   0.933   6.112 -0.1725 -0.7798 -0.1840
 5195SOL    HW127047   2.385   0.992   6.081  0.4852 -0.1087 -0.3517
 5195SOL    HW227048   2.520   0.937   6.043  1.6871  2.1420  1.8345
 5196SOL     OW27049   2.203   3.674   4.329 -0.1747  0.7512 -0.2986
 5196SOL    HW127050   2.282   3.664   4.382 -0.2312 -0.0559 -0.3633
 5196SOL    HW227051   2.183   3.580   4.330  1.8089  0.3412  0.5041
 5197SOL     OW27052   0.057   0.962   3.885 -0.2657 -0.1107 -0.3532
 5197SOL    HW127053   4.705   0.967   3.823  0.0754  1.3460 -0.6344
 5197SOL    HW227054   0.042   1.048   3.926  2.6820 -0.3698  1.3054
 5198SOL     OW27055   3.885   1.183   8.248  0.2859 -0.2099  0.3002
 5198SOL    HW127056   3.931   1.211   8.327  1.0578  2.5023 -1.1035
 5198SOL    HW227057   3.805   1.141   8.280  0.1324  0.2100  0.4764
 5199SOL     OW27058   0.604   2.750   1.391 -0.0569  0.6246 -0.0716
 5199SOL    HW127059   0.674   2.782   1.333 -0.4839 -1.5349 -1.7871
 5199SOL    HW227060   0.544   2.719   1.323  2.0215 -0.8178 -1.2348
 5200SOL     OW27061   4.198   3.607  16.999  0.1567  0.2124  0.1804
 5200SOL    HW127062   4.112   3.582  17.032 -1.4100  4.6317 -0.5673
 5200SOL    HW227063   4.248   3.637  17.075  0.2850  1.4327 -0.3840
 5201SOL     OW27064   3.260   3.668  12.990  0.8461 -0.6763  0.0905
 5201SOL    HW127065   3.332   3.606  12.987  0.6529 -0.8397 -1.0020
 5201SOL    HW227066   3.240   3.658  13.083 -1.0295 -1.7976 -0.4282
 5202SOL     OW27067   2.014   0.927  15.590 -0.8942 -0.4231  0.6648
 5202SOL    HW127068   2.074   0.940  15.664  1.0005 -3.5859 -0.2784
 5202SOL    HW227069   2.074   0.905  15.519 -0.7450  0.3859  0.5445
 5203SOL     OW27070   1.672   1.470   6.183 -0.5362 -0.6746 -0.1989
 5203SOL    HW127071   1.667   1.514   6.098  2.4369 -2.4759 -1.3050
 5203SOL    HW227072   1.719   1.389   6.162  1.5103  0.0920  1.4217
 5204SOL     OW27073   3.328   3.725   9.041  0.5976 -0.4554 -0.1221
 5204SOL    HW127074   3.361   3.684   8.961 -2.6535 -0.8542 -1.2194
 5204SOL    HW227075   3.378   3.671   9.103 -0.2773  0.0200  1.0026
 5205SOL     OW27076   4.485   4.305   5.761  0.0112  0.4058  0.2952
 5205SOL    HW127077   4.480   4.288   5.666 -1.5944  1.0970  0.2687
 5205SOL    HW227078   4.572   4.271   5.782 -0.1872 -0.1418  0.2331
 5206SOL     OW27079   2.294   0.877   8.340  0.7352 -0.6261  0.2675
 5206SOL    HW127080   2.278   0.904   8.431 -1.6429  1.0410 -0.6177
 5206SOL    HW227081   2.252   0.791   8.342 -2.1647  0.8285  2.0135
 5207SOL     OW27082   2.166   0.965   6.934  0.1667  1.1689  0.0691
 5207SOL    HW127083   2.187   1.026   7.005 -1.1497 -0.1129  1.5577
 5207SOL    HW227084   2.124   1.017   6.865 -3.6614  0.8623  2.1180
 5208SOL     OW27085   1.050   3.044   5.715 -0.0038  0.4301  0.5764
 5208SOL    HW127086   1.060   2.949   5.709  0.6972  0.4221  1.8443
 5208SOL    HW227087   1.012   3.061   5.629  0.8958  0.8879  0.2652
 5209SOL     OW27088   2.855   2.013  16.070  0.1259  0.2858 -0.0619
 5209SOL    HW127089   2.826   2.038  15.983  0.3160  2.1441  0.4147
 5209SOL    HW227090   2.783   1.958  16.100  0.4434  0.4943  1.0823
 5210SOL     OW27091   2.292   2.480   5.131  0.4481 -0.3213 -0.0013
 5210SOL    HW127092   2.261   2.439   5.050  0.0076 -0.9666  0.4918
 5210SOL    HW227093   2.202   2.499   5.158  1.2665 -0.3526  2.7542
 5211SOL     OW27094   2.038   2.578  15.316 -0.1834  0.0967 -0.3811
 5211SOL    HW127095   2.043   2.562  15.222 -1.4445  0.1181 -0.4524
 5211SOL    HW227096   2.071   2.491  15.341  0.6088  0.1937 -1.1125
 5212SOL     OW27097   2.014   3.155   4.981 -0.2158  0.1686 -0.4346
 5212SOL    HW127098   1.938   3.144   4.925 -0.3773 -3.9687  0.5788
 5212SOL    HW227099   1.991   3.227   5.040 -0.8778 -0.9862  0.7141
 5213SOL     OW27100   1.400   3.942   6.651 -0.1784  0.0379 -0.3159
 5213SOL    HW127101   1.332   3.972   6.590  0.3565 -1.3213 -1.5983
 5213SOL    HW227102   1.466   4.009   6.637 -0.4246  1.0030  3.4218
 5214SOL     OW27103   3.527   3.630  15.515  0.6372 -0.0782  0.8038
 5214SOL    HW127104   3.470   3.693  15.559 -2.0088 -1.6650 -0.3238
 5214SOL    HW227105   3.470   3.555  15.498 -1.1420  1.1640  1.3341
 5215SOL     OW27106   1.954   1.473   2.961 -0.4107 -0.1586  0.1852
 5215SOL    HW127107   1.915   1.555   2.992  1.6122  0.0026  2.2476
 5215SOL    HW227108   2.003   1.508   2.886 -1.2392 -1.2125 -0.8574
 5216SOL     OW27109   0.632   1.986  12.447  0.3020 -0.3162 -0.0958
 5216SOL    HW127110   0.608   2.006  12.537  2.3445  0.0076  0.3704
 5216SOL    HW227111   0.646   1.891  12.448 -2.3037 -0.7062 -0.6753
 5217SOL     OW27112   0.827   1.856   7.563 -0.1324  0.1150 -0.6137
 5217SOL    HW127113   0.855   1.834   7.652  0.8040  1.4511 -0.5826
 5217SOL    HW227114   0.733   1.871   7.572  0.1487  1.1608  0.5628
 5218SOL     OW27115   3.903   2.074  11.649 -0.6853  0.3018  0.0567
 5218SOL    HW127116   3.894   2.169  11.635  1.1286  0.8242  2.3979
 5218SOL    HW227117   3.834   2.038  11.593 -0.0255  2.0091 -1.8715
 5219SOL     OW27118   1.601   2.281   4.997 -0.9845  0.2537  0.4687
 5219SOL    HW127119   1.619   2.345   5.066 -0.3737  0.6864 -0.0962
 5219SOL    HW227120   1.518   2.249   5.031 -0.7341  0.5381  1.3382
 5220SOL     OW27121   2.599   1.182   7.004  0.5863  0.3384 -0.1756
 5220SOL    HW127122   2.606   1.277   7.015 -0.8444  0.4620 -0.3459
 5220SOL    HW227123   2.680   1.158   6.957  2.4045  3.2460  1.5009
 5221SOL     OW27124   3.537   4.344  11.514  0.2119 -0.2648 -0.0889
 5221SOL    HW127125   3.447   4.309  11.517  0.7779 -1.8614 -1.1446
 5221SOL    HW227126   3.573   4.284  11.579 -1.0135 -0.6235  0.2637
 5222SOL     OW27127   2.783   4.263   7.638 -0.5070 -0.7251 -0.1650
 5222SOL    HW127128   2.696   4.223   7.636 -0.2443 -1.3689  1.2728
 5222SOL    HW227129   2.822   4.235   7.721 -1.0682 -0.4227  0.1993
 5223SOL     OW27130   2.920   3.345   6.901  0.0497  0.1994  0.2758
 5223SOL    HW127131   2.874   3.414   6.949 -1.8199 -1.0221  0.2367
 5223SOL    HW227132   2.921   3.394   6.818 -0.8593  1.4506  1.0028
 5224SOL     OW27133   1.985   1.059   3.990  0.0627 -0.2429  0.1343
 5224SOL    HW127134   1.967   1.052   4.084 -3.2497  1.6911 -0.3314
 5224SOL    HW227135   1.907   1.020   3.950 -1.6959  2.0146  1.3527
 5225SOL     OW27136   3.577   4.702  12.103 -0.5402  0.2087  0.0934
 5225SOL    HW127137   3.515   0.023  12.043  0.1645 -1.3057 -1.7061
 5225SOL    HW227138   3.582   4.618  12.057 -1.4761 -0.2231  0.7979
 5226SOL     OW27139   3.130   4.292   5.845  0.3470  0.5126  0.4223
 5226SOL    HW127140   3.207   4.337   5.811  0.7193  0.2150  0.8649
 5226SOL    HW227141   3.080   4.276   5.765 -0.3404 -2.3505  1.4200
 5227SOL     OW27142   1.440   0.080   7.970  0.4170  0.8656  0.3047
 5227SOL    HW127143   1.436   0.156   7.911  0.5668  0.3452 -0.3761
 5227SOL    HW227144   1.414   0.113   8.056  2.7128 -1.6534  1.9910
 5228SOL     OW27145   4.540   4.654  11.385  0.4083 -0.2929 -0.3387
 5228SOL    HW127146   4.487   4.594  11.333 -0.3374  0.4969 -0.5027
 5228SOL    HW227147   4.617   4.599  11.396  2.1360  2.3841  1.0526
 5229SOL     OW27148   0.768   4.582   1.986 -0.4138  0.0462  0.5159
 5229SOL    HW127149   0.776   4.486   1.988 -0.4097  0.0169 -1.1094
 5229SOL    HW227150   0.694   4.599   1.929  0.7455  0.5073 -0.8702
 5230SOL     OW27151   3.090   0.565  10.440 -0.1907 -0.5400 -0.9593
 5230SOL    HW127152   3.009   0.517  10.458 -0.3575 -0.1553 -0.6825
 5230SOL    HW227153   3.153   0.524  10.499 -1.4605 -1.1409 -0.0266
 5231SOL     OW27154   1.978   1.009  14.034  0.0685  0.4825  0.0677
 5231SOL    HW127155   1.957   1.029  14.125  0.5258 -0.0986  0.3010
 5231SOL    HW227156   1.898   0.975  13.995  0.9735 -2.5382  0.8497
 5232SOL     OW27157   1.951   4.077   4.855  0.5929  0.9873 -0.8328
 5232SOL    HW127158   1.976   4.063   4.946  0.7265 -1.6365 -1.2737
 5232SOL    HW227159   1.982   3.995   4.818 -0.8196 -0.2283  0.6403
 5233SOL     OW27160   4.468   3.200  16.836  0.1176  0.1740 -0.0780
 5233SOL    HW127161   4.455   3.294  16.849  1.4917  0.2005  1.0852
 5233SOL    HW227162   4.401   3.181  16.770  1.6118 -2.8665 -0.7197
 5234SOL     OW27163   0.715   0.078  17.073  0.0975  0.5576  0.3747
 5234SOL    HW127164   0.796   0.116  17.106 -0.4649 -0.2238  2.5922
 5234SOL    HW227165   0.724   4.711  17.109 -0.7181 -0.7166 -2.5083
 5235SOL     OW27166   2.644   3.652   2.213  0.0888 -0.2690 -0.0486
 5235SOL    HW127167   2.662   3.709   2.138 -0.4438 -1.0044 -0.7340
 5235SOL    HW227168   2.687   3.701   2.283 -2.0647  2.7186 -0.8131
 5236SOL     OW27169   2.314   3.073   2.596 -0.4295 -0.0021  0.1006
 5236SOL    HW127170   2.287   3.114   2.678  1.4047 -0.1977  0.8086
 5236SOL    HW227171   2.238   3.019   2.575 -0.5578  0.5206 -0.8033
 5237SOL     OW27172   0.115   3.644   8.764 -0.8056  0.2098  0.3877
 5237SOL    HW127173   0.095   3.568   8.819  1.2559 -0.7649 -0.2257
 5237SOL    HW227174   0.207   3.629   8.740  0.3269  2.1054  3.5142
 5238SOL     OW27175   0.436   0.165   7.345  0.1637 -0.6527  0.5216
 5238SOL    HW127176   0.525   0.153   7.377  0.0241  1.4827  1.7403
 5238SOL    HW227177   0.420   0.075   7.318  2.2789 -0.7031 -0.5198
 5239SOL     OW27178   0.162   0.433   8.408  0.0265  0.0733 -0.3512
 5239SOL    HW127179   0.107   0.499   8.450  0.7081  0.6048 -0.3136
 5239SOL    HW227180   0.092   0.388   8.360 -0.7434  2.0812 -1.0920
 5240SOL     OW27181   0.304   3.551   8.452  0.1579  0.7222 -0.0669
 5240SOL    HW127182   0.358   3.595   8.517  2.0133  2.6061 -2.8840
 5240SOL    HW227183   0.292   3.615   8.382  0.9183 -0.7818 -1.5764
 5241SOL     OW27184   4.450   0.032   2.841 -0.1935 -0.2834 -0.1274
 5241SOL    HW127185   4.393   0.084   2.784  0.2313  0.4055  0.0732
 5241SOL    HW227186   4.424   4.664   2.816 -0.4878  0.0722 -1.0631
 5242SOL     OW27187   3.303   2.301   8.433  0.1939  0.1009 -0.2327
 5242SOL    HW127188   3.248   2.377   8.449 -1.5057 -1.7840  2.8350
 5242SOL    HW227189   3.294   2.262   8.520  0.7889 -0.9669 -0.6463
 5243SOL     OW27190   2.544   1.950   5.467  0.1283  0.1504 -0.8587
 5243SOL    HW127191   2.550   1.949   5.372 -1.3602 -0.4042 -0.9443
 5243SOL    HW227192   2.607   2.020   5.485  0.2168 -0.0059 -0.5451
 5244SOL     OW27193   1.951   0.062   9.605  0.2309  0.3741 -0.2547
 5244SOL    HW127194   1.870   0.103   9.574 -0.3763 -0.5091  0.1508
 5244SOL    HW227195   2.007   0.137   9.622 -0.8324  0.7461  1.5585
 5245SOL     OW27196   4.196   4.406   7.482 -0.6776 -0.6541  0.1322
 5245SOL    HW127197   4.280   4.360   7.486  0.4863  1.5579  1.2518
 5245SOL    HW227198   4.137   4.337   7.450 -1.3257  0.2951 -0.7361
 5246SOL     OW27199   0.814   1.738   1.242 -0.3333 -0.1767  0.7828
 5246SOL    HW127200   0.761   1.795   1.186 -4.0253 -2.2931  2.1614
 5246SOL    HW227201   0.901   1.740   1.202 -0.8599 -1.1697 -0.4007
 5247SOL     OW27202   2.374   3.344  10.166 -0.0873  0.5191 -0.0234
 5247SOL    HW127203   2.290   3.354  10.211  1.1418  4.0867  1.4956
 5247SOL    HW227204   2.415   3.425  10.197  0.2306 -0.2800  1.6449
 5248SOL     OW27205   2.311   1.876  17.130 -0.6157  0.1871 -0.9075
 5248SOL    HW127206   2.300   1.919  17.215 -0.0505  0.7745 -1.1365
 5248SOL    HW227207   2.362   1.941  17.082 -0.2464  2.0915  2.0281
 5249SOL     OW27208   1.792   4.277   2.796 -0.0926  0.0786 -0.4105
 5249SOL    HW127209   1.863   4.214   2.807  0.3734  0.7020  0.1005
 5249SOL    HW227210   1.790   4.280   2.700 -0.9062  0.2818 -0.3876
 5250SOL     OW27211   2.708   3.616   1.628 -0.0191  0.3573  0.3106
 5250SOL    HW127212   2.763   3.579   1.696 -1.5995  0.3416  1.5685
 5250SOL    HW227213   2.708   3.556   1.553 -0.6499  0.0671  0.5380
 5251SOL     OW27214   2.224   3.254  12.883 -0.0162 -0.2952  0.0396
 5251SOL    HW127215   2.308   3.292  12.907  1.5810 -3.1322 -1.0493
 5251SOL    HW227216   2.228   3.281  12.791 -0.5818  0.1076  0.1339
 5252SOL     OW27217   3.225   2.890   5.015 -0.3980 -0.1132  0.0535
 5252SOL    HW127218   3.291   2.821   5.009  1.0844  1.3080 -0.0533
 5252SOL    HW227219   3.264   2.949   4.950 -2.4658 -0.2889 -1.3192
 5253SOL     OW27220   1.695   4.255   0.515  0.7993  0.0051  0.4555
 5253SOL    HW127221   1.745   4.263   0.596 -0.9669 -1.0024  1.6529
 5253SOL    HW227222   1.673   4.162   0.525  0.0293  0.0336 -1.0399
 5254SOL     OW27223   1.065   3.868   1.478 -0.4889  0.1811 -0.4352
 5254SOL    HW127224   1.091   3.951   1.518 -2.1439 -0.4115  1.8969
 5254SOL    HW227225   1.146   3.818   1.486 -0.2493  0.7785  0.8570
 5255SOL     OW27226   1.211   0.075   2.027  0.3176 -0.1308 -0.3263
 5255SOL    HW127227   1.146   0.009   2.050  1.7285 -0.9476  1.3091
 5255SOL    HW227228   1.291   0.026   2.046  0.3894  0.2540  0.3658
 5256SOL     OW27229   1.125   2.978   6.942 -0.1771 -0.1018 -0.0132
 5256SOL    HW127230   1.066   3.012   7.009 -0.5876 -0.1822 -0.3322
 5256SOL    HW227231   1.089   3.011   6.860  0.8932 -0.8792 -0.7900
 5257SOL     OW27232   0.298   3.172   7.818 -0.1988 -0.5487  0.5148
 5257SOL    HW127233   0.331   3.250   7.861 -0.1848 -0.9699  1.2624
 5257SOL    HW227234   0.351   3.175   7.738 -1.3451  0.2512 -0.2168
 5258SOL     OW27235   3.106   4.634   1.331 -0.1747 -0.0366  0.1487
 5258SOL    HW127236   3.090   4.647   1.238 -0.6154  1.7130  0.4757
 5258SOL    HW227237   3.024   4.672   1.362 -0.2303  1.3116 -1.6672
 5259SOL     OW27238   1.967   2.854   5.933  0.1641  0.2151 -0.0752
 5259SOL    HW127239   2.024   2.825   5.863  0.1816  0.1464 -0.0332
 5259SOL    HW227240   1.966   2.767   5.975  2.7463  0.4754  0.5278
 5260SOL     OW27241   2.105   0.604   4.984  0.0363 -0.3512  0.2976
 5260SOL    HW127242   2.086   0.575   5.073 -0.0123  0.8709  0.6841
 5260SOL    HW227243   2.181   0.661   4.999  0.5015 -0.2358 -2.4438
 5261SOL     OW27244   1.608   0.504   8.827 -0.2309 -0.3365 -0.7146
 5261SOL    HW127245   1.537   0.503   8.763 -0.7832 -0.2497 -0.1015
 5261SOL    HW227246   1.642   0.593   8.811  1.5251 -1.0666 -1.0325
 5262SOL     OW27247   2.974   0.529   3.875 -0.4642  0.3338 -0.2982
 5262SOL    HW127248   2.879   0.539   3.865 -0.6562 -1.0964  0.0812
 5262SOL    HW227249   3.006   0.595   3.814  1.3703 -1.2499 -1.0668
 5263SOL     OW27250   2.081   0.262   5.676  0.3511 -0.0768  0.1881
 5263SOL    HW127251   2.100   0.202   5.748  0.6921 -0.2867 -0.0801
 5263SOL    HW227252   2.022   0.327   5.714  0.9917  1.4150 -1.3625
 5264SOL     OW27253   3.046   3.939   3.621 -0.0712 -0.4606  0.1826
 5264SOL    HW127254   2.985   3.865   3.628 -0.4040 -0.1853  0.1806
 5264SOL    HW227255   2.988   4.012   3.642  0.3570  0.3119 -1.3755
 5265SOL     OW27256   0.118   2.855   2.495  0.4197  0.1694  0.0562
 5265SOL    HW127257   0.153   2.931   2.542 -1.7002 -0.1480  2.1315
 5265SOL    HW227258   0.180   2.783   2.500  3.2712  2.5060 -1.5837
 5266SOL     OW27259   3.347   1.100   5.013 -0.1649  0.6875 -1.0456
 5266SOL    HW127260   3.272   1.049   4.984  0.0646 -0.9766  1.3376
 5266SOL    HW227261   3.355   1.172   4.949  0.8049  1.3573 -0.1753
 5267SOL     OW27262   0.465   1.060   2.561 -0.7697  0.2218 -0.5586
 5267SOL    HW127263   0.450   0.981   2.613 -2.0728  0.4461 -0.5912
 5267SOL    HW227264   0.439   1.035   2.472 -0.1473  0.8589 -0.9176
 5268SOL     OW27265   3.022   1.352   3.364  0.1968 -0.1044 -0.1412
 5268SOL    HW127266   2.940   1.399   3.352  0.6602  0.3155 -1.6689
 5268SOL    HW227267   3.069   1.383   3.287 -1.1384 -0.1773 -1.0010
 5269SOL     OW27268   1.122   1.569   7.649  0.3263 -0.2231 -0.2594
 5269SOL    HW127269   1.148   1.544   7.561 -0.1559  0.1183 -0.5012
 5269SOL    HW227270   1.028   1.569   7.631  0.4352 -0.4262 -0.8083
 5270SOL     OW27271   1.009   4.103   3.242 -0.3220 -0.2929 -0.7446
 5270SOL    HW127272   0.934   4.152   3.209 -1.1722 -0.9314  0.2314
 5270SOL    HW227273   1.077   4.147   3.192 -0.9210  0.2109 -1.1192
 5271SOL     OW27274   0.100   0.430   7.748  0.0196  0.9022 -0.3122
 5271SOL    HW127275   0.181   0.444   7.699 -0.8090  2.1548 -1.3278
 5271SOL    HW227276   0.045   0.494   7.704  0.8591  2.8120  1.4627
 5272SOL     OW27277   0.222   4.110   6.433 -0.1377  0.1301 -0.3267
 5272SOL    HW127278   0.215   4.076   6.344 -1.9736 -2.6785  0.8952
 5272SOL    HW227279   0.132   4.096   6.462  0.7719 -1.7633  1.6192
 5273SOL     OW27280   0.735   3.007   7.855 -0.1833 -0.7851 -0.0781
 5273SOL    HW127281   0.791   3.066   7.804  0.8178 -2.4631 -0.9113
 5273SOL    HW227282   0.698   2.961   7.779  0.9517 -0.4851 -0.8177
 5274SOL     OW27283   3.960   4.261   5.673 -0.3254  0.7330  0.0784
 5274SOL    HW127284   3.873   4.296   5.693  0.2168  2.2020 -0.1264
 5274SOL    HW227285   3.958   4.279   5.579 -0.8146 -0.0100 -0.0466
 5275SOL     OW27286   4.549   0.176  16.252  0.5322  0.0345 -0.4053
 5275SOL    HW127287   4.556   0.209  16.162  0.6218  0.2744 -0.3087
 5275SOL    HW227288   4.469   0.125  16.240  1.8481 -1.7352 -1.6811
 5276SOL     OW27289   1.882   3.999   9.611 -0.0039  0.0401 -0.4010
 5276SOL    HW127290   1.876   4.008   9.706  3.2955 -0.7417 -0.1396
 5276SOL    HW227291   1.915   3.910   9.596 -0.1865 -0.4165  1.9469
 5277SOL     OW27292   4.495   4.477   7.713  0.6973 -0.3217  0.3831
 5277SOL    HW127293   4.424   4.508   7.769  0.8337  2.2197 -0.8521
 5277SOL    HW227294   4.538   4.417   7.774  1.5201  0.5861  0.6970
 5278SOL     OW27295   3.041   0.494  12.509 -0.3241  0.3195 -0.2119
 5278SOL    HW127296   2.965   0.448  12.545 -0.2660  0.4650  0.0969
 5278SOL    HW227297   3.050   0.456  12.422 -1.7137 -0.3422 -0.0653
 5279SOL     OW27298   1.939   2.769  12.360 -0.3617 -0.4088 -0.1755
 5279SOL    HW127299   1.998   2.764  12.435 -2.2354  0.7563  1.3541
 5279SOL    HW227300   1.913   2.860  12.357 -2.0897 -0.9585 -1.5305
 5280SOL     OW27301   0.334   2.491   1.859 -0.3178  0.2118  0.9384
 5280SOL    HW127302   0.310   2.510   1.950  1.3352  1.1061  1.1912
 5280SOL    HW227303   0.263   2.430   1.840 -2.5450  3.3988 -0.8912
 5281SOL     OW27304   1.784   4.069  12.525 -0.1719  0.6560  0.1073
 5281SOL    HW127305   1.794   3.990  12.577 -0.4731  1.3876  1.2714
 5281SOL    HW227306   1.698   4.050  12.487  0.6537  0.1122 -1.4534
 5282SOL     OW27307   0.754   3.947   3.222  0.6379 -0.0588  0.2042
 5282SOL    HW127308   0.736   3.988   3.138  1.8216 -1.0363 -0.5319
 5282SOL    HW227309   0.822   4.004   3.258 -1.4964  1.9334  1.0256
 5283SOL     OW27310   2.172   1.631   6.884  0.8990 -0.1978 -0.2791
 5283SOL    HW127311   2.248   1.595   6.837  0.6461 -0.7024 -0.3078
 5283SOL    HW227312   2.207   1.656   6.969  1.8316 -0.6224 -0.5375
 5284SOL     OW27313   3.165   1.247   0.925 -0.3017 -0.0921  0.0392
 5284SOL    HW127314   3.243   1.295   0.899 -0.8356  0.8714  0.2370
 5284SOL    HW227315   3.129   1.305   0.992  0.5360  1.1315 -0.5660
 5285SOL     OW27316   2.568   2.963   3.197  0.3098  0.3358  0.7150
 5285SOL    HW127317   2.488   2.980   3.148  1.7487  0.0947 -1.7272
 5285SOL    HW227318   2.558   3.034   3.261 -0.3376  0.0206  0.9650
 5286SOL     OW27319   3.763   2.809   9.403 -0.2864 -0.5549  0.4163
 5286SOL    HW127320   3.741   2.773   9.489  0.3112 -0.1695  0.7311
 5286SOL    HW227321   3.833   2.753   9.369 -0.6267 -1.6213  1.4554
 5287SOL     OW27322   0.707   3.446   4.151 -0.1673  0.0331 -0.0526
 5287SOL    HW127323   0.763   3.437   4.227 -0.8701  0.2419  0.4869
 5287SOL    HW227324   0.728   3.535   4.121  0.1514 -0.5456 -1.5567
 5288SOL     OW27325   1.289   4.127   5.011 -0.0904 -0.6976 -0.7350
 5288SOL    HW127326   1.372   4.154   4.973 -0.9926  0.7469 -1.6839
 5288SOL    HW227327   1.274   4.046   4.962  0.4456 -1.5210  0.4627
 5289SOL     OW27328   3.087   4.243   8.792 -0.2826 -0.8532  0.2545
 5289SOL    HW127329   3.116   4.247   8.884  3.6642  0.0601 -1.0356
 5289SOL    HW227330   2.992   4.256   8.798 -0.5690 -2.0808 -1.5764
 5290SOL     OW27331   4.032   4.499   6.190  0.1818 -0.3446 -0.1764
 5290SOL    HW127332   4.057   4.408   6.174 -0.6115 -0.6886  0.5894
 5290SOL    HW227333   4.085   4.514   6.268 -0.4123  1.3309 -0.1074
 5291SOL     OW27334   0.981   1.116   1.896 -0.1243  0.3655 -0.4310
 5291SOL    HW127335   0.926   1.181   1.852 -0.1254  1.9511  1.8965
 5291SOL    HW227336   0.931   1.088   1.973 -0.2035  0.7852 -0.3274
 5292SOL     OW27337   0.671   1.204   2.378  0.3480  0.3340 -0.3726
 5292SOL    HW127338   0.597   1.166   2.425 -0.2888 -0.1550 -1.7772
 5292SOL    HW227339   0.627   1.284   2.349 -1.2058  0.1769  1.5441
 5293SOL     OW27340   1.932   2.071   9.600 -0.5002  0.6347  0.6058
 5293SOL    HW127341   1.930   2.074   9.695 -1.7406  2.0211  0.5485
 5293SOL    HW227342   1.838   2.068   9.582 -0.4499 -0.3486  0.4839
 5294SOL     OW27343   0.101   1.386   5.788  0.3034 -0.0787  0.1595
 5294SOL    HW127344   0.055   1.303   5.775 -1.2739  0.6192  1.2623
 5294SOL    HW227345   0.102   1.428   5.702  1.1053  1.8116  1.1033
 5295SOL     OW27346   2.998   4.258   7.419 -0.2253 -0.1017  0.2676
 5295SOL    HW127347   2.945   4.240   7.341 -1.3081 -0.1796  1.0213
 5295SOL    HW227348   2.947   4.222   7.492  0.3154 -1.1662  0.1110
 5296SOL     OW27349   3.406   2.052   4.135  0.0567  0.1590  0.1155
 5296SOL    HW127350   3.311   2.052   4.148  0.2289  1.8718  1.4925
 5296SOL    HW227351   3.422   1.959   4.119 -0.2894  0.2363 -0.6633
 5297SOL     OW27352   0.534   2.547   2.617 -0.2177  0.1713  0.1334
 5297SOL    HW127353   0.612   2.602   2.609  0.5740 -0.4084  3.8494
 5297SOL    HW227354   0.483   2.594   2.683  0.0627 -1.4867  1.5300
 5298SOL     OW27355   2.489   4.540   9.686 -0.5868 -0.4798 -0.1165
 5298SOL    HW127356   2.582   4.558   9.694 -0.5812 -0.0788 -1.0609
 5298SOL    HW227357   2.459   4.505   9.770  3.3217 -0.5855  1.2340
 5299SOL     OW27358   2.529   3.471   1.945 -0.9211  0.0257  0.2065
 5299SOL    HW127359   2.498   3.449   1.858  1.8190 -1.6806 -0.3164
 5299SOL    HW227360   2.557   3.391   1.989 -1.7936 -1.7634 -2.4938
 5300SOL     OW27361   3.905   4.427   2.571  0.2898  0.1396  0.0396
 5300SOL    HW127362   3.913   4.398   2.480 -2.1775  0.8248 -0.3876
 5300SOL    HW227363   3.960   4.357   2.607  1.2901  0.6976 -0.3683
 5301SOL     OW27364   0.328   2.302   9.395  0.5302 -0.2315 -0.1675
 5301SOL    HW127365   0.307   2.307   9.302  3.2224  3.0358 -0.5987
 5301SOL    HW227366   0.255   2.355   9.428 -0.0390 -1.4619  0.5296
 5302SOL     OW27367   1.523   3.184  10.295  0.8809  0.3459 -0.0974
 5302SOL    HW127368   1.611   3.159  10.266  1.4534 -0.5015  2.3947
 5302SOL    HW227369   1.473   3.188  10.213  1.8510 -4.4491 -0.9606
 5303SOL     OW27370   1.901   1.634  10.714 -0.0672  0.4693  0.2055
 5303SOL    HW127371   1.945   1.584  10.782 -2.3951  0.4673  1.7133
 5303SOL    HW227372   1.815   1.643  10.756  0.4796  0.3022  1.3646
 5304SOL     OW27373   2.043   4.064   5.654 -0.3282 -0.2897 -0.2304
 5304SOL    HW127374   2.114   4.000   5.649 -1.4343 -1.5876  0.5048
 5304SOL    HW227375   2.057   4.123   5.580 -0.7258  1.2454  0.9191
 5305SOL     OW27376   2.640   3.636   8.570 -0.3846  0.4553  0.2751
 5305SOL    HW127377   2.716   3.651   8.513 -0.0369 -3.1945 -0.2196
 5305SOL    HW227378   2.608   3.717   8.608 -1.5403 -0.2613  0.8400
 5306SOL     OW27379   4.107   3.024   1.019  0.4914  0.6696 -0.1550
 5306SOL    HW127380   4.199   3.042   1.002 -0.1037  1.1025 -2.9345
 5306SOL    HW227381   4.105   2.928   1.024  0.1888  0.6386 -0.8683
 5307SOL     OW27382   4.328   0.707   4.882 -0.4451 -0.6104  0.2349
 5307SOL    HW127383   4.361   0.654   4.954  2.7737 -0.0568 -0.8122
 5307SOL    HW227384   4.235   0.684   4.878 -1.2627  2.7965  0.0630
 5308SOL     OW27385   0.933   3.204   4.758 -0.4660  0.3045  0.0653
 5308SOL    HW127386   1.025   3.205   4.731 -0.4987 -0.1481 -0.0676
 5308SOL    HW227387   0.926   3.298   4.777 -1.2530  0.3296 -0.3317
 5309SOL     OW27388   1.882   3.411   7.451 -0.1848  0.0183  0.0204
 5309SOL    HW127389   1.875   3.325   7.410  0.2663 -0.3926  0.7901
 5309SOL    HW227390   1.888   3.376   7.540  0.0393  1.6218  0.6320
 5310SOL     OW27391   1.510   4.707   5.278  0.8598  0.0796 -0.0929
 5310SOL    HW127392   1.553   4.703   5.193 -0.5594  2.6291 -0.9356
 5310SOL    HW227393   1.484   0.079   5.281  0.9019  0.0632  0.6701
 5311SOL     OW27394   1.218   3.123   4.100  0.3809 -0.2190  0.2407
 5311SOL    HW127395   1.247   3.190   4.161  2.1843 -0.5586 -0.2342
 5311SOL    HW227396   1.167   3.173   4.035  2.0505  0.7578 -0.3107
 5312SOL     OW27397   1.733   2.471   5.917  0.3988  0.4824  0.4780
 5312SOL    HW127398   1.661   2.509   5.967 -0.2671  1.3993 -1.1871
 5312SOL    HW227399   1.705   2.380   5.906  2.4685 -0.2339  1.1265
 5313SOL     OW27400   4.706   2.503   2.454  0.3015  0.2950 -0.2200
 5313SOL    HW127401   4.719   2.582   2.402 -0.1747  0.5728  0.0851
 5313SOL    HW227402   4.622   2.520   2.496  0.6020  2.1608 -0.3923
 5314SOL     OW27403   4.220   0.050  11.696 -0.1986  0.2342 -0.0429
 5314SOL    HW127404   4.124   0.050  11.700 -0.2823  0.7678 -2.1084
 5314SOL    HW227405   4.253   0.085  11.778  0.0755 -0.4407  0.1381
 5315SOL     OW27406   1.193   0.010   2.456  0.0660  0.8688 -0.7749
 5315SOL    HW127407   1.114   0.054   2.425 -1.8315 -0.0977  2.7987
 5315SOL    HW227408   1.257   0.081   2.465  2.7637 -1.5076 -1.0939
 5316SOL     OW27409   0.739   1.860   2.598 -0.2847  0.1406  1.1190
 5316SOL    HW127410   0.669   1.922   2.578 -0.2988 -0.0400  0.6006
 5316SOL    HW227411   0.824   1.904   2.590 -0.3866  0.2968  0.9065
 5317SOL     OW27412   3.130   0.756  17.314 -0.0834  0.3703 -0.4651
 5317SOL    HW127413   3.153   0.664  17.323 -2.8977 -0.3164 -0.4589
 5317SOL    HW227414   3.216   0.792  17.289  0.1929  1.8390  2.6216
 5318SOL     OW27415   4.040   4.691   2.388  0.2399  0.2724 -0.4538
 5318SOL    HW127416   3.978   0.005   2.452 -0.9378  0.2350 -1.5590
 5318SOL    HW227417   4.004   0.021   2.314  0.2128  0.3403 -0.3940
 5319SOL     OW27418   4.568   2.918   2.383 -0.6655  0.8326  0.0561
 5319SOL    HW127419   4.570   3.013   2.397 -0.5629  0.8001  0.2588
 5319SOL    HW227420   4.647   2.897   2.434 -3.2447  0.4317  3.8281
 5320SOL     OW27421   1.288   0.229   0.891 -0.0867 -0.6964 -0.1077
 5320SOL    HW127422   1.205   0.274   0.904  0.8040  1.2593 -1.3276
 5320SOL    HW227423   1.269   0.167   0.820 -0.9560  0.6305 -1.0274
 5321SOL     OW27424   2.399   1.483  16.717 -0.2689  0.2721  0.3246
 5321SOL    HW127425   2.304   1.485  16.730 -0.3384  0.2926 -0.2035
 5321SOL    HW227426   2.425   1.441  16.799 -0.3219 -1.0190 -0.3114
 5322SOL     OW27427   3.400   3.367   2.326 -0.0371  0.1035 -0.6634
 5322SOL    HW127428   3.305   3.359   2.322 -0.1013  0.0487  1.0639
 5322SOL    HW227429   3.415   3.321   2.408  1.8617  0.1505 -0.9806
 5323SOL     OW27430   0.741   1.841  16.566  0.3833  0.3378 -0.1695
 5323SOL    HW127431   0.736   1.889  16.648 -2.2761  1.7398 -1.1699
 5323SOL    HW227432   0.778   1.914  16.517 -2.4375  0.7737 -1.6184
 5324SOL     OW27433   0.955   0.499   7.749  0.4131  0.3451  0.3324
 5324SOL    HW127434   0.908   0.580   7.769  2.8567  1.9453 -0.4451
 5324SOL    HW227435   1.046   0.513   7.775  0.4044  1.9829 -0.5325
 5325SOL     OW27436   1.196   3.097   2.814  0.2124  0.1155 -0.4941
 5325SOL    HW127437   1.265   3.061   2.870 -0.1433 -0.5558 -0.4922
 5325SOL    HW227438   1.241   3.146   2.744  2.5849  0.4526  1.2543
 5326SOL     OW27439   3.473   0.931  11.134  0.2717 -0.2527 -0.7623
 5326SOL    HW127440   3.454   0.858  11.193  1.1115  0.6019  0.5660
 5326SOL    HW227441   3.401   0.994  11.141  1.4955  0.9272  1.1693
 5327SOL     OW27442   0.834   2.423  12.488  0.2186 -1.0881 -0.1322
 5327SOL    HW127443   0.920   2.463  12.478 -0.0061 -1.1325 -2.1442
 5327SOL    HW227444   0.800   2.402  12.401  1.1403 -0.2292 -0.7015
 5328SOL     OW27445   2.125   2.718   8.434 -0.2463  0.1915  0.2096
 5328SOL    HW127446   2.057   2.755   8.491 -0.2604  0.9189 -0.2810
 5328SOL    HW227447   2.166   2.653   8.492 -0.6252 -0.0095  0.2519
 5329SOL     OW27448   4.676   0.117   1.947  0.4952  0.2388  0.4168
 5329SOL    HW127449   4.584   0.145   1.954  0.2231  0.2306 -2.9025
 5329SOL    HW227450   4.666   0.026   1.920  0.7880  0.4236 -0.3086
 5330SOL     OW27451   4.191   2.662   7.730 -0.1854  0.2224 -0.1689
 5330SOL    HW127452   4.152   2.740   7.770 -2.7580 -1.8169  1.2975
 5330SOL    HW227453   4.114   2.605   7.732 -0.8553  1.0841 -1.0314
 5331SOL     OW27454   1.680   2.436   9.668  0.0025  0.0287 -0.1060
 5331SOL    HW127455   1.651   2.433   9.577 -1.7853 -1.5960  0.5217
 5331SOL    HW227456   1.630   2.362   9.703 -1.0468  1.0543  0.5651
 5332SOL     OW27457   0.334   1.420   5.955 -0.0229  0.1506  0.1021
 5332SOL    HW127458   0.356   1.330   5.931 -1.1159  0.3705 -1.8221
 5332SOL    HW227459   0.268   1.432   5.886 -0.2199  2.2156  0.6628
 5333SOL     OW27460   3.473   0.015   3.118 -0.4855 -0.0934  0.4198
 5333SOL    HW127461   3.473   4.661   3.178  2.1478 -0.7785 -0.4489
 5333SOL    HW227462   3.440   0.087   3.172  2.3804  2.8811 -1.8937
 5334SOL     OW27463   1.273   4.398   0.794 -0.0039 -0.3513 -0.7016
 5334SOL    HW127464   1.324   4.479   0.791  0.4309 -0.6913 -2.6535
 5334SOL    HW227465   1.278   4.384   0.888  0.6601  1.7732 -0.4355
 5335SOL     OW27466   0.980   4.096   8.202 -0.0993  0.2151 -0.6421
 5335SOL    HW127467   0.922   4.141   8.141 -0.8883  0.9739  0.6657
 5335SOL    HW227468   0.962   4.148   8.281 -1.5695 -0.7494 -0.3346
 5336SOL     OW27469   3.930   3.370  15.901  0.6702  0.0603 -0.1364
 5336SOL    HW127470   3.980   3.433  15.953 -0.3244  1.6557 -1.1458
 5336SOL    HW227471   3.900   3.308  15.969 -0.9835  0.9596 -0.0465
 5337SOL     OW27472   4.422   2.769   3.514 -0.2276 -0.2584 -0.0814
 5337SOL    HW127473   4.351   2.745   3.573 -0.4460  0.5595 -0.0134
 5337SOL    HW227474   4.385   2.733   3.433 -1.5133  0.3290  0.2563
 5338SOL     OW27475   0.667   0.265  11.209  0.1131  0.0221  0.1098
 5338SOL    HW127476   0.626   0.325  11.272  0.0730  1.7423 -1.5632
 5338SOL    HW227477   0.701   0.196  11.266 -0.5641 -0.0293  0.4618
 5339SOL     OW27478   1.834   0.798   9.069 -0.3828  0.4213 -0.2443
 5339SOL    HW127479   1.838   0.713   9.112 -0.9165  0.9050  0.7561
 5339SOL    HW227480   1.744   0.830   9.080 -0.7051 -0.7779  0.5103
 5340SOL     OW27481   2.668   4.514  16.077  0.2329 -0.1641  0.3473
 5340SOL    HW127482   2.731   4.478  16.140  0.7340 -0.1712 -0.1512
 5340SOL    HW227483   2.597   4.543  16.134  1.8012  0.3636  2.0286
 5341SOL     OW27484   1.041   1.909  10.517 -0.2412  0.4409 -0.3361
 5341SOL    HW127485   1.015   2.001  10.517 -1.9328 -0.0374 -0.5029
 5341SOL    HW227486   0.961   1.881  10.473  0.5995 -1.2464 -0.7587
 5342SOL     OW27487   3.466   0.607   6.963  0.6802  0.3308  0.2361
 5342SOL    HW127488   3.560   0.611   6.981  0.7751 -0.5855 -0.0794
 5342SOL    HW227489   3.438   0.694   6.991  0.4787  0.2126  0.4044
 5343SOL     OW27490   1.453   4.400   2.455  0.3258  0.4626 -0.1456
 5343SOL    HW127491   1.384   4.449   2.410  0.7256  1.3774  0.2235
 5343SOL    HW227492   1.452   4.316   2.409  2.0498 -0.2522  1.1212
 5344SOL     OW27493   1.859   2.771   6.678  0.9977  0.5530  0.4688
 5344SOL    HW127494   1.925   2.714   6.716  0.0466 -0.5562  0.4674
 5344SOL    HW227495   1.867   2.851   6.730  2.2672  1.0634 -0.4963
 5345SOL     OW27496   4.219   0.539   0.569 -0.0504 -0.4640  0.0739
 5345SOL    HW127497   4.249   0.590   0.645  0.8856 -1.2346  0.2149
 5345SOL    HW227498   4.152   0.604   0.547 -1.4462 -2.0692 -0.3745
 5346SOL     OW27499   3.270   3.436   0.383 -0.1127 -0.1081 -0.0438
 5346SOL    HW127500   3.338   3.370   0.392 -0.4518 -0.4884 -0.2640
 5346SOL    HW227501   3.320   3.517   0.394 -0.8661  0.2363  0.9164
 5347SOL     OW27502   0.858   2.936   4.379  0.7389 -0.0192  0.1122
 5347SOL    HW127503   0.780   2.916   4.327  0.5386  1.7378 -0.2610
 5347SOL    HW227504   0.818   2.977   4.456 -1.3042  0.8673 -1.4110
 5348SOL     OW27505   0.713   2.629  16.159 -1.0061  0.0938 -0.3212
 5348SOL    HW127506   0.677   2.663  16.241  1.3643  1.4738  0.1602
 5348SOL    HW227507   0.637   2.604  16.106  0.0603 -1.1701 -1.2433
 5349SOL     OW27508   3.658   3.546  10.222 -0.7671  0.3647  0.1139
 5349SOL    HW127509   3.705   3.629  10.227  1.7163 -1.1047  1.3554
 5349SOL    HW227510   3.574   3.582  10.194 -1.1873 -0.1955  0.6547
 5350SOL     OW27511   0.844   0.612  11.725  0.5431 -0.2016 -0.3963
 5350SOL    HW127512   0.768   0.667  11.705 -0.4048 -1.4438 -0.2314
 5350SOL    HW227513   0.882   0.604  11.637 -0.9195  0.2822 -1.0820
 5351SOL     OW27514   3.288   1.776   7.658  0.0715  0.2366  0.1029
 5351SOL    HW127515   3.207   1.793   7.705 -0.8831 -1.7888 -0.8453
 5351SOL    HW227516   3.269   1.686   7.632 -2.1281  0.2932  1.5572
 5352SOL     OW27517   3.890   1.608  12.360  0.0743  0.5977  0.0616
 5352SOL    HW127518   3.950   1.607  12.285  0.4826  0.5449  0.3865
 5352SOL    HW227519   3.842   1.529  12.339 -0.0582  0.2426  1.6907
 5353SOL     OW27520   0.573   3.400  15.890 -0.0775  0.1544  0.3579
 5353SOL    HW127521   0.625   3.326  15.859 -0.9931  0.0451 -0.9088
 5353SOL    HW227522   0.616   3.422  15.972  0.2912 -1.8144  0.6803
 5354SOL     OW27523   4.258   0.501   3.970 -0.3900 -0.2110 -0.2743
 5354SOL    HW127524   4.295   0.434   3.912 -0.3924 -0.4897  0.0440
 5354SOL    HW227525   4.331   0.521   4.028 -0.5302  0.1757 -0.2349
 5355SOL     OW27526   2.907   0.081   9.055  0.2693  0.8329  0.2514
 5355SOL    HW127527   2.925   4.715   9.018 -0.4646 -0.0580  1.9937
 5355SOL    HW227528   2.917   0.061   9.148 -0.7530 -2.6833 -0.3912
 5356SOL     OW27529   3.446   4.424   2.730 -0.6591  0.2063 -0.3153
 5356SOL    HW127530   3.503   4.468   2.793 -0.8938  0.4099 -0.2487
 5356SOL    HW227531   3.367   4.477   2.728 -0.4120  0.6448  1.2937
 5357SOL     OW27532   0.762   3.810   7.460 -0.5796 -0.2767  0.7628
 5357SOL    HW127533   0.751   3.901   7.487  3.4088  1.4487 -3.2642
 5357SOL    HW227534   0.822   3.775   7.526  0.3641 -1.1849 -0.5728
 5358SOL     OW27535   3.856   0.290   8.323  0.1180 -0.0997 -0.2905
 5358SOL    HW127536   3.904   0.214   8.354  0.0212 -0.8846 -2.0762
 5358SOL    HW227537   3.812   0.324   8.401  1.0297 -0.7757  0.5077
 5359SOL     OW27538   3.824   4.699  10.429  0.2727  0.2825 -0.1793
 5359SOL    HW127539   3.793   4.677  10.517 -0.2281 -2.6983 -1.0869
 5359SOL    HW227540   3.782   4.630  10.378 -0.5034 -0.9310  2.1145
 5360SOL     OW27541   3.742   2.419   5.003  0.9611  0.0716 -0.3101
 5360SOL    HW127542   3.766   2.511   5.010 -1.4851  0.5237  2.1342
 5360SOL    HW227543   3.776   2.391   5.088 -0.3754  0.6752  0.4256
 5361SOL     OW27544   1.459   2.011   7.023 -0.7335  0.0451 -0.4409
 5361SOL    HW127545   1.367   1.994   7.004 -0.9831  1.3067 -0.3601
 5361SOL    HW227546   1.492   2.054   6.943  1.8321  1.4242  1.3685
 5362SOL     OW27547   1.232   3.990   0.811 -0.0448  0.3064 -0.0337
 5362SOL    HW127548   1.244   4.056   0.879  1.8545 -0.7119  0.5968
 5362SOL    HW227549   1.273   4.033   0.736 -1.2553 -2.1420 -2.0992
 5363SOL     OW27550   4.043   1.088   4.379 -0.3703 -0.2593  0.1363
 5363SOL    HW127551   4.012   1.034   4.306  3.5388 -2.5886  0.1877
 5363SOL    HW227552   4.112   1.134   4.330 -0.1280 -0.5508  0.2041
 5364SOL     OW27553   0.466   3.004  16.216 -0.2080 -0.5775 -0.2524
 5364SOL    HW127554   0.443   3.093  16.190 -0.7105 -0.0354  2.1219
 5364SOL    HW227555   0.402   2.981  16.283  1.0497 -1.9399  0.5021
 5365SOL     OW27556   4.090   3.805   2.923 -0.7082  0.0413 -0.5251
 5365SOL    HW127557   4.127   3.880   2.877  2.0939 -0.8370  0.2748
 5365SOL    HW227558   4.105   3.835   3.013  0.6995  3.3003 -1.8618
 5366SOL     OW27559   3.981   1.986   7.650  0.8111  0.0330 -0.6717
 5366SOL    HW127560   4.040   2.003   7.724 -2.0470  0.0664  1.6161
 5366SOL    HW227561   4.008   1.896   7.632 -0.5727  0.0098 -2.6012
 5367SOL     OW27562   1.189   1.654  13.211  0.4361 -0.0902 -0.7267
 5367SOL    HW127563   1.146   1.584  13.260 -0.5435 -0.4579 -2.1221
 5367SOL    HW227564   1.282   1.650  13.233  0.6132 -0.9611 -1.6418
 5368SOL     OW27565   2.244   3.302   4.029 -0.0281  0.1363  0.4559
 5368SOL    HW127566   2.270   3.335   3.944 -1.0145  0.3651  0.2444
 5368SOL    HW227567   2.332   3.292   4.064 -0.1059  0.8925  0.8603
 5369SOL     OW27568   1.657   2.393   9.355 -0.3677  0.3227  0.2299
 5369SOL    HW127569   1.637   2.312   9.309 -0.6824  1.0805 -0.9739
 5369SOL    HW227570   1.752   2.404   9.344 -0.4439  0.1852 -0.5870
 5370SOL     OW27571   0.183   2.003   5.789 -0.0746 -0.6842  0.0942
 5370SOL    HW127572   0.217   2.061   5.857  2.0041  1.4433 -2.7438
 5370SOL    HW227573   0.091   2.001   5.816  0.5542 -0.8407  2.2035
 5371SOL     OW27574   3.469   4.492   5.209 -0.2154  0.5030 -0.0232
 5371SOL    HW127575   3.447   4.399   5.217 -1.9615  0.8369 -1.0137
 5371SOL    HW227576   3.385   4.537   5.205  0.3325  1.5893  0.7041
 5372SOL     OW27577   0.940   2.283  13.142 -0.6574 -0.2571  0.5188
 5372SOL    HW127578   0.945   2.197  13.102 -1.0534 -0.4361  0.8488
 5372SOL    HW227579   0.974   2.272  13.231 -0.0830 -3.9614 -0.1643
 5373SOL     OW27580   2.467   0.626   0.206  0.4973 -0.3665  0.2876
 5373SOL    HW127581   2.471   0.564   0.279  0.9808 -1.4963 -0.7068
 5373SOL    HW227582   2.385   0.671   0.227  1.4174  0.7640  1.5288
 5374SOL     OW27583   0.794   0.960  16.881  0.1662 -0.1760  0.1979
 5374SOL    HW127584   0.829   0.991  16.797  1.4213  0.2991  0.8788
 5374SOL    HW227585   0.723   1.024  16.886  0.9269  0.5989  1.2942
 5375SOL     OW27586   2.359   1.512   8.967  0.1223  0.2783  0.0745
 5375SOL    HW127587   2.322   1.560   8.893  2.2510  2.1511  0.2274
 5375SOL    HW227588   2.452   1.508   8.948 -0.0057 -0.0145 -0.4930
 5376SOL     OW27589   3.821   3.558  17.316 -0.9744 -0.4157  0.7306
 5376SOL    HW127590   3.730   3.580  17.335 -0.4085  1.9412  0.6376
 5376SOL    HW227591   3.824   3.468  17.350  0.3658 -0.0713  1.5084
 5377SOL     OW27592   4.098   0.710   3.327 -0.0938  0.5861 -0.0241
 5377SOL    HW127593   4.092   0.689   3.234  0.6114 -1.1139  0.3233
 5377SOL    HW227594   4.024   0.661   3.362 -0.7474  0.8427 -1.0298
 5378SOL     OW27595   3.894   4.341   8.794 -0.4445  0.4325 -0.4808
 5378SOL    HW127596   3.952   4.382   8.858 -1.7841 -1.7016  2.1154
 5378SOL    HW227597   3.839   4.287   8.851  0.6951 -2.0642 -1.7306
 5379SOL     OW27598   4.676   0.806   2.069 -0.0892  0.1987 -0.6962
 5379SOL    HW127599   0.009   0.832   2.144 -1.3947  0.4371  0.1553
 5379SOL    HW227600   0.034   0.787   2.019  1.2717  1.2193  1.0466
 5380SOL     OW27601   0.509   1.629   6.815 -0.3999 -0.5205  0.6110
 5380SOL    HW127602   0.596   1.645   6.779 -0.9294  0.7801 -0.0955
 5380SOL    HW227603   0.457   1.706   6.793  3.0139  1.1376 -1.6595
 5381SOL     OW27604   3.089   2.845   2.318 -0.1204  0.2622  0.1193
 5381SOL    HW127605   3.161   2.892   2.275  0.9145  0.7933  2.4469
 5381SOL    HW227606   3.141   2.781   2.367 -0.2414 -1.0933 -1.5075
 5382SOL     OW27607   1.521   2.457  12.116  0.3719  0.3831 -1.1231
 5382SOL    HW127608   1.478   2.525  12.064 -2.6274 -2.2387 -2.0657
 5382SOL    HW227609   1.605   2.492  12.147 -0.0571  0.8599 -0.5051
 5383SOL     OW27610   2.033   2.555   2.114 -0.0683 -0.2583 -0.2592
 5383SOL    HW127611   2.005   2.570   2.024  2.4884  1.6868 -0.7246
 5383SOL    HW227612   2.093   2.483   2.099 -0.0603 -0.4530  0.7181
 5384SOL     OW27613   0.774   0.043  13.896 -0.5821  0.5701  0.1621
 5384SOL    HW127614   0.866   0.021  13.910 -1.0467  0.1401  2.5442
 5384SOL    HW227615   0.772   0.064  13.802 -2.4042  1.9792  0.5066
 5385SOL     OW27616   0.595   0.299   8.507  0.3873 -0.0736 -0.7333
 5385SOL    HW127617   0.681   0.341   8.513  0.4916 -0.1683 -1.5957
 5385SOL    HW227618   0.555   0.356   8.442  3.4241 -0.8876 -3.2897
 5386SOL     OW27619   3.617   0.975   9.674 -0.1753 -0.5682  0.2512
 5386SOL    HW127620   3.692   1.034   9.663 -0.1013 -1.1201 -2.2689
 5386SOL    HW227621   3.647   0.895   9.717 -1.7546  0.1441  2.6955
 5387SOL     OW27622   4.058   2.827   7.892  0.3208  0.1450  0.2935
 5387SOL    HW127623   3.974   2.807   7.934  1.5840 -0.4598  2.5569
 5387SOL    HW227624   4.098   2.874   7.966  1.1603  0.3379 -0.2829
 5388SOL     OW27625   3.902   4.302   7.562  0.3098 -0.3597  1.3868
 5388SOL    HW127626   3.861   4.266   7.640 -2.5626 -1.7197 -0.7638
 5388SOL    HW227627   3.978   4.245   7.547  0.4735 -0.0670  1.0826
 5389SOL     OW27628   2.070   4.702   8.186 -0.3168  0.2332 -0.3687
 5389SOL    HW127629   2.095   0.070   8.159  2.5883 -0.8167 -1.1170
 5389SOL    HW227630   2.014   4.681   8.111  0.9437 -0.6760 -1.0500
 5390SOL     OW27631   4.357   2.668   8.501 -0.0423 -0.3522  0.0402
 5390SOL    HW127632   4.294   2.660   8.429  0.7319 -0.1020 -0.6689
 5390SOL    HW227633   4.358   2.763   8.505 -0.8207 -0.2955 -1.0267
 5391SOL     OW27634   3.509   0.640   1.719 -0.1017 -0.4791  0.2421
 5391SOL    HW127635   3.603   0.660   1.721 -0.4228  1.1370 -0.2673
 5391SOL    HW227636   3.510   0.561   1.666  1.5174  0.4573 -1.1324
 5392SOL     OW27637   2.695   3.192  15.102  0.0514 -0.5786  0.2692
 5392SOL    HW127638   2.723   3.283  15.102 -1.0240 -0.2419  1.9146
 5392SOL    HW227639   2.674   3.182  15.195  0.9558  1.1247  0.6472
 5393SOL     OW27640   3.851   4.398   4.780 -0.2853 -0.1728 -0.4250
 5393SOL    HW127641   3.924   4.340   4.800  0.1029  0.9100  1.2256
 5393SOL    HW227642   3.889   4.483   4.803 -0.8483 -0.1530  0.4316
 5394SOL     OW27643   3.165   4.553   5.603 -0.1558  0.4979 -0.0998
 5394SOL    HW127644   3.080   4.587   5.632  0.6909 -0.3321  3.3422
 5394SOL    HW227645   3.144   4.495   5.531  4.3725 -1.3060  0.0277
 5395SOL     OW27646   0.048   0.953   2.641  0.1154  0.7191 -0.1708
 5395SOL    HW127647   0.132   0.929   2.680 -0.2131  0.6556  0.4814
 5395SOL    HW227648   0.022   0.868   2.604 -0.3645  0.6823  0.2549
 5396SOL     OW27649   1.800   2.243   2.114  0.0350  0.1852  0.1425
 5396SOL    HW127650   1.825   2.331   2.087 -1.9804  0.8773  0.5420
 5396SOL    HW227651   1.887   2.223   2.147 -0.6023  0.0749  1.7819
 5397SOL     OW27652   3.212   3.007   2.802 -0.4983 -0.6090 -1.0485
 5397SOL    HW127653   3.190   3.091   2.761  1.1545  0.4969  0.3425
 5397SOL    HW227654   3.144   2.961   2.753 -1.9250  0.6639 -0.3026
 5398SOL     OW27655   4.240   4.071   4.460 -0.3071  0.6231  0.8211
 5398SOL    HW127656   4.298   4.142   4.434 -1.5590  0.5958 -2.1388
 5398SOL    HW227657   4.161   4.112   4.423 -0.2284 -0.4268 -0.5366
 5399SOL     OW27658   3.486   3.924  10.037 -0.3860 -0.2680  0.5164
 5399SOL    HW127659   3.476   3.843  10.087 -0.7365  0.2439  1.2714
 5399SOL    HW227660   3.514   3.886   9.954 -1.3363 -0.7050  0.3871
 5400SOL     OW27661   3.980   4.716   8.892  0.0203  0.0342 -0.6545
 5400SOL    HW127662   4.051   4.698   8.954  0.4530  0.4912 -1.0089
 5400SOL    HW227663   3.927   0.050   8.949 -0.8642 -2.7900  1.2132
 5401SOL     OW27664   1.387   4.169  17.519  0.0642 -0.6011  0.1011
 5401SOL    HW127665   1.338   4.251  17.523  1.7108  0.4098 -0.2501
 5401SOL    HW227666   1.322   4.099  17.520 -0.4460 -0.1264  1.2518
 5402SOL     OW27667   2.578   0.105  15.248  0.5361  0.2538 -0.3581
 5402SOL    HW127668   2.579   0.189  15.202 -1.7930  1.0766  1.0716
 5402SOL    HW227669   2.551   0.128  15.337  3.6098  0.6296  0.4716
 5403SOL     OW27670   3.105   2.135   5.879 -0.3085 -0.0012 -0.5157
 5403SOL    HW127671   3.023   2.145   5.928  0.2594  0.5190  0.3274
 5403SOL    HW227672   3.122   2.229   5.876 -0.4816  0.1359  2.9889
 5404SOL     OW27673   0.307   4.402   5.320 -0.1709  0.5373  0.2783
 5404SOL    HW127674   0.240   4.469   5.309 -1.4929 -0.8813 -0.2633
 5404SOL    HW227675   0.337   4.434   5.405  0.2586  1.9623 -0.4124
 5405SOL     OW27676   0.621   0.178  10.739 -0.3590 -0.4249 -0.8376
 5405SOL    HW127677   0.698   0.198  10.793 -0.6334 -0.7128 -0.3482
 5405SOL    HW227678   0.576   0.123  10.803 -1.1403  0.0565 -0.9720
 5406SOL     OW27679   0.168   3.589  16.593  0.0430 -0.5515 -0.0690
 5406SOL    HW127680   0.154   3.636  16.511 -2.1172 -1.1249 -0.0427
 5406SOL    HW227681   0.153   3.659  16.658 -1.6976  0.4693 -1.5846
 5407SOL     OW27682   3.396   4.606   8.301  0.6409 -0.1006 -0.7561
 5407SOL    HW127683   3.350   4.542   8.247  0.8137  0.4477 -1.5474
 5407SOL    HW227684   3.338   4.682   8.290  0.6391 -0.0793 -0.5966
 5408SOL     OW27685   2.034   2.122   3.103  0.3179  0.1558 -0.0300
 5408SOL    HW127686   2.042   2.091   3.194  2.8366  0.7594 -0.0283
 5408SOL    HW227687   2.013   2.213   3.125 -0.3803  0.4204 -1.8826
 5409SOL     OW27688   2.130   3.217   6.429  0.3937 -0.9358 -0.6669
 5409SOL    HW127689   2.218   3.180   6.441  0.8182  0.4141  0.4521
 5409SOL    HW227690   2.093   3.145   6.378 -0.1685 -0.3243 -1.1202
 5410SOL     OW27691   2.979   0.414  13.467 -0.8612 -0.1239  0.6919
 5410SOL    HW127692   2.934   0.477  13.410  1.9186  0.5380 -0.7601
 5410SOL    HW227693   2.952   0.435  13.556 -0.6912 -0.4292  0.8136
 5411SOL     OW27694   4.182   0.566   4.365 -0.0747  0.4344  0.4982
 5411SOL    HW127695   4.114   0.603   4.420 -0.2357  1.9641 -0.7331
 5411SOL    HW227696   4.161   0.473   4.378 -0.3220  0.0475 -2.6651
 5412SOL     OW27697   3.397   1.785  15.266 -0.2097 -0.1689 -0.0152
 5412SOL    HW127698   3.482   1.809  15.229 -0.2636  1.9174  1.2187
 5412SOL    HW227699   3.424   1.704  15.311 -0.1215  1.0479  2.1259
 5413SOL     OW27700   4.568   4.156   6.442 -0.0115  0.2589  0.1332
 5413SOL    HW127701   4.493   4.168   6.500  0.1747 -0.6001  0.5495
 5413SOL    HW227702   4.565   4.061   6.425  0.9797  0.0071  1.3846
 5414SOL     OW27703   0.898   1.856   6.449  0.7402  0.1012  0.2604
 5414SOL    HW127704   0.908   1.782   6.389  0.8604  0.5199 -0.2340
 5414SOL    HW227705   0.901   1.925   6.383  2.3051 -0.0954  0.1351
 5415SOL     OW27706   4.492   4.641   0.213 -0.3706 -0.5461  0.1714
 5415SOL    HW127707   4.489   4.662   0.306 -1.6298 -1.0752  0.2562
 5415SOL    HW227708   4.561   4.574   0.211 -2.4351 -2.5893 -2.4795
 5416SOL     OW27709   1.221   2.468  12.387 -0.4142 -0.0429  0.6455
 5416SOL    HW127710   1.190   2.488  12.476 -0.0608 -0.3245  0.8352
 5416SOL    HW227711   1.273   2.544  12.363  0.8164 -0.9617  0.4001
 5417SOL     OW27712   0.208   2.030   2.580 -0.3465  0.2167 -0.5158
 5417SOL    HW127713   0.162   2.114   2.575 -1.1718 -0.2650 -1.0601
 5417SOL    HW227714   0.217   2.010   2.673  0.6775  2.8483 -0.0442
 5418SOL     OW27715   4.290   3.579   4.618 -0.1954  0.0823 -0.3552
 5418SOL    HW127716   4.254   3.657   4.575  0.0746 -0.5093 -1.6489
 5418SOL    HW227717   4.364   3.617   4.664 -0.3072 -1.5165  1.1516
 5419SOL     OW27718   0.608   2.389   6.223 -0.7018 -0.1904 -0.1938
 5419SOL    HW127719   0.693   2.371   6.182 -0.6633  0.3902 -0.3633
 5419SOL    HW227720   0.543   2.349   6.166  1.4636 -1.3964 -1.8352
 5420SOL     OW27721   2.202   2.868  10.117  0.1167 -0.1840  0.0851
 5420SOL    HW127722   2.195   2.957  10.085 -1.2926 -0.8371 -1.3659
 5420SOL    HW227723   2.159   2.878  10.202 -0.0680 -0.2527 -0.0021
 5421SOL     OW27724   0.300   2.266   5.841  0.1631  0.3442 -0.4799
 5421SOL    HW127725   0.335   2.354   5.826  0.0279  0.7842  1.8368
 5421SOL    HW227726   0.208   2.285   5.823  0.0679 -2.6824 -3.2397
 5422SOL     OW27727   3.361   0.333  12.022  0.2283  0.1968  0.1208
 5422SOL    HW127728   3.373   0.280  12.100  1.0711 -1.1757 -0.9514
 5422SOL    HW227729   3.266   0.347  12.025  0.0692 -0.5612 -1.5272
 5423SOL     OW27730   0.915   3.411   8.866  0.0592 -0.1479  0.2737
 5423SOL    HW127731   0.864   3.334   8.894 -0.2729 -0.4262 -1.1187
 5423SOL    HW227732   1.003   3.386   8.892 -0.4197 -0.6272  1.4740
 5424SOL     OW27733   0.126   3.254   3.392 -0.3826  0.0231 -0.3466
 5424SOL    HW127734   0.076   3.179   3.427  0.5119 -0.9242 -1.1127
 5424SOL    HW227735   0.213   3.230   3.422 -1.0745 -1.2421  0.6956
 5425SOL     OW27736   0.890   4.311   3.410  0.0093  0.0620 -0.0668
 5425SOL    HW127737   0.814   4.255   3.392  1.0794 -1.3215 -0.2704
 5425SOL    HW227738   0.941   4.295   3.330 -1.2037  1.9769 -1.2125
 5426SOL     OW27739   3.820   3.023   0.405 -0.0592 -0.1330  0.1006
 5426SOL    HW127740   3.862   2.938   0.421 -1.8437 -0.7687  1.3367
 5426SOL    HW227741   3.899   3.077   0.404  0.0711 -0.3011  2.2007
 5427SOL     OW27742   4.311   0.836   2.208  0.2477 -0.5084 -0.3776
 5427SOL    HW127743   4.239   0.874   2.158 -0.9183 -1.1298  0.8055
 5427SOL    HW227744   4.364   0.912   2.230 -1.0709  0.1511  0.5785
 5428SOL     OW27745   1.436   3.813   5.714 -0.1746 -0.0218  0.3576
 5428SOL    HW127746   1.402   3.903   5.715  1.6694  0.6451  2.7330
 5428SOL    HW227747   1.362   3.772   5.669 -0.2208  0.7826 -0.3111
 5429SOL     OW27748   4.505   3.361   4.681 -0.3103  0.5003 -0.1476
 5429SOL    HW127749   4.453   3.282   4.696 -0.6875  0.6277 -0.7866
 5429SOL    HW227750   4.435   3.423   4.660 -0.6972  0.5576  1.2999
 5430SOL     OW27751   3.182   4.181   7.772 -0.0893 -0.2394  0.3714
 5430SOL    HW127752   3.125   4.106   7.787 -2.9409  2.0129  0.8675
 5430SOL    HW227753   3.222   4.158   7.688  0.3001 -4.2288  1.6580
 5431SOL     OW27754   0.473   4.457   5.565  0.3588 -0.6699  0.0921
 5431SOL    HW127755   0.448   4.406   5.642  2.5785  0.2970  1.4765
 5431SOL    HW227756   0.484   4.548   5.592  0.4154 -1.0898  1.4896
 5432SOL     OW27757   4.351   4.508   4.173  0.2171 -0.3146  0.0258
 5432SOL    HW127758   4.325   4.586   4.125 -0.0196 -1.0593 -1.0469
 5432SOL    HW227759   4.311   4.449   4.109  3.0046 -1.6747 -0.4739
 5433SOL     OW27760   3.269   3.742  10.331  0.2073 -0.0609 -1.0119
 5433SOL    HW127761   3.235   3.719  10.417  1.6704 -2.2873 -1.0145
 5433SOL    HW227762   3.211   3.813  10.304  0.3113  0.6922  0.7492
 5434SOL     OW27763   1.724   3.067   3.416  0.1503 -0.1239 -0.2651
 5434SOL    HW127764   1.645   3.039   3.463 -0.3931  0.2779 -0.9360
 5434SOL    HW227765   1.757   2.980   3.396  0.5563  0.1919 -0.9666
 5435SOL     OW27766   2.782   0.649   3.260  0.2995 -0.4748 -0.4494
 5435SOL    HW127767   2.783   0.708   3.185  0.5219 -0.4185 -0.4012
 5435SOL    HW227768   2.763   0.700   3.338 -1.6523 -0.0265 -1.2368
 5436SOL     OW27769   1.510   4.197  10.773  0.1891  0.0139 -0.5551
 5436SOL    HW127770   1.429   4.245  10.788 -1.5637 -2.6430 -1.5671
 5436SOL    HW227771   1.489   4.109  10.804  0.8968 -0.1352 -0.4845
 5437SOL     OW27772   1.188   2.177   8.395  0.2576  0.6517 -0.2047
 5437SOL    HW127773   1.123   2.244   8.417  0.9024  1.4805 -0.8526
 5437SOL    HW227774   1.272   2.205   8.431  0.4084 -0.1339  0.0707
 5438SOL     OW27775   3.313   3.981   1.753 -0.4231 -0.0257 -0.2990
 5438SOL    HW127776   3.253   3.967   1.680 -0.7250 -0.7634  0.0759
 5438SOL    HW227777   3.303   3.903   1.808  0.4492  0.2053  0.1872
 5439SOL     OW27778   1.165   1.178   2.359 -0.2803  0.2555 -0.0572
 5439SOL    HW127779   1.089   1.215   2.403  0.2773 -0.4836  1.5307
 5439SOL    HW227780   1.209   1.254   2.321  0.9141 -1.0854 -1.3708
 5440SOL     OW27781   2.990   3.558   0.801  0.0482 -0.1267 -0.1713
 5440SOL    HW127782   3.057   3.508   0.755  0.6234  0.4699  0.0165
 5440SOL    HW227783   3.014   3.560   0.894 -1.6517  0.3844  0.2552
 5441SOL     OW27784   0.172   3.803  16.778  0.0762 -0.1916 -0.3071
 5441SOL    HW127785   0.204   3.893  16.771 -1.7505  0.6122  1.6648
 5441SOL    HW227786   0.106   3.816  16.846 -0.1767 -0.1822 -0.5536
 5442SOL     OW27787   3.009   3.069   1.574 -0.2440 -0.2204 -0.5284
 5442SOL    HW127788   3.036   3.017   1.499  1.0152 -0.3467  0.0102
 5442SOL    HW227789   3.091   3.096   1.615 -1.3896 -0.6274  2.0438
 5443SOL     OW27790   3.072   4.097   0.848  0.2191 -0.4661  0.1213
 5443SOL    HW127791   3.028   4.181   0.830  0.5893 -0.7865 -2.2974
 5443SOL    HW227792   3.155   4.127   0.812 -0.0513  1.3945  1.0022
 5444SOL     OW27793   2.338   1.097  12.240 -1.1072  0.1262 -0.6573
 5444SOL    HW127794   2.430   1.087  12.264 -0.5986  3.3183 -1.2883
 5444SOL    HW227795   2.286   1.041  12.298 -0.5349  0.4004  0.1183
 5445SOL     OW27796   0.283   1.010   3.392  0.1155  0.5023 -0.2683
 5445SOL    HW127797   0.246   0.995   3.479  4.0757  0.5045  1.4682
 5445SOL    HW227798   0.372   0.976   3.408  0.2815  1.4980  0.9361
 5446SOL     OW27799   0.323   0.583  13.942  0.2815 -0.3600  0.5920
 5446SOL    HW127800   0.234   0.563  13.913  0.6388  2.4298 -2.4057
 5446SOL    HW227801   0.355   0.494  13.956  0.7457 -0.5327 -1.5528
 5447SOL     OW27802   1.766   0.879   3.555  0.2435  0.3218  0.1414
 5447SOL    HW127803   1.677   0.846   3.545  0.5837 -0.4258 -0.4217
 5447SOL    HW227804   1.798   0.799   3.597  4.6397  2.2983  0.5960
 5448SOL     OW27805   2.346   2.332  15.582  0.2095 -0.0593  0.3467
 5448SOL    HW127806   2.372   2.404  15.524  1.3896  0.8045  1.9442
 5448SOL    HW227807   2.325   2.385  15.658 -0.2801  1.1014 -0.5854
 5449SOL     OW27808   1.636   0.153  13.413 -0.1241 -0.2056 -0.1606
 5449SOL    HW127809   1.590   0.083  13.460  2.9582 -0.7471  2.0668
 5449SOL    HW227810   1.582   0.166  13.335 -1.2161 -0.0366  0.6201
 5450SOL     OW27811   3.589   1.594  15.344  0.4238  0.1121 -0.2937
 5450SOL    HW127812   3.648   1.653  15.297  0.5276 -0.0450 -0.3579
 5450SOL    HW227813   3.636   1.511  15.335 -0.8878 -0.6597  0.0121
 5451SOL     OW27814   3.197   0.665   3.227 -0.1874  0.1800 -0.1141
 5451SOL    HW127815   3.264   0.631   3.168  0.1107  0.7601 -0.1075
 5451SOL    HW227816   3.230   0.750   3.258 -0.5119 -0.1677  1.1984
 5452SOL     OW27817   4.001   2.807  16.076  0.5349  0.1062 -0.3904
 5452SOL    HW127818   3.971   2.896  16.057  2.2359  1.1047  1.5970
 5452SOL    HW227819   4.014   2.790  15.983  1.0819  0.0304 -0.2995
 5453SOL     OW27820   3.307   0.822   4.773  0.7280  0.8216 -0.4746
 5453SOL    HW127821   3.329   0.734   4.743 -1.1586 -0.0896  0.7753
 5453SOL    HW227822   3.357   0.812   4.854 -0.3126 -2.4579 -0.2428
 5454SOL     OW27823   2.547   0.659   7.518  0.2669 -0.2355  0.7378
 5454SOL    HW127824   2.453   0.673   7.530 -0.2140 -1.6479 -1.4224
 5454SOL    HW227825   2.563   0.603   7.594  0.1404 -2.4857 -0.9075
 5455SOL     OW27826   0.217   2.209  15.071 -0.1341  0.2284  0.4944
 5455SOL    HW127827   0.299   2.183  15.030  0.8319  3.0197  0.6468
 5455SOL    HW227828   0.162   2.178  14.999  1.5074 -1.3972 -0.0592
 5456SOL     OW27829   2.176   2.890   2.857 -0.5709 -0.0414  0.2020
 5456SOL    HW127830   2.246   2.825   2.861 -0.4368  0.0677 -0.4823
 5456SOL    HW227831   2.171   2.917   2.765 -1.7463 -0.8623  0.0194
 5457SOL     OW27832   0.330   1.994   2.337 -0.1838 -0.8282 -0.2167
 5457SOL    HW127833   0.268   2.000   2.409  0.4961  1.7232  0.1586
 5457SOL    HW227834   0.415   1.981   2.380  1.4771  2.3589 -2.5022
 5458SOL     OW27835   4.070   0.830   6.241  0.4114 -0.4508 -0.6728
 5458SOL    HW127836   4.027   0.768   6.182 -1.5777 -0.2205  0.5482
 5458SOL    HW227837   4.012   0.827   6.317 -0.4476  0.3204 -1.3046
 5459SOL     OW27838   1.776   0.276  16.847 -0.0952  0.6509 -0.5927
 5459SOL    HW127839   1.758   0.241  16.760 -0.8175  1.7050 -0.8704
 5459SOL    HW227840   1.871   0.283  16.861  0.0353 -2.3288 -0.0539
 5460SOL     OW27841   3.706   1.456   8.085  0.0964  0.0045 -0.1400
 5460SOL    HW127842   3.611   1.444   8.078  0.3570 -2.2829  0.1998
 5460SOL    HW227843   3.716   1.550   8.070  0.6063 -0.8116 -4.9137
 5461SOL     OW27844   0.169   2.352   4.546 -0.0870 -0.2483  0.2261
 5461SOL    HW127845   0.237   2.393   4.600  1.6855  0.9363 -2.9168
 5461SOL    HW227846   0.124   2.433   4.522 -2.7651 -1.3940  1.3563
 5462SOL     OW27847   2.166   2.361   6.820 -0.6825  0.2193 -0.6720
 5462SOL    HW127848   2.093   2.370   6.760 -1.4894 -0.8410  0.1507
 5462SOL    HW227849   2.126   2.303   6.885  0.6069  0.4969  0.3845
 5463SOL     OW27850   3.901   4.029  10.337  0.4188  0.4072 -0.4888
 5463SOL    HW127851   3.996   4.031  10.352  0.6166  0.1194 -1.6868
 5463SOL    HW227852   3.885   3.936  10.356 -1.0436  1.4766  3.5004
 5464SOL     OW27853   2.842   2.061  14.775 -0.3137 -0.1484  0.2404
 5464SOL    HW127854   2.757   2.028  14.745  0.6309 -1.5649 -0.8955
 5464SOL    HW227855   2.819   2.146  14.813 -0.3700 -0.4780  0.9404
 5465SOL     OW27856   3.192   3.653   4.655 -0.1217 -0.5158  0.0034
 5465SOL    HW127857   3.102   3.684   4.651 -0.0460 -0.5719 -1.8199
 5465SOL    HW227858   3.184   3.588   4.586 -0.5307  0.3041 -0.7121
 5466SOL     OW27859   0.586   2.091   7.875 -0.1309 -0.3945 -0.4634
 5466SOL    HW127860   0.653   2.088   7.942 -0.3479 -1.0492 -0.2788
 5466SOL    HW227861   0.593   2.180   7.840 -2.5556  0.4720  1.2466
 5467SOL     OW27862   2.908   3.174  12.737  0.1544  0.1899 -0.2748
 5467SOL    HW127863   2.911   3.269  12.728  2.4672  0.0937 -0.4157
 5467SOL    HW227864   2.869   3.160  12.651  2.0920 -3.3292 -0.5770
 5468SOL     OW27865   3.525   1.565   3.193 -0.1449 -0.3139  0.5520
 5468SOL    HW127866   3.453   1.572   3.255 -0.9224  2.5098 -0.6766
 5468SOL    HW227867   3.503   1.489   3.138 -0.9361  0.0074  0.4227
 5469SOL     OW27868   3.853   2.959   2.011 -0.4475 -0.1357 -0.0965
 5469SOL    HW127869   3.826   2.883   1.961 -1.3421  0.3819 -0.3910
 5469SOL    HW227870   3.929   2.988   1.960 -0.3849  0.2958  0.2380
 5470SOL     OW27871   0.640   3.781  13.205  0.3105  0.6828  0.5341
 5470SOL    HW127872   0.726   3.794  13.164  1.4542 -1.5625  2.2030
 5470SOL    HW227873   0.626   3.687  13.193  0.1842  0.7509  0.1280
 5471SOL     OW27874   1.237   1.852   7.085 -0.0619 -0.2774 -0.3924
 5471SOL    HW127875   1.170   1.784   7.096  0.1459 -0.5585 -0.8550
 5471SOL    HW227876   1.193   1.925   7.127  1.3907  2.0093 -2.8296
 5472SOL     OW27877   1.750   4.152   1.333 -0.1082 -0.3071 -0.5781
 5472SOL    HW127878   1.812   4.087   1.367 -0.2522 -0.8446 -1.3425
 5472SOL    HW227879   1.691   4.159   1.408 -2.1370 -0.0570 -2.2173
 5473SOL     OW27880   3.480   4.511   8.736 -0.1199 -0.0777  0.0231
 5473SOL    HW127881   3.570   4.530   8.710  0.2163  0.4093  1.5906
 5473SOL    HW227882   3.443   4.599   8.731  1.7256  0.7298  0.5239
 5474SOL     OW27883   0.282   1.591  11.775  0.0825 -0.0251 -0.7206
 5474SOL    HW127884   0.277   1.675  11.728  0.4192  1.7210  2.3997
 5474SOL    HW227885   0.349   1.602  11.842  1.8062 -2.7675 -2.0200
 5475SOL     OW27886   2.292   4.675   6.333  0.1419  0.2731  0.1554
 5475SOL    HW127887   2.293   4.612   6.405  1.5170  0.3479  0.2078
 5475SOL    HW227888   2.243   4.621   6.271  1.1506 -1.0903  0.5177
 5476SOL     OW27889   3.846   3.425  13.715  0.6589 -0.4247  0.1391
 5476SOL    HW127890   3.860   3.385  13.800  0.5066 -0.8411 -0.0317
 5476SOL    HW227891   3.809   3.512  13.727 -2.5690 -1.8350  0.3201
 5477SOL     OW27892   0.747   0.116   7.313 -0.0942 -0.4968  0.0118
 5477SOL    HW127893   0.764   0.027   7.282  0.3260 -0.8710  1.3222
 5477SOL    HW227894   0.713   0.096   7.400  1.6339 -0.6628  0.6491
 5478SOL     OW27895   0.686   1.718   2.003 -0.2452 -0.2199  0.2827
 5478SOL    HW127896   0.741   1.665   1.945 -1.0165 -0.4061 -0.2794
 5478SOL    HW227897   0.704   1.675   2.086 -0.5896 -0.4761  0.2205
 5479SOL     OW27898   0.283   1.058   8.186 -0.3333 -0.0044 -0.0204
 5479SOL    HW127899   0.201   1.015   8.212 -0.9949  0.8752 -0.6246
 5479SOL    HW227900   0.267   1.090   8.097 -2.3142 -1.8777 -0.3381
 5480SOL     OW27901   2.973   4.072   4.483  0.0829 -0.3816  0.8670
 5480SOL    HW127902   2.908   4.142   4.474  1.6312  0.7469 -1.3420
 5480SOL    HW227903   2.983   4.063   4.578 -0.4168 -0.4688  0.9122
 5481SOL     OW27904   1.196   3.203  10.979 -0.1604 -0.3915 -0.2513
 5481SOL    HW127905   1.245   3.264  10.923  1.2045  0.0096  1.4006
 5481SOL    HW227906   1.105   3.232  10.985 -0.3622 -0.6731 -2.0155
 5482SOL     OW27907   1.231   1.201   5.856 -0.0899  0.0824  0.0800
 5482SOL    HW127908   1.247   1.293   5.875 -1.9292  0.1917  1.1573
 5482SOL    HW227909   1.136   1.200   5.866 -0.1266 -0.0089 -0.2983
 5483SOL     OW27910   0.931   3.798   8.885 -0.3479  0.4271  0.6502
 5483SOL    HW127911   0.876   3.863   8.842 -0.0644 -0.3524 -0.8926
 5483SOL    HW227912   0.892   3.718   8.849 -0.4291 -0.3022  2.3503
 5484SOL     OW27913   4.183   2.156   4.075 -0.3609  0.1944 -0.1455
 5484SOL    HW127914   4.178   2.158   4.170  1.2693 -1.1128 -0.0275
 5484SOL    HW227915   4.179   2.251   4.063 -1.2038 -0.1548 -2.7304
 5485SOL     OW27916   3.313   0.411   6.803  0.4485  0.0200  0.0444
 5485SOL    HW127917   3.333   0.504   6.791 -0.3621  0.4921  2.2869
 5485SOL    HW227918   3.374   0.389   6.874 -0.3223 -0.8579  0.4453
 5486SOL     OW27919   2.527   1.029   7.900  0.2799  0.2515 -0.2322
 5486SOL    HW127920   2.459   0.970   7.865 -0.6886  1.3394 -0.1936
 5486SOL    HW227921   2.537   0.991   7.988 -1.4921  0.6281  0.1380
 5487SOL     OW27922   0.573   1.504  11.959 -0.0307 -0.4665 -0.0119
 5487SOL    HW127923   0.603   1.466  11.877 -1.5507 -0.2416 -0.6691
 5487SOL    HW227924   0.547   1.593  11.936  0.8013 -0.3380 -0.4275
 5488SOL     OW27925   2.931   3.749   4.645 -0.0769 -0.0154  0.2878
 5488SOL    HW127926   2.893   3.796   4.720 -1.6666 -0.5966 -0.1709
 5488SOL    HW227927   2.856   3.695   4.621 -0.1219 -0.3442  1.1721
 5489SOL     OW27928   0.014   3.104  12.453 -0.0095 -0.2942  0.4784
 5489SOL    HW127929   0.017   3.022  12.503  0.2761 -1.1950 -1.0332
 5489SOL    HW227930   0.100   3.099  12.412  0.0711  0.6246  0.5208
 5490SOL     OW27931   3.739   2.751   0.237 -0.4203  0.0033  0.1820
 5490SOL    HW127932   3.678   2.719   0.304 -0.4792  0.1476  0.1960
 5490SOL    HW227933   3.814   2.769   0.295 -0.1876 -0.1347 -0.0743
 5491SOL     OW27934   4.545   2.039   9.516 -0.2098 -0.8476  0.3594
 5491SOL    HW127935   4.456   2.004   9.518 -0.4335 -0.3652 -1.0090
 5491SOL    HW227936   4.591   2.015   9.436 -1.4808 -1.7701 -0.0811
 5492SOL     OW27937   1.151   4.151  15.996  0.1606  0.4271  0.6128
 5492SOL    HW127938   1.083   4.094  15.961  1.6951 -0.5364 -0.8537
 5492SOL    HW227939   1.168   4.202  15.916 -1.8573  0.3246  0.1225
 5493SOL     OW27940   1.087   2.332   8.087  0.3993 -0.1141  0.4544
 5493SOL    HW127941   1.109   2.371   8.003 -1.9349 -0.1658 -0.1885
 5493SOL    HW227942   1.155   2.367   8.145  1.1994  0.6154 -0.9326
 5494SOL     OW27943   2.153   4.705  13.015 -0.1327  0.4254  0.0309
 5494SOL    HW127944   2.169   4.614  13.039  1.2814  0.5593 -0.4561
 5494SOL    HW227945   2.062   4.702  13.046  0.2204 -1.2488  0.9053
 5495SOL     OW27946   0.158   3.856   4.964  0.0111  0.5615 -0.6646
 5495SOL    HW127947   0.146   3.765   4.990  0.1061  1.1333  1.3932
 5495SOL    HW227948   0.066   3.884   4.967 -0.6993 -1.7666 -1.1908
 5496SOL     OW27949   3.994   1.713   7.585  0.2852 -0.7779  0.0915
 5496SOL    HW127950   4.008   1.618   7.581  1.2138 -0.7454  2.9223
 5496SOL    HW227951   4.085   1.741   7.589 -0.0912  0.5611 -0.7373
 5497SOL     OW27952   2.368   2.428   4.556 -0.0538 -0.2562  0.4702
 5497SOL    HW127953   2.312   2.438   4.479  0.4669 -2.0687 -0.1497
 5497SOL    HW227954   2.312   2.405   4.631  0.1952  0.2169  0.8022
 5498SOL     OW27955   2.892   2.173   3.083 -0.2740  0.2285 -0.2936
 5498SOL    HW127956   2.934   2.254   3.054  1.1579 -1.7387 -3.6666
 5498SOL    HW227957   2.834   2.193   3.156  1.3695  0.1628  1.0451
 5499SOL     OW27958   0.859   1.410   3.594 -0.2516 -0.4799 -0.2352
 5499SOL    HW127959   0.894   1.331   3.636  2.4122  1.4088  1.0528
 5499SOL    HW227960   0.765   1.394   3.604 -0.6679  1.1163 -1.5903
 5500SOL     OW27961   1.236   2.165   0.263  0.5241 -0.2457  0.2272
 5500SOL    HW127962   1.259   2.082   0.221  2.5948  0.3320  0.1924
 5500SOL    HW227963   1.278   2.150   0.348  0.6945  0.8732  0.3435
 5501SOL     OW27964   2.041   1.680   9.963 -0.0553  0.0212  0.3866
 5501SOL    HW127965   2.040   1.776   9.968 -1.6508  0.0002  0.4535
 5501SOL    HW227966   2.023   1.655  10.053  0.1316  0.3825  0.5242
 5502SOL     OW27967   2.676   0.574   7.756 -0.7851  0.1013  0.4442
 5502SOL    HW127968   2.740   0.643   7.774  1.2472 -1.4689 -0.6463
 5502SOL    HW227969   2.589   0.607   7.776 -2.1128 -1.9960 -1.8536
 5503SOL     OW27970   4.130   3.629   5.624 -0.0426 -0.0518 -0.3767
 5503SOL    HW127971   4.092   3.616   5.711 -1.4396 -1.2281 -1.1652
 5503SOL    HW227972   4.085   3.701   5.580 -1.3913 -1.7871 -1.8101
 5504SOL     OW27973   3.133   0.853   1.939  0.3726  0.3187  0.4818
 5504SOL    HW127974   3.174   0.911   1.875  0.6804 -1.9881 -1.3876
 5504SOL    HW227975   3.158   0.767   1.905  4.0270  2.2991 -1.7964
 5505SOL     OW27976   1.903   2.387   4.346  0.1688  0.2071  0.0888
 5505SOL    HW127977   1.916   2.440   4.267 -0.6244  1.4950  0.8237
 5505SOL    HW227978   1.872   2.306   4.305 -0.0757  0.7543 -0.8146
 5506SOL     OW27979   0.531   1.221  10.050 -0.9739 -0.3832  0.4822
 5506SOL    HW127980   0.545   1.279   9.975  1.3094 -0.3144  0.9605
 5506SOL    HW227981   0.446   1.191  10.018 -1.9185  1.6408  1.1114
 5507SOL     OW27982   3.719   0.431  16.714 -0.6810  0.3717 -0.3238
 5507SOL    HW127983   3.786   0.440  16.645 -0.0328  1.0661  0.3906
 5507SOL    HW227984   3.758   0.472  16.791  0.9819  0.9191 -1.4475
 5508SOL     OW27985   3.048   3.425   9.190  0.3807 -0.4061 -0.0238
 5508SOL    HW127986   3.056   3.427   9.285  0.7093 -1.0071 -0.0378
 5508SOL    HW227987   3.039   3.330   9.186 -0.0341 -0.3907  0.6341
 5509SOL     OW27988   0.936   2.623   1.990 -0.0965 -0.0838 -0.1457
 5509SOL    HW127989   0.946   2.534   2.024 -0.4906  0.0643  0.3555
 5509SOL    HW227990   0.863   2.663   2.038  1.3198 -0.1400  2.0224
 5510SOL     OW27991   4.667   3.007   3.352  0.3200  0.3388 -0.7019
 5510SOL    HW127992   4.580   3.012   3.390  0.1991 -0.6370 -0.8608
 5510SOL    HW227993   4.663   2.916   3.326  0.4164  0.3831 -0.8711
 5511SOL     OW27994   4.622   4.690  12.550 -0.7948 -0.1351 -0.1850
 5511SOL    HW127995   4.655   0.025  12.620  0.7081 -1.3640  0.0928
 5511SOL    HW227996   4.527   4.697  12.558 -0.8776 -2.6628  1.0070
 5512SOL     OW27997   3.758   3.990   7.751  0.7634 -0.4360 -0.1586
 5512SOL    HW127998   3.773   4.084   7.760  0.5170 -0.4040 -0.0737
 5512SOL    HW227999   3.664   3.981   7.734  1.0474  0.1975 -1.9776
 5513SOL     OW28000   1.924   3.982   1.477 -0.0600 -0.6084 -0.3943
 5513SOL    HW128001   1.926   3.909   1.540 -2.6720  0.1967  0.6226
 5513SOL    HW228002   1.942   4.059   1.531  0.8016 -1.3965  0.4497
 5514SOL     OW28003   3.922   2.713   6.713 -0.2709 -0.2156  0.5765
 5514SOL    HW128004   3.908   2.619   6.701 -0.4187 -0.1816  0.4770
 5514SOL    HW228005   3.843   2.747   6.671 -1.2051 -1.4042  1.4032
 5515SOL     OW28006   0.994   2.088  12.956  0.4207  0.8149  0.2713
 5515SOL    HW128007   0.936   2.034  12.903  2.7887 -1.9461  0.4920
 5515SOL    HW228008   1.071   2.032  12.950  0.0382  0.0022  2.8430
 5516SOL     OW28009   3.068   4.124   8.073 -0.3491 -0.0326 -0.2473
 5516SOL    HW128010   3.103   4.035   8.080  0.6956  0.2701 -1.7245
 5516SOL    HW228011   3.030   4.133   8.161  1.7897 -0.5900  0.7312
 5517SOL     OW28012   0.926   3.735  17.624  0.5312 -0.5736  0.4157
 5517SOL    HW128013   0.993   3.678  17.586  3.8145  1.7736  2.6644
 5517SOL    HW228014   0.850   3.711  17.571 -0.7581  0.4374  1.8033
 5518SOL     OW28015   2.146   1.623   3.953  0.1290  0.5102  0.5352
 5518SOL    HW128016   2.229   1.669   3.961 -0.5501  2.0274 -1.2416
 5518SOL    HW228017   2.174   1.531   3.958  0.8198  0.6393 -0.9556
 5519SOL     OW28018   3.170   4.547   3.202 -0.2561 -0.1203  0.6209
 5519SOL    HW128019   3.162   4.564   3.296  2.4714 -1.7538  1.1249
 5519SOL    HW228020   3.184   4.452   3.201  2.3524  0.3118 -2.1258
 5520SOL     OW28021   0.119   4.208   7.437  0.2296 -0.3115  0.7421
 5520SOL    HW128022   0.179   4.212   7.511  0.2535 -1.8543  0.8035
 5520SOL    HW228023   0.178   4.221   7.363 -1.2146 -1.3904 -0.6189
 5521SOL     OW28024   0.795   2.134   0.927  0.6940 -0.2637 -0.0230
 5521SOL    HW128025   0.722   2.149   0.867  0.3316  0.4126  0.5874
 5521SOL    HW228026   0.797   2.041   0.907 -0.3681 -0.1759 -0.5393
 5522SOL     OW28027   0.588   1.102  10.527  0.0373  0.3173 -0.1825
 5522SOL    HW128028   0.635   1.119  10.609  0.7996 -1.2567 -0.2895
 5522SOL    HW228029   0.507   1.151  10.540  0.5844  0.7122  1.6196
 5523SOL     OW28030   0.569   3.125   0.472  0.1271  0.0524  0.5383
 5523SOL    HW128031   0.536   3.214   0.465  1.9500  0.7067  0.2497
 5523SOL    HW228032   0.642   3.121   0.410  0.5666 -2.9998  1.2434
 5524SOL     OW28033   0.704   0.716   3.837 -0.2648  0.1079 -0.3624
 5524SOL    HW128034   0.754   0.797   3.829  3.2849 -2.0883 -0.1595
 5524SOL    HW228035   0.684   0.720   3.931 -0.0390  0.9414 -0.3469
 5525SOL     OW28036   1.961   2.798   6.424  0.3017 -0.2369  0.1159
 5525SOL    HW128037   2.026   2.731   6.441 -0.0845 -0.3628  1.0957
 5525SOL    HW228038   1.908   2.797   6.503 -0.9971  1.2409 -0.7217
 5526SOL     OW28039   3.776   0.305   3.408 -0.2035  0.3380  0.2972
 5526SOL    HW128040   3.770   0.274   3.318  0.1233 -1.6737  0.9557
 5526SOL    HW228041   3.727   0.238   3.458 -0.9668  0.5443 -0.1733
 5527SOL     OW28042   3.958   2.676  13.526 -0.1643  0.6936 -0.4619
 5527SOL    HW128043   3.999   2.597  13.562  0.0553  0.9337 -0.1941
 5527SOL    HW228044   4.017   2.748  13.549  2.1824 -1.8957  1.6539
 5528SOL     OW28045   4.587   0.897   8.055 -0.5188  0.2561  0.0672
 5528SOL    HW128046   4.532   0.969   8.087 -0.6193  0.1223  0.1944
 5528SOL    HW228047   4.612   0.925   7.967 -0.6360  1.7901  0.5243
 5529SOL     OW28048   3.611   4.509   4.394  0.0707 -0.4621  0.2539
 5529SOL    HW128049   3.650   4.577   4.338 -1.3493 -0.3775 -0.6314
 5529SOL    HW228050   3.516   4.525   4.393 -0.2260 -2.2016  1.1731
 5530SOL     OW28051   3.716   1.405   0.814  0.2067 -0.0098 -0.3606
 5530SOL    HW128052   3.748   1.320   0.844 -0.3170 -1.1570 -3.0089
 5530SOL    HW228053   3.767   1.464   0.869  0.2483  1.7034 -2.2304
 5531SOL     OW28054   0.115   2.869   8.144 -0.0938  0.0563 -0.1707
 5531SOL    HW128055   0.121   2.956   8.105  2.1763 -1.3429 -2.9329
 5531SOL    HW228056   0.021   2.869   8.162  0.1545  0.7694  1.1432
 5532SOL     OW28057   4.332   0.420  11.283  0.2052  0.0138  0.3064
 5532SOL    HW128058   4.251   0.385  11.244  0.9165  1.7979 -2.7400
 5532SOL    HW228059   4.391   0.350  11.255 -1.4479 -1.4618  0.4635
 5533SOL     OW28060   2.157   2.495   3.845  0.0061  0.0800  0.1764
 5533SOL    HW128061   2.099   2.569   3.867  0.4064 -0.0292  1.6362
 5533SOL    HW228062   2.223   2.537   3.791  1.6061 -0.2119  1.9284
 5534SOL     OW28063   0.408   1.090   7.783  0.3486  0.2441 -0.2090
 5534SOL    HW128064   0.344   1.126   7.845 -1.3144 -0.6073 -1.4411
 5534SOL    HW228065   0.460   1.169   7.764  0.9726  0.0591  0.7475
 5535SOL     OW28066   3.881   2.872   2.856  0.2433  0.4295  0.0136
 5535SOL    HW128067   3.928   2.916   2.927  1.1708 -1.4486  0.5570
 5535SOL    HW228068   3.913   2.782   2.868 -0.1667  0.1082 -1.2754
 5536SOL     OW28069   3.378   4.102   5.655  0.5293 -0.0601  0.3813
 5536SOL    HW128070   3.362   4.191   5.624 -0.8916 -1.1481 -2.0379
 5536SOL    HW228071   3.319   4.050   5.600  4.1052  0.2405 -3.6807
 5537SOL     OW28072   0.256   2.960   4.874 -0.2156 -0.3962  0.0624
 5537SOL    HW128073   0.321   2.889   4.872  1.2533  1.0150 -2.5973
 5537SOL    HW228074   0.220   2.947   4.962  0.0038  0.0125  0.2097
 5538SOL     OW28075   0.869   0.714   0.884  0.4660 -0.0666 -0.3826
 5538SOL    HW128076   0.788   0.759   0.909  2.0503  1.9447  1.1675
 5538SOL    HW228077   0.886   0.649   0.951 -0.7610 -1.1102 -1.0918
 5539SOL     OW28078   4.396   0.280   5.406  0.0419 -0.2009  0.4489
 5539SOL    HW128079   4.424   0.285   5.498 -1.4554 -0.4491  0.9055
 5539SOL    HW228080   4.306   0.250   5.408 -0.4070  0.8837 -3.5044
 5540SOL     OW28081   1.388   1.439   2.802 -0.0816 -0.0847 -0.1685
 5540SOL    HW128082   1.341   1.369   2.756 -0.8426  2.6369 -3.4596
 5540SOL    HW228083   1.345   1.517   2.767  0.8214  0.2670 -0.4919
 5541SOL     OW28084   4.412   3.982  14.965  0.0605 -0.2855 -0.7012
 5541SOL    HW128085   4.351   3.985  15.038 -1.4635  2.0844 -2.0885
 5541SOL    HW228086   4.380   4.057  14.914 -0.4892 -1.3903 -1.9766
 5542SOL     OW28087   0.342   0.749   0.962  0.2782 -0.3093 -0.0083
 5542SOL    HW128088   0.350   0.702   1.045 -1.0406  0.6294  0.6324
 5542SOL    HW228089   0.313   0.836   0.987  0.1947 -0.2473 -0.3184
 5543SOL     OW28090   3.534   2.066   3.336  0.1179  0.1600  0.4403
 5543SOL    HW128091   3.563   1.983   3.375  1.4899  0.4577  0.0504
 5543SOL    HW228092   3.564   2.059   3.246  0.1873  0.5538  0.4339
 5544SOL     OW28093   2.544   2.841   6.485  0.6134 -0.4901  0.2475
 5544SOL    HW128094   2.533   2.786   6.407 -2.1385  3.3519 -2.0805
 5544SOL    HW228095   2.472   2.808   6.539  0.7699 -0.9731  0.1669
 5545SOL     OW28096   2.062   3.551  17.517  0.0063 -0.4813 -0.0278
 5545SOL    HW128097   2.089   3.465  17.549  0.7843 -0.4947 -0.7523
 5545SOL    HW228098   2.145   3.594  17.499  0.2303 -0.4188  1.1886
 5546SOL     OW28099   0.048   4.129   3.564 -0.1743  0.1223  0.3601
 5546SOL    HW128100   0.039   4.223   3.553  0.1115 -0.2044 -2.8330
 5546SOL    HW228101   4.697   4.089   3.515  0.0569  0.5283 -0.3090
 5547SOL     OW28102   1.027   2.294   6.633 -0.7190  0.6088  0.1596
 5547SOL    HW128103   1.011   2.379   6.674  1.1158  1.2456 -0.4601
 5547SOL    HW228104   0.971   2.297   6.555  0.0054 -3.2171 -0.5263
 5548SOL     OW28105   1.608   2.147   9.254 -0.1452  0.5057 -0.5102
 5548SOL    HW128106   1.568   2.085   9.192  1.0485  0.2964 -1.0678
 5548SOL    HW228107   1.600   2.107   9.341  2.2915  2.1105  0.4315
 5549SOL     OW28108   3.567   1.059  16.913  0.0150 -1.0147 -0.4293
 5549SOL    HW128109   3.607   0.972  16.921  1.5924 -0.1174  1.3909
 5549SOL    HW228110   3.597   1.096  16.996 -2.2040  0.3810 -0.2471
 5550SOL     OW28111   3.885   0.098   7.001 -1.0642  0.1408  0.0293
 5550SOL    HW128112   3.863   0.074   6.911 -0.0409 -0.7156  0.0050
 5550SOL    HW228113   3.919   0.013   7.029  0.6188  0.7645 -0.1031
 5551SOL     OW28114   3.151   3.729   9.394 -0.7411 -0.0547  0.1703
 5551SOL    HW128115   3.172   3.817   9.426  2.1139 -0.3079 -1.0326
 5551SOL    HW228116   3.226   3.706   9.339 -0.4144  1.1338  0.1194
 5552SOL     OW28117   2.481   2.221   9.461  0.2067 -0.8114 -0.6022
 5552SOL    HW128118   2.461   2.171   9.382 -0.1896  1.3934 -1.9022
 5552SOL    HW228119   2.396   2.220   9.504  0.8621 -1.2369  0.6824
 5553SOL     OW28120   0.268   0.870   9.448  0.2824  0.1269 -0.1988
 5553SOL    HW128121   0.233   0.832   9.367  1.6817 -0.5302 -0.5003
 5553SOL    HW228122   0.334   0.807   9.477  0.6232  0.2260 -0.7605
 5554SOL     OW28123   3.971   4.417   7.840 -0.0468  0.3616 -0.4796
 5554SOL    HW128124   3.985   4.493   7.783 -0.0070  1.3163  0.8130
 5554SOL    HW228125   4.046   4.420   7.899  1.5251 -1.8535 -2.3282
 5555SOL     OW28126   2.440   2.244  17.400  0.0126 -0.2283  0.3817
 5555SOL    HW128127   2.350   2.233  17.368  0.5373 -1.3765 -0.7098
 5555SOL    HW228128   2.476   2.290  17.324 -1.6821  1.1662  0.4134
 5556SOL     OW28129   0.938   3.592   9.736  0.5342  0.0885 -0.0108
 5556SOL    HW128130   0.885   3.638   9.670 -0.8093 -0.7636  0.4722
 5556SOL    HW228131   1.024   3.621   9.707  1.1793 -0.6174  1.2287
 5557SOL     OW28132   0.470   2.181   7.168 -0.0677 -0.6393  0.4908
 5557SOL    HW128133   0.382   2.218   7.158  0.5586  0.1984 -1.9781
 5557SOL    HW228134   0.521   2.261   7.179 -2.3496  0.9109 -0.0898
 5558SOL     OW28135   0.066   2.688   2.266 -0.3926 -0.4216 -0.0162
 5558SOL    HW128136   0.001   2.688   2.196 -0.7406 -1.0598  0.3054
 5558SOL    HW228137   0.040   2.765   2.317 -0.3223 -1.6661  1.8899
 5559SOL     OW28138   1.382   2.217   9.631 -0.1437 -0.2616  0.0056
 5559SOL    HW128139   1.397   2.311   9.642  1.1193 -0.4167 -0.3908
 5559SOL    HW228140   1.315   2.225   9.564  1.7273 -0.8116 -1.9279
 5560SOL     OW28141   0.869   1.820   5.730  0.6989 -0.0226  0.3089
 5560SOL    HW128142   0.843   1.911   5.745 -1.0808 -0.6553  1.1348
 5560SOL    HW228143   0.794   1.776   5.771  0.2537 -0.7899 -1.3584
 5561SOL     OW28144   1.469   0.489   5.251  0.2494 -0.1723 -0.4635
 5561SOL    HW128145   1.390   0.484   5.304 -0.1016  0.2343 -0.9473
 5561SOL    HW228146   1.440   0.503   5.161  0.3381  0.3574 -0.4108
 5562SOL     OW28147   1.648   2.998   5.851  0.5280  0.1811  0.0581
 5562SOL    HW128148   1.690   2.942   5.786  0.0525  0.7584 -0.7467
 5562SOL    HW228149   1.556   2.997   5.824  0.6872 -2.0730 -0.3731
 5563SOL     OW28150   3.498   1.637   8.791  0.0253  0.2192 -0.2994
 5563SOL    HW128151   3.408   1.614   8.768 -0.2226  1.3003 -0.4025
 5563SOL    HW228152   3.492   1.655   8.885  1.4644  1.2908 -0.4152
 5564SOL     OW28153   2.441   1.209   5.495 -0.4799 -0.1707 -0.7516
 5564SOL    HW128154   2.431   1.116   5.473  0.1664 -1.0297  2.5209
 5564SOL    HW228155   2.488   1.218   5.578  2.1407 -0.1818 -2.2421
 5565SOL     OW28156   2.371   4.378   7.183 -0.1397 -0.4187 -0.1822
 5565SOL    HW128157   2.441   4.385   7.119  0.2874 -1.1499  0.1990
 5565SOL    HW228158   2.350   4.284   7.178  1.8318 -0.8025 -1.1338
 5566SOL     OW28159   2.892   0.605   4.137 -0.1119 -0.4656  0.0470
 5566SOL    HW128160   2.802   0.583   4.159 -0.2521  1.0205  0.8885
 5566SOL    HW228161   2.909   0.576   4.047  0.4688  1.5795 -0.5032
 5567SOL     OW28162   4.091   0.412   7.555  0.5135 -0.3586  0.2903
 5567SOL    HW128163   4.068   0.435   7.646  1.4712 -0.0413  0.4534
 5567SOL    HW228164   4.125   0.327   7.581  0.1475 -0.3519  0.8115
 5568SOL     OW28165   4.706   2.818   4.820 -0.1806 -0.0281  0.3139
 5568SOL    HW128166   0.016   2.736   4.859  0.1660 -1.6394 -3.3181
 5568SOL    HW228167   0.065   2.867   4.803 -0.3891  0.5617  1.0203
 5569SOL     OW28168   2.360   1.825  12.702  0.3737  0.0148  0.2022
 5569SOL    HW128169   2.428   1.758  12.708 -0.1707 -0.4989  0.6460
 5569SOL    HW228170   2.403   1.894  12.752 -0.9065  0.1371  1.1342
 5570SOL     OW28171   2.502   1.499  15.911  0.0455 -0.7161 -0.0681
 5570SOL    HW128172   2.417   1.503  15.954 -0.0467  1.0172 -0.3963
 5570SOL    HW228173   2.547   1.563  15.967  1.0962  0.2511 -2.0033
 5571SOL     OW28174   1.765   2.449  16.829 -0.3515  0.2192  0.0352
 5571SOL    HW128175   1.797   2.390  16.897 -2.5063  0.8102  1.5595
 5571SOL    HW228176   1.747   2.529  16.878 -1.3345  0.2277 -0.3249
 5572SOL     OW28177   3.525   2.034  14.253 -0.2434 -0.2046 -0.0782
 5572SOL    HW128178   3.488   1.946  14.254  0.8830 -0.6497  2.2824
 5572SOL    HW228179   3.505   2.060  14.343  0.8086  0.0016  0.1066
 5573SOL     OW28180   2.274   0.650   4.179  0.1752 -0.0539 -0.4699
 5573SOL    HW128181   2.308   0.737   4.200  0.3659 -0.3238  0.3158
 5573SOL    HW228182   2.317   0.641   4.094 -2.2975 -0.7675 -1.6357
 5574SOL     OW28183   3.396   2.113   6.173 -0.8277 -0.3286  0.3083
 5574SOL    HW128184   3.471   2.077   6.221  0.5200  1.1166 -0.7305
 5574SOL    HW228185   3.349   2.164   6.239 -1.3629 -0.4085 -0.0103
 5575SOL     OW28186   1.582   2.480   0.861  0.4863 -0.0244 -0.8569
 5575SOL    HW128187   1.586   2.406   0.922  1.7450  0.1049 -0.7822
 5575SOL    HW228188   1.651   2.468   0.795  1.3260  0.4294 -0.0543
 5576SOL     OW28189   0.737   2.786  12.586 -0.3440  0.3014 -0.2650
 5576SOL    HW128190   0.728   2.821  12.498  2.7204 -0.3433 -0.8524
 5576SOL    HW228191   0.832   2.794  12.602 -0.4309 -1.9252  1.3956
 5577SOL     OW28192   2.316   1.644   7.645 -0.2583 -0.2286  0.1678
 5577SOL    HW128193   2.306   1.596   7.727  2.0590  0.6908  0.9728
 5577SOL    HW228194   2.365   1.712   7.691  1.0267 -0.0782 -1.4392
 5578SOL     OW28195   3.756   4.178   3.287  0.2660 -0.4285 -0.2535
 5578SOL    HW128196   3.773   4.099   3.235 -4.3415 -1.4712 -0.2119
 5578SOL    HW228197   3.780   4.147   3.374  1.8306 -0.3537 -0.6666
 5579SOL     OW28198   3.199   0.058   8.352  0.2869 -0.4945  0.5365
 5579SOL    HW128199   3.191   0.132   8.413 -0.3787  0.8909 -1.2292
 5579SOL    HW228200   3.111   0.074   8.318 -0.0531 -3.0836  0.2241
 5580SOL     OW28201   2.520   2.198  10.394 -0.7083  0.7392  0.0780
 5580SOL    HW128202   2.529   2.118  10.446 -1.2580  1.3135  1.0514
 5580SOL    HW228203   2.426   2.191  10.377 -0.6556 -1.1781  0.6182
 5581SOL     OW28204   2.858   3.581   6.102 -0.4719 -0.0320  0.1150
 5581SOL    HW128205   2.938   3.630   6.122  0.9315 -2.1890 -0.2528
 5581SOL    HW228206   2.821   3.621   6.024  1.9026  0.6354 -0.6697
 5582SOL     OW28207   3.923   1.348   4.799  0.1382 -0.5347 -0.0290
 5582SOL    HW128208   3.849   1.401   4.829 -0.1295 -0.7165 -0.3728
 5582SOL    HW228209   3.950   1.301   4.878  0.2563  0.1707  0.3512
 5583SOL     OW28210   1.830   3.843   8.318 -0.0395  0.8961  0.3988
 5583SOL    HW128211   1.900   3.822   8.257  0.3174 -0.2119  1.1971
 5583SOL    HW228212   1.760   3.803   8.267  0.2860  0.4682  0.2909
 5584SOL     OW28213   0.483   0.083   8.592  0.2357  0.4810 -0.1063
 5584SOL    HW128214   0.396   0.121   8.598 -0.1135 -0.6630  2.0311
 5584SOL    HW228215   0.532   0.157   8.555  0.3556  0.0683 -0.7723
 5585SOL     OW28216   0.749   1.747  13.555 -0.3530 -0.1716 -0.2877
 5585SOL    HW128217   0.783   1.831  13.587 -0.1796 -0.8494  1.2937
 5585SOL    HW228218   0.694   1.718  13.628  0.7220 -0.8724  0.2563
 5586SOL     OW28219   3.720   4.604  10.679  0.0729  0.2345 -0.3000
 5586SOL    HW128220   3.696   4.515  10.652 -2.2235  0.4582  0.9780
 5586SOL    HW228221   3.758   4.582  10.765 -1.0208 -0.0850  0.0949
 5587SOL     OW28222   2.664   3.590   7.492 -0.4297  0.0320  0.3809
 5587SOL    HW128223   2.659   3.578   7.586  0.5039  0.8648  0.5325
 5587SOL    HW228224   2.756   3.614   7.484 -0.6836 -0.9667 -5.8742
 5588SOL     OW28225   3.153   0.458   4.076  0.4956 -0.2110 -0.6393
 5588SOL    HW128226   3.115   0.456   3.988 -1.2318 -1.9371  0.1308
 5588SOL    HW228227   3.117   0.379   4.116  0.8269 -0.5982 -1.0936
 5589SOL     OW28228   3.286   1.082  14.457 -0.3618  0.0159 -0.6378
 5589SOL    HW128229   3.311   1.154  14.515 -3.6514  1.4713 -0.9797
 5589SOL    HW228230   3.332   1.006  14.492 -1.9062 -1.7323 -2.4273
 5590SOL     OW28231   0.960   0.422   3.048 -0.0443  0.2940  0.9045
 5590SOL    HW128232   0.879   0.382   3.081 -0.3823 -0.1677 -0.4790
 5590SOL    HW228233   0.938   0.514   3.064  0.4630  0.0017  3.2681
 5591SOL     OW28234   1.273   4.536  14.957 -0.5011 -0.1665 -0.3788
 5591SOL    HW128235   1.275   4.446  14.925  1.0811 -0.1948 -0.2214
 5591SOL    HW228236   1.193   4.575  14.922 -1.9367 -1.2979  1.6669
 5592SOL     OW28237   1.070   2.075   2.323 -0.0003  0.0117 -0.3565
 5592SOL    HW128238   1.139   2.028   2.276 -0.2265 -0.3562 -0.3251
 5592SOL    HW228239   1.119   2.094   2.402 -1.7436 -0.8613  0.9456
 5593SOL     OW28240   1.979   4.465   9.277 -0.1212 -0.6880 -0.1552
 5593SOL    HW128241   2.032   4.457   9.198  0.8044  2.3212  0.1525
 5593SOL    HW228242   1.910   4.400   9.263 -0.1023 -0.4324 -1.3616
 5594SOL     OW28243   3.684   3.567   5.886  0.2957  0.0008 -0.1671
 5594SOL    HW128244   3.657   3.562   5.794 -2.3153  3.8492  0.3707
 5594SOL    HW228245   3.700   3.661   5.897  0.7381 -0.1948  0.8682
 5595SOL     OW28246   2.683   0.110   3.338  0.1217  0.0904 -0.0126
 5595SOL    HW128247   2.659   0.202   3.331 -1.6071 -0.4155 -0.8741
 5595SOL    HW228248   2.601   0.067   3.364 -0.6206  1.4011 -0.1630
 5596SOL     OW28249   0.061   1.725  10.568 -0.1817 -0.3923  0.2805
 5596SOL    HW128250   4.711   1.744  10.506 -1.0689 -4.1754  0.1429
 5596SOL    HW228251   0.127   1.783  10.532 -0.2614 -0.0891  0.6235
 5597SOL     OW28252   2.027   4.511   0.262  0.3370 -0.3193 -0.1831
 5597SOL    HW128253   1.958   4.475   0.319 -0.0022 -0.5016 -0.7018
 5597SOL    HW228254   2.015   4.602   0.287 -1.6079 -1.3335  2.5994
 5598SOL     OW28255   0.694   2.479  14.714  0.5465  0.3075  0.1308
 5598SOL    HW128256   0.669   2.510  14.801  0.6624  1.8469 -0.3758
 5598SOL    HW228257   0.692   2.383  14.717 -0.4670  0.3053 -0.7595
 5599SOL     OW28258   3.011   3.559  12.884  0.1347 -1.0755  0.6247
 5599SOL    HW128259   2.939   3.613  12.916  0.7106 -0.2173  0.4558
 5599SOL    HW228260   2.980   3.522  12.801 -1.7102 -0.9155  1.2508
 5600SOL     OW28261   1.937   2.214  10.240  0.7225 -0.4445  0.1183
 5600SOL    HW128262   1.948   2.245  10.329  0.1383 -0.1293  0.0807
 5600SOL    HW228263   1.889   2.284  10.196 -1.1533 -2.4815 -1.1084
 5601SOL     OW28264   2.881   1.813   2.955  0.0987 -0.3833 -0.3698
 5601SOL    HW128265   2.947   1.843   3.017  0.1639  0.5717 -0.9090
 5601SOL    HW228266   2.847   1.899   2.931  1.3856 -0.0977 -1.1515
 5602SOL     OW28267   4.691   0.926   8.606  0.3093 -0.8220  0.6032
 5602SOL    HW128268   0.063   0.942   8.623  0.0397  0.7271  0.6779
 5602SOL    HW228269   4.677   0.859   8.673  1.5381 -0.8735  0.8110
 5603SOL     OW28270   0.477   4.425   4.822 -0.1044  0.1145  0.2249
 5603SOL    HW128271   0.462   4.338   4.785  0.3711  0.8855 -1.7746
 5603SOL    HW228272   0.565   4.457   4.804  0.1768 -0.2858  0.8763
 5604SOL     OW28273   0.050   0.502   4.628  0.1663  0.4990 -0.7990
 5604SOL    HW128274   0.145   0.507   4.617  0.2398 -2.1804 -1.3949
 5604SOL    HW228275   0.047   0.445   4.706 -0.8317  0.8792 -0.5561
 5605SOL     OW28276   2.675   1.204   6.629 -0.4418  0.3231 -0.8209
 5605SOL    HW128277   2.711   1.116   6.615  0.1447  0.1682  1.6730
 5605SOL    HW228278   2.584   1.183   6.650 -0.9028  0.1911 -3.0148
 5606SOL     OW28279   2.552   0.273   3.029 -0.1754  0.5176 -0.2928
 5606SOL    HW128280   2.590   0.332   3.094  0.4143  0.6907 -0.7864
 5606SOL    HW228281   2.601   0.316   2.958 -0.4297  2.4688  0.7234
 5607SOL     OW28282   1.386   2.397   1.341 -0.3443  0.2867 -0.0709
 5607SOL    HW128283   1.339   2.386   1.424 -0.0962 -0.4520 -0.0288
 5607SOL    HW228284   1.474   2.374   1.370 -0.3758  0.3524  0.0803
 5608SOL     OW28285   2.288   0.764   2.954  0.2243 -0.1272 -0.3533
 5608SOL    HW128286   2.235   0.797   3.026 -0.6764 -1.5438 -0.3708
 5608SOL    HW228287   2.345   0.705   3.003  0.9249  1.3692  0.6448
 5609SOL     OW28288   1.886   2.139   2.885 -0.0116 -0.7009  0.5077
 5609SOL    HW128289   1.946   2.124   2.958  2.4679  0.9610 -1.1890
 5609SOL    HW228290   1.804   2.138   2.935 -0.5433  2.3663 -0.2919
 5610SOL     OW28291   3.238   0.959  16.502 -0.7858 -0.0858  0.1566
 5610SOL    HW128292   3.296   0.973  16.577  0.6377  1.5450 -1.2670
 5610SOL    HW228293   3.290   0.962  16.422 -2.2149  1.4107 -0.7122
 5611SOL     OW28294   0.054   3.399   2.569 -0.2124  0.1816 -0.2645
 5611SOL    HW128295   0.050   3.490   2.599 -0.0070  0.5344 -1.3308
 5611SOL    HW228296   0.137   3.393   2.521  0.5117  2.6907  0.6403
 5612SOL     OW28297   0.689   0.896   1.460  0.1284  0.0967 -0.2578
 5612SOL    HW128298   0.698   0.989   1.439 -1.9436 -0.0776 -1.9629
 5612SOL    HW228299   0.663   0.862   1.373  0.2085 -0.0410 -0.2282
 5613SOL     OW28300   4.445   1.047   3.933 -0.1069 -0.3072 -0.0112
 5613SOL    HW128301   4.502   1.014   3.864 -0.3601 -1.0750  0.1416
 5613SOL    HW228302   4.452   0.980   4.002 -3.0421 -1.8964 -1.2424
 5614SOL     OW28303   3.050   3.538   8.754  0.1408 -0.6024 -0.3526
 5614SOL    HW128304   3.073   3.630   8.745 -2.9654  0.4101  1.7560
 5614SOL    HW228305   3.123   3.514   8.810  0.9948  1.2714 -0.6532
 5615SOL     OW28306   1.017   4.031   1.234 -0.0321  0.5795  0.0148
 5615SOL    HW128307   0.953   4.020   1.304  0.1719 -2.2285 -0.2333
 5615SOL    HW228308   1.096   4.005   1.282 -0.1089 -2.0561 -1.2700
 5616SOL     OW28309   1.139   4.324  11.960 -0.0709  0.0917  0.0227
 5616SOL    HW128310   1.150   4.265  12.035 -0.0403  0.1065  0.0300
 5616SOL    HW228311   1.055   4.299  11.921  0.2174 -2.0396  0.7448
 5617SOL     OW28312   2.741   2.855   4.593 -0.1069  0.4825 -0.1551
 5617SOL    HW128313   2.800   2.811   4.531 -2.1692 -1.6138 -0.6170
 5617SOL    HW228314   2.741   2.792   4.665 -1.3225  0.9491  0.2497
 5618SOL     OW28315   0.579   0.696  16.871  0.0835 -0.0602  0.4182
 5618SOL    HW128316   0.549   0.730  16.787 -4.5755 -1.0259  1.6643
 5618SOL    HW228317   0.637   0.626  16.842  0.3332  0.4323 -0.2662
 5619SOL     OW28318   1.165   3.251   0.603  0.2516 -0.5875  0.2152
 5619SOL    HW128319   1.115   3.286   0.676 -0.6882 -2.2259  0.3634
 5619SOL    HW228320   1.162   3.157   0.620  0.2664 -0.7204 -0.5205
 5620SOL     OW28321   4.666   3.190  14.033  0.3539 -0.1827 -0.1061
 5620SOL    HW128322   0.028   3.153  14.006  0.1984 -0.8375  0.3082
 5620SOL    HW228323   4.660   3.143  14.117 -0.5853 -0.4474 -0.3142
 5621SOL     OW28324   0.425   1.592   5.291  0.0180 -0.2641 -0.0130
 5621SOL    HW128325   0.351   1.577   5.232  0.1869 -0.7647 -0.0961
 5621SOL    HW228326   0.485   1.544   5.235 -0.5076  0.3404 -1.1006
 5622SOL     OW28327   2.064   2.242   6.039  0.1418 -0.4310  0.1483
 5622SOL    HW128328   2.114   2.167   6.071  2.4183  0.7730 -0.5403
 5622SOL    HW228329   2.059   2.298   6.116 -2.3165  0.3187 -0.5521
 5623SOL     OW28330   0.797   4.246   3.180 -0.0992  0.3604 -0.6552
 5623SOL    HW128331   0.788   4.276   3.089 -2.0827  0.0035 -0.5657
 5623SOL    HW228332   0.727   4.296   3.222 -0.7022 -0.9064 -0.1640
 5624SOL     OW28333   0.352   2.930  16.779  0.6034 -0.1662 -0.1532
 5624SOL    HW128334   0.422   2.867  16.761 -0.1709 -0.9304 -0.4666
 5624SOL    HW228335   0.408   3.000  16.813  0.4082 -0.0917  0.0105
 5625SOL     OW28336   1.690   0.034   1.016 -0.4219  0.2828  0.1742
 5625SOL    HW128337   1.713   0.094   0.944 -1.2644 -0.0707 -0.3890
 5625SOL    HW228338   1.596   0.048   1.027 -1.1373 -1.0917 -4.1495
 5626SOL     OW28339   2.066   1.394   6.332  0.1274  0.6171  0.3439
 5626SOL    HW128340   2.030   1.410   6.420 -1.5660 -0.0091 -0.2390
 5626SOL    HW228341   1.983   1.392   6.284  0.6600  1.3343 -0.5870
 5627SOL     OW28342   0.876   1.593   9.028 -0.0891 -0.1766 -0.2683
 5627SOL    HW128343   0.811   1.618   9.093  2.4566  0.3544  2.1040
 5627SOL    HW228344   0.945   1.653   9.058  2.1439 -2.1716 -1.4148
 5628SOL     OW28345   2.792   1.028   8.692 -0.3906 -0.3996  0.3076
 5628SOL    HW128346   2.803   0.962   8.761 -0.2270 -0.9335 -0.2342
 5628SOL    HW228347   2.706   1.004   8.656 -1.1337  0.5516  1.4597
 5629SOL     OW28348   3.121   4.264   2.627 -0.0562  0.0588 -0.2463
 5629SOL    HW128349   3.125   4.203   2.553  1.0376  1.3206 -1.2378
 5629SOL    HW228350   3.211   4.297   2.629 -0.7950  2.1292 -0.6518
 5630SOL     OW28351   1.406   0.209   5.542  0.0203  0.0561 -0.2140
 5630SOL    HW128352   1.317   0.240   5.559  0.6845  2.1084 -0.5343
 5630SOL    HW228353   1.431   0.239   5.455 -0.2483 -1.5091 -0.8253
 5631SOL     OW28354   2.914   1.100  10.268 -0.2364 -0.3468 -0.2912
 5631SOL    HW128355   2.879   1.065  10.350 -0.4400  1.1200  0.2487
 5631SOL    HW228356   2.986   1.040  10.249 -0.0045 -0.6166  1.4468
 5632SOL     OW28357   3.694   2.806  10.585 -0.4862  0.0587 -0.0920
 5632SOL    HW128358   3.715   2.823  10.677  1.8285  1.8167 -0.9597
 5632SOL    HW228359   3.615   2.752  10.588  1.0610 -2.2666 -1.8733
 5633SOL     OW28360   1.600   0.386   4.884 -0.0740 -0.6512  0.2367
 5633SOL    HW128361   1.579   0.304   4.928  1.2758 -0.9905  0.2377
 5633SOL    HW228362   1.637   0.349   4.804  0.9637 -4.0079  2.2868
 5634SOL     OW28363   0.121   2.764  16.867  0.4326  0.0898  0.2601
 5634SOL    HW128364   0.208   2.802  16.854 -0.0868  1.0572 -0.3713
 5634SOL    HW228365   0.074   2.821  16.927  0.0280  2.2525 -2.0946
 5635SOL     OW28366   3.576   1.259   5.125  0.1264  0.0538 -0.3860
 5635SOL    HW128367   3.650   1.302   5.168  1.2270  0.6111 -2.8291
 5635SOL    HW228368   3.499   1.299   5.166 -0.7319 -0.6375 -1.3317
 5636SOL     OW28369   0.672   0.694   7.431  0.3993 -0.1929  0.3788
 5636SOL    HW128370   0.660   0.745   7.512  0.7362 -0.9912  0.9312
 5636SOL    HW228371   0.682   0.604   7.460  1.5804 -0.2126 -0.0834
 5637SOL     OW28372   4.479   3.622   7.419 -0.0300  0.1372  0.5272
 5637SOL    HW128373   4.462   3.528   7.415 -0.3008  0.2390 -0.8052
 5637SOL    HW228374   4.543   3.631   7.349  0.5082 -1.3651  0.8249
 5638SOL     OW28375   3.117   1.978   4.168 -0.1241 -0.0375 -0.0795
 5638SOL    HW128376   3.076   2.036   4.104 -0.7782 -1.1147 -0.6367
 5638SOL    HW228377   3.103   1.896   4.121 -0.4940  0.2465 -0.4651
 5639SOL     OW28378   2.273   3.202   4.863  0.7609  0.5948  0.7932
 5639SOL    HW128379   2.179   3.188   4.872  0.5688  1.2881 -0.0921
 5639SOL    HW228380   2.294   3.129   4.805 -2.3143 -0.4430  0.9879
 5640SOL     OW28381   1.650   4.107   9.975 -0.1563 -0.3470 -0.4259
 5640SOL    HW128382   1.589   4.171   9.938 -1.7933 -1.6910 -0.0009
 5640SOL    HW228383   1.585   4.038   9.973  0.5581 -1.0780  1.2989
 5641SOL     OW28384   3.287   1.552   5.431 -0.0432 -0.2524 -0.0885
 5641SOL    HW128385   3.217   1.533   5.369  0.0850  1.1425 -0.6566
 5641SOL    HW228386   3.360   1.549   5.370 -0.8281 -0.8247 -1.0061
 5642SOL     OW28387   0.376   3.821   2.633 -0.2687  0.4461 -0.2054
 5642SOL    HW128388   0.301   3.808   2.576 -1.7014 -0.0474  1.8028
 5642SOL    HW228389   0.456   3.795   2.587 -0.8701 -0.1421 -0.9162
 5643SOL     OW28390   2.554   1.666   8.032  0.6144 -0.2464 -0.2163
 5643SOL    HW128391   2.556   1.743   7.976  1.4513  1.3996  2.0374
 5643SOL    HW228392   2.508   1.694   8.112 -0.0665  0.2200 -0.7770
 5644SOL     OW28393   0.401   0.789   4.675  0.6695  0.3791  0.3884
 5644SOL    HW128394   0.386   0.868   4.727 -1.6693  0.1737  0.0166
 5644SOL    HW228395   0.478   0.759   4.723  0.9847 -0.3482 -0.5758
 5645SOL     OW28396   3.139   2.575   3.672  0.0802 -0.5940  0.0256
 5645SOL    HW128397   3.206   2.622   3.722 -0.2086  1.2039 -1.2354
 5645SOL    HW228398   3.193   2.517   3.618 -2.8034 -1.7869 -1.5329
 5646SOL     OW28399   1.681   1.622   8.825  0.0275  0.0467  0.7905
 5646SOL    HW128400   1.606   1.567   8.850  1.0397 -1.9740 -0.6335
 5646SOL    HW228401   1.640   1.703   8.797 -0.7303  0.1260  2.1050
 5647SOL     OW28402   2.502   2.845   3.798  0.3871  0.2928 -0.0744
 5647SOL    HW128403   2.525   2.753   3.815  1.5325  0.8772  1.4374
 5647SOL    HW228404   2.529   2.862   3.708 -0.2216  0.6342 -0.1955
 5648SOL     OW28405   0.282   3.758   9.408 -0.5418 -0.5176  0.0395
 5648SOL    HW128406   0.248   3.784   9.323 -3.6472  1.4223  1.8874
 5648SOL    HW228407   0.336   3.681   9.393  0.5942  0.3554 -0.3627
 5649SOL     OW28408   3.810   2.356   5.274 -0.3950  0.2127 -0.2855
 5649SOL    HW128409   3.906   2.360   5.272 -0.4263  0.5741 -1.0737
 5649SOL    HW228410   3.788   2.359   5.367  3.1449 -1.0570  0.5913
 5650SOL     OW28411   3.056   3.668   9.064 -0.5053  0.5721  0.4534
 5650SOL    HW128412   3.073   3.582   9.103 -0.8140  0.7739  1.0252
 5650SOL    HW228413   3.149   3.693   9.063  0.5246 -3.2148  0.0134
 5651SOL     OW28414   2.696   1.732  13.852  0.5390  0.9078 -0.5518
 5651SOL    HW128415   2.727   1.659  13.905 -0.7205  0.7593 -0.0109
 5651SOL    HW228416   2.634   1.775  13.912  0.4889  1.7837 -1.2369
 5652SOL     OW28417   2.668   2.678   2.575  0.1149  0.0971  0.3692
 5652SOL    HW128418   2.697   2.681   2.666  2.0132  1.7740 -0.2706
 5652SOL    HW228419   2.638   2.769   2.572 -1.0108 -0.3211 -0.6029
 5653SOL     OW28420   1.959   0.761   9.755 -0.0981 -0.1653 -0.2528
 5653SOL    HW128421   1.911   0.836   9.720  2.4174  1.0982 -1.0144
 5653SOL    HW228422   2.049   0.793   9.768 -0.0023  0.5093 -2.5090
 5654SOL     OW28423   0.590   3.301   1.606 -0.7301 -0.1350  0.4607
 5654SOL    HW128424   0.625   3.354   1.677 -0.2837 -0.5268  0.5337
 5654SOL    HW228425   0.675   3.283   1.565 -0.6064  2.0612 -0.2166
 5655SOL     OW28426   0.163   2.617   2.730 -0.0778 -0.0143 -0.2693
 5655SOL    HW128427   0.164   2.539   2.673 -1.0335  0.3568 -0.7888
 5655SOL    HW228428   0.073   2.649   2.726  0.8579  2.5379 -0.4988
 5656SOL     OW28429   2.817   2.451   4.615 -0.2207 -0.0113 -0.4715
 5656SOL    HW128430   2.804   2.431   4.707 -0.5012 -0.2631 -0.5659
 5656SOL    HW228431   2.896   2.401   4.596  0.6278  0.8015  0.9468
 5657SOL     OW28432   3.281   0.320  13.759  0.0482  0.2414  1.0643
 5657SOL    HW128433   3.191   0.288  13.761  0.0423  0.1215 -1.3181
 5657SOL    HW228434   3.290   0.361  13.673  1.3650 -2.2259  0.0300
 5658SOL     OW28435   1.181   4.505   6.473  1.0100 -0.3518  0.0841
 5658SOL    HW128436   1.243   4.480   6.404  0.2907 -1.7636 -0.0474
 5658SOL    HW228437   1.124   4.555   6.414  2.5696  0.4404 -0.7639
 5659SOL     OW28438   1.602   0.563   3.073  0.2815  0.5875  0.0094
 5659SOL    HW128439   1.616   0.469   3.070 -1.0022  0.4224 -0.6408
 5659SOL    HW228440   1.674   0.588   3.131  0.7604 -0.7920  0.0086
 5660SOL     OW28441   3.232   3.284   5.884 -0.3232 -0.1645 -0.0749
 5660SOL    HW128442   3.197   3.344   5.818 -0.8154 -0.0250  0.3094
 5660SOL    HW228443   3.281   3.224   5.828  0.8247 -0.1126  0.8889
 5661SOL     OW28444   2.140   3.253   6.026 -0.1734 -0.1692 -0.2997
 5661SOL    HW128445   2.196   3.185   5.988 -0.8271 -0.6129 -0.4795
 5661SOL    HW228446   2.156   3.313   5.953 -0.2478 -0.1222 -0.2774
 5662SOL     OW28447   1.764   1.964   4.392 -0.1902 -0.0359  0.3974
 5662SOL    HW128448   1.771   1.918   4.475  2.3210 -1.5937 -0.6797
 5662SOL    HW228449   1.800   1.898   4.332 -0.2422 -0.6189  1.0169
 5663SOL     OW28450   2.325   3.465   8.089  0.1763 -0.4201  0.2471
 5663SOL    HW128451   2.287   3.379   8.106 -0.2250 -0.2169  0.3846
 5663SOL    HW228452   2.247   3.515   8.116 -1.6235 -3.7833  1.2568
 5664SOL     OW28453   0.767   0.568   0.658 -0.1646 -0.2136  0.2743
 5664SOL    HW128454   0.817   0.603   0.732  0.5477 -0.3784 -0.1336
 5664SOL    HW228455   0.762   0.647   0.605 -0.2082  0.0718  0.6967
 5665SOL     OW28456   4.102   0.440   9.000  0.0907 -0.1422  0.0053
 5665SOL    HW128457   4.161   0.433   9.075  1.3316 -1.0332 -1.0505
 5665SOL    HW228458   4.065   0.523   9.031  1.5836  0.4904  0.0801
 5666SOL     OW28459   4.599   3.988  16.617  0.1436  0.0938 -0.2623
 5666SOL    HW128460   4.569   4.033  16.696  1.0952 -2.2955  1.4541
 5666SOL    HW228461   4.670   3.929  16.645  2.9602  2.5158 -2.2768
 5667SOL     OW28462   2.142   2.060   0.521  0.4122 -0.5113  0.0093
 5667SOL    HW128463   2.207   2.131   0.521 -1.1548  0.9412  3.3201
 5667SOL    HW228464   2.194   1.985   0.493  2.2415  1.2169 -1.3179
 5668SOL     OW28465   0.452   3.619   3.820 -0.5055  0.3912 -0.0837
 5668SOL    HW128466   0.491   3.707   3.820  1.0957 -0.3153 -0.1464
 5668SOL    HW228467   0.526   3.587   3.767 -0.8174  2.0806 -1.5436
 5669SOL     OW28468   2.470   0.222   9.267  0.3944 -0.0329  0.4601
 5669SOL    HW128469   2.520   0.257   9.193 -0.7483  0.3969 -0.1074
 5669SOL    HW228470   2.530   0.235   9.341 -0.1234 -2.1143  1.2490
 5670SOL     OW28471   2.202   4.086   1.048  0.0737  0.6619  0.3080
 5670SOL    HW128472   2.282   4.037   1.066 -0.2465 -0.1230 -0.4219
 5670SOL    HW228473   2.221   4.177   1.071 -0.6580  0.9376 -0.1776
 5671SOL     OW28474   0.528   4.462   4.302 -0.2054 -0.7548  0.0329
 5671SOL    HW128475   0.492   4.481   4.388 -0.6120  2.3740 -0.8599
 5671SOL    HW228476   0.590   4.533   4.284  0.2778 -1.0894  0.3563
 5672SOL     OW28477   0.320   3.094   7.101 -0.5329 -0.2469  0.2566
 5672SOL    HW128478   0.254   3.155   7.068 -1.6391 -0.6592  1.7444
 5672SOL    HW228479   0.390   3.160   7.111 -1.6366  1.3629 -2.6246
 5673SOL     OW28480   2.184   0.387   7.091 -0.3498  0.5799 -0.0671
 5673SOL    HW128481   2.233   0.421   7.016  1.0887 -0.0133  0.6053
 5673SOL    HW228482   2.246   0.409   7.161  1.8202 -0.2574 -1.7130
 5674SOL     OW28483   0.490   4.460   6.474 -0.5557 -0.1165  0.2564
 5674SOL    HW128484   0.412   4.412   6.502 -1.7143  1.5683 -0.1006
 5674SOL    HW228485   0.510   4.512   6.552 -4.3306 -0.9018  1.7025
 5675SOL     OW28486   3.990   3.823   5.541  0.1646 -0.2416  0.0748
 5675SOL    HW128487   3.989   3.918   5.527  1.2129  0.1917  2.9315
 5675SOL    HW228488   3.918   3.785   5.491 -1.9469  3.2147  0.4549
 5676SOL     OW28489   2.895   1.784   7.671  0.4042  0.0804  0.0153
 5676SOL    HW128490   2.923   1.711   7.615 -2.0956 -0.2200 -0.8466
 5676SOL    HW228491   2.807   1.788   7.633  1.5525  0.6657 -2.5997
 5677SOL     OW28492   1.199   4.358  17.448 -0.6672  0.0628 -0.2893
 5677SOL    HW128493   1.194   4.399  17.361 -1.1143  2.0800  0.6960
 5677SOL    HW228494   1.110   4.323  17.456 -0.6075  0.0657  0.3530
 5678SOL     OW28495   3.162   0.000   3.965 -0.1650 -0.3663  0.3583
 5678SOL    HW128496   3.163   4.648   3.902  0.6193 -0.3811  0.3936
 5678SOL    HW228497   3.096   0.055   3.922 -0.3727  0.6997  2.0640
 5679SOL     OW28498   1.911   1.946   2.341  0.3010 -0.3238 -0.2773
 5679SOL    HW128499   1.914   1.974   2.250 -2.0614  2.2328  0.4135
 5679SOL    HW228500   2.005   1.938   2.356  0.3006  1.2558  0.6438
 5680SOL     OW28501   3.836   1.241  11.024  0.0995 -0.1880 -0.1059
 5680SOL    HW128502   3.861   1.186  10.949  1.4562 -1.3923  1.2378
 5680SOL    HW228503   3.747   1.208  11.035  0.3475 -1.1058 -0.8976
 5681SOL     OW28504   0.024   1.078   5.919  0.6295  0.1354  0.2599
 5681SOL    HW128505   4.715   0.989   5.940  0.2474  0.4262  0.9611
 5681SOL    HW228506   0.085   1.066   5.846  0.2700  2.1473 -0.3538
 5682SOL     OW28507   3.885   1.748   2.672 -0.0335  0.1227 -0.5419
 5682SOL    HW128508   3.915   1.837   2.654 -0.2457  0.1953 -0.5366
 5682SOL    HW228509   3.949   1.722   2.738 -0.0581  1.4928  0.0217
 5683SOL     OW28510   2.269   3.343   6.673 -0.5689 -0.0514  0.1197
 5683SOL    HW128511   2.339   3.309   6.617 -1.7205 -0.7639 -0.8876
 5683SOL    HW228512   2.196   3.286   6.647 -1.2894  0.1319  1.7003
 5684SOL     OW28513   1.597   1.205   4.549 -0.4184  0.0770 -0.3480
 5684SOL    HW128514   1.590   1.280   4.491 -0.3897  0.0398 -0.3991
 5684SOL    HW228515   1.581   1.250   4.632  0.9008  0.0806 -0.1012
 5685SOL     OW28516   2.670   3.612   2.923 -0.4673 -0.1591  0.2950
 5685SOL    HW128517   2.752   3.585   2.882 -1.5892 -0.9670 -1.3911
 5685SOL    HW228518   2.665   3.554   2.999 -0.2878  1.0498  1.2446
 5686SOL     OW28519   2.132   3.407   4.274  0.0451 -0.0186 -0.2569
 5686SOL    HW128520   2.180   3.350   4.214 -1.3946 -0.6906 -0.7710
 5686SOL    HW228521   2.095   3.468   4.210 -0.7359 -1.3488 -1.0836
 5687SOL     OW28522   0.652   1.880   1.062 -0.4701 -0.8360  0.2791
 5687SOL    HW128523   0.672   1.907   0.972 -4.7612 -0.4815 -0.5961
 5687SOL    HW228524   0.587   1.948   1.078  1.7296  1.2918  0.2312
 5688SOL     OW28525   1.048   0.645   4.054  0.0006  0.3319 -0.4241
 5688SOL    HW128526   1.120   0.636   4.117 -2.5382 -1.5708  2.2174
 5688SOL    HW228527   0.981   0.606   4.111 -1.2913 -1.2248 -3.0056
 5689SOL     OW28528   1.508   1.364   4.022 -0.4218 -0.0809 -0.1614
 5689SOL    HW128529   1.592   1.395   3.988 -0.5618  0.4595 -0.0094
 5689SOL    HW228530   1.518   1.269   4.015  1.1388 -0.0299  1.1499
 5690SOL     OW28531   3.323   0.501  17.202 -0.1341 -0.2552  0.0216
 5690SOL    HW128532   3.234   0.468  17.213 -2.0620  4.6780 -0.8369
 5690SOL    HW228533   3.354   0.429  17.148 -1.9643 -1.3599  0.4863
 5691SOL     OW28534   2.238   1.388   3.153  0.0248  0.0361 -0.2955
 5691SOL    HW128535   2.265   1.467   3.108  0.9705  0.0289  0.2748
 5691SOL    HW228536   2.291   1.383   3.232 -0.5042 -1.6064 -0.0359
 5692SOL     OW28537   4.713   2.765  15.455 -0.2453 -0.1173 -0.1003
 5692SOL    HW128538   4.625   2.744  15.423 -0.9533  2.3040  0.2204
 5692SOL    HW228539   0.018   2.820  15.381 -0.0059 -0.1103 -0.0107
 5693SOL     OW28540   4.426   3.738  14.854 -0.0936 -0.8805 -0.0757
 5693SOL    HW128541   4.514   3.720  14.888 -0.4659 -1.1518  0.7417
 5693SOL    HW228542   4.415   3.832  14.864 -1.8501 -0.8945 -1.7955
 5694SOL     OW28543   2.996   1.394   1.130  0.0869  0.4727 -0.3271
 5694SOL    HW128544   3.048   1.442   1.194  1.0972 -1.0389 -0.0111
 5694SOL    HW228545   3.019   1.309   1.167 -0.6258 -0.1988 -1.4081
 5695SOL     OW28546   2.319   0.745   0.636 -0.2375 -0.1723 -0.8535
 5695SOL    HW128547   2.362   0.692   0.703 -0.0928  0.9637 -0.0344
 5695SOL    HW228548   2.235   0.699   0.627 -0.4980  0.1193  0.0862
 5696SOL     OW28549   2.911   2.545   6.322  0.2167  0.2609 -0.1443
 5696SOL    HW128550   2.861   2.605   6.266  0.5124 -0.7688 -1.5029
 5696SOL    HW228551   2.963   2.617   6.356 -1.1016  0.6412  1.0633
 5697SOL     OW28552   3.864   2.026   4.847 -0.3412  0.4138 -0.1194
 5697SOL    HW128553   3.854   2.122   4.851  2.0500  0.6315  0.5920
 5697SOL    HW228554   3.771   2.009   4.862 -0.7301  1.4955 -1.2733
 5698SOL     OW28555   2.444   3.981   9.932 -0.8455  0.1634  0.1881
 5698SOL    HW128556   2.528   3.968   9.889 -1.1075 -1.4781  0.1653
 5698SOL    HW228557   2.471   4.044   9.999 -0.3663 -0.1989  0.3302
 5699SOL     OW28558   2.753   3.238   5.371 -0.5254  0.0177  0.1584
 5699SOL    HW128559   2.727   3.170   5.433 -0.2507  0.8736  1.2133
 5699SOL    HW228560   2.844   3.249   5.400 -1.2070 -0.0169  2.2665
 5700SOL     OW28561   2.121   3.409  10.827  0.2284  0.3426  0.4948
 5700SOL    HW128562   2.100   3.317  10.842  1.9472 -0.5608 -2.6156
 5700SOL    HW228563   2.216   3.411  10.834  0.5704 -0.9782 -3.6072
 5701SOL     OW28564   3.134   4.483   7.486 -0.5936 -0.3648  0.6360
 5701SOL    HW128565   3.119   4.396   7.451 -0.9267  0.4820 -1.3348
 5701SOL    HW228566   3.088   4.486   7.570 -0.7611  0.6510  0.5166
 5702SOL     OW28567   0.238   4.345   6.548  0.2021  0.2752  0.2898
 5702SOL    HW128568   0.157   4.387   6.518 -0.0964 -0.1561  0.4923
 5702SOL    HW228569   0.228   4.256   6.514 -1.8238  1.1228 -1.3072
 5703SOL     OW28570   3.762   1.434   6.567  0.7843  0.1506 -0.7844
 5703SOL    HW128571   3.857   1.430   6.580  0.7533 -0.5008 -0.7560
 5703SOL    HW228572   3.752   1.413   6.474 -4.2420  0.8847 -0.4003
 5704SOL     OW28573   1.920   0.938   2.152 -0.1198 -0.0632 -0.7324
 5704SOL    HW128574   1.943   0.941   2.059 -0.9198  1.5656 -0.8607
 5704SOL    HW228575   1.852   1.005   2.156 -1.3381 -1.4271  1.2982
 5705SOL     OW28576   2.282   0.706   7.552  0.7489  0.8544 -0.5443
 5705SOL    HW128577   2.195   0.667   7.541  0.3494  1.4850  0.3222
 5705SOL    HW228578   2.274   0.781   7.492  2.8899  0.7841 -0.9083
 5706SOL     OW28579   2.110   0.297   5.135  0.4304  0.0594 -0.8155
 5706SOL    HW128580   2.124   0.205   5.155  1.8067  0.5550  0.4595
 5706SOL    HW228581   2.112   0.336   5.222 -2.9777  1.7293 -1.4980
 5707SOL     OW28582   2.212   1.259   8.967  0.1656  0.2402 -0.2201
 5707SOL    HW128583   2.131   1.247   9.015  1.6934  0.5558  2.4117
 5707SOL    HW228584   2.239   1.347   8.991 -1.3137  0.5718  0.2235
 5708SOL     OW28585   0.368   0.098   6.009  0.5482  0.2426  0.3452
 5708SOL    HW128586   0.458   0.066   6.018  0.3445 -0.5779 -0.5270
 5708SOL    HW228587   0.355   0.089   5.914  1.8511 -1.8064  0.3662
 5709SOL     OW28588   3.927   4.195  17.149 -0.5399 -0.2158 -0.2565
 5709SOL    HW128589   3.836   4.227  17.151  0.0633  1.5149 -0.6675
 5709SOL    HW228590   3.920   4.130  17.219  0.3667 -2.1624 -1.9624
 5710SOL     OW28591   0.032   0.140   7.430 -0.0010  0.1112  0.6315
 5710SOL    HW128592   4.681   0.146   7.368  0.1730  0.3363  0.4524
 5710SOL    HW228593   0.055   0.230   7.453  1.8439 -0.3240  0.5322
 5711SOL     OW28594   3.850   1.179   6.373 -0.6457  0.3579 -0.0108
 5711SOL    HW128595   3.938   1.171   6.409 -0.0436 -0.5768 -1.7215
 5711SOL    HW228596   3.862   1.144   6.285 -0.4913  1.1131 -0.2881
 5712SOL     OW28597   3.378   2.744   7.141  0.2939  0.4236 -0.0443
 5712SOL    HW128598   3.388   2.808   7.212 -1.6551  2.3370 -1.4912
 5712SOL    HW228599   3.283   2.754   7.134  0.2855 -0.3128 -0.9019
 5713SOL     OW28600   0.035   2.304  16.092 -0.5693 -0.0289  0.1166
 5713SOL    HW128601   0.115   2.349  16.117 -1.0010  1.0282 -0.4028
 5713SOL    HW228602   0.021   2.335  16.002  0.1363  1.1723  0.4202
 5714SOL     OW28603   2.203   3.780   6.519 -0.2892  0.0842  0.2135
 5714SOL    HW128604   2.193   3.875   6.529 -2.6369  0.0225 -1.5986
 5714SOL    HW228605   2.151   3.764   6.440  0.7586 -1.1742 -0.2188
 5715SOL     OW28606   2.253   1.972   8.085 -0.4906 -0.5119 -0.3860
 5715SOL    HW128607   2.174   1.981   8.138  0.7658 -3.9332  2.0920
 5715SOL    HW228608   2.323   1.971   8.150 -1.3720 -0.4363  0.5610
 5716SOL     OW28609   2.869   4.129   6.884 -0.7275  0.0193  0.0611
 5716SOL    HW128610   2.896   4.098   6.970  2.0016  0.6723 -0.5766
 5716SOL    HW228611   2.819   4.056   6.847 -0.5645 -0.9224  1.7162
 5717SOL     OW28612   0.898   3.145   3.824 -0.6629  0.2215  0.3048
 5717SOL    HW128613   0.984   3.114   3.853  0.3960  0.9881 -2.0000
 5717SOL    HW228614   0.844   3.160   3.901 -0.8591  0.0340  0.2029
 5718SOL     OW28615   1.194   3.989  17.599  0.6399 -0.7077 -0.3496
 5718SOL    HW128616   1.205   3.896  17.621  0.1389 -1.0475 -1.5286
 5718SOL    HW228617   1.142   4.019  17.674 -0.2447 -0.0752 -1.2195
 5719SOL     OW28618   2.216   2.274  10.317 -0.0768  0.0184 -0.7373
 5719SOL    HW128619   2.178   2.270  10.405  1.1362  1.2943 -0.1564
 5719SOL    HW228620   2.143   2.239  10.265 -0.3777  2.9260 -2.2826
 5720SOL     OW28621   2.041   1.248  13.314 -0.2186  0.2720 -0.6824
 5720SOL    HW128622   2.078   1.209  13.394 -2.4477 -0.3480  0.0550
 5720SOL    HW228623   1.955   1.280  13.342 -1.0148 -2.8702  0.4366
 5721SOL     OW28624   4.649   4.140   0.847 -0.0448 -0.6997  0.4468
 5721SOL    HW128625   4.609   4.166   0.929 -1.0104 -0.3239 -0.1477
 5721SOL    HW228626   0.009   4.106   0.887  0.8652  1.8138  0.7002
 5722SOL     OW28627   2.034   0.650   7.405  0.4048  0.6014 -0.2238
 5722SOL    HW128628   2.025   0.596   7.326  0.0723  1.4303 -0.7609
 5722SOL    HW228629   2.091   0.721   7.374  0.1711  0.0905 -1.8356
 5723SOL     OW28630   2.688   3.868  16.077 -0.2239  0.1546 -0.5146
 5723SOL    HW128631   2.650   3.955  16.070 -2.3655 -0.5514  2.1224
 5723SOL    HW228632   2.672   3.832  15.990 -1.7972  2.1089 -1.0402
 5724SOL     OW28633   3.099   0.658  10.173  0.2799 -0.3888  0.2905
 5724SOL    HW128634   3.118   0.645  10.266  0.0694 -0.9698  0.2492
 5724SOL    HW228635   3.006   0.673  10.187  0.4643  1.2483 -0.2363
 5725SOL     OW28636   3.490   3.463   3.728  0.6740  0.5073 -0.2128
 5725SOL    HW128637   3.462   3.524   3.660 -0.1420 -0.4287 -0.7231
 5725SOL    HW228638   3.441   3.381   3.718 -0.5017  1.3056 -1.0747
 5726SOL     OW28639   4.147   4.625   2.884  0.3492  0.0081 -0.1214
 5726SOL    HW128640   4.061   4.586   2.873 -0.5525  2.9623 -3.6588
 5726SOL    HW228641   4.171   4.629   2.791 -1.0151 -0.3333 -0.4756
 5727SOL     OW28642   1.645   2.123   3.045 -0.8891 -0.0720 -0.2138
 5727SOL    HW128643   1.657   2.121   3.140 -0.9374  1.3533 -0.1813
 5727SOL    HW228644   1.608   2.211   3.043 -1.2476 -0.2415 -0.9941
 5728SOL     OW28645   0.953   1.064   3.463  0.6019 -0.7224 -0.2705
 5728SOL    HW128646   0.972   0.976   3.497 -0.5110 -0.9686 -0.3028
 5728SOL    HW228647   0.998   1.120   3.525 -0.4383  2.0049 -1.9944
 5729SOL     OW28648   0.427   2.371   7.475  0.2658  0.4292  0.0385
 5729SOL    HW128649   0.365   2.340   7.410 -0.3346  0.2536  0.6892
 5729SOL    HW228650   0.369   2.365   7.551  1.8192 -1.4639  1.0641
 5730SOL     OW28651   4.610   3.926  11.407 -0.3410  0.2913  0.7522
 5730SOL    HW128652   4.582   3.882  11.487 -0.7835 -0.9926 -0.0974
 5730SOL    HW228653   4.555   3.879  11.343  0.3361  0.8065 -0.2038
 5731SOL     OW28654   1.514   4.211   9.280  0.6535  0.2902 -0.1462
 5731SOL    HW128655   1.419   4.198   9.276  0.8180 -0.9698  0.0229
 5731SOL    HW228656   1.520   4.270   9.355  0.2151  0.2119 -0.0458
 5732SOL     OW28657   2.167   3.131  10.882  0.5411  0.1262 -0.5852
 5732SOL    HW128658   2.251   3.171  10.861  0.3500  0.7727 -0.1193
 5732SOL    HW228659   2.189   3.040  10.899 -0.8605  0.0318  0.7656
 5733SOL     OW28660   0.909   1.760   5.050 -0.9217 -0.5527 -0.3819
 5733SOL    HW128661   0.935   1.704   4.977  1.1990 -0.7177  0.4945
 5733SOL    HW228662   0.820   1.789   5.030 -1.2485 -0.6825  0.8906
 5734SOL     OW28663   3.167   1.218   7.955 -0.8169  0.3034  0.7600
 5734SOL    HW128664   3.219   1.219   7.875 -2.4326  2.6172 -0.2365
 5734SOL    HW228665   3.151   1.311   7.968  0.2699  0.7233 -0.9131
 5735SOL     OW28666   2.194   3.492   2.324  0.1317  0.2562 -0.2509
 5735SOL    HW128667   2.281   3.452   2.331  0.3724  0.9125  0.4874
 5735SOL    HW228668   2.212   3.533   2.240 -1.5399  0.7533 -0.3475
 5736SOL     OW28669   1.986   3.674   0.141  0.3724  0.3642  0.1137
 5736SOL    HW128670   1.986   3.620   0.220 -2.7890  0.2826  0.0545
 5736SOL    HW228671   1.961   3.609   0.076  2.5988 -0.0758 -0.3101
 5737SOL     OW28672   0.259   0.056   5.153  0.5665  0.4213  0.3560
 5737SOL    HW128673   0.205   4.717   5.100 -0.2830 -0.8829  2.6716
 5737SOL    HW228674   0.335   0.067   5.096 -0.4255  2.8530 -0.4896
 5738SOL     OW28675   4.633   2.966   6.136  0.6614 -0.0964  0.5145
 5738SOL    HW128676   4.564   3.030   6.154 -0.0923 -0.4033 -1.3011
 5738SOL    HW228677   4.630   2.906   6.211  1.7291  0.8985  1.3652
 5739SOL     OW28678   2.702   2.323  17.564  0.1670 -0.2593 -0.8114
 5739SOL    HW128679   2.697   2.319  17.659  1.6819 -2.3208 -0.8067
 5739SOL    HW228680   2.628   2.270  17.532 -0.3517  1.1621 -1.9758
 5740SOL     OW28681   4.223   2.200   9.760 -0.5239 -0.0009 -0.0260
 5740SOL    HW128682   4.229   2.109   9.730  0.1410 -0.3079  1.0468
 5740SOL    HW228683   4.245   2.241   9.677 -0.6638 -0.9430 -0.5279
 5741SOL     OW28684   0.800   2.217   8.665 -0.0084 -0.0598 -0.7388
 5741SOL    HW128685   0.721   2.244   8.712 -0.9971  0.7896 -2.9024
 5741SOL    HW228686   0.820   2.297   8.617 -0.0920 -1.2793 -2.7966
 5742SOL     OW28687   3.418   3.802  13.476 -0.2301 -0.3818 -0.3455
 5742SOL    HW128688   3.509   3.787  13.501 -0.6618 -2.0739  0.2173
 5742SOL    HW228689   3.381   3.816  13.563 -0.3162  2.2385 -0.8003
 5743SOL     OW28690   0.877   0.519   6.473 -0.3918  0.1661  0.3783
 5743SOL    HW128691   0.886   0.482   6.385  0.0217  0.1526  0.4259
 5743SOL    HW228692   0.889   0.610   6.448 -0.2490  0.2324  0.6894
 5744SOL     OW28693   3.538   3.831   3.909  0.0648 -0.1289  0.4233
 5744SOL    HW128694   3.598   3.771   3.864  1.2955 -0.3321  2.3268
 5744SOL    HW228695   3.598   3.874   3.971  0.1752 -0.6822  0.6996
 5745SOL     OW28696   1.150   1.414   7.128 -0.1447 -0.5766  0.6442
 5745SOL    HW128697   1.124   1.491   7.077  0.6856 -1.3864 -1.0226
 5745SOL    HW228698   1.145   1.451   7.216  1.4090 -0.0879  0.5230
 5746SOL     OW28699   2.977   0.654   2.299 -0.6949 -0.1396  0.0336
 5746SOL    HW128700   3.019   0.573   2.268  1.3148  1.8761 -2.4280
 5746SOL    HW228701   2.886   0.622   2.304 -0.9214  0.7245  1.3235
 5747SOL     OW28702   0.805   1.579   2.805  0.7059  0.0133  0.0023
 5747SOL    HW128703   0.754   1.634   2.744  0.4934 -1.5471 -1.2383
 5747SOL    HW228704   0.891   1.615   2.783  0.7692  0.0488  0.3167
 5748SOL     OW28705   0.844   3.147   0.773  0.1394  0.1333 -0.1250
 5748SOL    HW128706   0.835   3.230   0.727  2.1883  1.1507  1.3250
 5748SOL    HW228707   0.819   3.087   0.703  1.6211 -1.4373  0.6810
 5749SOL     OW28708   0.118   2.888   1.676 -0.2081 -0.7426  0.0341
 5749SOL    HW128709   0.089   2.797   1.667 -0.4086 -0.7754  0.9721
 5749SOL    HW228710   0.134   2.896   1.770 -0.8996  1.4649 -0.0362
 5750SOL     OW28711   3.175   1.044   6.981  0.4281 -0.6797  0.1831
 5750SOL    HW128712   3.200   1.136   6.991  1.4767 -0.6373 -2.6735
 5750SOL    HW228713   3.221   1.020   7.061 -1.0170  1.4764  1.6423
 5751SOL     OW28714   3.045   2.772   6.416 -0.0085 -0.1361  0.3493
 5751SOL    HW128715   3.082   2.749   6.501  1.0319  0.0786 -0.0484
 5751SOL    HW228716   3.003   2.853   6.444  2.1308  0.0338  3.0649
 5752SOL     OW28717   3.887   3.267  12.424 -0.4407  0.8242 -0.2865
 5752SOL    HW128718   3.885   3.289  12.517 -1.1094 -0.9763  0.1094
 5752SOL    HW228719   3.969   3.218  12.427 -1.1299 -0.3513 -0.8173
 5753SOL     OW28720   0.856   1.956   2.186  0.3739  0.7952  0.0354
 5753SOL    HW128721   0.778   2.010   2.198  1.3090  2.3562 -0.9148
 5753SOL    HW228722   0.918   1.997   2.247 -0.0080  2.6153 -0.7933
 5754SOL     OW28723   3.450   0.375   3.439 -0.5321 -0.1427  0.1417
 5754SOL    HW128724   3.502   0.437   3.387  0.1312  1.4283  2.6509
 5754SOL    HW228725   3.511   0.315   3.481  0.3957  0.8388  0.2002
 5755SOL     OW28726   2.225   1.100  13.960  0.2118  0.3497  0.4382
 5755SOL    HW128727   2.289   1.065  14.022 -0.1687  0.1285  0.7070
 5755SOL    HW228728   2.141   1.080  14.000 -0.5248  1.1528 -0.7300
 5756SOL     OW28729   3.566   1.540   4.153  0.0110  0.4187 -0.2265
 5756SOL    HW128730   3.577   1.481   4.078 -0.4783  2.0417 -1.5681
 5756SOL    HW228731   3.556   1.622   4.105  1.2270  0.8970  0.3438
 5757SOL     OW28732   3.971   2.507   6.176 -0.4329  0.0140 -0.1965
 5757SOL    HW128733   3.927   2.493   6.259  0.9795  0.1534  0.5757
 5757SOL    HW228734   4.054   2.540   6.212 -1.2897  1.3348  0.5726
 5758SOL     OW28735   2.658   0.106   5.972  0.0492  0.4301 -0.2710
 5758SOL    HW128736   2.661   0.066   6.059  1.4868  0.4455 -0.3189
 5758SOL    HW228737   2.578   0.155   5.992 -1.1594 -0.6648 -2.4081
 5759SOL     OW28738   2.437   3.253   6.477  0.3534  0.0063  1.3303
 5759SOL    HW128739   2.475   3.338   6.455  1.0491 -0.4090  0.9319
 5759SOL    HW228740   2.457   3.207   6.395  3.0326  0.7970  1.5726
 5760SOL     OW28741   1.449   2.776   8.886 -0.3451  0.0389  0.8099
 5760SOL    HW128742   1.395   2.812   8.816 -0.9340 -0.3536  1.0589
 5760SOL    HW228743   1.410   2.692   8.909 -3.1294  1.0262 -0.3202
 5761SOL     OW28744   1.739   0.341  14.996  0.1757  0.3050 -0.4461
 5761SOL    HW128745   1.703   0.320  15.082 -2.4015 -0.4474 -1.7263
 5761SOL    HW228746   1.717   0.268  14.939 -1.2297 -0.4393  1.0597
 5762SOL     OW28747   1.418   3.758   5.160 -0.2295  0.6431 -0.0342
 5762SOL    HW128748   1.434   3.774   5.253 -0.6605  0.3544  0.0902
 5762SOL    HW228749   1.472   3.680   5.149 -1.2571 -0.2473  1.1360
 5763SOL     OW28750   1.349   2.623   6.680  0.5192 -0.1475  0.1296
 5763SOL    HW128751   1.327   2.630   6.773 -0.2863 -0.7725 -0.0163
 5763SOL    HW228752   1.428   2.570   6.680  0.9661  0.5244 -1.8221
 5764SOL     OW28753   1.605   4.220  14.935  0.9707  0.6529  0.0384
 5764SOL    HW128754   1.692   4.201  14.899  0.3876 -3.5116  0.8104
 5764SOL    HW228755   1.629   4.170  15.014  1.7311 -1.1128 -1.3066
 5765SOL     OW28756   4.529   3.795  16.983 -0.4693 -0.0039 -0.0118
 5765SOL    HW128757   4.502   3.870  16.931 -1.0936  0.3064  0.7543
 5765SOL    HW228758   4.524   3.724  16.919  0.5203 -1.7705  1.8759
 5766SOL     OW28759   2.958   2.457   8.759  0.4140 -0.3596 -0.1555
 5766SOL    HW128760   2.995   2.470   8.846  0.5184  0.0268 -0.2542
 5766SOL    HW228761   2.929   2.546   8.738 -0.0056 -0.7674 -1.2755
 5767SOL     OW28762   3.219   3.284  15.245  0.2375 -0.4129  0.1440
 5767SOL    HW128763   3.268   3.355  15.202 -0.7989  0.8509  1.0569
 5767SOL    HW228764   3.241   3.314  15.333 -2.8072 -0.1233  0.8191
 5768SOL     OW28765   2.876   0.968   5.351  0.2459  0.5250  0.6270
 5768SOL    HW128766   2.805   0.938   5.294  0.5535 -1.2209  1.1867
 5768SOL    HW228767   2.869   1.063   5.339 -1.7813  0.3681  0.4621
 5769SOL     OW28768   2.408   0.758   3.683 -0.2540  0.7253 -0.2995
 5769SOL    HW128769   2.418   0.665   3.705  2.4701  1.0884  0.0898
 5769SOL    HW228770   2.431   0.770   3.591  1.0257  4.0709  0.4292
 5770SOL     OW28771   2.378   1.415   0.626 -0.2293  0.2989  0.4826
 5770SOL    HW128772   2.292   1.404   0.586  0.4679  1.2792 -1.2926
 5770SOL    HW228773   2.400   1.323   0.638 -2.2048 -0.2828 -0.4854
 5771SOL     OW28774   2.634   4.138  15.765  0.2372  0.2784  0.2002
 5771SOL    HW128775   2.650   4.176  15.679  3.0577  0.3945  0.7771
 5771SOL    HW228776   2.622   4.212  15.824  0.3056 -0.3714  1.0429
 5772SOL     OW28777   4.622   4.568   1.939 -0.5188  0.0672 -0.2731
 5772SOL    HW128778   4.591   4.560   1.848  1.4619  0.5556 -0.9801
 5772SOL    HW228779   4.569   4.507   1.990 -0.1907 -1.1256 -1.3741
 5773SOL     OW28780   1.840   4.561   9.000  0.3572 -0.5895  0.9034
 5773SOL    HW128781   1.798   4.500   8.940  2.1620 -1.1751  0.2315
 5773SOL    HW228782   1.933   4.538   9.004  1.1451  2.2875 -0.5350
 5774SOL     OW28783   4.655   2.292   6.832 -0.0842 -0.1292 -0.9740
 5774SOL    HW128784   4.623   2.372   6.792 -2.8530  0.1380  1.8610
 5774SOL    HW228785   4.581   2.233   6.846  1.1077 -0.6946  2.9901
 5775SOL     OW28786   0.507   4.417   7.541  0.5999 -0.8188  0.2016
 5775SOL    HW128787   0.599   4.419   7.567  0.7352 -1.4835 -0.2118
 5775SOL    HW228788   0.479   4.507   7.558  3.5884 -0.0537  1.0743
 5776SOL     OW28789   0.274   0.490   6.917  0.0191  0.0018  0.0598
 5776SOL    HW128790   0.199   0.547   6.904  0.8151  0.4879 -2.3689
 5776SOL    HW228791   0.302   0.520   7.003 -0.9504  2.5847 -0.5369
 5777SOL     OW28792   4.049   3.292   5.772  0.2792  0.4181  0.0308
 5777SOL    HW128793   4.025   3.291   5.679 -0.8865 -0.7626  0.3458
 5777SOL    HW228794   3.963   3.281   5.812  1.5458  0.0933  2.6173
 5778SOL     OW28795   1.562   1.399   5.409 -0.0265 -0.2028  0.1053
 5778SOL    HW128796   1.542   1.306   5.399 -1.3036  0.1545 -0.5690
 5778SOL    HW228797   1.474   1.435   5.415 -0.3549 -1.2507  1.3117
 5779SOL     OW28798   1.311   1.055   5.650 -0.0719  0.0721 -0.0590
 5779SOL    HW128799   1.282   1.123   5.711 -1.2029 -3.0423  2.8739
 5779SOL    HW228800   1.225   1.025   5.618 -0.9236  0.6401  1.6911
 5780SOL     OW28801   4.655   1.648   5.388  0.4667  0.4479 -0.4670
 5780SOL    HW128802   4.692   1.652   5.300  1.5326  0.6947 -0.0214
 5780SOL    HW228803   4.679   1.736   5.419  2.4674 -0.7252  1.3078
 5781SOL     OW28804   0.784   0.108  16.663 -0.3281 -0.4128  0.4703
 5781SOL    HW128805   0.878   0.095  16.659  0.3249  4.7346 -1.1404
 5781SOL    HW228806   0.747   0.064  16.586 -1.7487  0.6520  0.5336
 5782SOL     OW28807   1.846   1.199  10.429  0.0189  0.0432  0.4691
 5782SOL    HW128808   1.936   1.228  10.446 -0.1574 -0.5548  2.4517
 5782SOL    HW228809   1.860   1.207  10.335 -0.6500  1.3539  0.4844
 5783SOL     OW28810   4.043   1.533   3.367 -0.4543 -0.6921  0.1478
 5783SOL    HW128811   4.130   1.498   3.353 -0.8520 -2.0123  0.9882
 5783SOL    HW228812   4.060   1.600   3.433 -0.6848  0.3295 -0.8280
 5784SOL     OW28813   4.559   2.801   8.147  0.3370 -0.4896 -0.0128
 5784SOL    HW128814   4.524   2.761   8.226  0.0443  0.1843  0.1965
 5784SOL    HW228815   4.536   2.743   8.074 -5.2119  2.1209 -0.3250
 5785SOL     OW28816   0.726   2.783   8.413  0.0252 -0.4444  0.1740
 5785SOL    HW128817   0.723   2.879   8.418  0.3184 -0.4767  0.9476
 5785SOL    HW228818   0.794   2.767   8.348  0.7489 -2.2498  1.3975
 5786SOL     OW28819   0.833   2.035   8.342 -0.1912  0.2715  0.2039
 5786SOL    HW128820   0.826   2.119   8.297  2.3769  1.1973  1.4981
 5786SOL    HW228821   0.758   2.032   8.401  0.1275  0.1371  0.6065
 5787SOL     OW28822   0.915   4.140  13.301 -0.5638  0.4384  0.1056
 5787SOL    HW128823   0.925   4.228  13.337 -1.7131 -0.0175  1.5313
 5787SOL    HW228824   0.828   4.118  13.335  0.3936 -2.3146  0.8243
 5788SOL     OW28825   3.761   1.146   3.378 -0.4741  0.2593  0.4280
 5788SOL    HW128826   3.668   1.131   3.364 -0.5356 -1.3970  2.6796
 5788SOL    HW228827   3.752   1.234   3.413 -0.1561  0.1588  0.7633
 5789SOL     OW28828   1.408   2.456   8.575 -0.4777 -0.0180  0.2687
 5789SOL    HW128829   1.470   2.479   8.506  1.5918 -1.2261  1.6744
 5789SOL    HW228830   1.463   2.396   8.627  2.9539  1.0019 -2.2380
 5790SOL     OW28831   1.708   0.740   4.041  0.3059  0.1498  0.5626
 5790SOL    HW128832   1.669   0.731   4.128 -1.7996  1.6456 -0.2359
 5790SOL    HW228833   1.636   0.711   3.986 -0.0532  1.5961  0.2692
 5791SOL     OW28834   0.745   2.510   7.491 -0.2772  0.0446  0.0705
 5791SOL    HW128835   0.809   2.486   7.425 -0.1014  1.5309 -0.2948
 5791SOL    HW228836   0.808   2.520   7.562 -0.2318 -0.5289  0.1124
 5792SOL     OW28837   4.573   4.031  16.141  0.2650 -0.4887 -0.0528
 5792SOL    HW128838   4.643   3.995  16.195  0.1534  0.0214  0.4292
 5792SOL    HW228839   4.605   4.007  16.054  3.5016  1.4137  0.6312
 5793SOL     OW28840   0.145   1.309  15.784 -0.2374 -0.0879  0.2336
 5793SOL    HW128841   0.155   1.236  15.724 -1.0774  0.7882 -0.9527
 5793SOL    HW228842   0.185   1.374  15.727  0.7340  1.9188  3.1947
 5794SOL     OW28843   2.303   3.115  13.827 -0.1932  0.5012 -0.5515
 5794SOL    HW128844   2.262   3.087  13.908  2.7018  0.8612  1.0323
 5794SOL    HW228845   2.306   3.032  13.780 -1.6357  0.1174  0.0323
 5795SOL     OW28846   0.663   4.697   4.240  0.0861  0.2646  0.0184
 5795SOL    HW128847   0.598   0.040   4.213 -0.1208 -0.2357 -0.6805
 5795SOL    HW228848   0.707   4.690   4.156 -0.8050  1.6814 -0.5638
 5796SOL     OW28849   0.697   2.198   1.884  0.6055 -0.2247  0.5232
 5796SOL    HW128850   0.649   2.235   1.810  0.3982  0.7912  1.1678
 5796SOL    HW228851   0.654   2.113   1.896 -1.7603  1.0285  0.8633
 5797SOL     OW28852   1.882   1.552   6.850 -0.4621 -0.1992  0.3556
 5797SOL    HW128853   1.873   1.626   6.789  0.2808  0.6004  1.2235
 5797SOL    HW228854   1.975   1.546   6.871 -0.2717 -2.2106 -1.0920
 5798SOL     OW28855   1.203   1.621  12.572 -0.0153 -0.4593 -0.7621
 5798SOL    HW128856   1.230   1.612  12.481  1.4879 -1.9699 -0.1668
 5798SOL    HW228857   1.248   1.542  12.602  1.8304  0.9258  0.1683
 5799SOL     OW28858   1.820   3.789  12.625  0.2611  0.3204 -0.1418
 5799SOL    HW128859   1.771   3.733  12.685 -1.0421 -0.3845 -1.8517
 5799SOL    HW228860   1.905   3.747  12.639  0.3653  0.5553 -0.0684
 5800SOL     OW28861   0.256   1.534   7.624  0.0951  0.0933 -0.1135
 5800SOL    HW128862   0.207   1.608   7.659 -1.8787 -0.7280 -1.1462
 5800SOL    HW228863   0.348   1.558   7.629  0.3352 -0.6432 -0.9281
 5801SOL     OW28864   0.284   0.392   5.006 -0.0963  0.6034  0.1117
 5801SOL    HW128865   0.292   0.417   5.098 -0.6136  3.1013 -0.5245
 5801SOL    HW228866   0.202   0.429   4.973 -0.0896 -0.8110 -1.5558
 5802SOL     OW28867   1.294   1.225   7.384  0.5844  0.6449  0.6149
 5802SOL    HW128868   1.260   1.313   7.368  0.7095  0.0532 -2.9304
 5802SOL    HW228869   1.268   1.170   7.310 -0.0110 -1.1051  2.1159
 5803SOL     OW28870   3.961   0.892   4.221 -0.0707 -0.2140  0.0307
 5803SOL    HW128871   3.899   0.822   4.240 -0.5581  0.0284 -0.6687
 5803SOL    HW228872   4.039   0.838   4.204 -0.3083 -1.6947  3.5882
 5804SOL     OW28873   3.831   0.764   4.944 -0.5787  0.0285 -0.0946
 5804SOL    HW128874   3.906   0.820   4.926 -0.5791 -0.8959 -3.0369
 5804SOL    HW228875   3.795   0.803   5.023  1.5817 -2.9781  2.3700
 5805SOL     OW28876   3.449   2.428   9.055  0.4962 -0.4074 -0.2285
 5805SOL    HW128877   3.443   2.340   9.092 -3.9850  0.3459  0.8598
 5805SOL    HW228878   3.541   2.426   9.031  1.0772  0.2539  1.9381
 5806SOL     OW28879   3.635   2.906  13.424  0.0057  0.2469 -0.3290
 5806SOL    HW128880   3.569   2.969  13.395 -1.5925 -0.4303  1.8412
 5806SOL    HW228881   3.625   2.904  13.519  0.8962 -0.1926 -0.2487
 5807SOL     OW28882   2.420   3.851   3.655  0.2108 -0.0640  0.7144
 5807SOL    HW128883   2.416   3.766   3.609  0.6997  0.1118  0.3452
 5807SOL    HW228884   2.515   3.862   3.647  0.4413 -1.9819  0.8369
 5808SOL     OW28885   0.929   3.168   1.745 -0.0916  0.3023  0.2702
 5808SOL    HW128886   0.860   3.150   1.809 -0.6609  1.8570  0.0797
 5808SOL    HW228887   0.872   3.155   1.669  0.2907  0.0580  0.0232
 5809SOL     OW28888   1.288   2.349   0.787  0.4172  0.3339  0.8240
 5809SOL    HW128889   1.330   2.373   0.705 -2.8070  0.1709 -0.9032
 5809SOL    HW228890   1.219   2.416   0.783 -0.8769 -1.0621 -0.3816
 5810SOL     OW28891   1.033   0.808   1.560 -0.0515  0.2251 -0.3178
 5810SOL    HW128892   1.000   0.729   1.602  2.0146 -2.6347 -4.0874
 5810SOL    HW228893   1.034   0.785   1.467  1.0319 -0.4166 -0.1430
 5811SOL     OW28894   1.444   2.765   4.813 -0.7004  0.0822 -0.1705
 5811SOL    HW128895   1.392   2.781   4.892  0.9863 -2.3438  1.3892
 5811SOL    HW228896   1.393   2.799   4.739 -1.8851 -2.6875 -0.6078
 5812SOL     OW28897   0.219   0.430   9.312  0.1791 -0.2383  0.4293
 5812SOL    HW128898   0.126   0.454   9.304  0.1733  0.3376  2.0871
 5812SOL    HW228899   0.235   0.411   9.220 -0.7991 -0.8642  0.3896
 5813SOL     OW28900   0.903   3.388  11.683  0.0463 -0.4854  0.3740
 5813SOL    HW128901   0.866   3.313  11.636 -3.5709 -0.2102  2.7788
 5813SOL    HW228902   0.865   3.370  11.769  0.4913 -0.3100  0.6070
 5814SOL     OW28903   2.248   1.617  13.028 -0.2828  0.0427 -0.4752
 5814SOL    HW128904   2.312   1.685  13.008  0.5526 -0.6409 -0.1385
 5814SOL    HW228905   2.183   1.621  12.958 -3.6199 -1.5983  2.5406
 5815SOL     OW28906   3.009   3.498   8.317 -0.0816 -0.2104 -0.1671
 5815SOL    HW128907   2.974   3.441   8.385  1.3392 -0.4667  0.3545
 5815SOL    HW228908   2.970   3.576   8.358  1.0840  1.0581 -1.4728
 5816SOL     OW28909   4.368   4.352  12.039  0.0562  0.5302  0.1887
 5816SOL    HW128910   4.340   4.435  12.000  0.3933  0.3476 -0.4320
 5816SOL    HW228911   4.462   4.365  12.028  0.1662 -0.2369  0.2498
 5817SOL     OW28912   3.301   2.703   6.657 -0.0608 -0.1995  0.0442
 5817SOL    HW128913   3.250   2.735   6.731  1.7818  1.2840  0.6781
 5817SOL    HW228914   3.336   2.785   6.622 -0.6018 -0.1299 -0.3424
 5818SOL     OW28915   0.254   0.354   0.152  0.0368 -0.3513 -0.0103
 5818SOL    HW128916   0.292   0.317   0.072 -0.6439 -0.2016 -0.4055
 5818SOL    HW228917   0.316   0.325   0.218  0.3162 -1.6629 -0.8538
 5819SOL     OW28918   0.729   2.446   5.009  0.0291  0.2829  0.5189
 5819SOL    HW128919   0.688   2.368   5.047 -1.8032  0.5117 -1.0280
 5819SOL    HW228920   0.675   2.463   4.932 -1.7628 -0.2054  1.6628
 5820SOL     OW28921   1.692   0.136   5.721  0.4111  0.0741  0.0993
 5820SOL    HW128922   1.607   0.164   5.686  1.1107  2.5471  0.3765
 5820SOL    HW228923   1.694   0.177   5.807 -0.6496 -0.9889  0.6346
 5821SOL     OW28924   4.615   1.606   2.676  0.0716 -0.4233  0.4386
 5821SOL    HW128925   4.559   1.633   2.749 -1.5502  0.0553 -0.9948
 5821SOL    HW228926   4.570   1.659   2.611  0.0514 -0.6654  0.2584
 5822SOL     OW28927   2.567   2.794  11.033 -0.1120 -0.1122  0.4537
 5822SOL    HW128928   2.528   2.771  11.117 -0.6448  0.3703  0.3368
 5822SOL    HW228929   2.506   2.748  10.976 -0.2608  2.0102 -1.1124
 5823SOL     OW28930   2.510   3.734   1.773 -0.3532  0.2704  0.1263
 5823SOL    HW128931   2.569   3.681   1.719 -0.4623 -0.8907  1.1505
 5823SOL    HW228932   2.432   3.683   1.749 -0.3275 -0.1423  0.9389
 5824SOL     OW28933   4.410   3.202   3.696 -0.3324 -0.2648 -0.1223
 5824SOL    HW128934   4.413   3.140   3.624  1.1446  0.7590 -0.9289
 5824SOL    HW228935   4.497   3.193   3.736 -0.1589  1.5001 -0.0747
 5825SOL     OW28936   4.676   0.727   8.809 -0.0406 -0.2394  0.0966
 5825SOL    HW128937   0.018   0.742   8.879  0.0965 -2.3909  0.4472
 5825SOL    HW228938   4.653   0.636   8.831 -3.1931  0.9716  1.7761
 5826SOL     OW28939   3.368   0.692   5.518 -0.4495 -0.1277 -0.0845
 5826SOL    HW128940   3.308   0.678   5.591 -0.6580  0.9106 -0.0558
 5826SOL    HW228941   3.378   0.786   5.535  2.7930 -0.6817  1.1627
 5827SOL     OW28942   3.978   0.137   2.155 -0.3990 -0.1652 -0.9562
 5827SOL    HW128943   3.958   0.195   2.082 -3.7246 -0.8377 -0.5793
 5827SOL    HW228944   3.963   0.207   2.219  0.7112 -2.2828  1.5763
 5828SOL     OW28945   0.377   0.816  14.746 -0.2661 -0.9424 -0.5548
 5828SOL    HW128946   0.383   0.781  14.657 -0.9974 -0.8850 -0.6216
 5828SOL    HW228947   0.328   0.896  14.728  2.6892  0.5209 -2.0162
 5829SOL     OW28948   4.285   2.995  13.245 -0.1446  0.8196 -0.1887
 5829SOL    HW128949   4.237   3.030  13.170  0.7510  1.6331 -0.3698
 5829SOL    HW228950   4.287   3.077  13.294 -1.5971  0.6278  0.2140
 5830SOL     OW28951   2.770   3.782   4.151  0.7645  0.2761 -0.0129
 5830SOL    HW128952   2.697   3.768   4.211 -0.7609  0.7197 -1.7930
 5830SOL    HW228953   2.836   3.793   4.220  2.1513  1.2214 -1.4884
 5831SOL     OW28954   3.469   0.427   8.409 -0.3468  0.0546 -0.3629
 5831SOL    HW128955   3.436   0.486   8.477  2.7148 -0.1134  1.2443
 5831SOL    HW228956   3.488   0.341   8.446 -0.7499  0.5365  0.9483
 5832SOL     OW28957   2.104   1.329   5.825  0.2333 -0.3909  0.1488
 5832SOL    HW128958   2.054   1.301   5.902 -0.6411 -2.0556 -0.9954
 5832SOL    HW228959   2.092   1.244   5.782 -2.0570  0.2859 -0.5168
 5833SOL     OW28960   1.482   1.048  11.117 -0.1836  0.3737  0.0990
 5833SOL    HW128961   1.477   1.094  11.033 -0.3578  1.2454  0.5887
 5833SOL    HW228962   1.390   1.032  11.140  0.1662 -0.9554  0.5983
 5834SOL     OW28963   2.532   1.105   3.600 -0.4687  0.2564 -0.0580
 5834SOL    HW128964   2.609   1.161   3.589 -1.0982  1.3559  1.1405
 5834SOL    HW228965   2.476   1.140   3.530  0.6756  1.6077 -0.2951
 5835SOL     OW28966   0.573   4.008  13.630 -0.5147 -0.6306  0.1588
 5835SOL    HW128967   0.622   3.980  13.707  0.0053  1.2027  0.4998
 5835SOL    HW228968   0.488   4.028  13.670  0.2022  2.8444 -0.0235
 5836SOL     OW28969   0.849   1.487   7.659  0.0022  0.0173  0.0941
 5836SOL    HW128970   0.770   1.541   7.659 -0.9672 -1.4089  0.2794
 5836SOL    HW228971   0.822   1.396   7.649 -2.5927  0.8839 -0.8921
 5837SOL     OW28972   1.658   1.575   5.945 -0.2071  0.1553  0.1461
 5837SOL    HW128973   1.639   1.483   5.927 -0.6922  0.4902 -1.0543
 5837SOL    HW228974   1.725   1.588   5.877 -0.1428  1.0821  0.3853
 5838SOL     OW28975   0.791   2.945   3.679  0.5165  0.1552  0.1236
 5838SOL    HW128976   0.823   2.943   3.588  0.8460  1.5604  0.2089
 5838SOL    HW228977   0.833   3.020   3.721  0.9236 -0.5010  0.8840
 5839SOL     OW28978   3.069   1.014  14.115  0.3491 -0.0687 -0.0296
 5839SOL    HW128979   3.094   0.998  14.024 -0.7473 -1.5942 -0.0565
 5839SOL    HW228980   3.138   0.963  14.158 -0.3154  0.3454  1.5542
 5840SOL     OW28981   2.956   4.224  11.812  0.3940 -0.1687 -0.1367
 5840SOL    HW128982   2.872   4.211  11.857  1.6516 -2.7209  1.4649
 5840SOL    HW228983   2.999   4.139  11.816 -1.7577 -1.3021 -0.8618
 5841SOL     OW28984   2.238   2.852   3.832  0.0271  0.1184  0.0878
 5841SOL    HW128985   2.332   2.846   3.815 -0.1261 -2.0320 -0.0098
 5841SOL    HW228986   2.218   2.935   3.790  4.5699  0.1328 -2.0773
 5842SOL     OW28987   4.711   3.866   8.393 -0.5448  0.1190  0.4852
 5842SOL    HW128988   4.713   3.835   8.303 -0.5763 -1.3235  0.9954
 5842SOL    HW228989   0.002   3.783   8.438 -1.2617 -0.0465  0.3598
 5843SOL     OW28990   0.981   2.805   7.832 -1.0251  0.2981  0.1446
 5843SOL    HW128991   0.945   2.855   7.758 -0.6370  1.6202  0.8531
 5843SOL    HW228992   0.935   2.840   7.909 -3.4647  0.0340 -1.1696
 5844SOL     OW28993   0.463   2.501   6.863 -0.1425 -0.0225  0.5430
 5844SOL    HW128994   0.556   2.523   6.867 -0.1145  0.1981 -1.3671
 5844SOL    HW228995   0.430   2.555   6.936  1.0636 -0.1710  1.1884
 5845SOL     OW28996   1.166   3.335   3.937  0.0198 -0.8693  0.8127
 5845SOL    HW128997   1.253   3.369   3.959 -0.1592 -1.2327  2.0415
 5845SOL    HW228998   1.104   3.408   3.933 -0.8922 -1.6267  1.1625
 5846SOL     OW28999   0.205   1.273   7.553  0.5153 -0.1443 -0.6280
 5846SOL    HW129000   0.212   1.361   7.590  2.9309 -1.0564  1.0655
 5846SOL    HW229001   0.229   1.294   7.463  1.6491 -1.4288 -0.6185
 5847SOL     OW29002   0.876   1.143   2.881 -0.1300  0.1592 -0.3686
 5847SOL    HW129003   0.822   1.092   2.942  2.5341  1.2340  2.9348
 5847SOL    HW229004   0.817   1.210   2.846  0.3710  0.0900 -1.3261
 5848SOL     OW29005   3.498   1.408   2.753  0.4222 -0.1663 -0.8294
 5848SOL    HW129006   3.461   1.493   2.774  0.0566 -0.3575 -0.6985
 5848SOL    HW229007   3.454   1.385   2.672  0.1875  1.6330 -1.2049
 5849SOL     OW29008   3.759   4.158   5.276 -0.7959  0.3740 -0.3374
 5849SOL    HW129009   3.756   4.133   5.183  1.0309 -1.4809  0.1097
 5849SOL    HW229010   3.669   4.137   5.300 -0.7724  2.0620  1.2010
 5850SOL     OW29011   2.583   2.274   5.221  0.0774 -0.0103  0.0482
 5850SOL    HW129012   2.646   2.241   5.285  1.0170  1.8042  0.0707
 5850SOL    HW229013   2.550   2.350   5.270  1.5362  0.6316  0.0373
 5851SOL     OW29014   2.175   1.722   1.274  0.1803  0.2343  0.0341
 5851SOL    HW129015   2.182   1.768   1.358 -4.7061  0.9483  0.0262
 5851SOL    HW229016   2.250   1.663   1.277  1.3696  1.7536  0.8170
 5852SOL     OW29017   3.403   2.818   0.911 -0.7931  0.1975  0.6616
 5852SOL    HW129018   3.430   2.808   0.820 -1.7008 -1.5533  0.5955
 5852SOL    HW229019   3.348   2.741   0.920  0.8547 -1.0382  0.1802
 5853SOL     OW29020   4.552   1.484  14.727  0.3188 -0.4184  0.0664
 5853SOL    HW129021   4.617   1.497  14.796 -0.1587  0.7762  0.3013
 5853SOL    HW229022   4.493   1.558  14.743 -2.4400 -1.8566 -3.5676
 5854SOL     OW29023   1.386   4.656   4.307  0.2277  0.0980  0.1519
 5854SOL    HW129024   1.388   4.684   4.215  1.1495  0.1529  0.1810
 5854SOL    HW229025   1.355   0.018   4.346  0.7985 -0.5566  1.9903
 5855SOL     OW29026   0.418   0.442   8.312  0.3193  0.4970  0.2697
 5855SOL    HW129027   0.415   0.492   8.230 -2.7502  1.4311  0.9384
 5855SOL    HW229028   0.338   0.462   8.360 -0.7695  0.4224 -1.5152
 5856SOL     OW29029   1.279   3.192   7.358 -0.3423  0.3213  0.1356
 5856SOL    HW129030   1.313   3.282   7.350  0.8259 -0.3097 -2.0401
 5856SOL    HW229031   1.290   3.164   7.267  0.4979 -0.6254  0.5242
 5857SOL     OW29032   4.088   4.245  16.600  0.5022  0.1805 -0.1147
 5857SOL    HW129033   4.085   4.305  16.525 -0.5395  2.2114  1.5387
 5857SOL    HW229034   3.997   4.217  16.602  0.0306  1.6535 -0.6414
 5858SOL     OW29035   2.323   3.646  16.259  0.4211 -0.3805 -0.8338
 5858SOL    HW129036   2.319   3.560  16.302 -3.8417  0.8532  1.2179
 5858SOL    HW229037   2.351   3.624  16.171  1.3512 -0.0146 -0.6281
 5859SOL     OW29038   3.850   2.120   9.386 -0.5124  0.0181 -0.2568
 5859SOL    HW129039   3.772   2.107   9.441  0.9544 -2.5762  1.1859
 5859SOL    HW229040   3.917   2.125   9.453 -0.1527  0.6238 -0.6593
 5860SOL     OW29041   1.212   4.043  10.951 -0.0650 -0.5389  0.1691
 5860SOL    HW129042   1.236   3.996  11.031 -0.2393  0.6410  0.9145
 5860SOL    HW229043   1.179   4.127  10.982 -0.8159 -1.2543  1.2959
 5861SOL     OW29044   2.825   1.989   0.335  0.6235 -0.5089 -0.5484
 5861SOL    HW129045   2.733   2.003   0.311  0.4659  0.4873  0.6510
 5861SOL    HW229046   2.816   1.909   0.387 -0.5192 -0.7785 -1.1481
 5862SOL     OW29047   3.669   0.862   3.370 -0.3015 -0.3666 -0.1507
 5862SOL    HW129048   3.741   0.922   3.388  0.3041 -1.4435  0.9982
 5862SOL    HW229049   3.605   0.909   3.317  0.9394  0.8888 -0.5375
 5863SOL     OW29050   2.910   2.371  13.821 -0.1182  0.7775  0.4277
 5863SOL    HW129051   2.935   2.458  13.852  0.0835  0.3882  1.3433
 5863SOL    HW229052   2.982   2.315  13.851 -0.7059  0.0825  0.5490
 5864SOL     OW29053   2.816   2.599   0.040 -0.2963 -0.0452  0.2753
 5864SOL    HW129054   2.748   2.600   0.107 -1.5250  2.9174 -1.0220
 5864SOL    HW229055   2.850   2.511   0.058 -0.0774  0.0509  0.3276
 5865SOL     OW29056   1.381   2.883  10.235 -0.0360  0.1614 -0.1192
 5865SOL    HW129057   1.406   2.973  10.257 -1.0661  0.5271 -0.4246
 5865SOL    HW229058   1.295   2.895  10.195  0.0895 -0.6224 -0.6199
 5866SOL     OW29059   3.645   1.838   4.878  0.3203  0.5676  0.2401
 5866SOL    HW129060   3.593   1.811   4.802 -0.3131 -1.8655  1.5372
 5866SOL    HW229061   3.582   1.840   4.951 -2.0900  0.9861 -1.8447
 5867SOL     OW29062   1.944   1.732   2.996 -0.0628 -0.2442 -0.0247
 5867SOL    HW129063   1.882   1.779   2.940 -1.3325 -1.2232  0.5589
 5867SOL    HW229064   2.021   1.788   2.986 -0.9334  0.7319 -1.3143
 5868SOL     OW29065   1.235   1.175   8.681 -0.0122  0.3390  0.7485
 5868SOL    HW129066   1.194   1.233   8.618  0.3468  0.7030  0.8508
 5868SOL    HW229067   1.312   1.143   8.634 -2.5350 -0.2017 -2.9865
 5869SOL     OW29068   4.407   2.819   7.525 -0.2160 -0.8262 -0.3150
 5869SOL    HW129069   4.323   2.858   7.501  0.8457  2.1805  0.8743
 5869SOL    HW229070   4.420   2.862   7.610 -2.8918  0.2459 -0.4694
 5870SOL     OW29071   1.713   3.423  15.300 -0.6190 -0.3869  0.3902
 5870SOL    HW129072   1.735   3.464  15.383  0.4841 -2.7835  1.2738
 5870SOL    HW229073   1.736   3.491  15.237  1.3294 -1.1562  0.2919
 5871SOL     OW29074   1.244   0.128   1.607  0.6228  0.0659  0.3576
 5871SOL    HW129075   1.322   0.166   1.648  0.0698  0.3576  1.1378
 5871SOL    HW229076   1.273   0.039   1.588  3.0577  0.7726  0.6737
 5872SOL     OW29077   2.145   4.160   7.334 -0.3578 -0.0621 -0.1930
 5872SOL    HW129078   2.153   4.071   7.369 -0.4236 -0.0637 -0.1803
 5872SOL    HW229079   2.207   4.199   7.394 -0.2913 -0.7913  0.2143
 5873SOL     OW29080   2.543   0.616   3.463 -0.2201 -0.4367  0.7838
 5873SOL    HW129081   2.579   0.703   3.478  0.0802 -0.4740  0.2651
 5873SOL    HW229082   2.563   0.574   3.547 -0.6145 -0.5704  0.8065
 5874SOL     OW29083   0.199   3.010   8.704  0.5036  0.3471  0.6393
 5874SOL    HW129084   0.295   3.001   8.706  0.4219 -0.3236  1.3387
 5874SOL    HW229085   0.192   3.101   8.676  0.9145  0.1346 -0.1484
 5875SOL     OW29086   1.508   2.057   1.087 -0.1239 -0.3450 -0.5299
 5875SOL    HW129087   1.503   2.021   1.176 -0.0211  0.6635 -0.1169
 5875SOL    HW229088   1.487   2.148   1.109 -3.0381 -1.4849  1.3888
 5876SOL     OW29089   2.557   3.247   2.116 -0.0626 -0.0405  0.0750
 5876SOL    HW129090   2.588   3.187   2.184  3.0857  0.6979 -0.6870
 5876SOL    HW229091   2.464   3.227   2.113 -0.4429  1.2202  3.2259
 5877SOL     OW29092   1.034   4.349  12.966  0.8205  0.2787 -0.0253
 5877SOL    HW129093   0.949   4.374  13.002  0.0108 -0.0010 -1.7144
 5877SOL    HW229094   1.059   4.282  13.029  1.4814  0.5957  0.0550
 5878SOL     OW29095   2.047   4.036  10.130  0.3620  0.0134  0.2668
 5878SOL    HW129096   2.121   4.065  10.078 -0.6000 -0.1514 -1.1909
 5878SOL    HW229097   2.002   3.984  10.063 -1.3110  1.6466  0.1326
 5879SOL     OW29098   1.698   2.592   4.475 -0.0428  0.6102 -0.2481
 5879SOL    HW129099   1.656   2.585   4.389  1.3933 -3.7728 -0.6034
 5879SOL    HW229100   1.791   2.592   4.455 -0.2594  0.0214 -1.2893
 5880SOL     OW29101   4.492   2.965  16.247  0.1984  0.2664 -0.1003
 5880SOL    HW129102   4.510   3.029  16.317  0.9400  0.0040 -0.0536
 5880SOL    HW229103   4.412   3.003  16.212 -0.7024 -1.2615  0.3156
 5881SOL     OW29104   1.679   1.651  15.939  0.0153 -0.3358  0.4180
 5881SOL    HW129105   1.619   1.721  15.914  0.3989 -0.2231 -0.1876
 5881SOL    HW229106   1.624   1.576  15.960 -0.2641 -0.0594  0.6661
 5882SOL     OW29107   1.927   3.092  13.338 -0.1237  0.6832  0.4540
 5882SOL    HW129108   1.941   3.110  13.431 -2.5810  3.9997  0.1838
 5882SOL    HW229109   1.943   2.998  13.336  0.4933  0.8672 -3.1371
 5883SOL     OW29110   4.386   1.040   6.365  0.1677 -0.6745  0.4274
 5883SOL    HW129111   4.436   0.991   6.431  0.5699  0.9868  1.3644
 5883SOL    HW229112   4.451   1.102   6.332  1.9552 -2.5982  0.2555
 5884SOL     OW29113   3.593   4.319   8.057  0.2554  0.2263  0.0278
 5884SOL    HW129114   3.581   4.312   8.152 -2.8983  1.0834 -0.3070
 5884SOL    HW229115   3.503   4.322   8.025  0.1069  1.1223  0.5382
 5885SOL     OW29116   2.864   3.762   7.020 -0.0077  0.4619 -0.2013
 5885SOL    HW129117   2.842   3.670   7.036 -0.5817  0.5404 -0.5571
 5885SOL    HW229118   2.794   3.778   6.957  0.4989 -0.3127 -0.9587
 5886SOL     OW29119   1.135   3.485   5.413 -0.3399 -0.5234 -0.0473
 5886SOL    HW129120   1.077   3.410   5.398  0.6891 -1.7617  2.1312
 5886SOL    HW229121   1.217   3.458   5.373 -0.1548  0.5894 -0.4100
 5887SOL     OW29122   0.664   4.476  13.933  0.1229 -0.1332  0.4675
 5887SOL    HW129123   0.689   4.564  13.960  2.3356 -1.6188  3.3268
 5887SOL    HW229124   0.624   4.481  13.846  0.6431  0.5161  0.2664
 5888SOL     OW29125   0.364   2.465   4.698  0.1568 -0.3938 -0.9141
 5888SOL    HW129126   0.369   2.375   4.730 -5.1227 -1.1255 -2.1770
 5888SOL    HW229127   0.457   2.474   4.719 -0.5197  2.2163  0.8895
 5889SOL     OW29128   3.913   0.974   4.650 -0.1608 -0.2281 -0.4253
 5889SOL    HW129129   3.827   0.933   4.639 -0.7002  0.3274  1.7017
 5889SOL    HW229130   3.957   0.947   4.570  1.5864 -0.9890  0.8036
 5890SOL     OW29131   2.851   2.883   2.400  0.2315 -0.2134 -0.5806
 5890SOL    HW129132   2.814   2.869   2.313  0.0695  0.4655 -0.6156
 5890SOL    HW229133   2.947   2.877   2.392  0.3718 -0.2395  1.1289
 5891SOL     OW29134   2.905   0.310   3.071 -0.2031  0.2738  0.1197
 5891SOL    HW129135   2.949   0.331   3.154  2.3922 -0.3609 -1.0934
 5891SOL    HW229136   2.875   0.220   3.084  0.0551  0.0239 -1.0389
 5892SOL     OW29137   3.749   1.386   0.428  0.0393 -0.5637 -0.0848
 5892SOL    HW129138   3.724   1.355   0.341 -0.3079 -0.3524 -0.0631
 5892SOL    HW229139   3.826   1.334   0.452  0.1276 -0.1837  0.4386
 5893SOL     OW29140   1.871   0.181   4.860  0.4742  0.3145  0.7685
 5893SOL    HW129141   1.890   0.141   4.944 -2.0381 -1.2678  0.5682
 5893SOL    HW229142   1.878   0.108   4.799 -0.0235  0.6579  0.2978
 5894SOL     OW29143   0.129   4.334   2.050  0.1915 -0.2937 -0.0896
 5894SOL    HW129144   0.087   4.419   2.037  0.8126  0.0002 -0.1749
 5894SOL    HW229145   0.218   4.365   2.065  0.2914 -1.1265  1.0009
 5895SOL     OW29146   1.035   2.198   9.256  0.5212  0.0632  0.5023
 5895SOL    HW129147   0.996   2.178   9.341 -1.2880  4.4029  0.6686
 5895SOL    HW229148   0.953   2.212   9.210  0.3851 -1.0399  0.4163
 5896SOL     OW29149   0.263   2.475  16.135 -0.1094  0.0815 -0.2300
 5896SOL    HW129150   0.340   2.471  16.079  1.2048  1.9549  1.4129
 5896SOL    HW229151   0.295   2.529  16.208  0.9546 -0.6107 -0.1890
 5897SOL     OW29152   4.075   3.992   6.387 -0.6176  0.6873 -0.5305
 5897SOL    HW129153   4.106   3.971   6.299  1.5652  1.2312  0.0939
 5897SOL    HW229154   4.147   3.953   6.436 -0.1102 -1.4948 -2.9800
 5898SOL     OW29155   4.010   1.650  12.128  0.2514 -0.6069 -0.1045
 5898SOL    HW129156   4.064   1.637  12.050 -1.3475 -0.7759 -1.1707
 5898SOL    HW229157   3.965   1.726  12.093 -1.0510 -0.5902  1.6124
 5899SOL     OW29158   3.804   3.292  10.306  0.0241  0.0707  0.6544
 5899SOL    HW129159   3.851   3.241  10.372  0.3151 -0.7245 -0.1776
 5899SOL    HW229160   3.776   3.229  10.240 -0.8139 -0.7968  1.8350
 5900SOL     OW29161   1.717   4.490   3.661  0.9709  0.3699  0.0302
 5900SOL    HW129162   1.627   4.475   3.688  0.7782 -1.5899 -1.7454
 5900SOL    HW229163   1.762   4.413   3.696  3.0726  3.0902  3.3467
 5901SOL     OW29164   1.849   0.433   7.705  0.3096  0.0196  0.4818
 5901SOL    HW129165   1.801   0.351   7.717 -0.9011  0.8240  1.0732
 5901SOL    HW229166   1.781   0.500   7.705  1.1468  0.8746 -2.0202
 5902SOL     OW29167   1.720   2.356   3.416 -0.6349  0.7605  0.2612
 5902SOL    HW129168   1.655   2.365   3.487  0.9381 -2.4862  2.0781
 5902SOL    HW229169   1.706   2.446   3.384  0.3754  0.3228 -1.3823
 5903SOL     OW29170   1.379   0.524   4.952  0.0505  0.3321  0.0850
 5903SOL    HW129171   1.303   0.491   4.905 -0.2748  2.3907 -0.8251
 5903SOL    HW229172   1.445   0.468   4.911 -2.7474 -0.8200 -2.8396
 5904SOL     OW29173   1.083   0.133   6.384 -0.3960 -0.4321  0.5106
 5904SOL    HW129174   1.140   0.210   6.386 -1.1156  0.1012  0.6569
 5904SOL    HW229175   1.078   0.102   6.474 -1.9115 -2.8290 -0.4045
 5905SOL     OW29176   1.006   0.081   5.711  0.9213 -0.2258  0.4982
 5905SOL    HW129177   0.944   0.048   5.776  0.3808  0.2640  0.2271
 5905SOL    HW229178   1.060   0.002   5.701  1.1777  0.0083  0.0548
 5906SOL     OW29179   2.935   0.989   3.730 -0.5214 -0.1373  0.5357
 5906SOL    HW129180   2.947   1.074   3.688  3.2525 -0.9743 -0.0830
 5906SOL    HW229181   3.012   0.977   3.785 -1.8361  1.1153  2.6710
 5907SOL     OW29182   2.896   3.750   9.860  0.8198  0.5027  0.1256
 5907SOL    HW129183   2.911   3.668   9.905 -1.5449 -0.6356 -1.1369
 5907SOL    HW229184   2.973   3.801   9.885  0.8729  0.5008 -0.0310
 5908SOL     OW29185   4.047   0.078   8.440  0.1551 -0.2463  0.1226
 5908SOL    HW129186   4.020   4.707   8.437  2.4910 -0.8100 -3.1881
 5908SOL    HW229187   4.133   0.072   8.481  1.2678  0.4468 -2.1454
 5909SOL     OW29188   1.530   0.777   4.247  0.3792  0.2040 -0.1543
 5909SOL    HW129189   1.552   0.733   4.329 -3.1897  0.4040  0.8774
 5909SOL    HW229190   1.567   0.863   4.269  0.4239 -0.7298  3.3384
 5910SOL     OW29191   0.362   0.517  17.366  0.0115 -0.1214  0.2248
 5910SOL    HW129192   0.296   0.468  17.316  1.4471 -2.5945  0.7150
 5910SOL    HW229193   0.430   0.506  17.300  0.8552 -1.6973  1.3462
 5911SOL     OW29194   3.332   2.265   4.562  0.1268  0.0767 -0.1991
 5911SOL    HW129195   3.392   2.213   4.510 -2.8091 -2.0216 -1.5037
 5911SOL    HW229196   3.320   2.349   4.519 -0.2253 -0.2875 -0.8150
 5912SOL     OW29197   2.272   3.452   7.783 -0.1927 -0.4177  0.1901
 5912SOL    HW129198   2.347   3.454   7.725  0.6413 -0.6974  1.2633
 5912SOL    HW229199   2.305   3.471   7.871 -0.7939  0.8236  0.1490
 5913SOL     OW29200   1.446   0.689  15.632  0.3216  0.3698 -0.5132
 5913SOL    HW129201   1.501   0.626  15.679 -1.0155  1.3474  2.3729
 5913SOL    HW229202   1.378   0.696  15.699 -0.5846  3.4619 -1.7507
 5914SOL     OW29203   4.501   4.419   4.620  0.3059  0.3434 -0.2767
 5914SOL    HW129204   4.552   4.343   4.594 -0.0820 -0.0652  0.1537
 5914SOL    HW229205   4.541   4.435   4.705 -0.9509 -1.9841  0.7437
 5915SOL     OW29206   3.287   3.702   7.111 -0.5644 -0.1569 -0.1983
 5915SOL    HW129207   3.253   3.743   7.032  0.0737  3.0888  1.2296
 5915SOL    HW229208   3.230   3.742   7.177  1.6877 -2.1275  2.9651
 5916SOL     OW29209   3.892   1.144  14.977 -0.2062  0.5237 -0.5872
 5916SOL    HW129210   3.873   1.113  15.066  2.7652 -0.2179 -0.2312
 5916SOL    HW229211   3.892   1.238  14.995  3.2284 -0.1741  3.2207
 5917SOL     OW29212   0.827   1.762   9.585 -0.2979  0.1986 -0.1379
 5917SOL    HW129213   0.916   1.791   9.608 -0.1574 -1.2647  1.1564
 5917SOL    HW229214   0.832   1.709   9.506 -0.0924 -1.6290  1.1096
 5918SOL     OW29215   3.799   2.622   7.843 -0.2481 -0.0899 -0.0458
 5918SOL    HW129216   3.840   2.544   7.878 -2.0069 -1.4401 -1.0088
 5918SOL    HW229217   3.806   2.682   7.918  0.5281 -1.0005  0.6017
 5919SOL     OW29218   1.994   0.496   4.000 -0.2295 -0.5758 -0.3874
 5919SOL    HW129219   1.944   0.577   4.006 -0.1665 -0.5487 -0.2226
 5919SOL    HW229220   1.939   0.431   3.956 -0.5407 -1.3685  1.1661
 5920SOL     OW29221   3.235   1.443   6.922  0.1090  0.0730 -0.1588
 5920SOL    HW129222   3.243   1.423   6.829  0.1886 -0.0721 -0.1198
 5920SOL    HW229223   3.326   1.448   6.951  0.4831  1.6543 -1.6390
 5921SOL     OW29224   4.506   3.791   7.918  0.0075 -0.2825  0.4107
 5921SOL    HW129225   4.555   3.734   7.977 -0.5884  0.5324  1.6896
 5921SOL    HW229226   4.571   3.855   7.887  0.0415 -1.5459 -2.1400
 5922SOL     OW29227   4.670   4.713   6.901 -0.6239  0.0344 -0.6852
 5922SOL    HW129228   4.705   4.681   6.984 -2.0065 -0.7326 -0.4004
 5922SOL    HW229229   4.670   4.632   6.851 -0.2442 -0.7266  0.5564
 5923SOL     OW29230   4.706   3.218   2.854 -0.5293  0.3239 -0.0478
 5923SOL    HW129231   4.622   3.200   2.812 -0.3272  0.4243 -0.5022
 5923SOL    HW229232   4.703   3.157   2.927 -2.4319 -0.5190 -0.8425
 5924SOL     OW29233   1.266   0.034  16.548  0.1713  0.5076 -0.3608
 5924SOL    HW129234   1.328   0.040  16.621  0.9017  0.1130 -0.9455
 5924SOL    HW229235   1.329   0.015  16.478 -0.4290  0.8912 -1.0097
 5925SOL     OW29236   3.473   1.483  10.268  0.4446  0.1145 -0.4207
 5925SOL    HW129237   3.465   1.388  10.257 -1.3930  0.3054 -0.6451
 5925SOL    HW229238   3.385   1.499  10.233 -0.4812 -1.1138  1.3869
 5926SOL     OW29239   0.699   4.109   0.221 -0.1511 -0.1705  0.1868
 5926SOL    HW129240   0.713   4.191   0.175 -1.0177 -0.4485 -0.5641
 5926SOL    HW229241   0.760   4.128   0.293 -0.4805 -2.6485  1.1191
 5927SOL     OW29242   2.024   4.204  12.449 -0.2520 -0.4510  0.3337
 5927SOL    HW129243   2.033   4.109  12.456  1.5711 -0.3618 -0.7357
 5927SOL    HW229244   1.930   4.205  12.465 -0.3940  2.2216 -0.7172
 5928SOL     OW29245   3.075   1.748   5.057 -0.3295  0.1499 -0.1732
 5928SOL    HW129246   3.006   1.758   4.993 -1.6882 -1.9108  0.9727
 5928SOL    HW229247   3.127   1.823   5.029 -1.1653  0.5528 -0.6250
 5929SOL     OW29248   1.448   0.633   6.808  0.7757 -0.2027 -0.4283
 5929SOL    HW129249   1.446   0.729   6.807  0.1139 -0.2489 -2.6304
 5929SOL    HW229250   1.430   0.614   6.900  0.3064  2.6375  0.0724
 5930SOL     OW29251   1.504   2.308   8.251  0.7445  0.2393 -0.4924
 5930SOL    HW129252   1.436   2.335   8.312 -0.2820  1.5129 -2.2185
 5930SOL    HW229253   1.467   2.333   8.166 -1.2393  0.0036  0.3183
 5931SOL     OW29254   1.476   0.662  12.462 -0.1965 -0.3172  0.0841
 5931SOL    HW129255   1.534   0.677  12.536  0.0827  2.3013 -0.6496
 5931SOL    HW229256   1.432   0.747  12.454 -1.1041 -0.9140 -1.4109
 5932SOL     OW29257   2.210   2.312   9.490 -0.5381 -0.8408  0.4025
 5932SOL    HW129258   2.212   2.360   9.408 -0.0525 -1.2754  0.1604
 5932SOL    HW229259   2.225   2.379   9.557  1.5277 -1.9646  1.0550
 5933SOL     OW29260   2.457   3.928   7.062 -0.4270 -0.1742  0.4140
 5933SOL    HW129261   2.540   3.889   7.035 -1.1551 -1.5621  0.2378
 5933SOL    HW229262   2.474   4.012   7.105 -0.5037  0.9281 -1.7084
 5934SOL     OW29263   0.593   4.489   8.412  0.0913 -0.5084 -0.7093
 5934SOL    HW129264   0.531   4.554   8.379  2.5105  1.7785 -0.8026
 5934SOL    HW229265   0.530   4.420   8.429 -1.6628  1.5787  1.3327
 5935SOL     OW29266   4.604   2.226   2.578 -0.3595 -0.3332 -0.7566
 5935SOL    HW129267   4.616   2.132   2.590  0.9268 -0.0334  0.3425
 5935SOL    HW229268   4.561   2.244   2.495  0.0070  0.2310 -0.8279
 5936SOL     OW29269   3.700   1.033   4.877  0.0610 -0.2993 -0.6087
 5936SOL    HW129270   3.696   0.986   4.794 -2.5637 -0.5564 -0.3333
 5936SOL    HW229271   3.681   1.123   4.851  0.3973 -0.1270 -0.2582
 5937SOL     OW29272   3.089   0.659   7.275 -0.6241 -0.0424 -0.2693
 5937SOL    HW129273   3.057   0.682   7.188  2.3190  1.0735 -1.0450
 5937SOL    HW229274   3.060   0.735   7.326 -0.4415  0.4235 -0.8665
 5938SOL     OW29275   2.820   4.301   8.428 -0.3173  0.0871 -0.1458
 5938SOL    HW129276   2.911   4.271   8.427 -1.0178 -2.0283 -0.3297
 5938SOL    HW229277   2.768   4.247   8.368 -0.6087 -0.2024  0.3641
 5939SOL     OW29278   0.538   3.394   0.373  0.1144 -0.0285 -0.0620
 5939SOL    HW129279   0.544   3.417   0.280  0.5916  1.9740  0.4525
 5939SOL    HW229280   0.612   3.437   0.418 -0.7170 -0.5418  1.7763
 5940SOL     OW29281   3.518   4.091   2.954  0.1209  0.2997  0.4610
 5940SOL    HW129282   3.578   4.162   2.932 -0.7204  0.8883  0.0934
 5940SOL    HW229283   3.577   4.015   2.958 -0.0867  0.1609  0.9557
 5941SOL     OW29284   1.448   2.335   1.074 -0.2029  0.3014  0.1843
 5941SOL    HW129285   1.420   2.385   1.151 -1.2387 -1.3040  0.8365
 5941SOL    HW229286   1.379   2.361   1.013  1.2590 -1.0876 -2.0108
 5942SOL     OW29287   3.541   4.013   6.130 -0.2569 -0.8149  0.3482
 5942SOL    HW129288   3.551   3.956   6.206  0.7637 -0.5597  0.4163
 5942SOL    HW229289   3.494   4.083   6.175  0.3694  0.6874 -1.3325
 5943SOL     OW29290   3.092   0.570   2.824  0.3605 -0.1600  0.4627
 5943SOL    HW129291   3.105   0.479   2.850  1.6116 -0.2050 -0.3256
 5943SOL    HW229292   3.096   0.566   2.729 -0.6923  0.0962  0.4080
 5944SOL     OW29293   2.495   4.191   4.587 -0.4053 -0.1394 -0.0395
 5944SOL    HW129294   2.419   4.221   4.637 -1.8719 -0.6767 -1.9296
 5944SOL    HW229295   2.459   4.170   4.501 -0.7136  0.4282 -0.0452
 5945SOL     OW29296   3.301   3.264  13.702 -0.0651 -0.7534  0.4662
 5945SOL    HW129297   3.376   3.310  13.741  1.1135 -0.9414 -1.5716
 5945SOL    HW229298   3.270   3.214  13.777 -0.1009  1.3830  1.8827
 5946SOL     OW29299   4.300   1.922   5.912 -0.2746  0.5838 -0.2687
 5946SOL    HW129300   4.325   1.858   5.979  1.3708  2.8232  1.2253
 5946SOL    HW229301   4.214   1.945   5.947  0.3876  1.7066  0.6323
 5947SOL     OW29302   1.032   0.319   6.632  0.2596  0.0054 -0.2720
 5947SOL    HW129303   0.958   0.345   6.577 -0.7488 -2.0610  0.1057
 5947SOL    HW229304   1.080   0.401   6.623 -0.0638  0.3307  0.9696
 5948SOL     OW29305   0.702   1.201   3.234 -0.2982  0.7275 -0.3737
 5948SOL    HW129306   0.617   1.245   3.234 -0.8077 -0.2634  1.3116
 5948SOL    HW229307   0.756   1.273   3.265 -1.1018 -0.1568  3.1958
 5949SOL     OW29308   0.344   0.303  12.348  0.0088 -0.5521  0.3071
 5949SOL    HW129309   0.428   0.349  12.345 -1.1492  1.7387  3.4273
 5949SOL    HW229310   0.332   0.281  12.255  0.9351 -1.7278  0.4667
 5950SOL     OW29311   0.748   3.288   2.562  0.1397 -0.0012 -0.1100
 5950SOL    HW129312   0.816   3.226   2.535  3.9961  3.4589  1.6636
 5950SOL    HW229313   0.778   3.301   2.652 -1.0025 -0.4178  0.3301
 5951SOL     OW29314   0.772   1.893  10.941  0.1329 -0.2464 -0.1276
 5951SOL    HW129315   0.795   1.979  10.907  1.9105 -1.1497 -1.2255
 5951SOL    HW229316   0.841   1.870  11.004  1.0318  0.2627 -0.9462
 5952SOL     OW29317   3.225   4.544   3.788 -0.6846  0.0861  0.4981
 5952SOL    HW129318   3.214   4.453   3.763 -0.8994 -0.1824  1.5815
 5952SOL    HW229319   3.316   4.538   3.816 -0.7084 -1.2832  0.2379
 5953SOL     OW29320   3.339   1.950   0.911 -0.3653  0.4910  0.6308
 5953SOL    HW129321   3.419   2.002   0.914 -0.1565  0.2218 -0.1133
 5953SOL    HW229322   3.340   1.923   0.819  1.8176 -0.0142  0.8020
 5954SOL     OW29323   3.947   3.116   5.324  0.1562  0.7160 -0.0215
 5954SOL    HW129324   3.887   3.041   5.323 -0.1306  0.9417  0.3474
 5954SOL    HW229325   3.983   3.122   5.235  0.0123 -0.7896 -0.1882
 5955SOL     OW29326   4.265   2.486   0.754  0.3222 -0.7346  0.2808
 5955SOL    HW129327   4.203   2.428   0.797  1.5122 -3.4023 -1.5888
 5955SOL    HW229328   4.334   2.502   0.819  0.5846 -0.1025 -0.1518
 5956SOL     OW29329   3.054   0.268  12.739  0.0569  0.2330 -0.2765
 5956SOL    HW129330   3.102   0.224  12.809  0.9661  1.7899  0.0722
 5956SOL    HW229331   3.122   0.277  12.672 -0.3301  1.8844 -0.4552
 5957SOL     OW29332   2.864   0.717  10.261  0.5792 -0.3599  0.0426
 5957SOL    HW129333   2.816   0.641  10.230  1.5994  0.1310 -2.7891
 5957SOL    HW229334   2.830   0.747  10.345  3.8068 -0.8808  1.5314
 5958SOL     OW29335   0.647   0.985   9.213 -0.2103 -0.6315 -0.0648
 5958SOL    HW129336   0.621   0.911   9.158 -1.6097  1.7175 -2.5668
 5958SOL    HW229337   0.670   1.047   9.145  0.0489 -1.1482 -0.4446
 5959SOL     OW29338   3.639   3.154   2.043 -0.0211  0.2651  0.0421
 5959SOL    HW129339   3.611   3.063   2.033  0.9862 -0.1522  0.9764
 5959SOL    HW229340   3.733   3.147   2.029  0.0108 -2.2298  1.5434
 5960SOL     OW29341   1.389   0.299   4.020 -0.2808 -0.3073 -0.5104
 5960SOL    HW129342   1.410   0.297   3.927  0.1653 -0.4857 -0.4092
 5960SOL    HW229343   1.395   0.206   4.043 -0.8480 -0.3340 -0.4771
 5961SOL     OW29344   0.778   4.233   5.011  0.1223  0.0521  0.6784
 5961SOL    HW129345   0.815   4.307   4.964  0.5216 -0.0790  0.7830
 5961SOL    HW229346   0.810   4.240   5.101  1.8632  1.4547 -0.0664
 5962SOL     OW29347   2.803   0.126   4.800 -0.0887 -0.2180  0.0088
 5962SOL    HW129348   2.787   0.093   4.712  1.4203 -1.6288  0.2692
 5962SOL    HW229349   2.733   0.191   4.807  1.0029  0.9938 -0.2203
 5963SOL     OW29350   1.283   4.115   2.040 -0.0461 -0.1703 -0.2721
 5963SOL    HW129351   1.235   4.163   2.107  0.2203 -2.4355  1.5398
 5963SOL    HW229352   1.256   4.025   2.058  2.7277 -1.2826 -1.6816
 5964SOL     OW29353   1.778   0.663   7.393  0.5649 -0.4131 -0.2707
 5964SOL    HW129354   1.755   0.718   7.468 -0.1271  2.8741 -2.9076
 5964SOL    HW229355   1.872   0.651   7.404  0.4992 -0.4831  0.2345
 5965SOL     OW29356   3.411   0.213  14.488  0.0965  0.4631  0.1823
 5965SOL    HW129357   3.431   0.196  14.396 -2.0455  1.5860 -0.4946
 5965SOL    HW229358   3.316   0.223  14.480  0.0650 -0.1063 -0.1902
 5966SOL     OW29359   4.001   3.115   2.944  0.4359  0.0073 -0.2594
 5966SOL    HW129360   4.057   3.071   2.880  1.0634  0.7266 -0.2044
 5966SOL    HW229361   4.041   3.202   2.949  0.1758  0.1135 -0.0427
 5967SOL     OW29362   2.650   4.618  10.378  0.3998 -0.7814 -0.3642
 5967SOL    HW129363   2.584   4.567  10.424 -1.3791 -0.0289 -2.0698
 5967SOL    HW229364   2.714   4.642  10.444 -0.2430 -0.9446  0.3218
 5968SOL     OW29365   0.893   2.754   6.928 -0.8042  0.1942 -0.3220
 5968SOL    HW129366   0.912   2.838   6.885 -0.6288 -0.9671 -2.5343
 5968SOL    HW229367   0.921   2.775   7.017  1.7948  2.2379 -1.6056
 5969SOL     OW29368   0.420   2.907   2.735  0.3767 -0.3487 -0.2322
 5969SOL    HW129369   0.435   2.990   2.780  0.1954 -1.1683  1.3222
 5969SOL    HW229370   0.471   2.847   2.790 -0.1638 -0.6070 -0.0200
 5970SOL     OW29371   3.392   3.641   8.620 -0.4632  0.6537  0.1432
 5970SOL    HW129372   3.447   3.656   8.697 -1.2951  4.9332 -0.1110
 5970SOL    HW229373   3.307   3.671   8.654 -0.6899  1.0203 -0.7753
 5971SOL     OW29374   0.169   3.484   7.077  0.4128 -0.6067  0.1087
 5971SOL    HW129375   0.100   3.433   7.119 -1.5692  2.9213  1.0913
 5971SOL    HW229376   0.133   3.571   7.090 -1.0233 -1.0848 -0.7124
 5972SOL     OW29377   0.063   2.112   4.981  0.3740 -0.2973 -0.2942
 5972SOL    HW129378   0.085   2.116   4.888  0.1833  0.8980 -0.2891
 5972SOL    HW229379   4.695   2.075   4.974  0.2018 -0.2530  1.7901
 5973SOL     OW29380   4.008   3.501   8.164  0.4333 -0.0153  0.4321
 5973SOL    HW129381   3.992   3.520   8.072  1.1945  0.2667  0.3661
 5973SOL    HW229382   4.036   3.586   8.197  0.0016 -0.4841  2.0168
 5974SOL     OW29383   3.072   3.588   1.063  0.1178  0.4686 -0.2375
 5974SOL    HW129384   3.141   3.548   1.115 -0.7355 -0.2311  0.3722
 5974SOL    HW229385   3.117   3.668   1.038 -3.7156  2.0420 -2.1344
 5975SOL     OW29386   3.665   3.518  16.867 -0.7807  0.0700  0.3376
 5975SOL    HW129387   3.627   3.563  16.943 -0.3798  1.5239 -0.3139
 5975SOL    HW229388   3.652   3.580  16.796 -3.3096 -1.0391 -0.1568
 5976SOL     OW29389   4.405   3.496   4.377 -0.3119  0.1236 -0.3515
 5976SOL    HW129390   4.342   3.498   4.305  0.3810  1.1939 -0.9262
 5976SOL    HW229391   4.355   3.521   4.456  2.3400  1.9586  0.7585
 5977SOL     OW29392   3.329   3.920   3.173 -0.4321  0.6239 -0.3267
 5977SOL    HW129393   3.418   3.894   3.197  0.2377  2.0582 -1.2255
 5977SOL    HW229394   3.274   3.904   3.250 -1.4394  3.1629 -0.5109
 5978SOL     OW29395   3.743   2.382   5.822  0.0794 -0.1531  0.5093
 5978SOL    HW129396   3.796   2.307   5.850 -0.6702 -0.0486  2.1949
 5978SOL    HW229397   3.666   2.360   5.875 -0.5236 -1.3683 -0.8502
 5979SOL     OW29398   3.454   4.534  11.900  0.2344 -0.1162 -0.5521
 5979SOL    HW129399   3.370   4.576  11.885 -0.5763 -2.3857 -2.5325
 5979SOL    HW229400   3.413   4.447  11.902 -0.1186  0.0417 -0.8770
 5980SOL     OW29401   3.339   4.075   3.435  0.1748  0.4746 -0.3381
 5980SOL    HW129402   3.248   4.088   3.407 -0.1911 -2.1149 -0.3171
 5980SOL    HW229403   3.387   4.140   3.385 -1.3226  2.3585  0.6388
 5981SOL     OW29404   0.943   1.389   1.643 -0.1258  0.6539  0.1037
 5981SOL    HW129405   1.000   1.314   1.628  0.5619  1.2369 -0.2095
 5981SOL    HW229406   0.861   1.348   1.616  2.2788 -3.5333 -0.7856
 5982SOL     OW29407   3.110   2.409  16.521  0.3915 -0.6746 -0.7540
 5982SOL    HW129408   3.139   2.489  16.477 -1.3353  0.4177  0.1128
 5982SOL    HW229409   3.020   2.399  16.491  0.2276  1.1760 -0.8500
 5983SOL     OW29410   4.228   1.247   5.534  0.4642  0.1977  0.1880
 5983SOL    HW129411   4.312   1.290   5.548  1.0610 -0.2663 -1.9662
 5983SOL    HW229412   4.181   1.318   5.491  0.2084  0.7490  1.3641
 5984SOL     OW29413   2.641   0.477  13.532  0.0859  0.1630  0.3955
 5984SOL    HW129414   2.702   0.515  13.468 -1.1073  1.3388 -0.0549
 5984SOL    HW229415   2.607   0.561  13.563  0.7503  1.3312 -1.9652
 5985SOL     OW29416   3.627   0.667   5.897 -0.0292 -0.5499  0.6400
 5985SOL    HW129417   3.567   0.676   5.971  0.6509 -0.4536  1.1787
 5985SOL    HW229418   3.586   0.595   5.850  1.2540 -0.7539 -0.1582
 5986SOL     OW29419   0.500   4.500   3.990 -0.4043 -0.2930 -0.0726
 5986SOL    HW129420   0.466   4.546   3.914 -0.3103 -0.5310 -0.2576
 5986SOL    HW229421   0.459   4.414   3.983 -2.8957  0.6902  1.9807
 5987SOL     OW29422   3.273   4.100   6.738 -0.1986  0.2726  0.0971
 5987SOL    HW129423   3.212   4.028   6.720 -0.8345  0.3567  1.9942
 5987SOL    HW229424   3.276   4.152   6.658  0.2669  0.4752  0.2433
 5988SOL     OW29425   1.198   1.857   3.812 -0.0876 -0.0570 -0.1574
 5988SOL    HW129426   1.244   1.780   3.778 -0.3269 -0.2605 -0.0203
 5988SOL    HW229427   1.134   1.863   3.742 -1.2853 -0.1757  0.9311
 5989SOL     OW29428   0.167   2.999  16.574  0.0409  0.3617 -0.1056
 5989SOL    HW129429   0.225   2.959  16.639 -1.2626 -0.5202  0.5338
 5989SOL    HW229430   0.096   3.012  16.637  0.4429  2.1170 -0.0244
 5990SOL     OW29431   3.037   2.686  14.944  0.1329  0.2274  0.0721
 5990SOL    HW129432   2.998   2.628  14.879  1.1556  0.1605 -0.4813
 5990SOL    HW229433   2.982   2.663  15.019 -0.0786 -1.4021 -0.5778
 5991SOL     OW29434   1.355   2.359   5.536  0.0757  0.3468  0.5851
 5991SOL    HW129435   1.266   2.332   5.513  1.5034 -3.1069 -0.8428
 5991SOL    HW229436   1.345   2.394   5.624  0.1975 -0.6352  0.9852
 5992SOL     OW29437   3.146   3.700   1.378 -0.8908  0.1158  0.5864
 5992SOL    HW129438   3.061   3.659   1.366 -0.3577 -0.6917 -0.4324
 5992SOL    HW229439   3.192   3.660   1.304  0.1427  1.4031  0.5264
 5993SOL     OW29440   0.708   3.617  14.892  0.0832 -0.0514  0.1717
 5993SOL    HW129441   0.728   3.574  14.975  1.4313  0.9020  0.3296
 5993SOL    HW229442   0.673   3.703  14.916  0.8412 -0.3510  2.3901
 5994SOL     OW29443   3.020   0.906  11.298 -0.1433 -0.6266  0.1535
 5994SOL    HW129444   3.087   0.935  11.237 -1.7679  0.2994 -1.1923
 5994SOL    HW229445   3.028   0.811  11.288  0.0840 -0.7871  1.7159
 5995SOL     OW29446   3.192   3.511   6.642 -0.4603 -0.3211  0.9676
 5995SOL    HW129447   3.266   3.559   6.678 -0.4472  0.4780 -0.0999
 5995SOL    HW229448   3.137   3.585   6.615  0.6041 -0.2745 -1.0783
 5996SOL     OW29449   3.591   2.697   6.052  0.1440 -0.1726  0.7288
 5996SOL    HW129450   3.499   2.695   6.025  0.1989 -0.0704  0.5383
 5996SOL    HW229451   3.575   2.667   6.142  1.6002  0.2395  1.1266
 5997SOL     OW29452   4.500   2.409   7.146 -0.7995 -0.3256  0.2838
 5997SOL    HW129453   4.495   2.423   7.241 -0.5553  2.1720 -0.0602
 5997SOL    HW229454   4.436   2.339   7.132  0.6286 -1.2248 -1.8408
 5998SOL     OW29455   0.224   1.249   6.749 -0.2723 -0.5232 -0.3428
 5998SOL    HW129456   0.166   1.316   6.788 -2.9931 -1.1273 -3.3351
 5998SOL    HW229457   0.301   1.305   6.759  1.0254 -2.0337 -2.0755
 5999SOL     OW29458   4.099   4.522   3.634 -0.6795  0.1589 -0.2278
 5999SOL    HW129459   4.027   4.559   3.583 -0.0889  0.7826 -0.5999
 5999SOL    HW229460   4.157   4.482   3.569 -0.8516 -0.9264  0.2829
 6000SOL     OW29461   2.970   4.190   1.098 -0.0074  0.4246  0.0472
 6000SOL    HW129462   3.002   4.123   1.038  1.4965 -0.0059  1.3228
 6000SOL    HW229463   2.974   4.143   1.182 -1.6473 -1.7185 -1.0644
 6001SOL     OW29464   4.702   3.428  13.558 -0.2187 -0.2831  0.2051
 6001SOL    HW129465   0.039   3.365  13.602  0.4597  0.6769  0.7085
 6001SOL    HW229466   4.706   3.497  13.624  1.0957 -0.2464  0.0860
 6002SOL     OW29467   4.185   2.873   7.260  0.6481 -0.6174 -0.1304
 6002SOL    HW129468   4.161   2.819   7.184  2.6975 -1.4318 -0.1941
 6002SOL    HW229469   4.130   2.836   7.329 -0.8991  0.2842 -0.8693
 6003SOL     OW29470   2.569   0.868   4.474 -0.5260 -0.3356  0.2434
 6003SOL    HW129471   2.661   0.843   4.480  0.4345  2.8884 -1.3032
 6003SOL    HW229472   2.570   0.961   4.495 -0.9539 -0.8918  2.7182
 6004SOL     OW29473   3.302   3.059   8.542 -0.2309  0.1444 -0.1596
 6004SOL    HW129474   3.288   3.145   8.581  1.4595 -1.8819  4.8908
 6004SOL    HW229475   3.370   3.026   8.601 -1.1816  1.2437  1.5245
 6005SOL     OW29476   1.329   0.922   2.940  0.0796  0.5113 -0.0213
 6005SOL    HW129477   1.274   0.999   2.922  0.5923  0.9226  0.1819
 6005SOL    HW229478   1.385   0.928   2.862  1.3778 -0.6632  0.8411
 6006SOL     OW29479   4.167   3.322  16.344 -0.0875 -0.2339  0.7320
 6006SOL    HW129480   4.170   3.415  16.363 -0.7044  0.1006 -0.8731
 6006SOL    HW229481   4.092   3.307  16.402  0.3311  0.1571  1.3760
 6007SOL     OW29482   2.702   4.675   7.168  0.1887  0.3975  0.2798
 6007SOL    HW129483   2.723   0.029   7.111 -0.4631  0.4913  0.1658
 6007SOL    HW229484   2.761   4.691   7.242 -0.0751  0.3413  0.4997
 6008SOL     OW29485   1.815   3.095   1.373  0.2093 -0.0827  0.1334
 6008SOL    HW129486   1.871   3.022   1.397 -0.9234 -1.5178 -1.5860
 6008SOL    HW229487   1.791   3.128   1.460 -1.5109  0.0821 -0.3944
 6009SOL     OW29488   1.031   1.659   7.152  0.2091 -0.3333  0.1215
 6009SOL    HW129489   1.002   1.674   7.242 -0.1595 -0.0440 -0.0449
 6009SOL    HW229490   0.948   1.695   7.121  1.1052  2.1622  0.5959
 6010SOL     OW29491   1.690   2.956   0.546  0.5096  0.0816 -0.4059
 6010SOL    HW129492   1.752   3.012   0.500 -2.0276  0.1100 -3.7762
 6010SOL    HW229493   1.661   2.911   0.467 -1.8477 -0.5896  0.8680
 6011SOL     OW29494   2.661   0.856   3.511 -0.1086  0.4125  0.0395
 6011SOL    HW129495   2.723   0.911   3.462 -1.2137  2.7810  1.2931
 6011SOL    HW229496   2.599   0.925   3.535 -0.3157  0.0010  0.6804
 6012SOL     OW29497   3.591   2.336  15.193  0.1218  0.3946 -0.1837
 6012SOL    HW129498   3.506   2.362  15.159 -0.6402 -4.2019 -1.8411
 6012SOL    HW229499   3.565   2.316  15.283  1.8351  1.2784  0.5193
 6013SOL     OW29500   1.933   2.433   0.945 -0.3096  0.0893 -0.0971
 6013SOL    HW129501   1.923   2.527   0.958  2.5801  0.5809 -1.1968
 6013SOL    HW229502   1.864   2.402   1.003 -1.5069 -2.4525 -2.9006
 6014SOL     OW29503   3.766   3.788   8.675 -0.7874  0.5046 -0.1941
 6014SOL    HW129504   3.791   3.841   8.599  2.9548 -1.7690 -0.5571
 6014SOL    HW229505   3.806   3.712   8.634  0.2278  0.0309  1.6504
 6015SOL     OW29506   4.531   2.031  17.363 -0.2625 -0.1795 -0.2792
 6015SOL    HW129507   4.514   2.027  17.269 -0.6350 -0.3083 -0.2093
 6015SOL    HW229508   4.440   2.018  17.391  0.0119 -0.4338  0.5009
 6016SOL     OW29509   3.415   3.447  10.957 -0.0726  0.8976  0.3293
 6016SOL    HW129510   3.481   3.502  10.915 -1.0778  2.2146  0.4704
 6016SOL    HW229511   3.445   3.454  11.048  2.3457  2.2959 -0.5664
 6017SOL     OW29512   4.244   2.775   8.992 -0.1712  0.2060 -0.6963
 6017SOL    HW129513   4.302   2.762   9.068 -3.3170  2.4521  2.1042
 6017SOL    HW229514   4.275   2.857   8.954  1.0199  0.2803  0.3898
 6018SOL     OW29515   0.066   0.284   0.343  0.9950 -0.2853 -0.6885
 6018SOL    HW129516   0.125   0.332   0.286  2.0550  1.8421  2.1995
 6018SOL    HW229517   0.123   0.209   0.363  0.3517  0.0459  2.3891
 6019SOL     OW29518   1.428   4.350   0.471  0.8162 -0.3171  0.2572
 6019SOL    HW129519   1.510   4.305   0.452  0.1637 -1.2112 -0.3991
 6019SOL    HW229520   1.449   4.432   0.426  0.5073 -0.6210 -0.4428
 6020SOL     OW29521   0.835   2.905   1.546 -0.3546  0.2021  0.1614
 6020SOL    HW129522   0.759   2.964   1.552 -0.6748 -0.0102 -1.7423
 6020SOL    HW229523   0.806   2.838   1.609 -2.1513 -0.4561 -1.3544
 6021SOL     OW29524   1.833   3.132   7.454 -0.1973  0.6093 -0.0293
 6021SOL    HW129525   1.830   3.082   7.535  0.0021 -0.0031 -0.3995
 6021SOL    HW229526   1.742   3.133   7.424 -0.8707 -2.0740  1.9704
 6022SOL     OW29527   2.080   0.148  12.187 -0.3492 -0.4340 -0.3959
 6022SOL    HW129528   1.992   0.126  12.157 -0.3233 -0.4219 -0.4806
 6022SOL    HW229529   2.086   0.244  12.190 -1.9434 -0.3632  0.4308
 6023SOL     OW29530   0.583   2.750   9.208  0.3935  0.3361 -0.4157
 6023SOL    HW129531   0.531   2.720   9.282 -0.7579  0.9946 -0.9580
 6023SOL    HW229532   0.633   2.668   9.208 -0.0639  0.0655  0.8504
 6024SOL     OW29533   3.236   4.700   4.914  0.3266  0.1725  0.4001
 6024SOL    HW129534   3.324   0.016   4.908  0.3761 -0.2629 -1.7847
 6024SOL    HW229535   3.248   4.618   4.867  1.3372 -0.0771  1.1136
 6025SOL     OW29536   0.055   2.620   1.658  0.3945  0.4848  0.0602
 6025SOL    HW129537   0.147   2.595   1.644  0.4932  0.6305  0.4449
 6025SOL    HW229538   0.042   2.573   1.741 -2.3946  0.4024 -0.4479
 6026SOL     OW29539   2.087   2.389   7.244 -0.0934  0.3548  0.2792
 6026SOL    HW129540   2.020   2.336   7.288 -0.9201  2.3745  1.4196
 6026SOL    HW229541   2.150   2.404   7.315  0.7219 -3.2552  0.3398
 6027SOL     OW29542   1.759   1.643   3.176 -0.3337 -0.4919 -0.0756
 6027SOL    HW129543   1.703   1.698   3.121  1.7039  1.4129 -0.2413
 6027SOL    HW229544   1.842   1.672   3.139  0.2864 -1.8951  0.2433
 6028SOL     OW29545   3.577   3.623  12.646  0.2311  0.0006 -0.2444
 6028SOL    HW129546   3.545   3.534  12.659  2.5780 -0.2520  3.7743
 6028SOL    HW229547   3.507   3.686  12.664  0.1787 -0.0146 -0.3933
 6029SOL     OW29548   3.416   3.560   3.975 -0.0634  0.6012 -0.8994
 6029SOL    HW129549   3.462   3.537   3.895  2.1250 -1.1889  0.8694
 6029SOL    HW229550   3.404   3.654   3.962 -1.3330  0.6465  0.5600
 6030SOL     OW29551   1.611   4.619   8.135 -0.1181 -0.5484 -0.7314
 6030SOL    HW129552   1.690   4.666   8.108 -0.1453 -0.4589 -0.6514
 6030SOL    HW229553   1.540   4.653   8.081  0.5589 -0.1076 -1.3463
 6031SOL     OW29554   4.118   3.327   4.887 -0.1896 -0.0015 -0.0723
 6031SOL    HW129555   4.145   3.391   4.953 -1.2050 -0.5119  0.8291
 6031SOL    HW229556   4.133   3.377   4.806  0.4035  0.4923  0.3457
 6032SOL     OW29557   1.854   4.238   0.745 -0.0167  0.2380 -0.0518
 6032SOL    HW129558   1.782   4.280   0.792 -0.0306 -1.5979  1.5857
 6032SOL    HW229559   1.928   4.277   0.793 -1.5752  0.8766  1.8321
 6033SOL     OW29560   2.609   1.523   7.799  0.7711  0.2712  0.1341
 6033SOL    HW129561   2.607   1.579   7.877  1.2389  0.5789 -0.0753
 6033SOL    HW229562   2.545   1.458   7.827  1.5596  0.5517  2.5609
 6034SOL     OW29563   0.259   3.315   8.242 -0.0496  0.4188 -0.0958
 6034SOL    HW129564   0.348   3.319   8.279  0.2544 -0.3185 -0.7429
 6034SOL    HW229565   0.216   3.245   8.290 -1.4169  0.3264 -1.4687
 6035SOL     OW29566   4.604   3.438  17.022 -0.3358 -0.5342  0.0035
 6035SOL    HW129567   4.648   3.496  17.084 -3.7506  1.3185  0.7063
 6035SOL    HW229568   4.602   3.352  17.064  0.4421 -1.2929 -1.4819
 6036SOL     OW29569   1.532   0.899   1.871 -0.0409  0.2178  0.4766
 6036SOL    HW129570   1.604   0.846   1.905  0.4779  1.8570  1.9540
 6036SOL    HW229571   1.508   0.851   1.792  0.6687  0.4459  0.1273
 6037SOL     OW29572   4.596   3.845   5.435  0.7820  0.0087  0.2814
 6037SOL    HW129573   4.503   3.834   5.414  0.6468  1.2005  0.2529
 6037SOL    HW229574   4.637   3.790   5.368  0.4550 -1.7175  1.4971
 6038SOL     OW29575   0.053   4.008   1.058 -0.2343  0.1220 -0.1893
 6038SOL    HW129576   0.097   4.001   1.142 -1.3440 -0.8973  0.3045
 6038SOL    HW229577   4.710   3.937   1.058 -0.7535  0.5905  0.9321
 6039SOL     OW29578   2.745   0.585   4.385 -0.0187  0.4150 -0.1418
 6039SOL    HW129579   2.820   0.533   4.413 -1.9971 -2.6608 -0.5584
 6039SOL    HW229580   2.768   0.676   4.405 -1.0207  1.6315 -4.6153
 6040SOL     OW29581   0.522   1.331   7.711  0.8193  0.0351 -0.1544
 6040SOL    HW129582   0.465   1.404   7.736 -0.3099 -0.2660 -1.8712
 6040SOL    HW229583   0.521   1.337   7.616 -1.8640 -0.0601 -0.1408
 6041SOL     OW29584   3.449   3.192   7.993  0.0472 -0.2899 -0.1411
 6041SOL    HW129585   3.420   3.221   8.080 -0.1099 -0.2712 -0.1983
 6041SOL    HW229586   3.359   3.179   7.961  0.1232  0.2651 -0.5748
 6042SOL     OW29587   1.398   2.674   1.286 -0.2811 -0.5928 -0.4284
 6042SOL    HW129588   1.370   2.586   1.314 -0.3938 -0.4912 -0.2210
 6042SOL    HW229589   1.311   2.714   1.277  1.0440  2.2212 -0.5031
 6043SOL     OW29590   2.257   0.733   0.376  0.1989 -0.1235  0.0300
 6043SOL    HW129591   2.227   0.823   0.368 -0.5448 -0.1721  2.2018
 6043SOL    HW229592   2.272   0.723   0.470 -0.5999  0.1918  0.1885
 6044SOL     OW29593   0.855   2.584   4.656 -0.0393 -0.3351  0.1428
 6044SOL    HW129594   0.927   2.522   4.646  2.3960  2.7633 -1.8713
 6044SOL    HW229595   0.836   2.621   4.570 -1.9016  1.0853  1.1559
 6045SOL     OW29596   2.344   2.167   5.020  0.4561 -0.4827  0.1024
 6045SOL    HW129597   2.394   2.236   5.063  2.5274 -2.8484  1.4797
 6045SOL    HW229598   2.303   2.119   5.092  0.7334 -0.4230  0.3016
 6046SOL     OW29599   1.063   4.200   4.776  0.2517  0.1089 -0.3398
 6046SOL    HW129600   1.034   4.117   4.740  0.2914 -0.6927  1.4602
 6046SOL    HW229601   0.982   4.231   4.816  1.9877 -0.4118  3.6617
 6047SOL     OW29602   3.258   3.620   1.750  0.0501  0.0992  0.3589
 6047SOL    HW129603   3.205   3.682   1.700 -2.2275 -1.3250  1.0176
 6047SOL    HW229604   3.271   3.548   1.689 -0.9441 -1.9663  2.5873
 6048SOL     OW29605   0.979   2.155   1.695  0.2735  0.0219 -0.6253
 6048SOL    HW129606   0.895   2.191   1.666 -1.9616 -0.8975  4.8499
 6048SOL    HW229607   0.967   2.150   1.789 -1.4650 -1.5563 -0.9361
 6049SOL     OW29608   2.097   2.941   2.524 -0.1080 -0.5114  0.3158
 6049SOL    HW129609   2.030   2.882   2.490  1.6088 -2.6383  0.6194
 6049SOL    HW229610   2.097   3.014   2.462  1.4248 -0.9153 -0.1613
 6050SOL     OW29611   3.442   1.236   8.621  0.3858  0.2150  0.3874
 6050SOL    HW129612   3.529   1.217   8.656  1.1563  1.1778 -1.0164
 6050SOL    HW229613   3.399   1.263   8.702 -2.8066  0.8208 -1.5293
 6051SOL     OW29614   4.144   2.533   4.465  0.0339 -0.2124 -0.3874
 6051SOL    HW129615   4.165   2.569   4.379 -1.0354  2.1317  0.3522
 6051SOL    HW229616   4.230   2.553   4.502 -0.3039 -1.0181  0.8428
 6052SOL     OW29617   0.208   1.692  15.206  0.4664 -0.4590 -0.3326
 6052SOL    HW129618   0.264   1.768  15.189 -0.8782  0.8986  1.2476
 6052SOL    HW229619   0.215   1.654  15.118  2.8941 -0.3095 -0.1891
 6053SOL     OW29620   2.105   0.696   6.907 -0.6657  0.0163 -0.5410
 6053SOL    HW129621   2.015   0.727   6.901 -1.6155 -2.9143 -1.5127
 6053SOL    HW229622   2.147   0.772   6.948  0.9063 -1.2100  0.1271
 6054SOL     OW29623   1.321   1.801   5.194  0.5559 -0.1055  0.3024
 6054SOL    HW129624   1.248   1.863   5.202  0.5489 -0.0527 -0.1852
 6054SOL    HW229625   1.305   1.738   5.265  1.4227  0.1216  0.6923
 6055SOL     OW29626   1.395   4.503  14.308 -0.5054 -0.0886  0.4644
 6055SOL    HW129627   1.303   4.523  14.293 -0.8176 -1.1787  0.9274
 6055SOL    HW229628   1.398   4.491  14.403  1.8791 -0.4984  0.3601
 6056SOL     OW29629   3.128   2.902  17.460  0.0343  0.0117  0.2308
 6056SOL    HW129630   3.075   2.981  17.449 -0.6082 -0.6403 -1.3119
 6056SOL    HW229631   3.057   2.843  17.485  0.7310  0.9680  4.5857
 6057SOL     OW29632   3.527   3.102   5.924 -0.4515  0.9347 -0.2175
 6057SOL    HW129633   3.454   3.049   5.954  1.7070 -1.0428  1.6158
 6057SOL    HW229634   3.520   3.082   5.831 -1.4934  1.4614 -0.2407
 6058SOL     OW29635   3.969   4.384   5.109 -0.0357 -0.0448 -0.4892
 6058SOL    HW129636   4.021   4.458   5.140  0.1187  0.0993 -1.1115
 6058SOL    HW229637   3.914   4.435   5.049 -3.0346  0.2059  2.4073
 6059SOL     OW29638   4.673   0.626   7.356 -0.0687 -0.2079  0.1382
 6059SOL    HW129639   4.615   0.553   7.381  2.1357 -1.0542  2.8153
 6059SOL    HW229640   0.007   0.575   7.297  1.1775 -1.3323  2.2528
 6060SOL     OW29641   2.377   0.332  14.124  0.2223 -0.2677 -0.3070
 6060SOL    HW129642   2.449   0.362  14.069 -0.5638  1.3190 -0.4456
 6060SOL    HW229643   2.321   0.285  14.062  0.0083  0.5308 -0.7217
 6061SOL     OW29644   2.189   2.571  14.770 -1.0169 -0.3234 -0.3485
 6061SOL    HW129645   2.266   2.545  14.719 -0.7001 -1.1127  0.5262
 6061SOL    HW229646   2.151   2.484  14.778  0.8446 -1.0409  0.7895
 6062SOL     OW29647   0.652   2.544  11.363  0.4285  0.3415  0.0542
 6062SOL    HW129648   0.593   2.469  11.371 -0.8392  1.2557 -0.8804
 6062SOL    HW229649   0.728   2.501  11.323  0.0376 -0.0247 -0.2939
 6063SOL     OW29650   3.978   1.104   0.233 -0.1071 -0.3644 -0.1176
 6063SOL    HW129651   4.069   1.075   0.232 -0.0404 -0.1895  1.8008
 6063SOL    HW229652   3.974   1.146   0.319  4.7854  1.6236 -0.8952
 6064SOL     OW29653   0.706   0.688   8.517 -0.4155 -0.1526  0.3457
 6064SOL    HW129654   0.785   0.743   8.512  0.2742 -1.0532  1.4929
 6064SOL    HW229655   0.720   0.635   8.438 -3.3195  2.3433 -1.8191
 6065SOL     OW29656   4.329   4.145   4.052  0.5135  0.2570  0.0092
 6065SOL    HW129657   4.379   4.159   4.132  0.4955 -2.5480  0.4878
 6065SOL    HW229658   4.291   4.060   4.072 -0.4804  0.9482  1.0086
 6066SOL     OW29659   4.272   1.359   3.550  0.7277 -0.3467  0.3258
 6066SOL    HW129660   4.288   1.335   3.641 -2.1018 -0.6129  0.7569
 6066SOL    HW229661   4.177   1.362   3.545  0.7080  0.8102  1.5312
 6067SOL     OW29662   1.496   1.627   3.319 -0.4281  0.4181  0.4006
 6067SOL    HW129663   1.494   1.696   3.253  0.3536  0.1479  0.0849
 6067SOL    HW229664   1.466   1.663   3.402 -0.5168  2.2836 -0.4287
 6068SOL     OW29665   2.889   4.344   6.745  0.0958  0.0285 -0.0006
 6068SOL    HW129666   2.895   4.257   6.784  0.1075 -2.0092 -4.6400
 6068SOL    HW229667   2.847   4.390   6.818  0.1355  0.0009  0.0397
 6069SOL     OW29668   3.884   3.352   3.310 -0.2908  0.2343 -0.5785
 6069SOL    HW129669   3.969   3.396   3.309 -0.5558  0.8005  0.8423
 6069SOL    HW229670   3.839   3.395   3.238 -1.4627  0.0384  0.0279
 6070SOL     OW29671   0.945   0.451  15.706 -0.0407 -0.5544  0.2194
 6070SOL    HW129672   0.986   0.448  15.792  0.0583  0.9008  0.2241
 6070SOL    HW229673   0.865   0.403  15.727  1.3470 -2.1805  1.8309
 6071SOL     OW29674   4.017   0.266   2.574 -0.5527  0.1510  0.1101
 6071SOL    HW129675   3.992   0.347   2.617 -3.4982 -0.1088 -1.1482
 6071SOL    HW229676   3.962   0.269   2.497  0.8499 -0.3177 -0.9194
 6072SOL     OW29677   2.138   3.610   8.487  0.1957 -0.1648  0.3674
 6072SOL    HW129678   2.061   3.666   8.489  0.0511 -0.3559  0.2384
 6072SOL    HW229679   2.129   3.572   8.574  3.4885 -1.3265  0.2175
 6073SOL     OW29680   1.002   4.195   7.094 -0.7169  0.6106  0.4061
 6073SOL    HW129681   0.950   4.118   7.120 -1.1558  0.5717 -0.5764
 6073SOL    HW229682   1.056   4.186   7.172  1.7388 -1.9231 -1.5492
 6074SOL     OW29683   1.877   3.740   8.046 -0.1890  0.2684  0.5758
 6074SOL    HW129684   1.895   3.834   8.049 -2.0726  0.6873 -0.9324
 6074SOL    HW229685   1.877   3.715   7.953  0.3351 -2.3430  1.2780
 6075SOL     OW29686   4.546   0.412   2.815  0.1331 -0.1092 -0.5969
 6075SOL    HW129687   4.512   0.380   2.731 -0.7403 -1.7062  0.3765
 6075SOL    HW229688   4.532   0.506   2.800  0.1365  0.5250  3.3478
 6076SOL     OW29689   0.664   1.534   5.902 -0.5128 -0.1893 -0.2701
 6076SOL    HW129690   0.608   1.495   5.835  0.4693  1.2317 -1.9186
 6076SOL    HW229691   0.737   1.472   5.890 -0.0629  0.4903 -1.0818
 6077SOL     OW29692   2.715   1.566   8.554 -0.1346  0.2877 -0.0860
 6077SOL    HW129693   2.795   1.583   8.505  1.0734 -1.8623  1.1842
 6077SOL    HW229694   2.726   1.486   8.605 -1.6973 -0.1912 -0.4912
 6078SOL     OW29695   3.404   4.408  10.781  0.1804 -0.1851  0.1270
 6078SOL    HW129696   3.422   4.448  10.866 -1.4123 -0.2498  0.4874
 6078SOL    HW229697   3.327   4.460  10.758 -0.7573 -1.1834  1.0124
 6079SOL     OW29698   0.557   0.464   2.035 -0.7220 -0.4656 -0.3287
 6079SOL    HW129699   0.510   0.535   1.991 -1.1149  0.1519  1.0754
 6079SOL    HW229700   0.610   0.514   2.097 -0.6817  2.5408 -2.7549
 6080SOL     OW29701   1.061   2.711  14.057 -0.0217  0.0865  0.0264
 6080SOL    HW129702   1.105   2.641  14.104  0.4125 -0.5393 -1.3119
 6080SOL    HW229703   0.978   2.666  14.039 -0.8812  1.7408 -0.1643
 6081SOL     OW29704   4.546   0.095   2.238 -0.0746 -0.6802 -0.6367
 6081SOL    HW129705   4.493   0.096   2.159 -1.3738 -0.9873  0.2318
 6081SOL    HW229706   4.613   0.159   2.213  1.7832 -2.3266  0.1893
 6082SOL     OW29707   4.484   3.948   5.876  0.4452  0.3618 -0.7738
 6082SOL    HW129708   4.431   3.906   5.808  0.1066 -1.4856  0.6506
 6082SOL    HW229709   4.450   4.037   5.883 -2.6369 -0.9936  1.4601
 6083SOL     OW29710   2.796   3.559  11.718  0.1081  0.1269  0.5820
 6083SOL    HW129711   2.715   3.585  11.762 -0.3814 -0.6515  0.1294
 6083SOL    HW229712   2.847   3.547  11.798  1.5143  0.0505 -0.3196
 6084SOL     OW29713   2.534   3.245   9.989  0.0555  0.0343 -0.0867
 6084SOL    HW129714   2.558   3.299   9.914  0.2143  0.7299  0.4683
 6084SOL    HW229715   2.491   3.297  10.056  1.1656 -1.0212  1.4472
 6085SOL     OW29716   0.728   1.461   1.202 -0.9571  0.1228 -0.3881
 6085SOL    HW129717   0.781   1.541   1.207 -1.4941  0.4882 -0.5682
 6085SOL    HW229718   0.698   1.455   1.292 -0.3421  1.0680 -0.1168
 6086SOL     OW29719   1.974   3.463   4.765 -0.5012 -0.3337 -0.1661
 6086SOL    HW129720   2.057   3.470   4.812 -2.3212  0.7633  2.8895
 6086SOL    HW229721   1.997   3.406   4.691  1.7941 -0.2961  0.5342
 6087SOL     OW29722   4.533   0.045   7.645  0.3811  0.5761 -0.3396
 6087SOL    HW129723   4.611   0.089   7.611  2.3435 -2.1704  0.6548
 6087SOL    HW229724   4.545   4.672   7.629 -1.6244  0.3826 -0.6922
 6088SOL     OW29725   4.339   2.158  16.395 -0.2752  0.5282  0.1174
 6088SOL    HW129726   4.267   2.141  16.334  1.1190  0.4725 -1.4964
 6088SOL    HW229727   4.415   2.145  16.339 -0.2749 -0.2583  0.2961
 6089SOL     OW29728   3.166   0.963   3.945 -0.3742 -0.2042  0.0032
 6089SOL    HW129729   3.101   0.972   4.015 -1.5761 -1.0536 -1.0190
 6089SOL    HW229730   3.208   0.881   3.972 -2.4222 -1.6844 -1.2944
 6090SOL     OW29731   0.748   3.178   4.078 -0.0218 -0.0720  0.0466
 6090SOL    HW129732   0.655   3.165   4.063 -0.7599  2.6492  2.3349
 6090SOL    HW229733   0.750   3.267   4.114 -2.0575  0.1109 -0.2907
 6091SOL     OW29734   0.703   1.649   8.223 -0.3959  0.7963 -0.0676
 6091SOL    HW129735   0.703   1.609   8.136 -1.3077  1.2384 -0.2813
 6091SOL    HW229736   0.793   1.673   8.242  0.3379 -0.7505 -1.6436
 6092SOL     OW29737   0.731   2.545   6.877  0.1330 -0.0751  0.1643
 6092SOL    HW129738   0.789   2.523   6.804 -1.8923 -1.0144 -1.1604
 6092SOL    HW229739   0.770   2.623   6.916 -0.5330 -0.7045  2.0564
 6093SOL     OW29740   0.265   3.268   5.679  0.2702  0.5443 -0.0221
 6093SOL    HW129741   0.338   3.214   5.648  0.6779  0.4086  1.1881
 6093SOL    HW229742   0.226   3.211   5.745  0.8420  0.1203 -0.0499
 6094SOL     OW29743   0.029   1.709  11.416  0.2243 -0.2639  0.2213
 6094SOL    HW129744   4.717   1.757  11.492 -2.1097 -1.7911  0.1782
 6094SOL    HW229745   0.040   1.621  11.452  1.5407 -0.4422 -0.6282
 6095SOL     OW29746   0.232   1.615   2.076  0.3479  0.0481 -0.1752
 6095SOL    HW129747   0.171   1.664   2.021 -0.2527 -1.2054 -0.6120
 6095SOL    HW229748   0.313   1.614   2.026  0.9106 -0.9686  0.7602
 6096SOL     OW29749   4.621   2.920   5.148  0.1067 -0.5830  0.2144
 6096SOL    HW129750   4.624   2.977   5.225 -1.3613 -0.2727  0.0364
 6096SOL    HW229751   4.568   2.967   5.084 -1.5519 -3.4256 -0.5380
 6097SOL     OW29752   0.879   3.427  12.874 -0.2084  0.7047  0.3215
 6097SOL    HW129753   0.954   3.432  12.815  0.7561  2.0125  1.6694
 6097SOL    HW229754   0.893   3.514  12.912 -2.1181  2.1279 -2.1569
 6098SOL     OW29755   2.091   2.679  13.516 -0.0166 -0.1753 -0.1352
 6098SOL    HW129756   2.182   2.705  13.502 -0.4301  2.1258  1.3483
 6098SOL    HW229757   2.044   2.757  13.485  2.4695  1.1935 -0.4338
 6099SOL     OW29758   1.052   4.632   3.653  0.2349 -0.3782  0.4851
 6099SOL    HW129759   1.062   4.539   3.671  0.2732 -0.3155  0.7818
 6099SOL    HW229760   1.015   4.636   3.564 -1.0135  1.0371  1.0741
 6100SOL     OW29761   3.680   2.969   8.511  0.4680  0.1849  0.5130
 6100SOL    HW129762   3.618   2.989   8.580  0.5946 -0.9329  0.9348
 6100SOL    HW229763   3.638   2.909   8.449  1.9169 -1.1703  0.8460
 6101SOL     OW29764   3.905   0.956   9.334 -0.1726 -0.2629 -0.1361
 6101SOL    HW129765   3.968   0.907   9.281 -0.2216  1.1039 -1.4320
 6101SOL    HW229766   3.949   0.939   9.417  0.1378  1.3300  0.0122
 6102SOL     OW29767   2.760   1.708   6.665  0.2714 -0.1059  0.3383
 6102SOL    HW129768   2.665   1.721   6.659  0.3793  1.0162  1.0407
 6102SOL    HW229769   2.763   1.621   6.705  3.4416 -1.4462 -2.7910
 6103SOL     OW29770   4.186   3.615  10.016  0.2141 -0.2126  0.0956
 6103SOL    HW129771   4.134   3.535  10.009 -0.3611  0.0575  1.1967
 6103SOL    HW229772   4.139   3.660   9.945 -0.4098 -0.3382  0.4278
 6104SOL     OW29773   1.462   2.256  13.755 -0.1015 -0.2751  0.3689
 6104SOL    HW129774   1.476   2.186  13.819  1.1666  0.6969  1.1714
 6104SOL    HW229775   1.515   2.326  13.794  2.8300 -1.1873 -1.9554
 6105SOL     OW29776   0.159   2.633   6.789 -0.4325  0.1480 -0.0346
 6105SOL    HW129777   0.147   2.562   6.726 -3.3599 -0.5925  1.3277
 6105SOL    HW229778   0.207   2.694   6.733 -1.4484  0.0288 -1.0252
 6106SOL     OW29779   0.769   3.614   8.757  0.3146 -0.0545  0.0308
 6106SOL    HW129780   0.818   3.534   8.776 -2.4093 -1.1349  2.3974
 6106SOL    HW229781   0.678   3.586   8.765  0.0247  0.7932 -0.3120
 6107SOL     OW29782   4.720   0.006   4.816 -0.4427 -0.1681  0.2980
 6107SOL    HW129783   4.692   4.672   4.890 -1.6794  0.4809  0.3190
 6107SOL    HW229784   0.094   0.005   4.830 -0.3516 -1.2219 -0.3876
 6108SOL     OW29785   3.737   3.998   4.016 -0.0528  0.0123  0.0227
 6108SOL    HW129786   3.793   4.069   3.985 -0.9424  1.4962  1.8139
 6108SOL    HW229787   3.782   3.986   4.100  2.4560  0.1744 -1.3150
 6109SOL     OW29788   2.435   1.860   5.704  0.4853 -0.5390 -0.2994
 6109SOL    HW129789   2.459   1.905   5.623  0.8645  0.5550  0.4196
 6109SOL    HW229790   2.478   1.774   5.699  2.6504  0.4939  0.7655
 6110SOL     OW29791   0.191   3.109   2.046 -0.4834  0.2285 -0.4361
 6110SOL    HW129792   0.172   3.200   2.023 -0.6124  0.1971 -0.4518
 6110SOL    HW229793   0.212   3.122   2.138  0.9759  1.7213 -0.9798
 6111SOL     OW29794   0.532   0.722   6.776  0.1638  0.2998 -0.0245
 6111SOL    HW129795   0.498   0.706   6.688  0.1327 -1.3322  0.2778
 6111SOL    HW229796   0.622   0.692   6.761  0.4600  0.8293  0.7236
 6112SOL     OW29797   0.344   4.271   2.735  0.0503 -0.5121 -0.1015
 6112SOL    HW129798   0.363   4.182   2.708  2.2613  0.2064 -0.9353
 6112SOL    HW229799   0.338   4.328   2.658  1.7863  0.4882  0.5023
 6113SOL     OW29800   0.555   1.572  12.380  0.7925  0.3110 -0.0517
 6113SOL    HW129801   0.475   1.621  12.365  0.7645  0.7589  1.4963
 6113SOL    HW229802   0.542   1.516  12.457 -0.7005 -0.7846 -1.1026
 6114SOL     OW29803   3.324   4.675   4.608 -1.0941 -0.0812 -0.3774
 6114SOL    HW129804   3.314   4.580   4.611  0.1850 -0.1665  1.2318
 6114SOL    HW229805   3.406   4.679   4.657 -0.0806  2.5799 -2.2653
 6115SOL     OW29806   3.264   2.647  14.523  0.2362 -0.4012  0.8416
 6115SOL    HW129807   3.173   2.633  14.547 -0.2783 -2.4617 -2.2477
 6115SOL    HW229808   3.272   2.742  14.508 -2.5081 -0.4310 -0.8468
 6116SOL     OW29809   3.264   1.333   3.521  0.7225 -0.5126  0.1692
 6116SOL    HW129810   3.295   1.248   3.553 -0.1591 -1.1205 -0.5930
 6116SOL    HW229811   3.175   1.320   3.490  0.1558 -0.4797  1.7837
 6117SOL     OW29812   1.790   2.414   4.809 -0.1604 -0.3456  0.1938
 6117SOL    HW129813   1.747   2.383   4.730 -0.5245  1.5124 -0.3337
 6117SOL    HW229814   1.718   2.395   4.869 -0.9209  1.8026 -0.0547
 6118SOL     OW29815   2.878   3.807   3.232 -0.0859 -0.0974 -0.0576
 6118SOL    HW129816   2.808   3.818   3.297  0.9988  3.2062  0.5476
 6118SOL    HW229817   2.893   3.713   3.243  0.8100  0.1669  0.9820
 6119SOL     OW29818   1.752   2.426   8.638  0.5493  0.2768  0.0669
 6119SOL    HW129819   1.755   2.511   8.594 -2.6291 -0.3274 -1.3471
 6119SOL    HW229820   1.846   2.411   8.646  0.9504  2.7570 -0.1913
 6120SOL     OW29821   3.024   0.464   3.333  0.1828 -0.4773 -0.1356
 6120SOL    HW129822   3.106   0.500   3.299  0.1954 -0.6021 -0.2409
 6120SOL    HW229823   2.968   0.539   3.314  0.8310 -0.4214 -1.8737
 6121SOL     OW29824   4.140   2.301   0.925 -0.0857 -0.2058  0.3813
 6121SOL    HW129825   4.089   2.370   0.968 -1.1065 -0.8419  0.1979
 6121SOL    HW229826   4.085   2.223   0.925 -0.9632  0.4171 -1.1724
 6122SOL     OW29827   4.710   0.217   3.225 -0.1272 -0.3513  0.7684
 6122SOL    HW129828   4.628   0.234   3.272 -2.5052 -1.3049 -2.9902
 6122SOL    HW229829   0.031   0.158   3.287 -0.1286  0.7404  1.8244
 6123SOL     OW29830   3.348   0.682  12.358 -0.6311  0.4615 -0.9643
 6123SOL    HW129831   3.365   0.747  12.427  0.7535 -1.3386  0.3903
 6123SOL    HW229832   3.323   0.738  12.285  1.5236  2.4501 -0.1983
 6124SOL     OW29833   3.033   2.958   3.779 -0.4048  0.3751 -0.5897
 6124SOL    HW129834   3.016   2.921   3.692  0.5685 -1.4493  0.0024
 6124SOL    HW229835   3.126   2.968   3.760 -0.0769 -1.0729  0.2221
 6125SOL     OW29836   3.783   4.137   6.068 -0.1282 -0.4603  0.3594
 6125SOL    HW129837   3.761   4.181   6.149  0.5103 -0.5994  0.6107
 6125SOL    HW229838   3.707   4.084   6.042 -0.0597  0.0327 -0.8777
 6126SOL     OW29839   0.089   1.473   3.469 -0.4883 -0.2597  0.2946
 6126SOL    HW129840   0.145   1.546   3.444  1.1849 -2.1161 -1.3161
 6126SOL    HW229841   0.044   1.462   3.386 -0.6396 -0.9071  0.4632
 6127SOL     OW29842   0.443   0.699  15.998  0.2297  0.4000  0.0419
 6127SOL    HW129843   0.357   0.662  16.019  0.4453 -0.6493 -0.9174
 6127SOL    HW229844   0.421   0.773  15.941 -1.2382  1.2600  1.7219
 6128SOL     OW29845   2.501   3.977   3.078 -0.2556  0.2811  0.1243
 6128SOL    HW129846   2.469   4.065   3.058 -3.7638 -1.9826 -4.3560
 6128SOL    HW229847   2.577   4.001   3.131 -0.3654 -1.1267  0.9225
 6129SOL     OW29848   3.228   0.988   7.260  0.1023  0.3396  0.1033
 6129SOL    HW129849   3.269   0.970   7.344 -0.6013 -1.9780 -0.0278
 6129SOL    HW229850   3.138   0.995   7.292 -0.1589  0.8577 -0.7475
 6130SOL     OW29851   3.916   4.520  12.186  0.2088  0.0209  0.1435
 6130SOL    HW129852   3.933   4.456  12.117 -2.0190  1.3414 -1.6125
 6130SOL    HW229853   3.839   4.481  12.228  1.9725 -2.8345  0.7438
 6131SOL     OW29854   1.611   1.237  10.567 -0.2870  0.1182 -0.2263
 6131SOL    HW129855   1.647   1.324  10.549 -0.6895  0.1942 -0.6763
 6131SOL    HW229856   1.686   1.183  10.544  0.2811  0.4513  0.8743
 6132SOL     OW29857   1.783   3.370   4.318  0.5588 -0.2624  0.1831
 6132SOL    HW129858   1.833   3.448   4.346  1.3971 -1.1875  1.2728
 6132SOL    HW229859   1.856   3.311   4.339 -1.5370 -2.8165  0.1400
 6133SOL     OW29860   2.199   4.518   8.736  0.0066 -0.0915  0.5158
 6133SOL    HW129861   2.248   4.436   8.731  0.4083  0.3114 -2.0423
 6133SOL    HW229862   2.143   4.517   8.658  1.1916  1.4383 -0.3551
 6134SOL     OW29863   1.970   3.602   0.666  0.4220  0.1909  0.0695
 6134SOL    HW129864   2.037   3.566   0.725 -0.1550  0.8179  1.0976
 6134SOL    HW229865   1.898   3.538   0.668 -0.5410  1.2454 -0.8441
 6135SOL     OW29866   0.704   0.190   8.112 -0.1782  0.4555  0.2470
 6135SOL    HW129867   0.772   0.196   8.045 -0.5831 -0.3759 -0.2326
 6135SOL    HW229868   0.756   0.183   8.193 -0.1898 -1.5004  0.1007
 6136SOL     OW29869   1.255   0.116   9.127  0.1579 -0.1336  0.6347
 6136SOL    HW129870   1.305   0.194   9.148 -1.1080  0.0434  2.8926
 6136SOL    HW229871   1.325   0.051   9.119 -0.4956 -1.0293  2.2870
 6137SOL     OW29872   4.090   4.652   7.470  0.1566  0.3978 -0.1290
 6137SOL    HW129873   4.000   4.623   7.456 -0.5688  1.7616  1.7011
 6137SOL    HW229874   4.133   4.568   7.481  0.4032  1.2075  5.1792
 6138SOL     OW29875   4.660   3.373  17.405  0.2145 -0.0427 -0.3974
 6138SOL    HW129876   4.635   3.325  17.325 -0.1689 -1.0138  0.3010
 6138SOL    HW229877   4.583   3.431  17.411  0.6878  0.5061  0.3221
 6139SOL     OW29878   2.028   4.240  16.614 -0.2281 -0.0622  0.1460
 6139SOL    HW129879   1.970   4.225  16.688 -1.4460  1.1941 -0.5626
 6139SOL    HW229880   2.117   4.252  16.649  0.8440 -2.3532 -1.7694
 6140SOL     OW29881   1.446   2.912   8.080 -0.2070 -0.9334  0.1087
 6140SOL    HW129882   1.367   2.956   8.049  1.3590  1.0448 -1.0392
 6140SOL    HW229883   1.498   2.921   8.001 -1.0135  2.0112 -0.0981
 6141SOL     OW29884   2.377   4.529   4.388  0.3168 -0.7485 -0.0445
 6141SOL    HW129885   2.310   4.520   4.456  0.9568  1.0387  0.8256
 6141SOL    HW229886   2.377   4.624   4.374  2.2594 -0.9938 -1.6814
 6142SOL     OW29887   0.709   3.103   8.308 -0.1990  0.6630  0.2784
 6142SOL    HW129888   0.655   3.130   8.234 -2.9469 -0.5216  1.8423
 6142SOL    HW229889   0.789   3.141   8.273  0.3339  1.8921  2.8124
 6143SOL     OW29890   0.129   2.430   3.924  0.1776 -0.4579  0.1682
 6143SOL    HW129891   0.094   2.407   4.010  0.6831 -0.2563  0.4328
 6143SOL    HW229892   0.052   2.430   3.867 -0.2271  1.6693  0.7302
 6144SOL     OW29893   2.874   3.521   3.190  0.2165 -0.6045  0.3028
 6144SOL    HW129894   2.833   3.436   3.177 -1.3163 -0.4354  3.7155
 6144SOL    HW229895   2.959   3.505   3.151 -0.0979  0.4132 -0.7849
 6145SOL     OW29896   3.671   0.911   7.564  0.6028 -0.2186 -0.5012
 6145SOL    HW129897   3.709   0.837   7.611 -3.1313 -0.6041  1.8782
 6145SOL    HW229898   3.664   0.974   7.635  0.6966 -0.2639 -0.4529
 6146SOL     OW29899   1.435   4.240   6.994  0.2419  0.4253 -0.3901
 6146SOL    HW129900   1.354   4.265   6.950 -0.0616 -1.5476 -0.9676
 6146SOL    HW229901   1.411   4.149   7.011  1.6432  0.0769 -0.2392
 6147SOL     OW29902   2.748   0.979   4.962  0.4683 -0.0508 -0.4641
 6147SOL    HW129903   2.696   0.912   4.918 -0.3237  1.4804 -1.9034
 6147SOL    HW229904   2.777   1.024   4.882 -0.5317  0.0993 -0.7485
 6148SOL     OW29905   2.054   4.552   6.244  0.4827 -0.3758 -0.5892
 6148SOL    HW129906   2.049   4.597   6.329 -0.2309 -1.5317 -0.0226
 6148SOL    HW229907   2.020   4.610   6.177  0.9045  0.2330 -0.2829
 6149SOL     OW29908   0.981   1.653   5.289  0.7146  0.1280  0.0510
 6149SOL    HW129909   0.926   1.723   5.325 -2.2844 -2.1467 -0.0993
 6149SOL    HW229910   0.973   1.669   5.195 -1.8148 -1.4598 -0.0166
 6150SOL     OW29911   0.468   0.656  17.580 -0.2571 -0.2325  0.5273
 6150SOL    HW129912   0.451   0.602  17.503 -2.6450 -0.2811  1.1060
 6150SOL    HW229913   0.465   0.746  17.547  0.5069 -0.2790  0.3361
 6151SOL     OW29914   0.399   1.660   1.686 -0.0538 -0.5237 -0.1233
 6151SOL    HW129915   0.360   1.747   1.674 -0.8635 -0.5816  2.1120
 6151SOL    HW229916   0.445   1.645   1.603  1.4290 -0.0666  0.6191
 6152SOL     OW29917   2.702   1.295   2.428  0.1875  0.4735 -0.2674
 6152SOL    HW129918   2.672   1.370   2.481 -2.9385  0.3718 -1.8834
 6152SOL    HW229919   2.753   1.333   2.357  1.6129  2.4639  1.8163
 6153SOL     OW29920   4.535   3.952   2.505 -0.3008  0.6919  0.4617
 6153SOL    HW129921   4.578   3.980   2.424 -0.7274  1.4975  0.5248
 6153SOL    HW229922   4.590   4.003   2.565  0.9404  0.4760 -0.4800
 6154SOL     OW29923   3.724   3.335   7.333  0.3614  0.4343 -0.3018
 6154SOL    HW129924   3.756   3.283   7.407 -2.5871 -2.3629 -1.0291
 6154SOL    HW229925   3.749   3.290   7.252 -1.0695 -0.2131 -0.3797
 6155SOL     OW29926   3.349   2.455   3.535 -0.3348  0.2592 -0.4759
 6155SOL    HW129927   3.417   2.391   3.515  0.1666  1.1712 -1.6689
 6155SOL    HW229928   3.378   2.527   3.479 -0.9529  0.9743  0.1101
 6156SOL     OW29929   2.768   0.568   6.870 -0.0336  0.0808  0.5346
 6156SOL    HW129930   2.769   0.657   6.832  0.1384  0.5478  1.6501
 6156SOL    HW229931   2.780   0.595   6.961  1.2701  1.5525 -0.0598
 6157SOL     OW29932   4.407   3.482   8.070 -0.1090 -0.1571  0.2258
 6157SOL    HW129933   4.362   3.559   8.036 -2.6888 -0.7257  2.2847
 6157SOL    HW229934   4.334   3.421   8.079 -0.8238  0.7431  0.4779
 6158SOL     OW29935   0.231   1.678   7.351 -0.1847  0.2106 -0.0273
 6158SOL    HW129936   0.198   1.686   7.441 -0.1944 -1.1495  0.0872
 6158SOL    HW229937   0.255   1.586   7.362  1.7515  0.8658  1.2689
 6159SOL     OW29938   0.158   1.733   5.011  0.1198 -0.1765 -0.2172
 6159SOL    HW129939   0.092   1.677   4.970 -0.3250  1.4215 -1.6915
 6159SOL    HW229940   0.110   1.767   5.086  0.9001  0.5604 -0.0465
 6160SOL     OW29941   1.083   3.251   8.531  0.3252 -0.0588  0.1950
 6160SOL    HW129942   1.137   3.311   8.583 -0.0818 -0.3902  1.0053
 6160SOL    HW229943   1.063   3.192   8.604 -2.2165 -0.8798 -1.1618
 6161SOL     OW29944   1.686   4.459   4.731  0.4925  0.5034 -0.0906
 6161SOL    HW129945   1.637   4.410   4.666 -0.6552 -0.2303  1.3418
 6161SOL    HW229946   1.711   4.384   4.785  0.6278  2.0227  1.9556
 6162SOL     OW29947   1.585   4.185  10.520  0.2943  0.7132 -0.1062
 6162SOL    HW129948   1.573   4.179  10.615 -0.8842 -1.2690 -0.3838
 6162SOL    HW229949   1.677   4.167  10.504  0.2933  0.6707 -0.0628
 6163SOL     OW29950   1.569   4.446   6.191  0.1085 -0.1323  0.5310
 6163SOL    HW129951   1.480   4.466   6.219 -0.2348 -2.5868  1.2234
 6163SOL    HW229952   1.616   4.428   6.273  0.5041 -0.3223  0.2603
 6164SOL     OW29953   3.714   4.528   8.566  0.4060 -0.4253 -0.3043
 6164SOL    HW129954   3.746   4.447   8.526  2.5204 -0.0762  0.6374
 6164SOL    HW229955   3.800   4.559   8.594 -0.0911  1.4543 -0.8217
 6165SOL     OW29956   3.651   1.624   1.402  0.1040 -0.1467  0.0148
 6165SOL    HW129957   3.656   1.595   1.493 -1.0542  1.7817  0.7099
 6165SOL    HW229958   3.711   1.699   1.408 -2.4916  1.7754  1.8228
 6166SOL     OW29959   3.416   2.259  15.366 -0.6034 -0.1923  0.2921
 6166SOL    HW129960   3.323   2.241  15.384 -0.7317 -0.3884 -0.5622
 6166SOL    HW229961   3.462   2.211  15.434  0.5532  0.9266  0.2892
 6167SOL     OW29962   2.241   3.923   5.471 -0.6442 -0.6701 -0.0601
 6167SOL    HW129963   2.167   3.963   5.425 -1.1529 -1.0213  0.4559
 6167SOL    HW229964   2.263   3.853   5.410  0.5861  1.0606 -1.6085
 6168SOL     OW29965   4.122   2.904  12.030  0.2461  0.2374  0.1127
 6168SOL    HW129966   4.080   2.892  11.945  2.0865 -2.0855 -0.4532
 6168SOL    HW229967   4.064   2.869  12.097 -2.6580  2.7184 -1.0528
 6169SOL     OW29968   3.612   2.359   3.153  0.3745 -0.0389 -0.1287
 6169SOL    HW129969   3.607   2.275   3.107 -1.0904  0.6698 -1.2780
 6169SOL    HW229970   3.537   2.404   3.113 -0.5268 -1.4263  0.0254
 6170SOL     OW29971   3.178   0.901   7.992  0.3564 -0.0792 -0.0519
 6170SOL    HW129972   3.111   0.965   8.018  0.4122  0.9049 -2.2388
 6170SOL    HW229973   3.214   0.864   8.072  1.7213  1.2369 -0.0483
 6171SOL     OW29974   0.454   2.606   3.944  0.4540 -0.6192 -0.1634
 6171SOL    HW129975   0.370   2.589   3.987 -1.0864  4.7648 -1.1231
 6171SOL    HW229976   0.498   2.521   3.946  0.7125 -0.4671  0.6770
 6172SOL     OW29977   2.267   3.494   6.904 -0.4840  0.1083 -0.2601
 6172SOL    HW129978   2.282   3.431   6.834 -2.3050  1.4227 -1.8327
 6172SOL    HW229979   2.308   3.570   6.861  0.5851  0.3825  1.2422
 6173SOL     OW29980   4.461   0.743   9.094  0.2752 -0.9802 -0.0003
 6173SOL    HW129981   4.470   0.670   9.032  0.0264  1.1867 -2.6209
 6173SOL    HW229982   4.521   0.814   9.071 -0.3830  0.3515  2.3802
 6174SOL     OW29983   2.920   0.299  17.608 -0.4796  0.3963 -0.0780
 6174SOL    HW129984   2.831   0.269  17.590  0.0304 -0.3348 -1.3305
 6174SOL    HW229985   2.945   0.330  17.522 -0.7496  0.9966  0.0625
 6175SOL     OW29986   1.470   0.003   6.377 -1.2906  0.0452 -0.4928
 6175SOL    HW129987   1.494   0.091   6.405 -1.0117  1.0010 -3.7448
 6175SOL    HW229988   1.450   4.668   6.452 -0.0136  0.6552  0.2916
 6176SOL     OW29989   0.556   0.939  12.775 -0.5625 -0.2837 -0.5329
 6176SOL    HW129990   0.484   0.961  12.717  0.5511 -0.3115 -1.9254
 6176SOL    HW229991   0.627   0.976  12.723 -1.1279 -1.0357 -1.8268
 6177SOL     OW29992   1.328   3.796   1.492 -0.5405  0.3132 -0.2521
 6177SOL    HW129993   1.321   3.703   1.467  1.5508  0.2621 -0.6437
 6177SOL    HW229994   1.388   3.827   1.424  0.0114  0.2370  0.2031
 6178SOL     OW29995   1.141   2.644   7.182  0.5441 -0.4848  0.4544
 6178SOL    HW129996   1.218   2.695   7.209 -0.1069  0.3615  0.6939
 6178SOL    HW229997   1.072   2.710   7.187 -0.5588 -1.4839 -1.4524
 6179SOL     OW29998   3.903   3.197  15.626  0.6211  0.6954  0.2157
 6179SOL    HW129999   3.855   3.146  15.691  2.3877 -0.1303  0.8880
 6179SOL    HW230000   3.991   3.202  15.665  0.7852  1.1327 -0.2158
 6180SOL     OW30001   2.503   1.307   7.920 -0.0157 -0.0786  0.1609
 6180SOL    HW130002   2.493   1.212   7.919 -2.0061  0.1178  1.3238
 6180SOL    HW230003   2.487   1.318   8.014  1.4706 -1.3645  0.5475
 6181SOL     OW30004   4.270   3.456   5.884  0.0357 -0.0091  0.2099
 6181SOL    HW130005   4.330   3.410   5.825  1.8224 -0.4027  2.2840
 6181SOL    HW230006   4.186   3.435   5.844  0.5248 -0.1824 -0.7104
 6182SOL     OW30007   0.031   3.055   0.152 -0.0837 -0.0109  0.8227
 6182SOL    HW130008   4.693   2.993   0.195 -1.5243 -1.1789 -2.9226
 6182SOL    HW230009   4.692   3.092   0.088  0.2763  0.4400  0.7454
 6183SOL     OW30010   1.933   3.437   3.448 -0.1887  0.1054 -0.8432
 6183SOL    HW130011   1.852   3.458   3.401 -1.1060 -2.1904 -0.2859
 6183SOL    HW230012   1.975   3.522   3.437 -1.6435  0.9884  0.4289
 6184SOL     OW30013   0.932   1.379   3.321 -0.4283  0.0547  0.2405
 6184SOL    HW130014   1.010   1.333   3.351  0.1027  0.9467  0.2494
 6184SOL    HW230015   0.903   1.404   3.409  1.9660 -1.1863  1.3928
 6185SOL     OW30016   4.521   3.320  13.289  0.4544  0.1747  0.7405
 6185SOL    HW130017   4.550   3.291  13.202  2.0862  1.8939  0.7191
 6185SOL    HW230018   4.571   3.399  13.309  0.8672  0.1705 -0.2749
 6186SOL     OW30019   2.690   2.243   9.683 -0.4947 -1.0645  0.1622
 6186SOL    HW130020   2.626   2.202   9.741  1.1140  0.3066  2.8746
 6186SOL    HW230021   2.653   2.241   9.595  1.2891  2.0014 -0.6444
 6187SOL     OW30022   0.000   3.377  16.590 -0.1864  0.9868 -0.2494
 6187SOL    HW130023   4.631   3.409  16.587  0.5283  2.9455 -0.7704
 6187SOL    HW230024   0.043   3.462  16.599  1.8934 -0.1111  0.2068
 6188SOL     OW30025   0.109   3.999   4.710  0.0010 -0.4807  0.0274
 6188SOL    HW130026   0.136   4.085   4.675  0.7988 -0.7380  0.0143
 6188SOL    HW230027   0.149   4.004   4.797  0.9994 -1.1026 -0.4013
 6189SOL     OW30028   0.938   2.550   6.388  0.7852 -0.5928  0.5727
 6189SOL    HW130029   0.931   2.524   6.296  0.9458  0.7463  0.1914
 6189SOL    HW230030   1.030   2.550   6.413  1.4424 -2.4625 -1.9219
 6190SOL     OW30031   0.693   0.962   9.852  0.3780 -0.2640 -0.3883
 6190SOL    HW130032   0.766   0.980   9.911  0.8459  0.4629 -1.1832
 6190SOL    HW230033   0.619   0.966   9.912  1.4315 -0.3239  0.9016
 6191SOL     OW30034   3.881   0.445   4.122  0.0808 -0.5524  0.1685
 6191SOL    HW130035   3.913   0.447   4.032 -2.8648 -0.7274 -0.8817
 6191SOL    HW230036   3.948   0.391   4.164  1.3995 -0.4300 -1.7581
 6192SOL     OW30037   3.996   4.476  11.377 -0.0116 -0.1958 -0.4067
 6192SOL    HW130038   4.014   4.397  11.427  0.8335  0.2712  0.0204
 6192SOL    HW230039   3.930   4.518  11.433  0.8977 -1.7397  1.8215
 6193SOL     OW30040   2.131   2.431   3.405 -0.2856 -0.1190  0.2550
 6193SOL    HW130041   2.182   2.390   3.474 -0.1614 -0.2707  0.0738
 6193SOL    HW230042   2.138   2.525   3.422 -0.4130 -0.0681  0.0317
 6194SOL     OW30043   0.558   0.581   5.164 -0.3458  0.5367 -0.2704
 6194SOL    HW130044   0.482   0.630   5.194 -0.1911  1.5203 -1.4849
 6194SOL    HW230045   0.626   0.614   5.222 -0.2646  2.3434 -1.3857
 6195SOL     OW30046   0.512   0.293  13.680  0.1598 -0.1488  0.2830
 6195SOL    HW130047   0.475   0.290  13.591  1.1810 -1.6225 -0.0967
 6195SOL    HW230048   0.588   0.234  13.675  2.0550  2.2764  0.2988
 6196SOL     OW30049   1.176   3.542   9.197 -0.4833 -0.4845  0.0907
 6196SOL    HW130050   1.160   3.535   9.103  0.6950  0.5780 -0.1876
 6196SOL    HW230051   1.100   3.493   9.229 -1.1018 -0.3405 -1.1320
 6197SOL     OW30052   0.271   2.876  16.354 -0.0157  0.4467 -0.1427
 6197SOL    HW130053   0.201   2.848  16.294 -0.8489  0.8794  0.6275
 6197SOL    HW230054   0.228   2.940  16.410 -3.1867 -0.0395 -2.0250
 6198SOL     OW30055   0.869   1.515   7.968  0.4398 -0.3377  0.5181
 6198SOL    HW130056   0.801   1.448   7.966  1.8201 -1.6889 -1.3671
 6198SOL    HW230057   0.915   1.484   7.890  0.6468 -0.4860  0.6984
 6199SOL     OW30058   2.100   2.224   2.534 -0.3112  0.3602 -0.1798
 6199SOL    HW130059   2.110   2.157   2.601 -0.3170  0.3429 -0.1964
 6199SOL    HW230060   2.124   2.178   2.454  0.9500 -1.0499  1.0118
 6200SOL     OW30061   0.909   0.607   7.103 -0.1518 -0.2761 -0.2306
 6200SOL    HW130062   0.904   0.581   7.011 -0.6851  1.2825 -0.6261
 6200SOL    HW230063   0.984   0.560   7.141  0.2813  1.5083  1.1345
 6201SOL     OW30064   1.206   3.840   0.447  0.0150  0.1414 -0.3368
 6201SOL    HW130065   1.263   3.769   0.418 -1.2450 -0.5722 -1.0990
 6201SOL    HW230066   1.207   3.817   0.540  2.7201 -0.6079 -0.5505
 6202SOL     OW30067   4.296   0.062  16.234  0.3688 -0.2079 -0.0563
 6202SOL    HW130068   4.232   0.057  16.305 -0.8482 -1.0474 -1.1959
 6202SOL    HW230069   4.244   0.037  16.157 -1.3936  0.0105  1.0849
 6203SOL     OW30070   3.380   2.789   4.099  0.6895  0.3419  0.3379
 6203SOL    HW130071   3.304   2.797   4.157  0.0980  2.9356 -0.8046
 6203SOL    HW230072   3.453   2.777   4.160  1.6893 -0.2005 -0.9786
 6204SOL     OW30073   1.252   2.861   8.510  0.1204 -0.1109  0.0059
 6204SOL    HW130074   1.344   2.849   8.489  0.5044  1.2839  0.9262
 6204SOL    HW230075   1.272   2.919   8.584 -2.3694 -0.3711  0.8861
 6205SOL     OW30076   3.029   1.585   5.280 -0.2879 -0.2780  0.3663
 6205SOL    HW130077   3.021   1.660   5.340  0.4438 -0.0785  0.2131
 6205SOL    HW230078   3.027   1.633   5.197  1.8457 -0.1163  0.4144
 6206SOL     OW30079   2.944   2.391   6.892  0.1822 -0.7111  0.5384
 6206SOL    HW130080   2.948   2.379   6.987 -0.5434 -1.3250  0.4917
 6206SOL    HW230081   2.852   2.409   6.870  0.1023 -0.0866  1.3603
 6207SOL     OW30082   1.072   4.696  10.857 -0.0973  0.9652  0.6373
 6207SOL    HW130083   1.159   4.657  10.845 -0.9090 -1.4740  2.7136
 6207SOL    HW230084   1.025   4.637  10.798  0.4152  1.3722 -0.1810
 6208SOL     OW30085   4.589   1.166  17.606  0.0434 -0.0300  0.0439
 6208SOL    HW130086   4.651   1.094  17.592 -1.6320 -1.4599  0.0286
 6208SOL    HW230087   4.633   1.243  17.570  0.6097 -1.1556 -1.6810
 6209SOL     OW30088   3.148   1.583   6.155  0.4229 -0.3959 -0.2221
 6209SOL    HW130089   3.154   1.601   6.061 -0.3990  0.0082 -0.1989
 6209SOL    HW230090   3.213   1.513   6.166  1.3210  0.9591  2.8789
 6210SOL     OW30091   4.329   0.668  13.539 -0.6332  0.0820 -0.5280
 6210SOL    HW130092   4.340   0.747  13.591 -0.0277 -2.0919  2.6819
 6210SOL    HW230093   4.418   0.634  13.550 -0.4600  0.2389 -1.4847
 6211SOL     OW30094   3.588   0.405   4.215 -0.1349  0.3638  0.4085
 6211SOL    HW130095   3.596   0.393   4.120  0.2884  1.5598  0.2893
 6211SOL    HW230096   3.682   0.410   4.236 -0.3488 -2.4375  2.0291
 6212SOL     OW30097   0.602   3.187  12.328 -0.0040  0.1518  0.2613
 6212SOL    HW130098   0.608   3.197  12.423 -0.0417  0.8669  0.1897
 6212SOL    HW230099   0.533   3.252  12.316  0.7714  1.0329  0.5494
 6213SOL     OW30100   1.151   3.345   9.005 -0.1137 -0.5083  0.6522
 6213SOL    HW130101   1.154   3.250   8.992 -0.2259 -0.5302  0.7824
 6213SOL    HW230102   1.245   3.366   9.001 -0.4371  0.5921 -1.0679
 6214SOL     OW30103   4.620   4.379  13.629 -0.7527  0.1198  0.2968
 6214SOL    HW130104   4.556   4.357  13.697 -0.0642  0.9154  1.2010
 6214SOL    HW230105   4.591   4.464  13.595  0.8445  0.6610  0.2887
 6215SOL     OW30106   0.922   3.726   7.660  0.1555  0.3610  0.3272
 6215SOL    HW130107   0.995   3.773   7.699 -0.1640  1.1334 -0.0085
 6215SOL    HW230108   0.931   3.636   7.693 -1.2754  0.4006  0.8544
 6216SOL     OW30109   1.302   3.240   2.580 -0.0652  0.0755 -0.2183
 6216SOL    HW130110   1.355   3.294   2.521 -0.0301  1.0424  0.6979
 6216SOL    HW230111   1.309   3.155   2.536 -0.5716 -1.4336  2.5572
 6217SOL     OW30112   2.947   3.352   4.149  0.2736 -0.1198  0.0165
 6217SOL    HW130113   2.903   3.327   4.067 -0.3917  2.3660 -0.3856
 6217SOL    HW230114   3.005   3.419   4.112 -0.2140  0.3654  0.1191
 6218SOL     OW30115   3.511   3.596   6.985  0.0554 -0.3637 -0.4298
 6218SOL    HW130116   3.563   3.632   7.057  0.2386 -0.5633 -0.4654
 6218SOL    HW230117   3.426   3.614   7.026 -0.3404  1.3459 -2.0182
 6219SOL     OW30118   3.792   1.534   3.072 -0.1831 -0.1900 -0.0424
 6219SOL    HW130119   3.722   1.520   3.135 -0.8656  0.6994 -0.6121
 6219SOL    HW230120   3.750   1.578   2.998 -2.4736 -0.1729  1.2821
 6220SOL     OW30121   0.934   0.375   6.232 -0.7285  0.0275 -0.8258
 6220SOL    HW130122   0.957   0.282   6.230  1.0471  0.4985 -1.4330
 6220SOL    HW230123   0.848   0.374   6.189 -0.8016 -1.5963 -0.6616
 6221SOL     OW30124   4.574   1.634  16.095  0.0763  0.2786 -0.6240
 6221SOL    HW130125   4.500   1.693  16.108  2.1193  2.0890  2.8037
 6221SOL    HW230126   4.622   1.640  16.177  0.7113 -0.1187 -0.9633
 6222SOL     OW30127   3.171   2.421  11.815 -0.5376 -0.3054  0.7324
 6222SOL    HW130128   3.157   2.502  11.864 -0.2709  0.6548 -0.8099
 6222SOL    HW230129   3.244   2.458  11.766 -0.7172  0.3281  0.9418
 6223SOL     OW30130   1.530   4.425   7.437 -0.2499 -0.2436 -0.0577
 6223SOL    HW130131   1.440   4.408   7.410 -0.5928  0.4415  0.6874
 6223SOL    HW230132   1.565   4.339   7.415  0.6375  0.2105 -0.4342
 6224SOL     OW30133   4.351   0.229   0.937  0.1350  0.0588  0.0170
 6224SOL    HW130134   4.310   0.150   0.972  1.0501 -0.0018  0.9201
 6224SOL    HW230135   4.420   0.231   1.003  0.1308 -0.3260  0.0328
 6225SOL     OW30136   3.113   0.547   0.212 -0.2179 -0.6860  0.2556
 6225SOL    HW130137   3.191   0.531   0.265 -0.4466  3.6520  1.8520
 6225SOL    HW230138   3.114   0.460   0.171 -0.3424 -0.5337 -0.0664
 6226SOL     OW30139   4.155   3.701   3.626 -0.4660  0.1891 -0.0072
 6226SOL    HW130140   4.249   3.704   3.646 -0.6040 -1.2991  0.8669
 6226SOL    HW230141   4.151   3.654   3.543  0.3041 -0.7088  0.4604
 6227SOL     OW30142   1.164   4.343   2.469  0.0930  0.7580 -0.0816
 6227SOL    HW130143   1.095   4.312   2.410  0.2633  0.4947 -0.1432
 6227SOL    HW230144   1.194   4.409   2.407  1.6032 -0.6149 -0.8139
 6228SOL     OW30145   1.698   0.538  15.612  0.4645  0.4107 -0.3273
 6228SOL    HW130146   1.788   0.571  15.622  1.3708 -2.2462  0.2257
 6228SOL    HW230147   1.721   0.445  15.611 -0.2054  0.2505 -0.4309
 6229SOL     OW30148   0.714   2.025   8.977 -0.1810 -0.4400 -0.4577
 6229SOL    HW130149   0.725   1.996   8.887 -0.2028 -1.9147  0.0182
 6229SOL    HW230150   0.630   1.992   9.008 -0.1255 -0.5336 -0.4055
 6230SOL     OW30151   3.616   1.086   7.749 -0.2874 -0.1163  0.3609
 6230SOL    HW130152   3.644   1.131   7.829  0.5151  2.5153 -1.4099
 6230SOL    HW230153   3.601   1.163   7.695 -0.0868  0.3034  0.9039
 6231SOL     OW30154   1.646   0.287   8.608 -0.1588  0.3422  0.1629
 6231SOL    HW130155   1.586   0.358   8.586 -1.3841 -1.1602 -1.3431
 6231SOL    HW230156   1.677   0.323   8.691 -0.3879  1.3440 -0.1887
 6232SOL     OW30157   3.955   4.581   8.659 -0.1312 -0.3288 -0.2608
 6232SOL    HW130158   3.927   4.508   8.714 -1.4100 -1.1278 -1.9744
 6232SOL    HW230159   3.978   4.646   8.726  0.3693  1.2887 -1.9887
 6233SOL     OW30160   3.913   2.948   7.065  0.2417 -0.4627 -0.1679
 6233SOL    HW130161   3.960   2.998   7.131  1.7411  0.8812 -2.2388
 6233SOL    HW230162   3.983   2.921   7.005 -0.9133 -2.6440 -0.5336
 6234SOL     OW30163   2.095   3.030   0.118 -0.0902 -0.0514  0.0468
 6234SOL    HW130164   2.105   3.011   0.025 -2.4214 -0.7299 -0.0601
 6234SOL    HW230165   2.003   3.004   0.126  0.0798 -1.2192 -1.7085
 6235SOL     OW30166   1.715   4.531   2.428  0.0100 -0.4135 -0.0244
 6235SOL    HW130167   1.732   4.613   2.474  0.4681 -0.6984  0.3116
 6235SOL    HW230168   1.628   4.506   2.458  1.1232  0.4310  4.0006
 6236SOL     OW30169   3.724   0.935   0.231  0.1612  0.4774 -0.4071
 6236SOL    HW130170   3.694   1.005   0.173 -0.1290  0.1203 -0.6901
 6236SOL    HW230171   3.658   0.868   0.212  1.4164 -0.7213 -0.5801
 6237SOL     OW30172   3.769   2.956   0.045 -0.4081 -0.2756  0.3145
 6237SOL    HW130173   3.784   2.902   0.122 -1.5212 -2.0817 -0.7244
 6237SOL    HW230174   3.858   2.984   0.027 -0.2062  0.1544  2.0379
 6238SOL     OW30175   2.843   3.215  17.203 -0.0919  0.3387 -0.3398
 6238SOL    HW130176   2.836   3.132  17.250  2.4323  1.9082  2.7791
 6238SOL    HW230177   2.913   3.199  17.139  0.1731 -1.7224  0.4617
 6239SOL     OW30178   2.242   4.581  10.412 -0.7584 -0.1260  0.2787
 6239SOL    HW130179   2.316   4.636  10.436 -3.5959  2.5608  2.8176
 6239SOL    HW230180   2.242   4.522  10.488  0.7802 -0.5826 -0.0762
 6240SOL     OW30181   3.356   0.741   5.946 -0.2654  0.0795 -0.0575
 6240SOL    HW130182   3.360   0.827   5.987  0.7862 -0.3186  0.6693
 6240SOL    HW230183   3.270   0.748   5.904 -0.2674  1.4836  0.1712
 6241SOL     OW30184   0.145   4.106   2.519  0.1662 -0.3780  0.1982
 6241SOL    HW130185   0.237   4.131   2.519  0.2755 -0.7844  0.7339
 6241SOL    HW230186   0.144   4.017   2.483  0.4378 -0.1186 -0.4510
 6242SOL     OW30187   3.196   4.224   6.449  0.1921 -1.2674 -0.9505
 6242SOL    HW130188   3.200   4.318   6.434  1.2885 -1.0847  0.4580
 6242SOL    HW230189   3.103   4.205   6.463 -0.2311  1.3259 -0.2901
 6243SOL     OW30190   4.205   0.413  15.466  0.0477 -0.0342 -0.8418
 6243SOL    HW130191   4.230   0.455  15.384 -0.7962 -2.1261 -2.1787
 6243SOL    HW230192   4.291   0.381  15.492 -0.2299 -1.4696 -1.7096
 6244SOL     OW30193   2.082   3.563  11.062 -0.0301 -0.3691  0.0841
 6244SOL    HW130194   1.989   3.574  11.083  0.3079  1.1061  0.8066
 6244SOL    HW230195   2.081   3.516  10.979  1.8173 -1.1859  0.5335
 6245SOL     OW30196   2.885   2.594  11.164  0.5301 -0.3560  0.1768
 6245SOL    HW130197   2.827   2.636  11.228 -0.7979 -1.8444 -0.0557
 6245SOL    HW230198   2.833   2.604  11.085  1.8779  0.5034 -0.6031
 6246SOL     OW30199   3.100   3.300   7.114 -1.1692 -0.7632 -0.4705
 6246SOL    HW130200   3.028   3.298   7.177 -2.8411  0.6691 -2.3355
 6246SOL    HW230201   3.049   3.285   7.034 -0.7899 -0.6385 -0.7329
 6247SOL     OW30202   0.519   3.453  14.775  0.1255  0.3053 -0.6470
 6247SOL    HW130203   0.563   3.529  14.814 -0.4665  0.9282 -1.1846
 6247SOL    HW230204   0.559   3.457  14.688  0.4210  0.4192 -0.5045
 6248SOL     OW30205   0.923   3.963  11.787 -0.2325 -0.2325 -0.6666
 6248SOL    HW130206   0.908   3.988  11.696  0.9689 -0.1345 -0.8265
 6248SOL    HW230207   0.921   4.051  11.826  0.0280  0.8442 -3.1218
 6249SOL     OW30208   3.341   2.343   7.722  0.3539  0.2027 -0.0750
 6249SOL    HW130209   3.372   2.291   7.648 -0.3583  1.2367 -1.1007
 6249SOL    HW230210   3.305   2.275   7.779  0.3133  0.4379  0.1807
 6250SOL     OW30211   4.668   1.919   6.914 -0.3116  0.6444 -0.2175
 6250SOL    HW130212   4.616   1.844   6.943 -0.8878  1.4112  0.7125
 6250SOL    HW230213   0.013   1.930   6.983 -0.1621 -2.6169  0.1544
 6251SOL     OW30214   1.120   2.148   4.376 -0.1376 -0.1301 -0.2255
 6251SOL    HW130215   1.135   2.057   4.401 -0.7319  0.1212  1.0461
 6251SOL    HW230216   1.088   2.188   4.457  0.1492  2.1339 -1.2265
 6252SOL     OW30217   3.319   3.706   3.004 -0.2632  0.7932  0.0819
 6252SOL    HW130218   3.317   3.787   3.055 -1.7959  0.6222  0.2810
 6252SOL    HW230219   3.349   3.745   2.922 -0.0614  1.2997  0.3949
 6253SOL     OW30220   4.333   3.129   4.266  0.4229  0.3070 -0.2155
 6253SOL    HW130221   4.317   3.221   4.241 -1.6368 -0.0271 -0.1526
 6253SOL    HW230222   4.344   3.088   4.180 -1.9019  0.0306 -0.3834
 6254SOL     OW30223   0.053   3.720   7.469 -0.3643 -0.3791  0.9072
 6254SOL    HW130224   4.690   3.697   7.430  0.1929 -1.0940  0.1221
 6254SOL    HW230225   0.036   3.797   7.523 -0.0585  0.1302  0.2715
 6255SOL     OW30226   2.930   1.012   9.917 -0.2189 -0.2973 -0.2301
 6255SOL    HW130227   3.007   0.986   9.968 -1.3318 -0.1611  1.4890
 6255SOL    HW230228   2.909   0.929   9.873  1.7811 -0.7191 -0.3901
 6256SOL     OW30229   3.631   2.063   9.562  0.1091 -0.3775  0.1747
 6256SOL    HW130230   3.598   2.090   9.648  1.9570 -0.2247  0.8372
 6256SOL    HW230231   3.664   1.976   9.583  2.9999  0.3918 -1.1885
 6257SOL     OW30232   4.663   2.295   4.396 -0.2649 -0.0466  0.1495
 6257SOL    HW130233   0.037   2.305   4.399 -0.2981  0.5436 -0.7725
 6257SOL    HW230234   4.660   2.211   4.442 -0.2209  0.5700  1.2756
 6258SOL     OW30235   2.347   1.570   6.635  0.1874 -0.1394 -0.2921
 6258SOL    HW130236   2.374   1.659   6.612 -1.9709  0.4851 -0.4497
 6258SOL    HW230237   2.409   1.544   6.702 -3.3622 -0.9800  2.6923
 6259SOL     OW30238   0.361   3.393   8.946 -0.4457 -0.3305  0.0989
 6259SOL    HW130239   0.347   3.487   8.960  0.1654 -0.1587 -0.4490
 6259SOL    HW230240   0.273   3.355   8.954 -0.2126 -0.6762  0.9982
 6260SOL     OW30241   4.138   3.071   4.455  0.3040 -0.1108  0.4432
 6260SOL    HW130242   4.229   3.101   4.453  0.5446 -0.8587 -0.1922
 6260SOL    HW230243   4.139   3.012   4.531  0.6497  0.0675  0.5754
 6261SOL     OW30244   1.090   1.012   8.003  0.2401  0.0070 -0.2912
 6261SOL    HW130245   1.126   0.960   7.931 -3.0142 -2.6054 -0.0361
 6261SOL    HW230246   1.017   0.962   8.040 -0.3115  0.9945 -0.0369
 6262SOL     OW30247   4.651   4.017   7.877  0.1465  0.1740 -0.4107
 6262SOL    HW130248   4.714   4.031   7.948  0.6336 -0.4611 -0.7099
 6262SOL    HW230249   4.588   4.083   7.905 -0.4095 -0.3189 -0.5085
 6263SOL     OW30250   3.253   3.449   8.903  0.4030  0.7250  0.1982
 6263SOL    HW130251   3.218   3.413   8.985 -2.8807 -0.1492 -1.5658
 6263SOL    HW230252   3.346   3.431   8.915  0.3935  0.0062 -0.7422
 6264SOL     OW30253   3.657   1.777  15.128 -0.5205  0.6549 -0.0498
 6264SOL    HW130254   3.679   1.852  15.073 -1.3274  1.0296  0.1422
 6264SOL    HW230255   3.670   1.705  15.066 -0.2808  1.4026 -0.8728
 6265SOL     OW30256   1.491   1.634   2.232  0.3615  0.2047 -0.3421
 6265SOL    HW130257   1.564   1.681   2.190 -0.5453  0.2800 -1.8166
 6265SOL    HW230258   1.439   1.603   2.158 -1.7008 -0.2423  1.3163
 6266SOL     OW30259   2.590   4.405   2.349 -0.9200 -0.5623 -0.1793
 6266SOL    HW130260   2.526   4.433   2.283 -2.5381  0.2245  1.7141
 6266SOL    HW230261   2.568   4.460   2.424 -4.0186 -0.6704 -0.9791
 6267SOL     OW30262   1.435   0.402   5.906 -0.0786 -0.2358  0.0559
 6267SOL    HW130263   1.348   0.365   5.892  0.2089 -0.1629 -1.9626
 6267SOL    HW230264   1.471   0.339   5.968  0.6572 -1.1721 -1.3302
 6268SOL     OW30265   4.438   0.248   3.001  0.1474  0.2173 -0.4124
 6268SOL    HW130266   4.486   0.299   2.936 -0.8277  1.2531 -0.3074
 6268SOL    HW230267   4.460   0.159   2.971  0.8214  0.5102 -0.7798
 6269SOL     OW30268   1.129   4.485   4.146 -0.1020 -0.1445 -0.3432
 6269SOL    HW130269   1.184   4.563   4.157 -0.5381  0.6408 -3.5101
 6269SOL    HW230270   1.048   4.526   4.115  0.1108  0.8367  0.4094
 6270SOL     OW30271   2.400   2.250   4.266 -0.3269  0.7117  0.3565
 6270SOL    HW130272   2.357   2.335   4.257 -1.7241 -0.4354 -3.4445
 6270SOL    HW230273   2.384   2.229   4.358  2.1974 -2.4814  0.0347
 6271SOL     OW30274   3.320   1.266  12.844 -0.3839  0.2250 -0.1839
 6271SOL    HW130275   3.373   1.241  12.919 -1.1184 -1.8023 -0.3347
 6271SOL    HW230276   3.270   1.337  12.886 -1.3576 -1.1832  1.0315
 6272SOL     OW30277   4.217   3.716   2.150  0.2947  0.0492  0.3096
 6272SOL    HW130278   4.181   3.647   2.207 -1.8672 -0.3167 -1.4906
 6272SOL    HW230279   4.147   3.722   2.085 -1.2005  0.6453  1.9583
 6273SOL     OW30280   4.228   2.526  14.106 -0.4266 -0.6528 -0.0618
 6273SOL    HW130281   4.171   2.517  14.182 -1.3256  0.5042 -0.6125
 6273SOL    HW230282   4.238   2.619  14.125 -0.3664 -0.6593 -0.0612
 6274SOL     OW30283   3.691   1.491   1.930 -0.4666  0.3960 -0.1552
 6274SOL    HW130284   3.710   1.582   1.954  1.8683 -0.4969  1.3114
 6274SOL    HW230285   3.773   1.457   1.894 -0.5469 -0.6648  0.6700
 6275SOL     OW30286   4.622   4.162   2.326 -0.2224  0.3017 -0.0496
 6275SOL    HW130287   4.713   4.168   2.297 -0.9063  1.8649 -1.9233
 6275SOL    HW230288   4.628   4.228   2.395 -0.9072 -0.4834  0.7596
 6276SOL     OW30289   4.563   4.270   1.909 -0.9159 -0.2368  0.3578
 6276SOL    HW130290   4.556   4.341   1.845 -0.5018  0.9728  1.6429
 6276SOL    HW230291   4.659   4.259   1.908 -0.5330  2.9781  0.5255
 6277SOL     OW30292   0.818   4.385   8.285 -0.7641 -0.1084 -0.3822
 6277SOL    HW130293   0.750   4.430   8.336 -2.7421  0.1236 -3.2482
 6277SOL    HW230294   0.767   4.345   8.215 -0.4731 -1.3293  0.1050
 6278SOL     OW30295   2.365   0.291   7.949 -0.1681 -0.1944 -0.5095
 6278SOL    HW130296   2.342   0.330   7.864 -0.4510  2.6676  0.8775
 6278SOL    HW230297   2.457   0.314   7.961 -0.2392 -0.2712  0.1519
 6279SOL     OW30298   2.141   3.879   8.312  0.0965 -0.4479 -0.4695
 6279SOL    HW130299   2.077   3.944   8.341  1.3975  0.0089  1.2984
 6279SOL    HW230300   2.154   3.835   8.395 -1.5211  1.8980  1.0285
 6280SOL     OW30301   1.291   1.214  17.374  1.0094 -0.0435 -0.4136
 6280SOL    HW130302   1.326   1.156  17.307 -2.6986 -1.1961 -1.3525
 6280SOL    HW230303   1.202   1.180  17.364 -0.3998  3.0706  1.5025
 6281SOL     OW30304   4.487   1.786   9.168  0.2411  0.7280 -0.0696
 6281SOL    HW130305   4.428   1.711   9.168 -0.7563  1.5139  1.3190
 6281SOL    HW230306   4.528   1.790   9.255  0.7445 -2.5476 -0.1700
 6282SOL     OW30307   2.475   4.148  10.188 -0.0252  0.2447 -0.0377
 6282SOL    HW130308   2.534   4.188  10.251  1.6276 -1.7921 -0.2727
 6282SOL    HW230309   2.400   4.206  10.195 -0.6047 -0.2303 -2.1686
 6283SOL     OW30310   4.617   4.257   3.296  0.2049 -0.2445  0.3480
 6283SOL    HW130311   4.582   4.307   3.221  0.0295 -0.4967  0.2603
 6283SOL    HW230312   4.535   4.249   3.345 -0.0035 -1.2580 -0.1576
 6284SOL     OW30313   1.113   2.968   0.568 -0.4298  0.8767 -0.2076
 6284SOL    HW130314   1.201   2.970   0.530 -1.4715 -1.1300 -2.7417
 6284SOL    HW230315   1.142   2.924   0.648  1.3765  0.9924 -0.7862
 6285SOL     OW30316   0.799   0.987  10.913 -0.1408 -0.0414 -0.1408
 6285SOL    HW130317   0.814   1.039  10.834 -0.8167  0.2419 -0.0875
 6285SOL    HW230318   0.706   0.968  10.901  0.2021 -1.7141 -0.1535
 6286SOL     OW30319   0.185   0.099   0.536  0.1730 -0.5272 -0.2012
 6286SOL    HW130320   0.182   0.009   0.568 -0.4812 -0.8110 -1.0468
 6286SOL    HW230321   0.279   0.108   0.524  0.3017 -0.1131  1.0638
 6287SOL     OW30322   4.618   0.752  10.834 -0.2097 -0.5530 -0.2832
 6287SOL    HW130323   4.593   0.666  10.868  1.6286 -0.9367  0.1078
 6287SOL    HW230324   4.630   0.737  10.741  0.2883  1.9328 -0.6077
 6288SOL     OW30325   4.405   0.389   3.747  0.5494  0.0341 -0.6326
 6288SOL    HW130326   4.453   0.423   3.671  1.3268  1.8332  0.6737
 6288SOL    HW230327   4.317   0.382   3.711 -0.1969 -0.9558  1.4414
 6289SOL     OW30328   1.788   0.510  11.516  0.0652 -0.0760  0.2613
 6289SOL    HW130329   1.754   0.421  11.506  2.9466 -1.0720 -0.8032
 6289SOL    HW230330   1.727   0.539  11.583 -1.7412 -3.6070  0.1256
 6290SOL     OW30331   1.569   4.323   5.698  0.3890  0.1632  0.3305
 6290SOL    HW130332   1.639   4.371   5.654 -0.2077  0.4295 -0.3195
 6290SOL    HW230333   1.545   4.268   5.623  1.5442  0.1636 -0.0477
 6291SOL     OW30334   0.656   2.710  16.420 -0.1477 -0.3963 -0.4418
 6291SOL    HW130335   0.701   2.787  16.454 -2.0342  0.3339  0.3976
 6291SOL    HW230336   0.612   2.682  16.500 -1.7704 -1.3376 -1.6533
 6292SOL     OW30337   3.653   1.073   6.551  0.3960  0.0870  0.0681
 6292SOL    HW130338   3.728   1.056   6.608  0.2476  0.0686  0.2616
 6292SOL    HW230339   3.703   1.115   6.482  0.7978  0.6694  0.7125
 6293SOL     OW30340   1.902   3.062  17.385  0.0322 -0.3999  0.3194
 6293SOL    HW130341   1.817   3.025  17.360 -0.1125  1.5158 -2.0120
 6293SOL    HW230342   1.881   3.154  17.367 -1.2185 -0.9034 -0.8100
 6294SOL     OW30343   2.623   2.217   0.141 -0.2375 -0.2514  0.3980
 6294SOL    HW130344   2.544   2.244   0.094  0.5253  0.6268 -0.3835
 6294SOL    HW230345   2.592   2.145   0.196 -0.0182  2.3423  3.9665
 6295SOL     OW30346   0.604   2.000   4.090 -0.5909 -0.8257  0.1012
 6295SOL    HW130347   0.692   2.032   4.070 -0.5439 -0.3826  1.0139
 6295SOL    HW230348   0.598   1.922   4.035  0.3855 -0.7377 -0.1371
 6296SOL     OW30349   3.202   1.278  16.763  0.0650  0.4057 -0.1597
 6296SOL    HW130350   3.172   1.336  16.833 -1.4360  0.6042 -0.9670
 6296SOL    HW230351   3.182   1.324  16.681 -0.0549 -1.8130 -1.3615
 6297SOL     OW30352   2.210   0.135   8.512 -0.3641 -0.1017  0.2689
 6297SOL    HW130353   2.244   0.224   8.497 -1.2909  0.1439 -0.3921
 6297SOL    HW230354   2.127   0.140   8.465 -0.0889  1.2927 -0.0686
 6298SOL     OW30355   4.458   3.087   4.961 -0.1232  0.1004  0.2268
 6298SOL    HW130356   4.381   3.078   5.016  0.7522 -0.8319  1.3083
 6298SOL    HW230357   4.497   3.170   4.988  0.9405 -0.0119 -0.9153
 6299SOL     OW30358   1.807   2.824   3.843 -0.3997 -0.0208  0.0511
 6299SOL    HW130359   1.772   2.911   3.826 -1.5399 -0.2124  1.3704
 6299SOL    HW230360   1.845   2.806   3.757 -0.5476 -3.1733  0.6565
 6300SOL     OW30361   0.218   2.591  10.769  0.5312  0.1058  0.0055
 6300SOL    HW130362   0.169   2.516  10.805  1.8139 -1.0079 -0.5670
 6300SOL    HW230363   0.251   2.635  10.847  1.1807  0.7445 -0.6409
 6301SOL     OW30364   1.877   1.934  17.479 -0.0573 -1.1029 -0.0896
 6301SOL    HW130365   1.930   1.857  17.461  0.8194 -0.2214 -1.2817
 6301SOL    HW230366   1.928   1.994  17.534  0.3429  1.4584 -3.2194
 6302SOL     OW30367   4.379   1.485  16.198  0.2265 -0.2277 -0.1216
 6302SOL    HW130368   4.463   1.515  16.164  1.1274 -0.0803  2.2231
 6302SOL    HW230369   4.399   1.436  16.278 -0.5324 -0.1262  0.1288
 6303SOL     OW30370   3.687   1.075   2.141 -1.0431 -0.2966  0.5512
 6303SOL    HW130371   3.635   1.133   2.196  2.3074  3.3353 -0.1098
 6303SOL    HW230372   3.741   1.137   2.093 -1.8597  1.7934  2.3291
 6304SOL     OW30373   1.411   3.690   2.254  0.1066  0.1575 -0.5900
 6304SOL    HW130374   1.472   3.662   2.185 -0.2922  0.9056 -1.2448
 6304SOL    HW230375   1.454   3.761   2.301 -0.1509  0.4648 -0.8115
 6305SOL     OW30376   2.566   4.330   8.531  0.3167 -0.0157  0.2351
 6305SOL    HW130377   2.656   4.302   8.547 -0.5764 -2.4894  0.8646
 6305SOL    HW230378   2.579   4.423   8.554  1.0964 -0.0318 -0.1419
 6306SOL     OW30379   1.389   2.134   3.196 -0.1280 -0.1580  0.4162
 6306SOL    HW130380   1.452   2.130   3.267  1.3865 -1.5437 -0.9963
 6306SOL    HW230381   1.382   2.041   3.172 -2.1769 -0.3888  1.9103
 6307SOL     OW30382   2.211   2.663   9.903 -0.0352  0.5618 -0.1992
 6307SOL    HW130383   2.165   2.732   9.952 -1.7630 -0.7585  0.0281
 6307SOL    HW230384   2.204   2.603   9.977  1.1832  1.3147  0.5286
 6308SOL     OW30385   1.183   2.540   0.427 -0.1085  1.3799 -0.2304
 6308SOL    HW130386   1.122   2.612   0.412 -0.1505  1.4304  0.1912
 6308SOL    HW230387   1.124   2.469   0.402  0.1019  1.6192 -1.4561
 6309SOL     OW30388   2.202   3.466   2.767 -0.2168 -0.1349 -0.0531
 6309SOL    HW130389   2.285   3.512   2.755 -1.0498  1.3959 -0.0491
 6309SOL    HW230390   2.133   3.529   2.745 -0.8906 -0.9150 -0.1512
 6310SOL     OW30391   0.019   2.994  16.120 -0.2462  0.3453  0.4240
 6310SOL    HW130392   0.055   2.909  16.094 -1.4422  0.4345 -1.5146
 6310SOL    HW230393   4.648   2.974  16.137  0.3010 -2.2802  0.2270
 6311SOL     OW30394   1.705   3.334   7.782  0.3968  0.4027  0.7489
 6311SOL    HW130395   1.793   3.364   7.756 -0.1063 -2.2637 -3.9177
 6311SOL    HW230396   1.729   3.260   7.838 -1.6952 -0.2824  0.7406
 6312SOL     OW30397   2.323   4.379  10.243  0.7010  0.7551  0.0824
 6312SOL    HW130398   2.303   4.452  10.302 -1.8127 -0.2918  0.5457
 6312SOL    HW230399   2.270   4.404  10.166 -0.6233 -4.4897 -0.6938
 6313SOL     OW30400   0.281   1.557  13.221  0.6424  0.2166  0.4053
 6313SOL    HW130401   0.270   1.650  13.241 -0.6879  0.1716 -0.0993
 6313SOL    HW230402   0.304   1.526  13.308 -0.6208  0.6038  0.8837
 6314SOL     OW30403   4.122   1.626   9.792 -0.1585  0.4225  0.4242
 6314SOL    HW130404   4.053   1.607   9.728  0.7153 -0.6911 -0.2026
 6314SOL    HW230405   4.156   1.538   9.809  0.9833  0.5359 -1.2257
 6315SOL     OW30406   4.711   3.370   8.802 -0.6638  0.0652 -0.3401
 6315SOL    HW130407   0.030   3.324   8.728  0.1537  1.3508 -0.7028
 6315SOL    HW230408   4.714   3.295   8.861 -1.1993  0.9939  0.8537
 6316SOL     OW30409   2.539   1.846  10.674 -0.6152 -0.0275 -0.3750
 6316SOL    HW130410   2.591   1.771  10.703  0.7424  1.4828  1.1552
 6316SOL    HW230411   2.579   1.913  10.731  0.6175  0.3229 -1.6535
 6317SOL     OW30412   1.218   0.959   4.399 -0.1003  0.5929 -0.7437
 6317SOL    HW130413   1.236   1.052   4.384  2.1843 -0.2659 -3.2410
 6317SOL    HW230414   1.140   0.947   4.346 -0.1953 -2.7120  0.1342
 6318SOL     OW30415   2.740   2.744  17.065  0.2843 -0.3607 -0.3269
 6318SOL    HW130416   2.707   2.655  17.053 -0.9715 -0.2067  1.8490
 6318SOL    HW230417   2.813   2.737  17.003  0.7573 -1.3217  0.3314
 6319SOL     OW30418   0.168   0.992   7.206  0.2626  0.3893 -0.3027
 6319SOL    HW130419   0.139   1.001   7.115 -3.0641 -3.1775  0.3631
 6319SOL    HW230420   0.233   1.062   7.207 -0.0562  0.7135 -1.5344
 6320SOL     OW30421   0.584   3.338  15.372  0.1975  0.4671 -0.0421
 6320SOL    HW130422   0.538   3.412  15.332  0.4951 -0.9169 -2.9194
 6320SOL    HW230423   0.634   3.304  15.298  0.8123 -1.8928  1.4937
 6321SOL     OW30424   2.321   3.392   3.771 -0.5613 -0.2544 -1.0028
 6321SOL    HW130425   2.252   3.451   3.739  0.8878  2.0977  0.1639
 6321SOL    HW230426   2.404   3.420   3.733 -0.6696  0.7826 -0.4815
 6322SOL     OW30427   4.341   3.871   7.045 -0.1414  0.0608  0.0539
 6322SOL    HW130428   4.278   3.886   7.116 -0.7566 -2.7703  0.0894
 6322SOL    HW230429   4.355   3.777   7.037  0.8492  0.2226 -0.1002
 6323SOL     OW30430   0.939   3.007   2.779  0.0706 -0.2036 -0.5780
 6323SOL    HW130431   1.033   3.018   2.782 -0.2259  1.6115  1.9430
 6323SOL    HW230432   0.921   3.040   2.691  0.0762 -0.2793 -0.6077
 6324SOL     OW30433   1.321   0.861  11.206 -0.2455  0.4202 -0.0686
 6324SOL    HW130434   1.373   0.783  11.223  0.3258  1.0065  0.8765
 6324SOL    HW230435   1.312   0.859  11.111  1.5841  2.1953 -0.2913
 6325SOL     OW30436   4.698   2.058   3.901 -0.2061  0.2613  0.2108
 6325SOL    HW130437   4.619   2.055   3.955 -1.2242  0.9616 -1.2269
 6325SOL    HW230438   4.683   1.972   3.863  1.7178  1.1664 -2.5695
 6326SOL     OW30439   2.820   0.929   2.729  0.0531 -0.8028  0.1220
 6326SOL    HW130440   2.824   1.021   2.757 -2.6196 -0.9329  0.9415
 6326SOL    HW230441   2.769   0.945   2.649  4.2235 -0.8920 -2.5171
 6327SOL     OW30442   1.166   3.120  11.783  0.2850 -0.3832  0.0123
 6327SOL    HW130443   1.094   3.058  11.790 -0.5401  0.8302  2.3217
 6327SOL    HW230444   1.206   3.100  11.868 -1.4712  2.7456  1.5912
 6328SOL     OW30445   2.786   4.631  15.216 -0.1024 -0.4082 -0.0019
 6328SOL    HW130446   2.698   4.667  15.221  0.5492  1.0503  0.8276
 6328SOL    HW230447   2.820   4.713  15.251  0.1821 -0.0828 -1.0524
 6329SOL     OW30448   1.159   0.054   4.669  0.1714 -0.2793  0.0596
 6329SOL    HW130449   1.253   0.073   4.678  0.3701 -0.5530 -1.4199
 6329SOL    HW230450   1.154   4.679   4.661 -1.6903 -0.1438 -0.3389
 6330SOL     OW30451   1.230   4.186   7.267 -1.0816  1.1939 -0.4625
 6330SOL    HW130452   1.276   4.155   7.188  0.8930  0.1178  1.1147
 6330SOL    HW230453   1.225   4.111   7.326  1.0355  2.1514  0.9319
 6331SOL     OW30454   2.723   2.079   2.245 -0.0548 -0.3382  0.0414
 6331SOL    HW130455   2.788   2.114   2.185 -0.6032 -0.8281 -0.8398
 6331SOL    HW230456   2.776   2.008   2.282  1.2415  0.8825  0.5241
 6332SOL     OW30457   0.970   1.870   3.654 -0.0780 -0.1449  0.2146
 6332SOL    HW130458   0.878   1.852   3.673 -0.8866  3.0116 -0.6142
 6332SOL    HW230459   0.998   1.816   3.580 -0.6098  1.5849 -1.2496
 6333SOL     OW30460   2.795   4.030   9.554 -0.4473  0.1937  0.4278
 6333SOL    HW130461   2.807   3.988   9.639 -0.4260  0.0738  0.3660
 6333SOL    HW230462   2.732   3.978   9.504 -1.0269  1.2474  0.0431
 6334SOL     OW30463   2.628   1.884   6.399 -0.4586  0.2569 -0.3212
 6334SOL    HW130464   2.651   1.970   6.363 -0.1404  0.1665 -0.3356
 6334SOL    HW230465   2.713   1.842   6.386 -0.8232 -0.6222  0.1287
 6335SOL     OW30466   2.853   2.808   9.565 -0.0799 -0.6849  0.0694
 6335SOL    HW130467   2.787   2.819   9.634 -1.4016 -1.4024 -1.0862
 6335SOL    HW230468   2.919   2.843   9.625  1.1323 -4.9139  1.1781
 6336SOL     OW30469   1.143   4.687   8.434  0.3999  0.0825 -0.3173
 6336SOL    HW130470   1.202   4.628   8.480 -0.1965  0.6938  1.2242
 6336SOL    HW230471   1.213   0.029   8.414 -1.3552  1.6200 -1.5928
 6337SOL     OW30472   2.844   3.456   1.169  0.3890  0.2908 -0.1798
 6337SOL    HW130473   2.899   3.518   1.122  1.0974 -0.2035 -0.0029
 6337SOL    HW230474   2.758   3.479   1.134 -0.7755 -0.1782  2.3700
 6338SOL     OW30475   3.270   3.193   8.999  0.2272  0.4582 -0.1175
 6338SOL    HW130476   3.350   3.196   8.947  1.1426 -0.0311  1.2608
 6338SOL    HW230477   3.306   3.166   9.084  0.9078  1.9001  0.0602
 6339SOL     OW30478   4.282   1.752   4.124 -0.5735 -0.8520 -0.5010
 6339SOL    HW130479   4.251   1.663   4.108 -1.4534 -0.6163 -0.0944
 6339SOL    HW230480   4.376   1.739   4.135 -0.4513  0.4915  0.0952
 6340SOL     OW30481   4.682   4.107   9.901 -0.1236 -0.1720 -0.6735
 6340SOL    HW130482   0.036   4.054   9.927  0.6337  0.1698 -2.1447
 6340SOL    HW230483   4.620   4.041   9.871  0.1158 -0.4967 -0.4418
 6341SOL     OW30484   2.997   2.109   0.180  0.0347 -1.0206  0.0308
 6341SOL    HW130485   2.938   2.072   0.246 -0.5374  1.7880  1.0588
 6341SOL    HW230486   3.056   2.036   0.162  1.4985  0.3589 -0.7359
 6342SOL     OW30487   1.193   4.713   7.016  0.2822  0.4189 -0.1427
 6342SOL    HW130488   1.275   4.665   7.004 -0.8141 -1.3892 -0.5109
 6342SOL    HW230489   1.132   4.665   6.959 -1.0812  0.9915  0.8357
 6343SOL     OW30490   2.874   4.200   7.896 -0.1475  0.1502  0.1312
 6343SOL    HW130491   2.840   4.283   7.932  2.9888  0.9294  1.2502
 6343SOL    HW230492   2.927   4.173   7.971  0.2786  0.0904 -0.1947
 6344SOL     OW30493   3.020   0.121   3.579 -0.0277 -0.2968  0.3821
 6344SOL    HW130494   3.040   0.160   3.664  0.6228 -0.6466  0.3902
 6344SOL    HW230495   2.951   0.058   3.598  0.4361 -0.9368 -0.0341
 6345SOL     OW30496   1.846   4.069   3.170  0.0808 -0.3182 -0.7228
 6345SOL    HW130497   1.874   4.138   3.230  1.6781 -0.6890 -1.0563
 6345SOL    HW230498   1.760   4.051   3.207  1.9796 -1.5228  3.0177
 6346SOL     OW30499   0.336   2.459  11.104  0.7235 -0.0411  0.1325
 6346SOL    HW130500   0.343   2.466  11.200  0.5711 -0.3840  0.1672
 6346SOL    HW230501   0.422   2.422  11.082  1.0230 -0.0434  1.2800
 6347SOL     OW30502   3.985   2.883  10.767  0.0699 -0.3378  0.6006
 6347SOL    HW130503   3.955   2.809  10.820 -0.9382  0.0109  0.5159
 6347SOL    HW230504   4.064   2.845  10.729  0.8711  1.3776  0.5713
 6348SOL     OW30505   3.696   2.862   6.908 -0.2968  0.7367  0.1352
 6348SOL    HW130506   3.773   2.874   6.964 -0.1774  1.5392 -0.2015
 6348SOL    HW230507   3.696   2.949   6.867  2.2592  0.2995 -0.7820
 6349SOL     OW30508   4.133   4.515   3.286  0.0806 -0.1106  0.3022
 6349SOL    HW130509   4.112   4.461   3.210  2.3174 -0.9847  0.2947
 6349SOL    HW230510   4.047   4.553   3.305  1.0543  3.1493 -1.9878
 6350SOL     OW30511   3.612   4.360  10.587 -0.1347 -0.1423 -0.3447
 6350SOL    HW130512   3.538   4.358  10.648 -0.7588 -0.8510 -1.1257
 6350SOL    HW230513   3.573   4.332  10.504 -1.0923 -0.7576  0.3095
 6351SOL     OW30514   3.477   3.870   2.015 -0.0831 -0.3828 -0.0350
 6351SOL    HW130515   3.479   3.785   1.971  2.3107 -0.5070  0.3529
 6351SOL    HW230516   3.538   3.918   1.959  0.0686  0.4154  0.8267
 6352SOL     OW30517   3.060   3.984   5.787  0.4036  0.1065 -0.8467
 6352SOL    HW130518   3.103   4.052   5.839 -0.3209  0.5326 -0.7914
 6352SOL    HW230519   2.968   4.011   5.793  0.4643 -0.0868  0.8838
 6353SOL     OW30520   0.580   1.387   9.030  0.6226  0.3602 -0.1895
 6353SOL    HW130521   0.602   1.454   9.094  0.2975  1.5537 -1.3129
 6353SOL    HW230522   0.577   1.434   8.947  1.7752 -1.2095 -1.1253
 6354SOL     OW30523   4.549   2.517   5.341  0.0500  0.0139 -0.3807
 6354SOL    HW130524   4.588   2.601   5.366  0.7938 -0.4710  0.0840
 6354SOL    HW230525   4.507   2.506   5.427  1.8872  0.5036  0.5795
 6355SOL     OW30526   1.862   1.043  16.370  0.1098  0.0491  0.2485
 6355SOL    HW130527   1.815   1.104  16.314 -2.5305 -0.2073  2.1843
 6355SOL    HW230528   1.818   1.051  16.455 -0.9013 -0.1298 -0.2494
 6356SOL     OW30529   3.145   4.310  10.522 -0.1228 -0.5642 -0.1223
 6356SOL    HW130530   3.155   4.359  10.603  0.1574 -0.6979 -0.0771
 6356SOL    HW230531   3.056   4.323  10.488 -0.2901 -1.9622 -0.2380
 6357SOL     OW30532   2.282   2.461   9.699 -0.3987 -0.3973 -0.7240
 6357SOL    HW130533   2.283   2.536   9.759  2.7588 -0.2082 -0.9914
 6357SOL    HW230534   2.320   2.402   9.764 -0.0845  1.7313  1.0341
 6358SOL     OW30535   3.040   1.102   3.454 -0.3990 -0.1076 -0.5290
 6358SOL    HW130536   3.018   1.190   3.424  0.4578 -0.0095 -0.8892
 6358SOL    HW230537   2.962   1.056   3.424 -1.2517  0.5684  0.6838
 6359SOL     OW30538   1.484   3.112   4.870 -0.2002  0.0960  0.4080
 6359SOL    HW130539   1.551   3.047   4.849 -1.2306 -0.5057 -1.0379
 6359SOL    HW230540   1.516   3.151   4.951  0.9663  1.3593 -0.6326
 6360SOL     OW30541   4.549   3.086   5.895  0.2518  0.3753  0.3216
 6360SOL    HW130542   4.463   3.092   5.935  0.2849 -3.0730  0.9147
 6360SOL    HW230543   4.599   3.048   5.967 -0.8949 -1.1428  0.3269
 6361SOL     OW30544   2.560   3.248   4.115  0.5136  0.1012  0.6703
 6361SOL    HW130545   2.592   3.159   4.098  0.5489 -0.3097  2.9031
 6361SOL    HW230546   2.512   3.234   4.197 -0.0523  2.0872  0.6869
 6362SOL     OW30547   1.118   0.076   5.327 -0.0035 -0.3319  1.0235
 6362SOL    HW130548   1.099   4.703   5.328  1.3223 -0.6433 -1.1900
 6362SOL    HW230549   1.037   0.123   5.344  0.0482  0.1705 -0.0950
 6363SOL     OW30550   1.428   3.318   8.877 -0.6281 -0.4944 -0.0705
 6363SOL    HW130551   1.497   3.373   8.839 -1.1846 -0.2005 -0.6590
 6363SOL    HW230552   1.481   3.240   8.895  1.3659  0.1844 -2.9978
 6364SOL     OW30553   1.683   1.008   7.851 -0.4681 -0.5905  0.4264
 6364SOL    HW130554   1.749   1.070   7.820  0.4496 -2.5437 -1.5090
 6364SOL    HW230555   1.723   0.966   7.928 -1.0010 -0.3466  0.8378
 6365SOL     OW30556   1.158   0.714   8.452 -0.2696  0.2126  0.6395
 6365SOL    HW130557   1.073   0.740   8.417  0.1395  0.2558 -0.3373
 6365SOL    HW230558   1.211   0.786   8.418 -0.9948 -0.0378 -1.0280
 6366SOL     OW30559   1.948   0.236   8.344 -0.1856 -0.4996  0.2564
 6366SOL    HW130560   1.913   0.147   8.351  1.2462 -1.2592 -2.2309
 6366SOL    HW230561   1.972   0.228   8.252  1.1703 -1.3369  0.6848
 6367SOL     OW30562   2.884   2.456   3.566 -0.5673  0.8483 -0.6159
 6367SOL    HW130563   2.934   2.381   3.535 -0.2088  0.6215  0.4995
 6367SOL    HW230564   2.939   2.486   3.639 -1.5501  3.4462 -0.9283
 6368SOL     OW30565   2.790   0.035   3.704  0.1212 -0.6750  0.3402
 6368SOL    HW130566   2.733   4.686   3.671 -1.0207 -0.6607  2.3286
 6368SOL    HW230567   2.800   0.001   3.793 -1.2297 -0.6759  0.4921
 6369SOL     OW30568   2.590   3.570  14.607  0.8227  0.4520 -0.8458
 6369SOL    HW130569   2.518   3.632  14.594  0.5070  0.4747  1.0138
 6369SOL    HW230570   2.543   3.488  14.603  0.4452  0.4831  2.7815
 6370SOL     OW30571   3.707   2.703  11.783  0.4776 -0.0783  0.5275
 6370SOL    HW130572   3.707   2.608  11.774  0.2313  0.0860 -1.1895
 6370SOL    HW230573   3.668   2.731  11.700 -0.8086  0.5920  1.3612
 6371SOL     OW30574   1.515   3.700   2.849 -0.0365  0.3848  0.3736
 6371SOL    HW130575   1.461   3.768   2.889 -0.0021 -1.0588  2.8761
 6371SOL    HW230576   1.455   3.661   2.785  0.2319  0.4155  0.1044
 6372SOL     OW30577   2.400   0.568  16.587 -0.4989  1.0036 -0.5707
 6372SOL    HW130578   2.312   0.605  16.582 -1.4935 -1.4147 -0.9849
 6372SOL    HW230579   2.383   0.512  16.664 -3.9154  1.8475 -0.6955
 6373SOL     OW30580   1.909   0.450   5.723  0.0847  0.0524 -0.0804
 6373SOL    HW130581   1.853   0.434   5.648 -3.8156  2.3710  2.3233
 6373SOL    HW230582   1.860   0.430   5.803  2.2625  0.2111  1.3173
 6374SOL     OW30583   1.822   4.209   6.984 -0.1906  0.1067 -0.5592
 6374SOL    HW130584   1.911   4.174   6.978 -0.9618 -2.0275  0.4299
 6374SOL    HW230585   1.784   4.135   6.937  2.2355 -1.2015 -0.4554
 6375SOL     OW30586   4.390   0.126   1.992 -0.4523  0.2503  0.4196
 6375SOL    HW130587   4.361   0.217   1.991  0.5286  0.5668  1.4481
 6375SOL    HW230588   4.326   0.092   1.929 -0.6350 -0.8907  1.2170
 6376SOL     OW30589   3.231   4.133   7.209 -0.6042 -0.1403  0.1388
 6376SOL    HW130590   3.300   4.187   7.247 -0.4224  0.3497 -0.8814
 6376SOL    HW230591   3.161   4.163   7.268  0.3156  1.0998  0.5857
 6377SOL     OW30592   1.029   1.283   7.784  0.4254 -0.2280  0.0177
 6377SOL    HW130593   1.093   1.226   7.740  2.5727  2.7551 -0.7508
 6377SOL    HW230594   1.065   1.368   7.760  0.3323 -1.1468 -3.4934
 6378SOL     OW30595   3.592   0.761  17.023 -0.1247  0.8375  0.4102
 6378SOL    HW130596   3.671   0.806  16.995  0.5436 -1.5633 -1.4556
 6378SOL    HW230597   3.623   0.671  17.010 -1.1654  0.3507  1.2833
 6379SOL     OW30598   2.845   1.566   4.222 -0.2709 -0.5267  0.2655
 6379SOL    HW130599   2.903   1.495   4.197 -0.6294 -0.7891  0.1742
 6379SOL    HW230600   2.912   1.626   4.254 -1.5280  0.7359  0.5635
 6380SOL     OW30601   3.039   3.795   7.243 -0.8202  0.2522  0.5568
 6380SOL    HW130602   2.982   3.775   7.168  0.3807 -0.6605 -0.1124
 6380SOL    HW230603   2.993   3.768   7.322 -2.4046 -0.1716 -0.5054
 6381SOL     OW30604   3.640   3.729   9.263  0.3430 -0.0834 -0.4505
 6381SOL    HW130605   3.601   3.814   9.283 -2.3976 -2.0675  2.5497
 6381SOL    HW230606   3.732   3.750   9.280 -0.7140  4.9419 -0.9699
 6382SOL     OW30607   1.294   1.064   6.869 -0.1527 -0.0388  0.3640
 6382SOL    HW130608   1.212   1.108   6.845 -0.1031  1.1625  2.4370
 6382SOL    HW230609   1.331   1.111   6.943 -0.7925  1.2375 -0.1241
 6383SOL     OW30610   1.462   3.492   6.533 -0.5425 -0.0135  0.4049
 6383SOL    HW130611   1.401   3.553   6.491 -1.1496 -0.7686  0.1742
 6383SOL    HW230612   1.521   3.466   6.462 -0.0077 -0.6193  1.0674
 6384SOL     OW30613   2.378   4.303   3.169  0.0250 -0.3731  0.0443
 6384SOL    HW130614   2.350   4.391   3.143 -1.6472 -0.9793 -0.1753
 6384SOL    HW230615   2.472   4.320   3.181 -0.4374  0.9077  1.7664
 6385SOL     OW30616   1.296   1.499   4.155 -0.2019 -0.4307  0.6144
 6385SOL    HW130617   1.368   1.446   4.122 -0.0745  0.2199 -0.1539
 6385SOL    HW230618   1.339   1.585   4.152  1.8314 -1.4390  1.6856
 6386SOL     OW30619   1.512   3.867  14.079 -0.6575  0.1826  0.0866
 6386SOL    HW130620   1.507   3.772  14.086 -0.0361  0.0751 -0.9632
 6386SOL    HW230621   1.605   3.879  14.062 -0.7552  0.4744 -0.2374
 6387SOL     OW30622   0.735   1.562   9.753  0.2064  0.3931  0.2159
 6387SOL    HW130623   0.778   1.597   9.675 -0.1331 -0.8143 -0.5279
 6387SOL    HW230624   0.794   1.604   9.814  1.2825 -0.7096 -0.0660
 6388SOL     OW30625   4.352   0.842   9.331 -0.0243 -0.4134  0.0435
 6388SOL    HW130626   4.357   0.935   9.312 -0.4495 -1.1028 -3.3856
 6388SOL    HW230627   4.370   0.810   9.243  0.4167 -0.4255  0.1396
 6389SOL     OW30628   2.195   4.590   7.372  0.3025 -0.2069 -0.0312
 6389SOL    HW130629   2.247   4.544   7.305  0.2881  0.9851 -0.8701
 6389SOL    HW230630   2.255   4.590   7.446 -0.4792  2.3803  0.5784
 6390SOL     OW30631   1.756   2.244  14.500 -0.8648  0.5235  0.1419
 6390SOL    HW130632   1.750   2.340  14.502 -0.3428  0.5731 -0.9009
 6390SOL    HW230633   1.686   2.225  14.562 -0.6985 -2.5645 -0.6242
 6391SOL     OW30634   1.641   3.616  13.824 -0.4238 -0.2678  0.2860
 6391SOL    HW130635   1.731   3.605  13.854 -0.2519 -0.5759 -0.3584
 6391SOL    HW230636   1.588   3.605  13.903 -0.4707 -1.4924  0.0793
 6392SOL     OW30637   1.498   3.933   3.860 -0.1060 -0.8137 -0.5319
 6392SOL    HW130638   1.495   3.881   3.940 -2.3464 -1.2241 -0.8928
 6392SOL    HW230639   1.538   4.015   3.890 -0.2970 -0.8949 -0.0611
 6393SOL     OW30640   3.740   3.177   0.663  0.0332  0.2869 -0.0749
 6393SOL    HW130641   3.733   3.120   0.587  0.4815 -0.4568  0.4448
 6393SOL    HW230642   3.820   3.141   0.701  0.4835  0.1011 -1.1817
 6394SOL     OW30643   3.920   2.809   4.209  0.2539 -0.0489  0.0251
 6394SOL    HW130644   3.987   2.744   4.232  1.8139  0.5942 -2.7107
 6394SOL    HW230645   3.846   2.749   4.199 -0.3634  1.1082 -2.3181
 6395SOL     OW30646   2.022   0.072   3.193 -0.3574 -0.3890  0.0131
 6395SOL    HW130647   2.086   0.109   3.132 -0.9743  2.7589  1.2714
 6395SOL    HW230648   1.939   0.075   3.145 -0.1458  1.1595 -0.2665
 6396SOL     OW30649   4.393   1.847  16.133 -0.2050  0.0693 -0.2878
 6396SOL    HW130650   4.364   1.899  16.058 -0.5167  1.7078  0.9756
 6396SOL    HW230651   4.461   1.907  16.161 -0.1194 -0.8918  1.5568
 6397SOL     OW30652   3.140   0.552   0.581 -0.9719  0.3297 -0.5539
 6397SOL    HW130653   3.073   0.616   0.606  0.5490  1.9728 -0.6557
 6397SOL    HW230654   3.162   0.515   0.667  1.5379  2.2563 -0.3665
 6398SOL     OW30655   3.699   3.751   2.140  0.1393  0.5491 -0.5311
 6398SOL    HW130656   3.639   3.798   2.082 -0.0771 -0.0924 -0.8229
 6398SOL    HW230657   3.659   3.664   2.142 -0.4967  0.8164 -1.6903
 6399SOL     OW30658   4.664   2.304   7.528  0.0522  0.2745 -0.4037
 6399SOL    HW130659   4.649   2.255   7.609  1.5694  0.6716  0.1335
 6399SOL    HW230660   4.581   2.301   7.481 -0.6793 -1.6881  1.0169
 6400SOL     OW30661   3.673   0.480  17.039 -0.6817  0.5608 -0.1200
 6400SOL    HW130662   3.653   0.387  17.047  1.5400 -0.0976 -2.2706
 6400SOL    HW230663   3.765   0.476  17.015 -1.2485 -0.5508 -2.0483
 6401SOL     OW30664   3.335   2.360   5.756  0.3757  0.4815 -0.8935
 6401SOL    HW130665   3.281   2.380   5.832 -0.2948  2.2216 -1.8096
 6401SOL    HW230666   3.406   2.306   5.791 -2.1323 -2.3841 -0.2350
 6402SOL     OW30667   0.503   0.556   1.455 -0.0647 -0.3592  0.4281
 6402SOL    HW130668   0.468   0.503   1.527  0.8599 -0.8726  0.5008
 6402SOL    HW230669   0.597   0.561   1.468 -0.0815  0.6056  0.1854
 6403SOL     OW30670   2.828   4.685  11.417 -0.2062  0.8475  0.0106
 6403SOL    HW130671   2.882   0.029  11.462  0.9063 -0.7397  0.9469
 6403SOL    HW230672   2.756   4.671  11.479 -1.0766  1.7496 -0.7846
 6404SOL     OW30673   4.525   0.972   5.111 -0.2585 -0.0180 -0.2831
 6404SOL    HW130674   4.545   0.960   5.018  1.0717  1.1559 -0.1490
 6404SOL    HW230675   4.462   1.043   5.112  0.9168  1.0328 -0.8669
 6405SOL     OW30676   0.392   1.459  15.162 -0.8851  0.1821 -0.2413
 6405SOL    HW130677   0.359   1.540  15.201 -0.8557  0.0535  0.0503
 6405SOL    HW230678   0.387   1.475  15.067  1.9688  1.1918 -0.2356
 6406SOL     OW30679   4.640   0.955   9.093  0.5347 -0.2365  0.2489
 6406SOL    HW130680   4.716   0.920   9.140  0.2800 -0.3226  0.5953
 6406SOL    HW230681   4.649   1.051   9.089  0.8067 -0.2437  0.6388
 6407SOL     OW30682   2.685   0.399   6.256 -0.3015 -0.0269 -0.6035
 6407SOL    HW130683   2.705   0.372   6.346  1.5180  2.0462 -0.3769
 6407SOL    HW230684   2.615   0.462   6.270 -1.4574 -1.4010 -0.2380
 6408SOL     OW30685   0.998   1.198   3.703  0.7671 -0.0514  0.0260
 6408SOL    HW130686   1.090   1.214   3.723  0.5484 -1.7700  2.4611
 6408SOL    HW230687   0.955   1.230   3.782  0.9655  0.3711 -0.0380
 6409SOL     OW30688   2.255   2.483  11.792  0.1649 -0.5645  0.2534
 6409SOL    HW130689   2.172   2.462  11.749  0.4539 -1.3313  0.0696
 6409SOL    HW230690   2.314   2.500  11.719 -1.9702 -0.0010 -1.3078
 6410SOL     OW30691   4.293   1.962   4.714  0.2245 -0.0675  0.3851
 6410SOL    HW130692   4.283   2.057   4.708  2.5595  0.2485  1.5472
 6410SOL    HW230693   4.306   1.950   4.620  4.3442 -0.5440  1.0075
 6411SOL     OW30694   0.234   0.760   6.807  0.1925 -0.3492 -0.4769
 6411SOL    HW130695   0.240   0.799   6.719  0.3488  1.7121  0.4539
 6411SOL    HW230696   0.329   0.748   6.817  0.2954 -0.8530 -2.0610
 6412SOL     OW30697   4.473   1.635   5.583  0.5779  0.0173 -0.4933
 6412SOL    HW130698   4.435   1.548   5.598 -2.4523  1.4835  0.4222
 6412SOL    HW230699   4.547   1.613   5.528  0.2830  0.5905 -1.1178
 6413SOL     OW30700   1.552   1.329  10.271 -0.3473 -0.0476 -1.0449
 6413SOL    HW130701   1.646   1.316  10.259 -0.6777 -2.4011 -1.0982
 6413SOL    HW230702   1.546   1.350  10.364  0.2337 -0.6846 -0.8682
 6414SOL     OW30703   4.000   1.939  15.587  0.6410  0.4050 -0.3091
 6414SOL    HW130704   3.917   1.988  15.588  0.9464  0.9371 -0.8212
 6414SOL    HW230705   4.020   1.928  15.680 -1.4790  1.7332  0.3145
 6415SOL     OW30706   2.821   4.581   5.346 -1.1917  0.6538 -0.0476
 6415SOL    HW130707   2.850   4.667   5.378  1.2766 -0.6828  1.2704
 6415SOL    HW230708   2.847   4.574   5.255  0.1909  1.8012  0.2611
 6416SOL     OW30709   3.577   0.998   5.868  0.0457  1.3419  0.2168
 6416SOL    HW130710   3.615   1.077   5.907  0.9526  0.6567  0.7302
 6416SOL    HW230711   3.609   0.918   5.910 -0.2981  1.0570 -0.0544
 6417SOL     OW30712   0.050   3.406   6.862 -0.1002  0.0840 -0.2192
 6417SOL    HW130713   0.054   3.312   6.876  0.6780  0.0285 -0.8006
 6417SOL    HW230714   0.099   3.435   6.939 -1.9067 -0.9726  1.3329
 6418SOL     OW30715   2.588   2.577   1.807  0.0151  0.1399  0.2353
 6418SOL    HW130716   2.677   2.546   1.824 -0.8705 -1.1938  2.4755
 6418SOL    HW230717   2.586   2.663   1.849 -1.8854  0.6344 -0.8655
 6419SOL     OW30718   2.196   1.675   4.290  0.3130  0.2315  0.1594
 6419SOL    HW130719   2.241   1.592   4.308 -1.1547 -0.5128  0.4035
 6419SOL    HW230720   2.265   1.730   4.251  1.1659 -1.2720 -0.4822
 6420SOL     OW30721   2.607   2.249   9.044  0.5629 -0.3469 -0.0974
 6420SOL    HW130722   2.535   2.246   9.107  0.3606  0.7771 -0.2770
 6420SOL    HW230723   2.667   2.318   9.073  0.8946 -0.7408  0.1467
 6421SOL     OW30724   1.768   2.400   7.186 -0.4214  0.4700  0.5173
 6421SOL    HW130725   1.690   2.450   7.208 -1.4842 -0.7737 -0.4128
 6421SOL    HW230726   1.792   2.360   7.269  0.0585  0.5433  0.4132
 6422SOL     OW30727   1.155   1.965   3.386  0.0798 -0.7698  0.3883
 6422SOL    HW130728   1.091   1.894   3.380 -0.2429 -0.2079 -3.0524
 6422SOL    HW230729   1.218   1.948   3.316 -1.9124  1.2299 -1.9040
 6423SOL     OW30730   4.219   1.893   8.572  0.5958  0.8407  0.0645
 6423SOL    HW130731   4.174   1.835   8.634  0.0087  0.6486 -0.5497
 6423SOL    HW230732   4.150   1.950   8.541  0.4989 -0.3046 -1.8590
 6424SOL     OW30733   4.206   0.245   4.497  0.2689  0.0720 -0.2254
 6424SOL    HW130734   4.126   0.205   4.465  0.1537 -0.7453  1.0652
 6424SOL    HW230735   4.270   0.176   4.478 -1.2743 -1.2075 -0.7323
 6425SOL     OW30736   1.296   0.018   3.086 -0.2078  0.5548  0.1685
 6425SOL    HW130737   1.346   4.689   3.021  0.6355  0.0019  1.2202
 6425SOL    HW230738   1.211   0.025   3.043  0.0075  0.6772 -0.2353
 6426SOL     OW30739   1.322   2.306   7.567 -0.3008 -0.3414  0.2764
 6426SOL    HW130740   1.352   2.322   7.477 -0.0899 -1.9569  0.0566
 6426SOL    HW230741   1.375   2.229   7.586  0.5371  0.3746  0.8821
 6427SOL     OW30742   3.965   4.119   2.681 -0.0398 -0.1094 -0.2331
 6427SOL    HW130743   4.047   4.117   2.730  0.3582  3.2724 -0.7458
 6427SOL    HW230744   3.982   4.118   2.586 -0.7038 -3.1149 -0.3154
 6428SOL     OW30745   0.954   4.401   0.880 -0.6950  0.2713  0.1655
 6428SOL    HW130746   1.007   4.404   0.800  0.5442 -2.3738  0.8937
 6428SOL    HW230747   0.968   4.311   0.910  1.1667 -0.1875 -2.1001
 6429SOL     OW30748   1.112   1.756   8.671 -0.5702  0.1539 -0.3507
 6429SOL    HW130749   1.182   1.794   8.724  0.2120 -0.2898 -1.0653
 6429SOL    HW230750   1.109   1.813   8.594  0.6564  0.0771 -0.4648
 6430SOL     OW30751   0.925   3.999  13.048 -0.4488  0.4839  0.1774
 6430SOL    HW130752   0.913   4.052  13.127 -3.1079  0.8405 -0.4583
 6430SOL    HW230753   1.020   3.996  13.042 -0.4254 -2.4073  1.7912
 6431SOL     OW30754   0.081   3.645  12.087  0.4520  0.1076 -0.1506
 6431SOL    HW130755   0.135   3.595  12.149  0.6759 -0.2502 -0.6314
 6431SOL    HW230756   0.001   3.592  12.094  0.8773 -0.4227  0.7489
 6432SOL     OW30757   2.726   4.346   3.745  0.0425  0.0941 -0.5406
 6432SOL    HW130758   2.735   4.376   3.655 -2.1471 -1.0240 -1.1403
 6432SOL    HW230759   2.681   4.426   3.774  1.2263  0.3002  0.7107
 6433SOL     OW30760   4.692   1.126  17.032  0.2263 -0.0846 -0.0772
 6433SOL    HW130761   0.064   1.145  17.041  0.1435  1.4083 -2.5221
 6433SOL    HW230762   4.657   1.202  17.078 -2.2987 -0.8101 -0.7961
 6434SOL     OW30763   3.798   1.721   2.004  0.4299  0.7023  0.3588
 6434SOL    HW130764   3.890   1.741   1.992  0.6389  1.6035  3.3386
 6434SOL    HW230765   3.801   1.731   2.100  1.1364  0.6902  0.3386
 6435SOL     OW30766   0.994   0.916   4.250  0.6502 -0.1762  0.1490
 6435SOL    HW130767   0.920   0.860   4.229 -0.3009  0.4939  1.7389
 6435SOL    HW230768   0.963   1.004   4.226 -1.4419 -0.4802  1.7613
 6436SOL     OW30769   4.401   4.580   4.905 -0.0976  0.1123  0.1346
 6436SOL    HW130770   4.483   4.550   4.945  1.1297  2.1702 -0.8255
 6436SOL    HW230771   4.346   4.622   4.971  0.1032  1.6509 -0.6785
 6437SOL     OW30772   3.888   0.992   6.689 -0.0974  0.4407 -0.3479
 6437SOL    HW130773   3.888   0.940   6.770 -0.8630 -0.4373 -0.9137
 6437SOL    HW230774   3.983   1.008   6.688  0.0092 -0.0520  1.1524
 6438SOL     OW30775   3.114   2.632   2.757 -0.0454 -0.1721 -0.5789
 6438SOL    HW130776   3.059   2.703   2.724 -0.7789  0.3170  1.7331
 6438SOL    HW230777   3.063   2.553   2.739  0.9617 -0.4785 -2.1693
 6439SOL     OW30778   2.672   2.158   8.795  0.8104  0.2593 -0.1343
 6439SOL    HW130779   2.663   2.186   8.886  1.3761  1.1255 -0.3401
 6439SOL    HW230780   2.605   2.091   8.800  1.2142 -0.0145  1.5216
 6440SOL     OW30781   3.078   3.268   5.087 -0.6815  0.6583 -0.0267
 6440SOL    HW130782   3.048   3.181   5.112  0.5191  0.3302  0.2909
 6440SOL    HW230783   3.105   3.253   4.996  1.8495  0.1400  0.8124
 6441SOL     OW30784   3.554   3.908   8.406 -0.3841  0.3728 -0.2383
 6441SOL    HW130785   3.530   3.934   8.495  3.0096 -2.6289  1.5308
 6441SOL    HW230786   3.649   3.911   8.406 -0.4542  3.1897 -0.5621
 6442SOL     OW30787   4.298   2.731  11.966 -0.0120  0.2349 -0.2048
 6442SOL    HW130788   4.247   2.801  12.006 -0.7536  0.5675 -1.7327
 6442SOL    HW230789   4.324   2.766  11.881 -1.2784  1.5325 -0.0542
 6443SOL     OW30790   3.475   2.959   8.728 -0.0187  0.1447 -0.0849
 6443SOL    HW130791   3.403   2.912   8.771  0.3092  0.0730  0.3808
 6443SOL    HW230792   3.495   3.028   8.791 -1.0620 -0.3509  0.7959
 6444SOL     OW30793   3.828   2.429   6.399 -0.0759  0.5115 -0.3574
 6444SOL    HW130794   3.754   2.489   6.409 -0.7680 -0.4539  0.2268
 6444SOL    HW230795   3.870   2.439   6.484 -1.6529  1.7445  0.2880
 6445SOL     OW30796   1.486   0.968   2.726  0.4537 -0.4869  0.7883
 6445SOL    HW130797   1.546   0.907   2.684 -0.1393  0.4633 -1.4300
 6445SOL    HW230798   1.420   0.984   2.658  1.7308 -1.8562 -0.7964
 6446SOL     OW30799   4.148   4.559  11.157 -0.0488  0.8999  0.7960
 6446SOL    HW130800   4.164   4.473  11.118  0.3064  1.3388 -0.0103
 6446SOL    HW230801   4.085   4.524  11.220 -1.6099  2.1299 -0.1067
 6447SOL     OW30802   0.285   0.779   3.013 -0.1707 -0.3175 -0.0333
 6447SOL    HW130803   0.356   0.716   3.027 -1.3197 -1.6342 -0.2196
 6447SOL    HW230804   0.292   0.805   2.921  0.0085  2.6349  0.8150
 6448SOL     OW30805   2.992   1.053  16.286 -0.1025 -0.2769  0.1455
 6448SOL    HW130806   3.064   1.023  16.230  0.5376 -0.2233  0.9440
 6448SOL    HW230807   2.923   1.073  16.223 -0.6006 -2.9416 -0.1700
 6449SOL     OW30808   0.965   3.101   8.762 -0.1640 -0.0449 -0.0721
 6449SOL    HW130809   0.911   3.154   8.821  0.5631 -0.5513  1.0452
 6449SOL    HW230810   0.998   3.040   8.828  0.4649 -1.2917 -1.5305
 6450SOL     OW30811   0.771   3.541   0.401 -0.3193 -0.6483 -0.1125
 6450SOL    HW130812   0.832   3.472   0.376  0.6053 -0.9341  2.9596
 6450SOL    HW230813   0.799   3.603   0.334  1.2367 -0.2647  0.8888
 6451SOL     OW30814   2.273   3.271   5.535  0.0926 -0.0474 -0.0541
 6451SOL    HW130815   2.196   3.241   5.584 -0.1147 -0.1204 -0.4300
 6451SOL    HW230816   2.334   3.197   5.527 -0.3862 -0.3108 -1.2141
 6452SOL     OW30817   0.742   0.307   7.742  0.3485  0.5208  0.1232
 6452SOL    HW130818   0.822   0.360   7.746 -0.1390  1.1993  1.0273
 6452SOL    HW230819   0.684   0.350   7.805  4.9028  0.5228  4.2586
 6453SOL     OW30820   2.363   2.083   7.844  0.2210 -0.0248 -0.3963
 6453SOL    HW130821   2.383   2.001   7.798 -0.7128 -0.4135 -0.0917
 6453SOL    HW230822   2.323   2.038   7.918  0.5117  0.1203 -0.1522
 6454SOL     OW30823   3.267   1.226   2.545  0.7000  0.1648 -0.3402
 6454SOL    HW130824   3.217   1.219   2.627  0.3089  1.6612 -0.4432
 6454SOL    HW230825   3.205   1.260   2.481  0.2457  0.6137  0.3370
 6455SOL     OW30826   3.861   1.367   1.381  0.8381  0.3407 -0.3288
 6455SOL    HW130827   3.823   1.419   1.452  0.8809 -1.0536  0.7201
 6455SOL    HW230828   3.949   1.403   1.391  0.8878 -0.0343  0.5832
 6456SOL     OW30829   0.656   4.684   9.391  0.0237  0.4226  0.1994
 6456SOL    HW130830   0.641   0.039   9.448 -1.4736  0.2394  0.0270
 6456SOL    HW230831   0.708   0.006   9.323  1.6936 -0.0913  1.1465
 6457SOL     OW30832   2.845   1.812   4.812  0.3817  0.4874 -0.2110
 6457SOL    HW130833   2.752   1.807   4.790  0.5510 -2.6936 -0.2027
 6457SOL    HW230834   2.896   1.808   4.731 -0.0512 -1.4386 -0.4006
 6458SOL     OW30835   0.552   1.766  13.736 -0.3993  0.3676 -0.2275
 6458SOL    HW130836   0.569   1.726  13.821 -0.7649 -0.9552 -0.7907
 6458SOL    HW230837   0.514   1.851  13.760  0.6370  0.1911  2.0779
 6459SOL     OW30838   3.620   0.048   6.345  0.5212  0.3289 -0.3189
 6459SOL    HW130839   3.529   0.067   6.324 -0.1053 -1.3481  0.8925
 6459SOL    HW230840   3.632   4.686   6.298 -0.2981 -1.6681  2.9460
 6460SOL     OW30841   2.934   3.433  13.463 -0.0671  0.0443  0.1601
 6460SOL    HW130842   2.960   3.460  13.375  0.9972 -0.5028  0.3075
 6460SOL    HW230843   2.855   3.487  13.470  0.8754  1.3514  0.7630
 6461SOL     OW30844   2.293   0.279   2.179 -0.6277 -0.0465  0.7005
 6461SOL    HW130845   2.377   0.238   2.159 -0.5603 -0.2820  1.4489
 6461SOL    HW230846   2.306   0.369   2.151  1.7922 -0.9660 -1.0348
 6462SOL     OW30847   2.299   4.650  15.389  0.7041 -0.0057  0.0489
 6462SOL    HW130848   2.291   0.006  15.446 -0.1062  0.0164 -0.0922
 6462SOL    HW230849   2.325   4.703  15.313 -0.7567 -1.8662 -1.7749
 6463SOL     OW30850   1.593   2.115   7.382 -1.0213  0.8123  0.0960
 6463SOL    HW130851   1.611   2.126   7.476 -2.0608  0.5994  0.3187
 6463SOL    HW230852   1.542   2.190   7.353  1.9296  2.8208  0.0340
 6464SOL     OW30853   1.437   0.282   3.759  0.4255  0.0245  0.3875
 6464SOL    HW130854   1.372   0.214   3.746 -2.3484  2.7588  0.0725
 6464SOL    HW230855   1.512   0.232   3.727 -0.0677  0.4349 -1.3608
 6465SOL     OW30856   4.288   3.175   3.072 -0.1656 -0.2807  0.0745
 6465SOL    HW130857   4.291   3.101   3.011  0.6331 -0.0716 -0.1390
 6465SOL    HW230858   4.234   3.238   3.024  0.9653 -0.4073 -1.3697
 6466SOL     OW30859   0.877   1.548   8.466 -0.0840  0.5579  0.6319
 6466SOL    HW130860   0.902   1.611   8.398  0.0512  1.1911  1.2699
 6466SOL    HW230861   0.868   1.606   8.542 -0.2296 -3.0131  3.3603
 6467SOL     OW30862   4.624   2.330   3.014  0.5206 -0.5616 -0.1495
 6467SOL    HW130863   4.579   2.246   3.013  0.1636 -0.3719  0.2080
 6467SOL    HW230864   4.653   2.339   3.104 -0.1174  0.9731 -0.1096
 6468SOL     OW30865   2.855   4.466   6.321  0.2513  0.3738  0.2566
 6468SOL    HW130866   2.925   4.488   6.382  1.4842 -1.9097 -0.3349
 6468SOL    HW230867   2.822   4.551   6.290 -1.6483 -0.3978  0.1980
 6469SOL     OW30868   4.698   4.064   2.715 -0.5033 -0.6837 -0.1908
 6469SOL    HW130869   0.047   4.008   2.751 -0.5270 -1.7452 -1.8056
 6469SOL    HW230870   0.026   4.109   2.646  0.5965  0.0747  1.0819
 6470SOL     OW30871   1.467   3.633   7.193  0.1427  0.2819  0.2983
 6470SOL    HW130872   1.530   3.605   7.125  0.8218  0.3959  0.8824
 6470SOL    HW230873   1.487   3.727   7.199  0.7294  0.1297  0.7255
 6471SOL     OW30874   2.443   2.642   2.078 -0.2932  0.3117 -0.2956
 6471SOL    HW130875   2.461   2.621   2.169 -1.8779  0.1086 -0.0230
 6471SOL    HW230876   2.422   2.553   2.048 -0.2151  0.4516 -0.7719
 6472SOL     OW30877   2.133   4.040  16.415  0.1295  0.2549 -0.3483
 6472SOL    HW130878   2.091   4.100  16.477 -0.3632  3.1037 -3.3941
 6472SOL    HW230879   2.074   4.061  16.342  0.0569 -3.4800 -1.3341
 6473SOL     OW30880   0.010   0.774   3.003 -0.3107 -0.5921  0.0035
 6473SOL    HW130881   0.008   0.680   3.023 -2.3697 -0.7501 -0.9793
 6473SOL    HW230882   0.103   0.792   2.988 -0.7315  0.1105 -1.7736
 6474SOL     OW30883   2.281   2.541   7.362  0.6215 -0.4903  0.1235
 6474SOL    HW130884   2.231   2.622   7.372  0.8685 -0.4078  0.7070
 6474SOL    HW230885   2.295   2.528   7.268 -0.2966  0.5448 -0.1484
 6475SOL     OW30886   3.472   1.367  11.646 -0.8423 -0.0112 -0.4072
 6475SOL    HW130887   3.510   1.397  11.729  3.3452 -0.2843 -2.1888
 6475SOL    HW230888   3.450   1.277  11.668  0.6233  0.3859  2.6700
 6476SOL     OW30889   3.875   3.613   3.065 -0.2627  0.0281  0.7724
 6476SOL    HW130890   3.809   3.674   3.100  1.1297  1.2003  1.3423
 6476SOL    HW230891   3.863   3.615   2.970  0.7373  3.5966  0.7273
 6477SOL     OW30892   0.713   3.678   4.565 -0.2285 -0.0821 -0.2858
 6477SOL    HW130893   0.661   3.699   4.643  0.6292  1.1054 -0.0452
 6477SOL    HW230894   0.641   3.635   4.517  0.1900 -0.0253 -0.9540
 6478SOL     OW30895   2.553   0.412   8.485 -0.0503  0.3571 -0.1802
 6478SOL    HW130896   2.578   0.418   8.393  1.8598 -0.2348  0.2924
 6478SOL    HW230897   2.620   0.469   8.522 -0.0854 -0.7514  1.6168
 6479SOL     OW30898   2.611   4.551   7.769 -0.2530  0.3621 -0.1296
 6479SOL    HW130899   2.676   4.597   7.716  0.7626 -0.0125  0.7945
 6479SOL    HW230900   2.680   4.513   7.824  0.1040  1.7474  0.3790
 6480SOL     OW30901   3.020   2.574   9.045 -0.4208 -0.1731  0.3524
 6480SOL    HW130902   3.105   2.591   9.087  0.7894  0.8400 -2.5142
 6480SOL    HW230903   2.991   2.496   9.091 -1.3090 -0.0483  0.0013
 6481SOL     OW30904   3.946   3.060   9.697  0.1337  0.1230  0.3078
 6481SOL    HW130905   3.946   3.153   9.673  1.2897 -0.1830 -0.9016
 6481SOL    HW230906   3.959   3.030   9.607 -0.0353  2.1326 -0.3970
 6482SOL     OW30907   3.848   2.518   8.134 -0.3703  0.0759  0.2250
 6482SOL    HW130908   3.881   2.512   8.224  0.2003 -0.5648 -0.0287
 6482SOL    HW230909   3.913   2.467   8.087 -1.5759  0.2201 -1.6138
 6483SOL     OW30910   2.369   3.363   0.305  0.2190  0.0651  0.5820
 6483SOL    HW130911   2.462   3.385   0.293 -0.0486  0.7418 -0.2219
 6483SOL    HW230912   2.335   3.446   0.271  0.8911  0.3497  0.5993
 6484SOL     OW30913   1.992   2.238   7.024 -0.5326 -0.2766 -0.3419
 6484SOL    HW130914   1.906   2.218   7.059 -0.7240  0.0962 -0.5996
 6484SOL    HW230915   1.994   2.318   7.077  1.4327 -1.4574  1.3918
 6485SOL     OW30916   3.252   0.506   3.557 -0.2338  0.2370  0.1295
 6485SOL    HW130917   3.327   0.464   3.514  0.2162  1.5420 -0.3523
 6485SOL    HW230918   3.182   0.469   3.503  2.1464 -0.5104 -2.4374
 6486SOL     OW30919   1.742   1.544   7.200  0.4132  0.4603  0.1777
 6486SOL    HW130920   1.688   1.592   7.138  0.1728 -1.5850 -1.2036
 6486SOL    HW230921   1.698   1.459   7.204 -0.4793  0.8728 -0.8561
 6487SOL     OW30922   0.940   0.532   7.440 -0.1326  0.3610  0.1039
 6487SOL    HW130923   0.915   0.509   7.529  1.9772 -0.3900  0.5057
 6487SOL    HW230924   0.974   0.449   7.405 -0.8339 -0.1355  0.6245
 6488SOL     OW30925   4.638   1.406  17.498  0.1012 -0.0840 -0.0543
 6488SOL    HW130926   4.655   1.469  17.569  3.5542  0.1856 -1.0887
 6488SOL    HW230927   4.543   1.408  17.489  0.1318 -0.7623 -0.5116
 6489SOL     OW30928   4.715   1.584   4.847  0.6358  0.6375 -0.0456
 6489SOL    HW130929   4.630   1.624   4.867 -0.1525 -0.9604 -0.2661
 6489SOL    HW230930   4.703   1.547   4.760 -3.8095  1.7463  0.1344
 6490SOL     OW30931   2.837   2.900   7.714 -0.0881 -0.2184 -0.3205
 6490SOL    HW130932   2.905   2.949   7.667 -0.7635 -0.3946 -1.4767
 6490SOL    HW230933   2.889   2.871   7.789  0.9935  2.6908  0.0573
 6491SOL     OW30934   1.741   2.764   8.961 -0.8470 -0.3546  0.6061
 6491SOL    HW130935   1.752   2.860   8.961 -1.6587 -0.2674 -0.3125
 6491SOL    HW230936   1.647   2.754   8.948 -0.8628  1.2685 -0.6316
 6492SOL     OW30937   0.205   2.165   3.924 -0.5136  0.0872  0.0698
 6492SOL    HW130938   0.189   2.259   3.916  2.5318  0.6218  0.2698
 6492SOL    HW230939   0.119   2.124   3.929 -0.6361  0.2879 -0.4116
 6493SOL     OW30940   0.208   4.004  12.906 -0.1972  0.1974  0.6449
 6493SOL    HW130941   0.301   4.002  12.886 -0.1406 -3.8009  1.3576
 6493SOL    HW230942   0.199   3.920  12.951 -1.1346 -0.0954 -0.0831
 6494SOL     OW30943   1.663   2.676  16.990 -0.1962  0.6644 -0.2872
 6494SOL    HW130944   1.585   2.725  17.017 -0.8021  0.0770 -0.9799
 6494SOL    HW230945   1.729   2.746  16.988  0.3074  0.1755 -1.0105
 6495SOL     OW30946   0.365   3.467  16.383  0.4008  0.5506 -0.1265
 6495SOL    HW130947   0.310   3.545  16.378  0.4491  0.7371  2.0483
 6495SOL    HW230948   0.308   3.406  16.431  0.0797  0.0401 -1.1554
 6496SOL     OW30949   2.203   0.502   5.712 -0.3959 -0.2615 -0.6369
 6496SOL    HW130950   2.147   0.496   5.790 -0.7217 -1.9357 -1.0015
 6496SOL    HW230951   2.165   0.432   5.658 -2.2750  0.8806 -0.8200
 6497SOL     OW30952   1.614   0.709  12.706 -0.2945  0.5423  0.1089
 6497SOL    HW130953   1.652   0.633  12.749 -2.1862  0.1727  1.1007
 6497SOL    HW230954   1.530   0.712  12.752  0.5567  2.3123  1.5990
 6498SOL     OW30955   3.076   0.950   7.746  0.0081 -0.2376  0.0465
 6498SOL    HW130956   3.125   1.032   7.733  3.3652 -2.0355  1.3217
 6498SOL    HW230957   3.133   0.922   7.817  0.1682  0.1323  0.0621
 6499SOL     OW30958   2.396   3.412  16.407 -0.6420 -0.0754  0.3841
 6499SOL    HW130959   2.463   3.353  16.374 -0.8663 -1.2415  1.9886
 6499SOL    HW230960   2.386   3.377  16.496 -4.2139  0.5513  0.2450
 6500SOL     OW30961   2.433   2.141   7.193 -0.0849  0.3536 -0.0804
 6500SOL    HW130962   2.466   2.109   7.277  1.1085 -1.0480 -1.0834
 6500SOL    HW230963   2.339   2.128   7.201 -0.1477  0.4259 -0.6635
 6501SOL     OW30964   2.008   0.709   4.413 -0.5570  0.5286 -0.2106
 6501SOL    HW130965   2.032   0.659   4.491 -2.1248  1.3628  0.8256
 6501SOL    HW230966   1.984   0.635   4.358  0.0705  0.0868  0.1087
 6502SOL     OW30967   2.206   1.062   5.210 -0.0914 -0.1208  0.6377
 6502SOL    HW130968   2.206   1.059   5.114  0.4261 -1.2460  0.6710
 6502SOL    HW230969   2.186   1.156   5.214  2.0823  0.4147 -0.9577
 6503SOL     OW30970   1.728   2.875  17.273 -0.5321  0.1212 -0.0256
 6503SOL    HW130971   1.681   2.889  17.190 -0.3730 -3.2243 -0.6704
 6503SOL    HW230972   1.770   2.790  17.263 -1.0235 -0.3855  2.2505
 6504SOL     OW30973   2.595   3.902   2.003 -0.3078 -0.0157 -0.3898
 6504SOL    HW130974   2.539   3.842   1.955 -0.7806 -0.0868  0.2434
 6504SOL    HW230975   2.655   3.918   1.930  0.6982  0.0416  0.4448
 6505SOL     OW30976   3.132   0.327   4.834 -0.0941 -0.0519 -0.7049
 6505SOL    HW130977   3.069   0.399   4.835  0.7332  0.7045 -2.2290
 6505SOL    HW230978   3.076   0.262   4.790 -0.4377 -0.9663  1.1024
 6506SOL     OW30979   0.044   3.641   2.673 -0.2010  0.1333 -0.4392
 6506SOL    HW130980   0.086   3.618   2.757 -0.0216 -0.1862 -0.6141
 6506SOL    HW230981   4.690   3.693   2.702 -2.3082 -2.1182 -1.9090
 6507SOL     OW30982   2.272   0.846   6.565  0.2015  0.3807  0.7205
 6507SOL    HW130983   2.216   0.870   6.491 -0.6039  0.4590  1.3611
 6507SOL    HW230984   2.255   0.751   6.564 -2.4325  0.8869 -1.6327
 6508SOL     OW30985   4.237   0.198   8.902  0.6524  0.5579  0.4248
 6508SOL    HW130986   4.237   0.153   8.987  0.6134 -1.0474 -0.4316
 6508SOL    HW230987   4.230   0.291   8.925  2.9140  1.2864 -1.8255
 6509SOL     OW30988   3.820   1.966   3.091  0.4572 -0.2938  0.0474
 6509SOL    HW130989   3.904   1.995   3.057 -0.1269 -0.1465 -1.2796
 6509SOL    HW230990   3.848   1.883   3.130 -2.3083 -1.0236  0.4573
 6510SOL     OW30991   4.691   3.999   4.369 -0.4910 -0.5286  0.7472
 6510SOL    HW130992   0.065   3.981   4.375 -0.6586 -2.2742 -1.6577
 6510SOL    HW230993   4.670   3.968   4.281  0.1189  2.8210 -0.6001
 6511SOL     OW30994   0.911   3.552   5.777  0.1862 -0.0757  0.2310
 6511SOL    HW130995   0.828   3.520   5.742  1.2241 -1.1152 -1.2756
 6511SOL    HW230996   0.961   3.474   5.801 -2.3360 -1.3842  1.2226
 6512SOL     OW30997   1.040   1.344   8.570  0.1088  0.0813 -0.5608
 6512SOL    HW130998   0.972   1.404   8.541 -0.5168 -0.3952 -0.0542
 6512SOL    HW230999   1.090   1.405   8.624  1.7987 -0.0072 -2.0090
 6513SOL     OW31000   4.214   1.038  12.086  0.2276  0.9987 -0.3667
 6513SOL    HW131001   4.127   1.055  12.051  0.2653  1.3238 -0.2988
 6513SOL    HW231002   4.208   0.946  12.114 -0.7139  1.7867  2.0511
 6514SOL     OW31003   1.446   3.952   2.400 -0.1218  0.4160 -0.5971
 6514SOL    HW131004   1.534   3.939   2.435  1.0823  0.0334 -3.8458
 6514SOL    HW231005   1.392   3.931   2.477 -0.4022  1.4232 -0.5079
 6515SOL     OW31006   2.581   2.595   9.900  0.4407 -0.0329  0.0388
 6515SOL    HW131007   2.569   2.633   9.987 -1.2360 -0.2775 -0.0953
 6515SOL    HW231008   2.530   2.515   9.909 -2.8082  1.8794 -1.1815
 6516SOL     OW31009   1.349   0.182  17.021  0.1852  0.2674  0.0210
 6516SOL    HW131010   1.304   0.252  17.068 -0.5120  0.1628 -0.4836
 6516SOL    HW231011   1.429   0.225  16.992  0.3722  0.4805  0.8544
 6517SOL     OW31012   2.763   0.916   3.036 -0.0525  0.2022  0.1492
 6517SOL    HW131013   2.783   1.007   3.017  1.0968 -0.8813 -3.8778
 6517SOL    HW231014   2.821   0.869   2.976 -0.5392  0.2727 -0.3734
 6518SOL     OW31015   2.331   4.604   3.126  0.3820 -0.2019 -0.3349
 6518SOL    HW131016   2.329   4.686   3.076 -0.6477  0.0982  0.2026
 6518SOL    HW231017   2.240   4.580   3.112 -0.5494  3.6895 -0.9785
 6519SOL     OW31018   4.376   1.458  17.532  0.1908 -0.3002 -1.0737
 6519SOL    HW131019   4.284   1.431  17.538  0.0461  0.5496  0.4835
 6519SOL    HW231020   4.360   1.551  17.545 -0.9916 -0.7369  0.6742
 6520SOL     OW31021   3.905   4.528   3.854 -0.0597  0.2829 -0.0149
 6520SOL    HW131022   3.994   4.518   3.820 -0.3326  0.5332 -0.8159
 6520SOL    HW231023   3.925   4.589   3.924  3.6928  1.1766 -1.8828
 6521SOL     OW31024   3.110   1.748  13.203 -0.4790 -0.3676  0.0218
 6521SOL    HW131025   3.135   1.837  13.179  1.0246 -0.3534  1.6345
 6521SOL    HW231026   3.037   1.741  13.142  0.0039 -1.8780 -0.3689
 6522SOL     OW31027   4.286   3.419   5.531  0.6351  0.0369 -0.2924
 6522SOL    HW131028   4.216   3.473   5.567  1.3332 -1.6429  3.6402
 6522SOL    HW231029   4.249   3.371   5.457 -1.2513  1.2355 -0.1178
 6523SOL     OW31030   1.759   2.726   6.247  0.6253  0.3652 -0.2158
 6523SOL    HW131031   1.710   2.801   6.214 -0.2336 -0.3563 -0.6091
 6523SOL    HW231032   1.831   2.767   6.295 -1.1981  1.7310  1.3320
 6524SOL     OW31033   0.316   3.906  12.579 -0.5443  0.3754  0.2852
 6524SOL    HW131034   0.376   3.895  12.653  0.5041  1.6561 -0.3756
 6524SOL    HW231035   0.259   3.833  12.602 -2.4695  1.4630 -1.0597
 6525SOL     OW31036   4.386   0.048  12.588  0.0530  0.1410 -0.5001
 6525SOL    HW131037   4.376   0.137  12.555 -1.0375  1.3299  2.9544
 6525SOL    HW231038   4.392   0.054  12.684 -1.8270  1.5408 -0.4837
 6526SOL     OW31039   2.065   3.048   8.955 -0.3730  0.6003  0.3052
 6526SOL    HW131040   2.095   3.097   9.032  1.9213 -0.5116  0.1091
 6526SOL    HW231041   2.137   2.986   8.959 -0.0127  0.9538 -0.7050
 6527SOL     OW31042   1.181   0.293   2.955  0.4616 -0.2831 -0.0901
 6527SOL    HW131043   1.108   0.354   2.968 -0.1197 -1.2312  1.1041
 6527SOL    HW231044   1.176   0.246   3.038 -0.4803  0.2720  0.1791
 6528SOL     OW31045   2.745   3.169   8.641 -0.3890  0.2916 -0.8270
 6528SOL    HW131046   2.706   3.115   8.709 -0.7072  0.1546 -1.1160
 6528SOL    HW231047   2.696   3.251   8.642  2.2736  1.8979 -0.3158
 6529SOL     OW31048   1.554   0.277   6.418  0.2956  0.1903 -0.3161
 6529SOL    HW131049   1.495   0.347   6.446  1.0539  0.8115 -0.2926
 6529SOL    HW231050   1.633   0.287   6.470 -0.0111 -0.3492  0.2505
 6530SOL     OW31051   1.870   1.605   3.931  0.5188 -0.5189  0.0054
 6530SOL    HW131052   1.961   1.619   3.906  0.2467 -0.8645 -1.1594
 6530SOL    HW231053   1.826   1.673   3.881  1.2435  0.2619  0.4203
 6531SOL     OW31054   2.338   0.032   8.725  0.4372  0.0378 -0.5462
 6531SOL    HW131055   2.294   4.668   8.724 -1.1208  0.8297  0.8757
 6531SOL    HW231056   2.295   0.071   8.649 -1.1088  1.7440  1.2048
 6532SOL     OW31057   4.453   4.640   5.951 -0.1401 -0.3064  0.3510
 6532SOL    HW131058   4.451   0.011   5.924  1.7360  0.0844  1.6005
 6532SOL    HW231059   4.376   4.602   5.909  0.5773 -2.6389  1.1585
 6533SOL     OW31060   3.490   3.720   7.963  0.1184 -0.0565 -0.4457
 6533SOL    HW131061   3.451   3.772   7.893 -0.6314  1.0634  0.7943
 6533SOL    HW231062   3.450   3.634   7.948 -1.1780  0.7315 -1.5145
 6534SOL     OW31063   0.012   3.374   8.369 -0.3453  0.0082 -0.2951
 6534SOL    HW131064   4.680   3.322   8.308  0.5004  0.0559 -1.0754
 6534SOL    HW231065   0.067   3.414   8.302 -0.2574  0.9842  0.3668
 6535SOL     OW31066   4.672   1.557   1.559 -0.6197  0.3337  0.1028
 6535SOL    HW131067   0.015   1.627   1.568 -0.2415  0.2152 -1.6235
 6535SOL    HW231068   4.683   1.521   1.471  1.0483 -1.6682  1.1205
 6536SOL     OW31069   4.014   2.704   7.428 -0.2420  0.3136  0.8178
 6536SOL    HW131070   3.939   2.738   7.380  1.4268 -1.3899 -3.0482
 6536SOL    HW231071   3.990   2.732   7.516  3.4599  4.3422  0.5109
 6537SOL     OW31072   0.569   3.444   3.565  0.5243  0.3378  0.2052
 6537SOL    HW131073   0.606   3.531   3.581  0.6804  0.9614 -3.7235
 6537SOL    HW231074   0.649   3.392   3.574  0.1097 -0.6360 -1.7526
 6538SOL     OW31075   2.900   2.488   8.279 -0.3643  0.2912 -0.2290
 6538SOL    HW131076   2.921   2.414   8.335  2.2952  0.4073 -1.1002
 6538SOL    HW231077   2.930   2.460   8.192 -1.4753 -1.3735 -0.0818
 6539SOL     OW31078   2.254   2.004   0.249 -0.2433 -0.6035  0.4385
 6539SOL    HW131079   2.244   1.942   0.321  0.8740 -1.0651  0.2052
 6539SOL    HW231080   2.256   2.084   0.301 -0.3992 -0.2632 -0.0823
 6540SOL     OW31081   0.821   0.675   8.933  0.3178  0.1031  0.0008
 6540SOL    HW131082   0.780   0.655   8.849 -0.5332  0.6491  0.2875
 6540SOL    HW231083   0.778   0.755   8.964  0.3511  0.1181  0.0095
 6541SOL     OW31084   2.481   3.473   2.374 -0.4287 -0.2339 -0.1745
 6541SOL    HW131085   2.537   3.498   2.300 -0.3329 -0.4338 -0.1686
 6541SOL    HW231086   2.541   3.444   2.443  0.5835 -0.9015 -1.3250
 6542SOL     OW31087   4.578   2.166   1.350  0.2954 -0.3110  0.5638
 6542SOL    HW131088   4.550   2.211   1.430  0.3452  0.6755  0.0231
 6542SOL    HW231089   4.511   2.194   1.287  0.0327 -1.4729  0.3238
 6543SOL     OW31090   3.971   1.162   1.186 -0.9886  1.1222 -0.4041
 6543SOL    HW131091   3.912   1.092   1.215  0.8780 -0.9401 -1.5622
 6543SOL    HW231092   3.931   1.234   1.236 -1.6274  0.0450  0.6466
 6544SOL     OW31093   0.185   0.747   6.012 -0.1117  0.7211  0.0985
 6544SOL    HW131094   0.191   0.661   5.970 -0.4858  1.4537 -1.4355
 6544SOL    HW231095   0.127   0.713   6.080 -1.7301 -1.0999 -2.2095
 6545SOL     OW31096   4.519   0.295  17.679 -0.3136 -0.1600  0.3805
 6545SOL    HW131097   4.603   0.315  17.636  0.6521 -1.3204  1.7683
 6545SOL    HW231098   4.532   0.324   0.084  0.5418 -0.5774  0.3846
 6546SOL     OW31099   3.771   3.435  10.881 -0.2706  0.7384 -0.1352
 6546SOL    HW131100   3.766   3.392  10.795  2.1602 -1.6258  0.9087
 6546SOL    HW231101   3.694   3.489  10.865 -0.6738  0.5250  1.0769
 6547SOL     OW31102   4.366   2.599   1.377 -0.2944  0.1041 -0.4177
 6547SOL    HW131103   4.370   2.527   1.315  0.0849 -0.5913  0.4112
 6547SOL    HW231104   4.326   2.666   1.322 -1.6733 -0.7569 -0.4524
 6548SOL     OW31105   4.472   3.260   7.897  0.1234 -0.0493 -0.1897
 6548SOL    HW131106   4.438   3.196   7.959 -0.7209 -1.5551 -2.2272
 6548SOL    HW231107   4.467   3.340   7.951 -2.8909 -0.2667 -0.1901
 6549SOL     OW31108   1.889   1.703   1.852  0.0405  0.4095 -0.2866
 6549SOL    HW131109   1.980   1.679   1.868 -0.9883 -2.2168  1.7190
 6549SOL    HW231110   1.855   1.644   1.785  1.1089 -0.0392 -0.4275
 6550SOL     OW31111   4.011   3.281   8.828 -0.1123 -0.3918  0.1089
 6550SOL    HW131112   4.040   3.233   8.905  1.0021  1.6063  0.9437
 6550SOL    HW231113   4.006   3.211   8.763 -1.4827  0.9853 -1.2483
 6551SOL     OW31114   2.701   3.337   3.411 -0.1529 -0.1669  0.1927
 6551SOL    HW131115   2.759   3.411   3.426 -0.7375  0.3990 -0.3399
 6551SOL    HW231116   2.735   3.313   3.324 -0.2544 -1.4065  0.4888
 6552SOL     OW31117   4.624   2.109   7.752  0.3036 -0.2783  0.1209
 6552SOL    HW131118   4.659   2.034   7.800 -0.3661  1.2228  2.9690
 6552SOL    HW231119   4.658   2.184   7.800  0.7701 -0.4101 -0.0101
 6553SOL     OW31120   3.896   4.590   8.213  0.8392 -0.2580 -0.4010
 6553SOL    HW131121   3.804   4.613   8.220  1.0998  0.6991 -0.0378
 6553SOL    HW231122   3.891   4.499   8.185  2.4491  0.2690 -2.3982
 6554SOL     OW31123   3.921   3.912   3.463 -0.3756 -0.1593 -0.4541
 6554SOL    HW131124   3.917   3.841   3.527  2.7668  0.9903  1.0371
 6554SOL    HW231125   3.993   3.893   3.402  0.2645  0.9111 -0.0336
 6555SOL     OW31126   1.619   3.716   4.280 -0.0996  0.7840  0.0972
 6555SOL    HW131127   1.559   3.757   4.217 -0.0753 -0.3187 -0.6617
 6555SOL    HW231128   1.564   3.643   4.309  0.4676  0.2129 -0.2663
 6556SOL     OW31129   0.843   2.297   8.237  0.4064  0.3125  0.2138
 6556SOL    HW131130   0.781   2.332   8.173  0.0057 -0.1630  0.3387
 6556SOL    HW231131   0.924   2.289   8.186 -0.4988 -1.4815 -0.9436
 6557SOL     OW31132   3.126   4.600   2.314  0.1359  0.5189  0.3943
 6557SOL    HW131133   3.192   4.546   2.271 -0.9446  0.0540 -0.6908
 6557SOL    HW231134   3.177   4.674   2.347  0.2509  0.5783  0.0848
 6558SOL     OW31135   0.034   2.449   3.511 -0.1882 -0.9741 -0.1226
 6558SOL    HW131136   0.063   2.539   3.524 -3.1556 -0.0277 -0.1560
 6558SOL    HW231137   0.097   2.395   3.560  0.7827  0.5712  0.3358
 6559SOL     OW31138   2.813   1.913   5.827  0.4595 -0.6390  0.9096
 6559SOL    HW131139   2.869   1.856   5.880  2.6637 -0.5292 -1.2943
 6559SOL    HW231140   2.724   1.892   5.855  0.2513  0.9045  1.4079
 6560SOL     OW31141   0.586   4.121  10.050  0.5846 -0.1062  0.1536
 6560SOL    HW131142   0.621   4.197  10.095  1.7466  1.5103 -3.4992
 6560SOL    HW231143   0.600   4.151   9.960 -1.5027 -0.7020 -0.3714
 6561SOL     OW31144   4.067   1.512   3.730 -0.4259  0.5261 -0.0298
 6561SOL    HW131145   4.016   1.571   3.785 -0.4252 -0.1003  0.6344
 6561SOL    HW231146   4.160   1.533   3.741 -0.2932 -0.8088  1.2921
 6562SOL     OW31147   0.013   0.624   6.920  0.0137 -0.1734  0.1095
 6562SOL    HW131148   0.022   0.644   7.013 -0.1848 -1.7360  0.4641
 6562SOL    HW231149   0.078   0.680   6.878  0.5850 -0.0038  1.2228
 6563SOL     OW31150   0.334   3.707   6.241 -0.4142  0.3120  0.1797
 6563SOL    HW131151   0.283   3.641   6.195 -0.5066 -0.0923  0.8551
 6563SOL    HW231152   0.420   3.692   6.201 -0.4225  1.5950 -0.3056
 6564SOL     OW31153   1.647   3.593   9.007 -0.3304 -0.2916  0.1177
 6564SOL    HW131154   1.616   3.548   8.928  1.4587 -0.9783 -0.2003
 6564SOL    HW231155   1.586   3.565   9.074  0.3238 -0.9897  0.4237
 6565SOL     OW31156   4.117   2.696   8.321 -0.0155  0.1371  0.3911
 6565SOL    HW131157   4.117   2.607   8.358  1.3670  0.6914  1.7085
 6565SOL    HW231158   4.070   2.740   8.391 -1.1103  0.4564 -0.5473
 6566SOL     OW31159   0.428   3.153   2.837  0.2313  0.7048  0.3996
 6566SOL    HW131160   0.347   3.204   2.838 -0.3698 -0.1942 -1.0598
 6566SOL    HW231161   0.480   3.209   2.894 -0.5850 -1.4289  3.2896
 6567SOL     OW31162   0.842   3.172   3.100  0.2322  0.4328  0.5030
 6567SOL    HW131163   0.765   3.129   3.063  2.3949 -1.7018 -1.5170
 6567SOL    HW231164   0.821   3.168   3.193  0.9041 -2.1815  0.5267
 6568SOL     OW31165   3.950   2.538   8.844 -0.2969 -0.1152  0.4416
 6568SOL    HW131166   4.019   2.587   8.800 -0.6776  1.8970  2.1016
 6568SOL    HW231167   3.895   2.507   8.772  0.5006  0.0084 -0.2255
 6569SOL     OW31168   4.646   2.151  11.068  0.3690  0.2565 -0.0642
 6569SOL    HW131169   4.570   2.097  11.090  2.4709 -2.2624  0.9601
 6569SOL    HW231170   4.706   2.076  11.066  0.7135  0.5111  0.6287
 6570SOL     OW31171   0.316   0.561  15.163 -0.6142 -0.1104 -0.3994
 6570SOL    HW131172   0.222   0.562  15.177 -0.4528 -0.5610  0.7367
 6570SOL    HW231173   0.318   0.553  15.068 -1.1493 -1.9958 -0.2616
 6571SOL     OW31174   2.705   2.172   7.648 -0.1858  0.2762 -0.0113
 6571SOL    HW131175   2.682   2.187   7.739 -1.1592 -0.8977 -0.0610
 6571SOL    HW231176   2.759   2.250   7.632 -1.0047  1.0316  0.9292
 6572SOL     OW31177   2.587   2.974   3.548  0.2036 -0.2297 -0.0597
 6572SOL    HW131178   2.550   3.039   3.487 -0.6972 -0.6307  0.0709
 6572SOL    HW231179   2.677   2.968   3.516  0.6983 -1.7763  1.6695
 6573SOL     OW31180   4.083   1.681   6.223 -0.1880 -0.0533 -0.3776
 6573SOL    HW131181   4.174   1.701   6.202 -0.7647 -0.0183 -2.8201
 6573SOL    HW231182   4.097   1.587   6.216 -0.6219 -0.2007  0.7241
 6574SOL     OW31183   3.665   3.556   2.473 -0.3430  0.1535 -0.1158
 6574SOL    HW131184   3.689   3.584   2.385  0.2480  0.2088  0.0603
 6574SOL    HW231185   3.587   3.503   2.455 -0.5836 -0.4031  2.4923
 6575SOL     OW31186   0.627   1.025   2.991 -0.0723 -0.4118  0.0023
 6575SOL    HW131187   0.617   1.096   3.054 -1.2152  0.2913 -0.9664
 6575SOL    HW231188   0.579   0.956   3.035  2.0205 -1.7216  0.2106
 6576SOL     OW31189   2.273   1.374  13.918  0.4493  0.6548 -0.0696
 6576SOL    HW131190   2.201   1.402  13.975 -1.6871 -0.9593 -1.9686
 6576SOL    HW231191   2.265   1.278  13.916 -1.4961  0.8027  1.3684
 6577SOL     OW31192   2.117   2.753  17.090 -0.4556 -0.3459  0.4433
 6577SOL    HW131193   2.063   2.675  17.099 -1.0283  0.1849  1.5666
 6577SOL    HW231194   2.194   2.723  17.041 -0.0872  0.1724  0.7055
 6578SOL     OW31195   0.411   0.819  14.485 -0.2389 -0.3061  0.2045
 6578SOL    HW131196   0.320   0.791  14.477 -0.5103  0.7095 -0.3598
 6578SOL    HW231197   0.446   0.812  14.396  1.5726 -0.4086  0.9322
 6579SOL     OW31198   2.982   3.973   6.422 -0.4073 -0.0904  0.1593
 6579SOL    HW131199   2.965   3.903   6.359 -0.6629 -1.0654  1.3086
 6579SOL    HW231200   2.931   4.044   6.384 -0.5683  0.9885  2.3843
 6580SOL     OW31201   4.236   3.129   1.407 -0.2422  0.1630  0.0348
 6580SOL    HW131202   4.312   3.149   1.462  0.4445 -1.9392 -0.1492
 6580SOL    HW231203   4.190   3.053   1.444 -1.6046  0.5911 -0.7755
 6581SOL     OW31204   1.942   0.508   7.183 -0.1140  0.1437 -0.6686
 6581SOL    HW131205   1.887   0.507   7.104 -0.8652  0.6471 -0.1469
 6581SOL    HW231206   2.023   0.468   7.150 -0.3044 -1.0283  0.2591
 6582SOL     OW31207   0.278   4.610   8.620  0.1473  0.6529 -0.0886
 6582SOL    HW131208   0.371   4.630   8.618  0.4917 -0.7027  1.6803
 6582SOL    HW231209   0.257   4.606   8.714 -0.8324 -2.2531 -0.4128
 6583SOL     OW31210   1.151   1.170   2.934  0.5951  0.3992  0.1491
 6583SOL    HW131211   1.063   1.172   2.897  0.8955  2.8996 -0.4278
 6583SOL    HW231212   1.195   1.207   2.857  1.1510 -2.2459 -0.8171
 6584SOL     OW31213   3.693   4.565   7.851  0.1524 -0.6405  0.2092
 6584SOL    HW131214   3.780   4.528   7.868  0.4915  0.6152  1.2489
 6584SOL    HW231215   3.634   4.490   7.849  0.2022 -0.6114 -3.2258
 6585SOL     OW31216   2.212   1.624   8.764 -0.0611 -0.2228  0.3147
 6585SOL    HW131217   2.233   1.665   8.680 -0.2870 -0.7220  0.0137
 6585SOL    HW231218   2.116   1.631   8.758 -0.0266 -0.4173 -0.5144
 6586SOL     OW31219   3.457   1.198   8.334  0.0541 -0.4435 -0.0299
 6586SOL    HW131220   3.436   1.235   8.420 -0.0422 -1.7250  0.4964
 6586SOL    HW231221   3.377   1.149   8.313 -0.7441 -0.0392  2.0571
 6587SOL     OW31222   0.757   3.522   2.951 -0.4400  0.4096 -0.3669
 6587SOL    HW131223   0.827   3.532   2.887  0.0431 -1.3991 -0.1137
 6587SOL    HW231224   0.688   3.569   2.902  0.1469  0.3008 -1.3040
 6588SOL     OW31225   1.784   4.293   7.698 -0.1768 -0.3102  0.3191
 6588SOL    HW131226   1.834   4.288   7.617  0.5320 -0.3385  0.7621
 6588SOL    HW231227   1.851   4.281   7.765 -0.7881  0.3794  1.0638
 6589SOL     OW31228   3.342   0.890   2.546 -0.1818 -0.4277  0.0743
 6589SOL    HW131229   3.264   0.835   2.549 -1.1448  1.1299  2.6672
 6589SOL    HW231230   3.324   0.980   2.574  1.6124  0.3520 -1.2156
 6590SOL     OW31231   3.282   2.349  10.500 -0.3780 -0.8455 -0.0549
 6590SOL    HW131232   3.348   2.419  10.507 -1.4663 -0.0452  2.0143
 6590SOL    HW231233   3.335   2.275  10.472 -1.9439 -2.0009  0.0566
 6591SOL     OW31234   0.370   0.410   0.701  0.0646 -0.0371  0.0939
 6591SOL    HW131235   0.425   0.341   0.664 -1.6955 -1.0214 -0.6817
 6591SOL    HW231236   0.283   0.385   0.670  1.4953 -3.2834 -1.2698
 6592SOL     OW31237   3.511   3.221   6.333  0.2005  0.6427 -0.1552
 6592SOL    HW131238   3.445   3.285   6.361  0.1492 -0.3779  2.0233
 6592SOL    HW231239   3.526   3.256   6.245  0.7671  0.7183 -0.0218
 6593SOL     OW31240   1.905   3.546   4.494  0.1571  0.1784  0.4239
 6593SOL    HW131241   1.895   3.635   4.529  0.2828  0.8263 -1.1674
 6593SOL    HW231242   1.899   3.499   4.577  1.6792  0.4865  0.7011
 6594SOL     OW31243   4.693   0.701   2.532 -0.6541 -0.1039  0.5006
 6594SOL    HW131244   0.048   0.649   2.561 -0.9444 -0.1675  1.1473
 6594SOL    HW231245   4.616   0.652   2.561 -1.0371  0.9316  1.2305
 6595SOL     OW31246   0.152   1.918  14.260  0.1987 -0.6504 -0.1214
 6595SOL    HW131247   0.082   1.972  14.296  0.6106  0.0112 -0.3238
 6595SOL    HW231248   0.177   1.872  14.340 -1.1726 -0.6824  0.2919
 6596SOL     OW31249   3.346   4.091  13.676  0.6444  0.2773 -0.2609
 6596SOL    HW131250   3.441   4.095  13.682  0.8777 -1.0431 -3.1438
 6596SOL    HW231251   3.328   3.998  13.689 -2.1786  1.0459  1.2649
 6597SOL     OW31252   3.673   3.727   9.576  0.4326 -0.0160  0.2644
 6597SOL    HW131253   3.623   3.648   9.552  2.8802 -2.3528  2.8272
 6597SOL    HW231254   3.730   3.736   9.500 -1.3724 -1.2739 -1.2467
 6598SOL     OW31255   4.131   1.762   5.713  0.2437  0.2531 -1.2234
 6598SOL    HW131256   4.169   1.829   5.769  0.8068 -0.9923 -0.1280
 6598SOL    HW231257   4.048   1.754   5.760  0.3971  1.3275 -0.7577
 6599SOL     OW31258   2.443   2.570   2.337 -0.2775  0.0160 -0.2378
 6599SOL    HW131259   2.516   2.539   2.390 -0.0252  0.2136 -0.4703
 6599SOL    HW231260   2.364   2.578   2.391  0.3490 -0.8920  0.7990
 6600SOL     OW31261   3.921   4.026   4.265 -0.1961 -0.2963  0.1024
 6600SOL    HW131262   3.843   4.051   4.314 -0.6477 -2.1643  0.3301
 6600SOL    HW231263   3.983   4.094   4.293  0.4279 -0.5272 -0.7148
 6601SOL     OW31264   0.279   1.047   4.720 -0.1412  0.0279  0.6009
 6601SOL    HW131265   0.233   1.010   4.795  1.2663 -1.2186  0.8302
 6601SOL    HW231266   0.207   1.033   4.658  1.5182 -1.7216 -0.8836
 6602SOL     OW31267   0.968   4.387   2.728  0.2813 -0.1757 -0.0693
 6602SOL    HW131268   0.950   4.463   2.672 -3.3249 -0.7957  0.2111
 6602SOL    HW231269   1.045   4.347   2.689 -0.1097  0.1376 -1.1526
 6603SOL     OW31270   2.448   0.003  15.823 -0.4119  0.0214 -0.2435
 6603SOL    HW131271   2.481   0.011  15.913  0.5011  0.3579 -0.6167
 6603SOL    HW231272   2.369   0.055  15.836  0.7692  1.4952  1.0257
 6604SOL     OW31273   2.143   1.963  13.193  0.3500 -0.1054 -0.2401
 6604SOL    HW131274   2.237   1.955  13.210  0.1673 -0.1873  0.7533
 6604SOL    HW231275   2.121   1.883  13.241  3.6513 -1.4092 -0.9492
 6605SOL     OW31276   0.139   3.155   6.861  0.0040  0.0394  0.7927
 6605SOL    HW131277   0.100   3.067   6.861  1.1189 -0.4599 -1.8160
 6605SOL    HW231278   0.207   3.154   6.794  0.1047 -1.0246  0.9060
 6606SOL     OW31279   1.226   0.395   6.407  0.0286  0.2646 -0.1001
 6606SOL    HW131280   1.299   0.435   6.456  1.1224  0.7583 -2.1481
 6606SOL    HW231281   1.193   0.476   6.368 -0.1430 -0.7511 -2.0447
 6607SOL     OW31282   0.984   2.803  15.016  0.3497  0.1187 -0.7484
 6607SOL    HW131283   0.890   2.818  15.025  0.4241  0.5412 -0.6987
 6607SOL    HW231284   1.013   2.848  15.096  1.5353 -0.2224 -0.9742
 6608SOL     OW31285   4.163   2.880   4.235 -0.0755 -0.0577  0.8474
 6608SOL    HW131286   4.097   2.912   4.173  0.2459  1.0596  1.0663
 6608SOL    HW231287   4.135   2.934   4.309 -0.7680  1.9362 -0.8617
 6609SOL     OW31288   0.019   3.226   4.716  0.2816  0.5454 -0.4297
 6609SOL    HW131289   4.713   3.147   4.668 -1.3647 -0.0296  1.4169
 6609SOL    HW231290   4.665   3.280   4.689 -0.7751  0.4488  2.2731
 6610SOL     OW31291   3.962   1.220   0.502  0.0108 -0.1405 -0.2042
 6610SOL    HW131292   4.043   1.191   0.545  0.3868  0.7287 -0.3174
 6610SOL    HW231293   3.891   1.173   0.545  0.1313 -2.2054 -2.2924
 6611SOL     OW31294   1.868   3.066   0.372 -0.4067  0.3224  1.3387
 6611SOL    HW131295   1.902   3.147   0.333 -0.4005 -0.2347  0.2084
 6611SOL    HW231296   1.872   3.011   0.294  1.6863  0.6559  1.2134
 6612SOL     OW31297   2.797   1.009   3.336  0.0353  0.3176 -0.4418
 6612SOL    HW131298   2.762   1.098   3.328  2.8845  1.5371  0.4802
 6612SOL    HW231299   2.776   0.977   3.248  3.3605  2.5459 -2.0699
 6613SOL     OW31300   3.244   0.706  11.006  0.4675 -0.6806 -0.1594
 6613SOL    HW131301   3.248   0.786  11.058  1.5895 -1.3463  0.7892
 6613SOL    HW231302   3.153   0.689  10.982  0.4471 -0.1999 -0.4038
 6614SOL     OW31303   0.918   1.836   7.867  0.1687  0.6809  0.2009
 6614SOL    HW131304   0.988   1.803   7.924  1.6047  0.3656 -1.7585
 6614SOL    HW231305   0.949   1.924   7.847 -0.6435  1.0674  0.6168
 6615SOL     OW31306   2.650   2.884   5.030  0.0273  0.2422 -0.1705
 6615SOL    HW131307   2.634   2.929   4.947 -2.3918  1.4661  0.9683
 6615SOL    HW231308   2.688   2.806   4.989 -1.0046 -0.0409 -0.5846
 6616SOL     OW31309   1.937   3.793   8.567  0.1877 -0.3068  0.1863
 6616SOL    HW131310   1.854   3.797   8.615  0.3620 -0.4490  0.4920
 6616SOL    HW231311   1.910   3.823   8.480 -1.3142 -1.2215  0.3415
 6617SOL     OW31312   2.305   0.136   3.009 -0.1146 -0.1001  0.2198
 6617SOL    HW131313   2.266   0.201   2.950 -1.0416  1.4494  2.5446
 6617SOL    HW231314   2.390   0.181   3.010 -0.4632  0.5657 -0.4454
 6618SOL     OW31315   1.622   1.351  12.698 -0.0417  0.0530 -0.1784
 6618SOL    HW131316   1.643   1.444  12.693 -1.3835  0.3777  0.1516
 6618SOL    HW231317   1.677   1.329  12.774 -0.9537 -2.0631 -0.1125
 6619SOL     OW31318   4.670   4.222   4.535  0.0349 -0.1364 -0.0100
 6619SOL    HW131319   4.712   4.151   4.488 -0.6357 -0.3436 -0.2880
 6619SOL    HW231320   0.030   4.271   4.551 -0.3190  0.2160  0.6905
 6620SOL     OW31321   0.331   4.715   3.362 -0.2808  0.1026 -0.5130
 6620SOL    HW131322   0.392   4.715   3.436 -0.6790  1.6989 -0.1709
 6620SOL    HW231323   0.380   4.656   3.306 -1.4608 -0.8535 -0.5366
 6621SOL     OW31324   0.889   0.455   9.422  0.1409  0.3561 -0.4145
 6621SOL    HW131325   0.976   0.482   9.392  0.8216 -1.9687 -0.5353
 6621SOL    HW231326   0.895   0.495   9.509  1.4478 -2.5644  0.8397
 6622SOL     OW31327   2.928   1.584   5.874 -0.3555 -0.4162  0.2200
 6622SOL    HW131328   2.989   1.652   5.903  0.8080 -1.2857 -0.1721
 6622SOL    HW231329   2.856   1.579   5.937 -0.9286  0.9644 -0.3316
 6623SOL     OW31330   2.646   1.210   3.243 -0.8497  0.3554  0.6502
 6623SOL    HW131331   2.628   1.265   3.166 -1.1343 -1.4004 -0.5381
 6623SOL    HW231332   2.556   1.215   3.276 -0.9322  0.6965  0.3710
 6624SOL     OW31333   0.321   1.915   3.656  0.0485 -0.5312  0.4662
 6624SOL    HW131334   0.280   2.000   3.642 -0.0840 -0.7448 -0.4176
 6624SOL    HW231335   0.392   1.925   3.592 -1.6187 -0.9348 -1.4263
 6625SOL     OW31336   4.095   4.368   6.854  0.1127  0.3370 -0.0486
 6625SOL    HW131337   4.056   4.399   6.772 -0.6523 -0.1385  0.1415
 6625SOL    HW231338   4.082   4.273   6.849  1.6305  0.2771 -2.8831
 6626SOL     OW31339   2.288   3.434   8.913  0.2115  1.3820 -0.3346
 6626SOL    HW131340   2.235   3.388   8.848  1.0804  1.0545 -0.8113
 6626SOL    HW231341   2.353   3.366   8.930  0.0024  1.0130 -1.0205
 6627SOL     OW31342   3.377   0.424   8.156 -0.1114  0.3601  0.0674
 6627SOL    HW131343   3.431   0.414   8.234 -0.2181 -0.9434 -0.0138
 6627SOL    HW231344   3.303   0.460   8.204 -0.3047  0.0893 -0.0266
 6628SOL     OW31345   2.432   1.366   7.372 -0.0984 -0.2226 -0.3392
 6628SOL    HW131346   2.520   1.329   7.378 -0.9413 -2.3718 -0.9653
 6628SOL    HW231347   2.401   1.346   7.460 -0.3702  1.4060 -0.0664
 6629SOL     OW31348   1.805   4.473   0.393 -1.0842 -0.2328  0.1517
 6629SOL    HW131349   1.742   4.502   0.327  0.0898 -1.8565 -1.6957
 6629SOL    HW231350   1.755   4.399   0.428 -0.4520 -0.3085  0.8885
 6630SOL     OW31351   4.324   3.539   2.910  0.3876  0.3303 -0.2848
 6630SOL    HW131352   4.340   3.633   2.900  3.7206 -0.2039  0.2137
 6630SOL    HW231353   4.409   3.507   2.880 -0.4193 -2.2066  0.1243
 6631SOL     OW31354   1.454   0.517   6.544  0.2002  0.0438 -0.3564
 6631SOL    HW131355   1.543   0.541   6.519  0.2143  1.4292  1.0169
 6631SOL    HW231356   1.453   0.568   6.624 -0.9690  1.6316 -1.4033
 6632SOL     OW31357   3.461   2.503   2.025  0.0624 -0.2508 -0.0368
 6632SOL    HW131358   3.381   2.489   2.077  0.8138 -0.3463  1.0897
 6632SOL    HW231359   3.523   2.449   2.073 -0.6452  1.5164  2.8708
 6633SOL     OW31360   1.791   4.005   4.021  0.5061 -0.1656 -0.4546
 6633SOL    HW131361   1.714   4.044   3.979 -0.1826 -1.4616 -0.3745
 6633SOL    HW231362   1.865   4.052   3.983 -1.0227  1.8157 -0.9756
 6634SOL     OW31363   0.540   2.646   0.775  0.1892  0.6323 -0.2775
 6634SOL    HW131364   0.480   2.666   0.847  0.9048 -2.5489  1.1985
 6634SOL    HW231365   0.558   2.737   0.751  0.8146  0.9671  1.5179
 6635SOL     OW31366   3.837   3.005   1.678  0.0171  0.2078 -0.6153
 6635SOL    HW131367   3.805   3.095   1.684  3.6831  1.3969  1.2939
 6635SOL    HW231368   3.882   3.017   1.594  0.5803 -2.8844 -0.7347
 6636SOL     OW31369   3.527   0.225   6.668  0.1991 -0.5175 -0.5202
 6636SOL    HW131370   3.447   0.268   6.699 -0.5416 -0.7946 -2.0005
 6636SOL    HW231371   3.491   0.139   6.646 -0.7330 -0.0525 -0.8407
 6637SOL     OW31372   1.521   0.890   6.786  0.3938  0.5147 -0.2733
 6637SOL    HW131373   1.452   0.955   6.782 -1.6018 -1.4810  1.7941
 6637SOL    HW231374   1.598   0.944   6.768 -0.4716  1.5403 -0.8650
 6638SOL     OW31375   0.355   3.970  10.153  0.7863 -0.1477 -0.4115
 6638SOL    HW131376   0.372   3.877  10.164 -0.2336 -0.2774  0.0661
 6638SOL    HW231377   0.443   4.005  10.138  0.6079 -0.3206 -1.9211
 6639SOL     OW31378   3.175   2.551   8.517 -0.1691 -0.0860 -0.1574
 6639SOL    HW131379   3.149   2.642   8.505  0.5453  0.0869 -0.4051
 6639SOL    HW231380   3.195   2.547   8.610 -0.2642 -0.1822 -0.1410
 6640SOL     OW31381   3.278   0.047   1.489  0.3057  0.0957 -0.7127
 6640SOL    HW131382   3.354   0.012   1.442 -0.4414 -1.2323 -0.9201
 6640SOL    HW231383   3.209   4.714   1.451 -1.2329 -0.2356  2.5894
 6641SOL     OW31384   2.172   4.405   6.844  0.0663  0.0848  0.4761
 6641SOL    HW131385   2.098   4.455   6.877  1.0118  1.1841  0.9186
 6641SOL    HW231386   2.164   4.317   6.882 -1.1470 -0.3896 -0.8954
 6642SOL     OW31387   3.693   0.541   7.954 -1.0448 -0.2267 -0.3219
 6642SOL    HW131388   3.690   0.550   8.049  1.5235 -1.1079 -0.1535
 6642SOL    HW231389   3.699   0.446   7.948 -0.4353 -0.3585  2.3862
 6643SOL     OW31390   0.002   1.245  13.334  0.0197 -0.1556  0.4011
 6643SOL    HW131391   4.709   1.261  13.241  1.3164 -1.2908  0.0191
 6643SOL    HW231392   0.082   1.297  13.336 -1.1497  1.6442  0.0165
 6644SOL     OW31393   2.164   2.932   7.059  0.5727  0.2967 -0.1509
 6644SOL    HW131394   2.109   2.897   7.129 -0.5843  1.3400 -0.5270
 6644SOL    HW231395   2.247   2.887   7.070  0.5760 -0.3667 -2.7546
 6645SOL     OW31396   1.209   4.185   1.012 -0.0159 -0.0409 -0.2177
 6645SOL    HW131397   1.139   4.161   1.073 -0.2748 -0.8167 -0.8083
 6645SOL    HW231398   1.231   4.269   1.051 -0.5421 -0.7095  1.5498
 6646SOL     OW31399   0.300   2.521  14.446  0.1024 -0.5923 -0.3404
 6646SOL    HW131400   0.353   2.462  14.500  0.0651  1.5932  2.0804
 6646SOL    HW231401   0.352   2.536  14.367  0.3573 -0.0502 -0.0683
 6647SOL     OW31402   0.348   2.653   2.438  0.0272  0.3360  0.7603
 6647SOL    HW131403   0.312   2.587   2.379  0.5243  0.0227  0.8054
 6647SOL    HW231404   0.431   2.609   2.458 -0.5226 -1.0916 -0.0988
 6648SOL     OW31405   4.449   4.509   1.370 -0.1028 -0.1831  0.2395
 6648SOL    HW131406   4.424   4.417   1.378 -2.5737  0.6432  1.8457
 6648SOL    HW231407   4.545   4.510   1.377 -0.0606 -0.5243 -0.3032
 6649SOL     OW31408   2.126   1.950   7.655 -0.0866  0.3080 -0.1671
 6649SOL    HW131409   2.044   1.989   7.684  0.2560  1.2762 -0.4733
 6649SOL    HW231410   2.161   1.899   7.727  2.4926  1.3087 -0.6893
 6650SOL     OW31411   0.296   0.332   7.165 -0.0769  0.2498  0.1324
 6650SOL    HW131412   0.358   0.279   7.216  2.2343 -0.1857 -3.1465
 6650SOL    HW231413   0.284   0.276   7.088  0.1815  2.8808 -1.8101
 6651SOL     OW31414   1.762   2.704   2.771 -0.5179  0.3794 -0.2592
 6651SOL    HW131415   1.769   2.795   2.742 -1.4340  0.1244 -1.2640
 6651SOL    HW231416   1.668   2.685   2.771 -0.6122  0.8358 -0.2617
 6652SOL     OW31417   4.402   1.606  12.147  0.1593 -0.8353 -0.4517
 6652SOL    HW131418   4.429   1.637  12.060 -1.1878  0.3234 -0.4630
 6652SOL    HW231419   4.393   1.512  12.131  4.2994 -1.5047  1.3438
 6653SOL     OW31420   3.655   4.520  11.362 -0.2590 -0.1088  0.3214
 6653SOL    HW131421   3.722   4.533  11.429  0.2494  0.3293 -0.2727
 6653SOL    HW231422   3.596   4.466  11.414  0.3761 -0.3014  0.8444
 6654SOL     OW31423   4.485   1.561  10.068 -0.4511 -0.3069 -0.1138
 6654SOL    HW131424   4.503   1.578   9.975  2.1750 -1.8348  0.0918
 6654SOL    HW231425   4.568   1.579  10.112  0.9691 -1.1837 -2.4218
 6655SOL     OW31426   4.161   0.866   7.135 -0.1564 -0.4959 -0.2905
 6655SOL    HW131427   4.148   0.875   7.229  0.6912  0.5254 -0.2752
 6655SOL    HW231428   4.237   0.923   7.127 -0.5007 -0.5025 -3.6790
 6656SOL     OW31429   2.311   1.170  11.523  0.0261 -0.5660  0.4881
 6656SOL    HW131430   2.393   1.216  11.506 -0.2119 -0.6252 -0.8987
 6656SOL    HW231431   2.271   1.146  11.439 -0.8360 -0.3809  0.8514
 6657SOL     OW31432   1.500   0.377   0.813 -0.5799  0.1755 -0.8474
 6657SOL    HW131433   1.427   0.316   0.818  0.6324 -1.1142  1.0404
 6657SOL    HW231434   1.462   0.457   0.776 -1.6367 -0.0179 -0.1766
 6658SOL     OW31435   0.368   3.059   8.435 -0.1035  0.1931 -0.0617
 6658SOL    HW131436   0.386   2.999   8.363  0.0237  2.4742 -1.9113
 6658SOL    HW231437   0.277   3.077   8.411  0.5697  1.0049 -2.0392
 6659SOL     OW31438   1.987   1.397  11.101 -0.3950  0.1069  0.2543
 6659SOL    HW131439   2.038   1.450  11.040  0.6024 -0.6964  0.3931
 6659SOL    HW231440   1.909   1.451  11.111  0.1358  1.0087 -0.4135
 6660SOL     OW31441   0.818   0.220  10.894 -0.5531  0.0382 -0.1412
 6660SOL    HW131442   0.820   0.136  10.938  0.2739 -0.5125 -1.2314
 6660SOL    HW231443   0.907   0.219  10.860 -0.4691  0.6226  0.0640
 6661SOL     OW31444   2.533   4.437   5.990  0.3642  0.2670 -0.0614
 6661SOL    HW131445   2.438   4.449   5.990  0.3243 -0.0273  0.1500
 6661SOL    HW231446   2.545   4.345   6.017 -0.2190 -0.4271 -2.2138
 6662SOL     OW31447   4.048   3.828   6.977 -0.4750 -0.3722  0.1710
 6662SOL    HW131448   4.120   3.808   7.037 -0.4781  0.8586  0.5859
 6662SOL    HW231449   4.074   3.787   6.894  1.0958  0.3565  0.3052
 6663SOL     OW31450   1.715   3.830   3.652  0.1950  0.7467  0.1653
 6663SOL    HW131451   1.665   3.882   3.715 -1.3363  0.1160 -0.5486
 6663SOL    HW231452   1.706   3.741   3.687  1.0747  0.7685  0.4613
 6664SOL     OW31453   2.166   2.109   9.198  0.4276 -0.1651  0.4159
 6664SOL    HW131454   2.179   2.044   9.266  1.2572 -0.8906 -0.4408
 6664SOL    HW231455   2.073   2.128   9.207  1.2481  3.2769  1.7759
 6665SOL     OW31456   4.101   2.487   9.803  0.2170  0.5623 -0.1521
 6665SOL    HW131457   4.020   2.436   9.808  2.2899 -2.7862 -0.6889
 6665SOL    HW231458   4.170   2.422   9.791  1.6471  2.1542 -0.5247
 6666SOL     OW31459   2.605   2.464   9.381  0.5105 -0.3811  0.2320
 6666SOL    HW131460   2.536   2.530   9.372  0.3932 -0.3018  1.6972
 6666SOL    HW231461   2.565   2.406   9.446  1.1662  0.4375  1.3751
 6667SOL     OW31462   4.481   3.236   0.824  0.0298 -0.2054  0.3511
 6667SOL    HW131463   4.458   3.328   0.834 -1.0363 -0.3654 -0.5794
 6667SOL    HW231464   4.479   3.234   0.728  0.8845  2.4457  0.2785
 6668SOL     OW31465   2.703   1.512   6.308 -0.2722 -0.2139  0.0439
 6668SOL    HW131466   2.797   1.522   6.322 -0.4314  0.8310  0.3798
 6668SOL    HW231467   2.680   1.427   6.346 -0.5429  0.6697  1.8959
 6669SOL     OW31468   3.175   4.166  12.691  0.4115  0.0392 -0.5934
 6669SOL    HW131469   3.094   4.116  12.700  2.1121 -2.5679  0.3550
 6669SOL    HW231470   3.231   4.088  12.695  2.7297  1.5963 -2.8221
 6670SOL     OW31471   2.466   1.445  15.174  0.0051  0.7980 -0.8253
 6670SOL    HW131472   2.471   1.478  15.084  1.5472 -2.3645 -1.9169
 6670SOL    HW231473   2.501   1.519  15.225  2.0578  0.3419 -1.5654
 6671SOL     OW31474   2.933   0.402   7.095  0.6502 -0.4331 -0.0279
 6671SOL    HW131475   2.871   0.458   7.143 -1.1441 -0.2581 -2.5179
 6671SOL    HW231476   3.007   0.462   7.087  0.2708 -0.4230 -3.7706
 6672SOL     OW31477   0.237   3.770   9.145  0.1044 -0.4123 -0.0082
 6672SOL    HW131478   0.215   3.843   9.086 -0.3915 -2.7814 -2.7719
 6672SOL    HW231479   0.178   3.701   9.115  3.7966 -3.7912  0.5409
 6673SOL     OW31480   2.724   3.131   2.314 -0.2420 -0.2904  0.2699
 6673SOL    HW131481   2.751   3.050   2.357  2.3556 -0.2854 -1.3228
 6673SOL    HW231482   2.641   3.141   2.360 -1.1742 -0.5726 -1.3746
 6674SOL     OW31483   2.508   3.599   0.527  0.9459 -0.1999  0.4504
 6674SOL    HW131484   2.556   3.657   0.586 -1.2519  2.9507 -0.8180
 6674SOL    HW231485   2.533   3.510   0.550  0.3392 -1.3986 -3.5364
 6675SOL     OW31486   0.744   2.211   4.608 -0.6904 -0.4971  0.0753
 6675SOL    HW131487   0.651   2.214   4.585 -0.8195  0.6167  0.6886
 6675SOL    HW231488   0.773   2.158   4.534 -3.0121 -1.2665 -0.2921
 6676SOL     OW31489   1.069   3.217  17.332 -0.3749 -0.0885 -0.1452
 6676SOL    HW131490   1.065   3.299  17.282  2.1664  0.9340  1.3801
 6676SOL    HW231491   1.083   3.161  17.256 -2.9355 -0.8532 -0.0777
 6677SOL     OW31492   4.347   1.315   4.722  0.0252 -0.4188 -0.1122
 6677SOL    HW131493   4.435   1.351   4.710 -1.0120  1.9468 -0.5946
 6677SOL    HW231494   4.335   1.359   4.806 -1.2574 -1.6800  0.3745
 6678SOL     OW31495   4.040   4.090   6.852  0.2539  0.3323 -0.2969
 6678SOL    HW131496   3.958   4.058   6.815 -0.4890  0.6140  1.0873
 6678SOL    HW231497   4.070   4.006   6.886 -1.1549 -0.1003 -0.1082
 6679SOL     OW31498   1.600   2.223   7.653 -0.1168 -0.3479 -0.0453
 6679SOL    HW131499   1.611   2.167   7.730  0.3847  1.7099  1.4151
 6679SOL    HW231500   1.554   2.298   7.693 -1.5731  0.2036 -2.7970
 6680SOL     OW31501   4.245   4.682   5.116  0.4863  0.2534  0.3569
 6680SOL    HW131502   4.241   4.679   5.211  0.1131 -0.8631  0.3029
 6680SOL    HW231503   4.190   0.037   5.094 -1.5556 -0.7364  2.0470
 6681SOL     OW31504   1.699   4.701   6.198  1.1142 -0.0653 -0.1439
 6681SOL    HW131505   1.647   4.674   6.274  1.5385 -3.8922 -1.1713
 6681SOL    HW231506   1.695   4.621   6.144  1.9309 -0.1497 -0.0794
 6682SOL     OW31507   1.921   1.418   0.718  0.2890  0.1409 -0.2728
 6682SOL    HW131508   1.982   1.425   0.645  0.2845 -2.6446 -0.5407
 6682SOL    HW231509   1.963   1.475   0.782 -1.0746 -0.0149  0.7610
 6683SOL     OW31510   4.188   1.387   6.192 -0.7297 -0.0210  0.0139
 6683SOL    HW131511   4.171   1.388   6.097 -0.1780 -0.1427 -0.0877
 6683SOL    HW231512   4.175   1.295   6.217  0.2713 -0.7663 -2.1656
 6684SOL     OW31513   3.441   3.080   7.184  0.3348 -0.0788 -0.0129
 6684SOL    HW131514   3.518   3.080   7.242  0.4162 -0.1673 -0.1213
 6684SOL    HW231515   3.369   3.083   7.247  0.2027 -0.8813 -0.1333
 6685SOL     OW31516   1.304   1.783   7.392 -0.1844 -0.0583  0.4260
 6685SOL    HW131517   1.262   1.863   7.358  1.4104 -0.1859 -1.7886
 6685SOL    HW231518   1.395   1.810   7.382 -0.2745 -0.9826 -2.8976
 6686SOL     OW31519   4.332   2.681   7.999 -0.1730 -0.0302  0.0613
 6686SOL    HW131520   4.263   2.734   8.040 -1.6914  0.3251 -2.9808
 6686SOL    HW231521   4.305   2.683   7.907 -0.7699  2.4057  0.2709
 6687SOL     OW31522   2.877   3.714  15.814  0.4158  0.4049 -0.4685
 6687SOL    HW131523   2.931   3.783  15.775  2.1170 -0.1721  0.8961
 6687SOL    HW231524   2.797   3.766  15.828 -1.0890 -2.4285  1.5672
 6688SOL     OW31525   4.100   3.225   3.647 -0.0465  0.4195  0.1369
 6688SOL    HW131526   4.191   3.255   3.657 -1.1750  3.5700  0.9781
 6688SOL    HW231527   4.081   3.227   3.554  1.1573 -1.0068 -0.1251
 6689SOL     OW31528   4.388   1.748   4.883 -0.0970 -0.4260  0.4656
 6689SOL    HW131529   4.322   1.763   4.951 -0.6470 -1.9047  0.2444
 6689SOL    HW231530   4.374   1.830   4.835 -1.3665 -0.7662  0.2671
 6690SOL     OW31531   2.141   4.364  12.943  0.0028  0.2865 -0.2716
 6690SOL    HW131532   2.183   4.348  12.858  1.3615  0.7695  0.3064
 6690SOL    HW231533   2.059   4.399  12.908 -0.5709  1.0518  1.8734
 6691SOL     OW31534   3.013   3.090  15.911  0.1531 -0.9998 -0.1530
 6691SOL    HW131535   2.974   3.147  15.845  1.8083  0.6637  0.3351
 6691SOL    HW231536   3.013   3.144  15.989  2.5132 -0.6650 -0.3853
 6692SOL     OW31537   2.777   1.846   7.956  0.4839 -0.5989  0.4560
 6692SOL    HW131538   2.812   1.817   7.872 -0.0205 -1.8837  0.6783
 6692SOL    HW231539   2.851   1.892   7.996  1.6323 -1.4048 -0.7232
 6693SOL     OW31540   0.885   3.170   9.254 -0.0574  0.0297  0.1372
 6693SOL    HW131541   0.853   3.184   9.343  3.6158  1.2110  1.2546
 6693SOL    HW231542   0.941   3.093   9.264  0.6410  0.7404  1.7046
 6694SOL     OW31543   1.219   0.941   8.331 -0.2449 -0.5579 -0.0619
 6694SOL    HW131544   1.148   1.004   8.344  0.2543 -0.0577  0.2509
 6694SOL    HW231545   1.213   0.927   8.237  0.9713 -0.1153 -0.2075
 6695SOL     OW31546   1.526   1.810   3.855  0.1172 -0.8580  0.3768
 6695SOL    HW131547   1.501   1.788   3.945  0.6684 -1.3544  0.4104
 6695SOL    HW231548   1.620   1.826   3.868 -0.1891  0.3295  1.1607
 6696SOL     OW31549   1.552   4.466  14.836 -0.2577  0.3680 -0.1068
 6696SOL    HW131550   1.559   4.410  14.914 -1.5282  1.1862  0.5895
 6696SOL    HW231551   1.602   4.545  14.859  1.4502  0.0964 -2.9622
 6697SOL     OW31552   3.875   2.146   7.904  0.7581  0.5008 -0.0594
 6697SOL    HW131553   3.817   2.069   7.902  0.6365  0.5870  0.1156
 6697SOL    HW231554   3.807   2.206   7.873 -0.4767 -1.5853 -1.4386
 6698SOL     OW31555   0.538   3.538   5.310 -0.3207  0.3887  0.5136
 6698SOL    HW131556   0.450   3.573   5.327 -0.0023  1.4721 -0.0460
 6698SOL    HW231557   0.586   3.620   5.314  0.0545  0.1821  0.2629
 6699SOL     OW31558   3.244   0.253   6.425  0.0978  0.2006 -0.2476
 6699SOL    HW131559   3.189   0.190   6.470  1.5169  0.5260  1.9146
 6699SOL    HW231560   3.305   0.200   6.374 -1.7822 -0.5477 -1.7129
 6700SOL     OW31561   0.805   3.994   3.932 -0.0076  0.2665  0.0760
 6700SOL    HW131562   0.852   4.076   3.926  1.2157 -0.4666 -0.4407
 6700SOL    HW231563   0.848   3.946   3.860  1.0015  1.0376  0.1700
 6701SOL     OW31564   2.053   2.075   5.179 -0.3685  0.1869  0.6433
 6701SOL    HW131565   2.036   2.070   5.085 -1.8799  0.4241  0.9019
 6701SOL    HW231566   2.002   2.152   5.204  0.8839  1.3953 -0.5291
 6702SOL     OW31567   3.464   1.768   2.461  0.5302 -0.1709 -0.4418
 6702SOL    HW131568   3.512   1.844   2.429 -1.1615  0.3103 -1.8464
 6702SOL    HW231569   3.535   1.717   2.501 -0.3775 -1.7791 -0.8781
 6703SOL     OW31570   3.790   3.978   6.808  0.0224 -0.0873  0.5633
 6703SOL    HW131571   3.752   4.032   6.877 -0.2849 -0.2886  0.5551
 6703SOL    HW231572   3.714   3.974   6.749  0.8511  0.1286 -0.5117
 6704SOL     OW31573   0.979   3.328   5.104  0.2685  0.2866 -0.0860
 6704SOL    HW131574   0.938   3.380   5.035  0.7268  0.5444 -0.1588
 6704SOL    HW231575   1.053   3.293   5.055 -0.9692 -0.8624 -1.1588
 6705SOL     OW31576   2.009   3.675  15.616  0.3478 -0.1430 -0.5162
 6705SOL    HW131577   1.926   3.722  15.617  0.0408 -0.6611 -1.3837
 6705SOL    HW231578   2.065   3.752  15.606  0.7589 -0.3820 -0.0806
 6706SOL     OW31579   0.069   2.501  15.873  0.4038  0.0828  0.6000
 6706SOL    HW131580   0.042   2.569  15.811 -1.0471  2.0914  3.4217
 6706SOL    HW231581   0.132   2.546  15.929 -0.2665 -0.4798  1.8027
 6707SOL     OW31582   1.700   4.199   2.304 -0.4506 -0.1235  0.5474
 6707SOL    HW131583   1.718   4.242   2.387 -1.3546 -1.3457  1.3727
 6707SOL    HW231584   1.770   4.219   2.241 -0.3025  0.8745  1.0335
 6708SOL     OW31585   2.472   4.408  11.878 -0.0033  0.1431 -0.3948
 6708SOL    HW131586   2.477   4.329  11.825  0.7404 -1.6151  2.3060
 6708SOL    HW231587   2.448   4.479  11.818 -0.2404  1.0368  0.7502
 6709SOL     OW31588   1.412   2.850   1.939  0.6469  0.3605  0.2980
 6709SOL    HW131589   1.447   2.766   1.966 -0.1484 -0.1256 -0.1760
 6709SOL    HW231590   1.327   2.830   1.900  1.2371 -0.4789 -0.5725
 6710SOL     OW31591   2.132   3.772   1.857  0.5817  0.4771 -0.2867
 6710SOL    HW131592   2.186   3.851   1.845 -1.0699  1.1670 -3.1695
 6710SOL    HW231593   2.191   3.703   1.828  1.2944  1.8739 -2.1690
 6711SOL     OW31594   3.764   3.010   3.575  0.1438  0.4896  0.2295
 6711SOL    HW131595   3.852   2.974   3.562  1.0675  2.3882  1.1117
 6711SOL    HW231596   3.779   3.062   3.654 -0.8514  0.6467  0.3075
 6712SOL     OW31597   1.732   1.761   3.465  0.0088  0.6958  0.5162
 6712SOL    HW131598   1.655   1.773   3.521 -1.0268  1.9333 -1.1839
 6712SOL    HW231599   1.683   1.714   3.398  1.1902  0.8721 -0.4573
 6713SOL     OW31600   2.469   0.871   6.767 -0.7543 -0.4685  0.3388
 6713SOL    HW131601   2.460   0.798   6.829  0.6827 -1.9664 -1.2270
 6713SOL    HW231602   2.399   0.845   6.707 -0.0960  1.7287 -1.3835
 6714SOL     OW31603   1.892   1.014   1.680 -0.3253  0.1734 -1.0019
 6714SOL    HW131604   1.857   1.031   1.768 -1.4839 -0.7889 -1.2875
 6714SOL    HW231605   1.978   0.978   1.701  0.1549  0.3333 -2.7319
 6715SOL     OW31606   0.460   2.951   8.749 -0.1714 -0.1394 -0.7409
 6715SOL    HW131607   0.539   2.898   8.759 -0.1868 -0.0305  0.0114
 6715SOL    HW231608   0.504   3.029   8.716 -0.4675  0.8530  1.1763
 6716SOL     OW31609   3.006   0.143  13.152  0.1666 -0.1036  0.3251
 6716SOL    HW131610   3.081   0.142  13.211 -2.7711 -1.6213  4.0130
 6716SOL    HW231611   3.051   0.132  13.069  0.6778 -1.3494  0.7767
 6717SOL     OW31612   3.818   1.625   4.276  0.3061  0.1712 -0.1980
 6717SOL    HW131613   3.753   1.566   4.237  1.2126 -1.1905  0.3363
 6717SOL    HW231614   3.787   1.635   4.366  0.2170  0.2865 -0.2413
 6718SOL     OW31615   4.523   0.782   0.895  0.1155  0.1519 -0.4217
 6718SOL    HW131616   4.618   0.783   0.900  0.0512 -1.7067  1.3033
 6718SOL    HW231617   4.482   0.856   0.940  0.2466  0.7759 -1.3172
 6719SOL     OW31618   4.547   0.062   5.347  0.3058 -0.3204 -0.1713
 6719SOL    HW131619   4.483   4.712   5.338  0.5183 -0.7564  1.7976
 6719SOL    HW231620   4.507   0.140   5.385  0.2679 -0.7351  0.6466
 6720SOL     OW31621   4.271   0.426  17.641  0.0769  0.1754  0.3313
 6720SOL    HW131622   4.352   0.379  17.659  0.8270  0.7581 -1.5054
 6720SOL    HW231623   4.297   0.498  17.583 -1.6253 -0.7989 -1.6079
 6721SOL     OW31624   0.784   3.061  11.624  0.2851  0.6832  0.2878
 6721SOL    HW131625   0.831   3.092  11.547  0.6595  1.0447  0.6628
 6721SOL    HW231626   0.702   3.029  11.587  0.6644 -0.0684  0.0953
 6722SOL     OW31627   1.244   1.198   4.708 -0.2900  0.1754 -0.0069
 6722SOL    HW131628   1.164   1.215   4.658 -0.6543 -0.5007  0.3503
 6722SOL    HW231629   1.271   1.275   4.758 -0.0842 -0.4930  0.9153
 6723SOL     OW31630   2.798   1.122   4.735 -0.1438 -0.4828  0.3180
 6723SOL    HW131631   2.771   1.210   4.762  1.1800 -0.1746  0.6082
 6723SOL    HW231632   2.726   1.104   4.674  0.0769 -0.8886  0.1774
 6724SOL     OW31633   0.980   1.089   1.531 -1.0283  0.2261  0.0795
 6724SOL    HW131634   0.894   1.065   1.497 -1.0885 -1.9286  1.7929
 6724SOL    HW231635   1.010   1.004   1.563  2.4674  0.9724 -1.1558
 6725SOL     OW31636   3.427   0.047  12.991 -0.2080  0.1454  0.2966
 6725SOL    HW131637   3.435   4.693  13.050 -0.7385 -1.5322 -1.7428
 6725SOL    HW231638   3.516   0.049  12.954  0.6680  1.1369  2.4743
 6726SOL     OW31639   0.102   0.470  10.480  0.3519 -0.0534  0.2125
 6726SOL    HW131640   0.109   0.470  10.384  1.3663  0.3135  0.2838
 6726SOL    HW231641   0.096   0.563  10.502 -2.3314 -0.8063  2.5252
 6727SOL     OW31642   4.002   2.123  14.119  0.0976  0.2159  0.0072
 6727SOL    HW131643   4.070   2.134  14.186  0.3380 -3.4775  0.3891
 6727SOL    HW231644   3.931   2.080  14.168  1.1866 -0.4342  1.0144
 6728SOL     OW31645   4.172   1.140   9.776  0.5394  0.0408 -1.1191
 6728SOL    HW131646   4.128   1.066   9.818 -0.8622  1.2902 -0.3872
 6728SOL    HW231647   4.156   1.204   9.845 -3.1688 -1.9609 -0.1390
 6729SOL     OW31648   2.497   1.133   5.749  0.1837 -0.1155 -0.1200
 6729SOL    HW131649   2.434   1.133   5.820  2.1233 -1.9432  1.5905
 6729SOL    HW231650   2.561   1.070   5.783 -0.5073 -0.9465 -0.3610
 6730SOL     OW31651   3.002   2.991   5.096 -0.3174  0.4696  0.0098
 6730SOL    HW131652   3.084   2.944   5.115  0.7393  2.3350  0.0434
 6730SOL    HW231653   2.948   2.977   5.174  2.2491 -2.3856  1.2678
 6731SOL     OW31654   1.825   0.887   2.850 -0.1171  0.1539 -0.2779
 6731SOL    HW131655   1.757   0.833   2.810  0.3226 -0.4853 -0.1596
 6731SOL    HW231656   1.896   0.824   2.835 -3.6629 -3.7626 -0.5154
 6732SOL     OW31657   1.115   0.365   8.168  0.0413 -0.3647 -0.3224
 6732SOL    HW131658   1.119   0.456   8.198 -0.4652 -1.6434  3.5329
 6732SOL    HW231659   1.028   0.336   8.196  0.4503 -0.6935  0.5754
 6733SOL     OW31660   1.552   4.082   1.157 -0.2180  0.7870 -0.5960
 6733SOL    HW131661   1.507   4.160   1.125  0.1581  0.4976 -1.8267
 6733SOL    HW231662   1.623   4.117   1.212 -0.7100 -0.6398  0.9556
 6734SOL     OW31663   1.099   1.471  13.368  0.6723 -0.0017 -0.4699
 6734SOL    HW131664   1.051   1.389  13.360 -2.8034  1.8610  1.3501
 6734SOL    HW231665   1.031   1.513  13.420  3.6459  1.5203  2.1895
 6735SOL     OW31666   0.839   3.700   4.334 -0.4956 -0.1488  0.4276
 6735SOL    HW131667   0.882   3.779   4.365 -1.4261  0.0118  1.3272
 6735SOL    HW231668   0.803   3.683   4.421  1.7993 -0.7948  1.2310
 6736SOL     OW31669   4.339   4.485  12.601 -0.1692 -0.0091 -0.3282
 6736SOL    HW131670   4.398   4.508  12.673 -1.5064  0.8529  0.4858
 6736SOL    HW231671   4.318   4.569  12.560  1.2160 -0.1626 -1.3395
 6737SOL     OW31672   3.626   4.384   5.963  0.6665 -0.1707 -0.0508
 6737SOL    HW131673   3.675   4.411   5.885  0.6499  1.2319  0.4318
 6737SOL    HW231674   3.687   4.317   5.994 -1.2222 -1.5651  0.5927
 6738SOL     OW31675   1.015   2.338   2.705 -0.3156  0.0885 -0.0483
 6738SOL    HW131676   0.972   2.277   2.646  2.0210 -2.9443  1.3921
 6738SOL    HW231677   1.068   2.382   2.638  0.5618  0.3120  0.7793
 6739SOL     OW31678   3.676   1.507   1.646 -0.3417 -0.0772  0.0541
 6739SOL    HW131679   3.595   1.456   1.654 -2.0884  2.6137 -0.4622
 6739SOL    HW231680   3.694   1.536   1.736 -0.4248  2.1087 -0.6520
 6740SOL     OW31681   0.120   0.786  14.923 -0.0587 -0.0802 -0.0307
 6740SOL    HW131682   0.207   0.747  14.913  0.6737  1.6463 -0.3507
 6740SOL    HW231683   0.106   0.835  14.842  0.0005 -1.3830 -0.8194
 6741SOL     OW31684   3.422   1.439   3.706  0.1943 -0.7976 -0.3570
 6741SOL    HW131685   3.366   1.388   3.647 -0.8716 -0.5809  0.4621
 6741SOL    HW231686   3.504   1.450   3.658  0.7387  2.1390  1.2304
 6742SOL     OW31687   1.268   0.650   8.982 -0.2782 -0.1653  0.0491
 6742SOL    HW131688   1.186   0.605   9.002 -2.1657  2.7088 -1.1778
 6742SOL    HW231689   1.257   0.667   8.889  1.6078 -0.5102 -0.2396
 6743SOL     OW31690   0.236   1.502   6.466 -0.2527  0.1517 -0.4952
 6743SOL    HW131691   0.290   1.564   6.417 -0.3113  0.6181  0.0305
 6743SOL    HW231692   0.212   1.442   6.396  1.0010 -0.2416 -0.5942
 6744SOL     OW31693   2.107   3.846   7.281  0.9091  0.4974 -0.3059
 6744SOL    HW131694   2.151   3.792   7.346 -0.4926  0.4660  0.6225
 6744SOL    HW231695   2.167   3.838   7.206  2.0030 -0.7586  0.7078
 6745SOL     OW31696   0.731   3.605   8.060 -0.0775  0.1735 -0.4225
 6745SOL    HW131697   0.646   3.627   8.099  0.1264  0.3916 -0.0995
 6745SOL    HW231698   0.787   3.680   8.081 -0.4325  0.6669 -1.2135
 6746SOL     OW31699   2.991   0.244   4.142  0.0876 -0.1349  0.1091
 6746SOL    HW131700   3.001   0.193   4.222  0.2322  2.3120  1.6611
 6746SOL    HW231701   2.898   0.268   4.146 -0.0262 -0.6722  0.7495
 6747SOL     OW31702   2.727   3.580   4.584  0.0036 -0.1635  0.1205
 6747SOL    HW131703   2.651   3.545   4.628  1.1233 -0.7811  1.5439
 6747SOL    HW231704   2.693   3.583   4.494 -0.0284 -0.6516  0.1215
 6748SOL     OW31705   1.082   1.579   6.415 -0.5771 -0.1980 -0.0997
 6748SOL    HW131706   1.083   1.670   6.388  0.6805 -0.9927 -2.7581
 6748SOL    HW231707   1.111   1.586   6.506 -0.7830 -1.0107  0.0374
 6749SOL     OW31708   0.528   0.585   9.161 -0.1738  0.1970  0.0049
 6749SOL    HW131709   0.481   0.533   9.096  2.7536 -0.4534 -1.6281
 6749SOL    HW231710   0.588   0.640   9.109  1.4006 -0.1693  1.4332
 6750SOL     OW31711   2.290   0.024   0.981 -0.3143  0.0202 -0.0003
 6750SOL    HW131712   2.258   0.110   1.007  0.2087  0.1053  0.3532
 6750SOL    HW231713   2.227   4.702   1.039  0.6899 -0.8212  0.4693
 6751SOL     OW31714   1.428   3.396   3.925  1.1704  0.2555  0.3879
 6751SOL    HW131715   1.458   3.391   4.016 -0.5361  0.5868  0.9824
 6751SOL    HW231716   1.471   3.319   3.889  0.3180 -0.2847  0.5182
 6752SOL     OW31717   2.660   4.415  17.098 -0.4011  0.2534  0.4722
 6752SOL    HW131718   2.674   4.325  17.068 -1.0165 -0.2273  1.6467
 6752SOL    HW231719   2.728   4.468  17.057 -0.8455  0.7182  0.3399
 6753SOL     OW31720   3.345   1.720   7.082  0.2978 -0.5604 -0.3345
 6753SOL    HW131721   3.323   1.812   7.094 -0.2921 -0.5089 -1.7579
 6753SOL    HW231722   3.272   1.671   7.120  2.5519 -3.7515 -0.0711
 6754SOL     OW31723   1.312   2.563   9.032  0.2760 -0.0330  0.5261
 6754SOL    HW131724   1.256   2.486   9.029  1.4299 -0.9069  1.4465
 6754SOL    HW231725   1.358   2.539   9.113  1.0572 -0.8539 -0.1642
 6755SOL     OW31726   1.993   1.293   6.931 -0.6176 -0.6088 -0.3912
 6755SOL    HW131727   2.003   1.230   6.860 -2.0613  0.1182 -1.2277
 6755SOL    HW231728   1.951   1.370   6.892  1.5745  1.3307  1.0312
 6756SOL     OW31729   2.201   0.886  15.405  0.1263  0.1313  0.5919
 6756SOL    HW131730   2.235   0.799  15.383 -1.7371 -0.1970 -1.0098
 6756SOL    HW231731   2.164   0.919  15.323  0.7395 -1.1027 -0.1847
 6757SOL     OW31732   1.300   3.405  17.437 -0.2176 -0.4067 -0.1667
 6757SOL    HW131733   1.235   3.349  17.478 -0.4298  1.5042  2.0700
 6757SOL    HW231734   1.385   3.365  17.453 -0.1666  0.3243  1.3915
 6758SOL     OW31735   0.599   4.613   8.745  0.2121  0.1227  0.3089
 6758SOL    HW131736   0.554   4.607   8.829 -0.6220 -0.4598 -0.1838
 6758SOL    HW231737   0.563   4.685   8.693  0.5643 -0.3027 -0.5183
 6759SOL     OW31738   2.073   3.987   3.928  0.1938 -0.5701 -0.5523
 6759SOL    HW131739   2.036   3.998   3.841 -0.0661  0.1940 -0.3442
 6759SOL    HW231740   2.091   3.893   3.933  0.1429 -0.5048  0.9546
 6760SOL     OW31741   1.794   2.009   3.983 -0.1884 -0.1734  0.0998
 6760SOL    HW131742   1.836   2.002   3.897  0.3897  0.6268  0.3137
 6760SOL    HW231743   1.862   1.955   4.023 -1.4802 -2.3599 -0.6846
 6761SOL     OW31744   0.606   0.336  16.987  0.3441 -0.3256  0.0396
 6761SOL    HW131745   0.664   0.260  16.990  0.5039 -0.2203 -0.3896
 6761SOL    HW231746   0.615   0.363  16.895 -2.2404 -1.0832 -0.4350
 6762SOL     OW31747   4.155   3.424   1.934 -0.1037  0.0536 -0.1155
 6762SOL    HW131748   4.117   3.478   1.864 -2.4217 -1.0944  0.2572
 6762SOL    HW231749   4.236   3.472   1.948  0.6606 -1.0070 -0.9480
 6763SOL     OW31750   0.854   4.216   7.785  0.2982 -0.2942  0.1426
 6763SOL    HW131751   0.930   4.249   7.738 -2.4312  1.5657 -2.9416
 6763SOL    HW231752   0.784   4.246   7.727 -0.5327 -0.6353  0.9501
 6764SOL     OW31753   3.543   0.672   9.239  0.3081 -0.0186  0.5480
 6764SOL    HW131754   3.612   0.695   9.176  0.7252 -0.5506  0.8038
 6764SOL    HW231755   3.564   0.744   9.298  2.1833 -0.6091  0.6154
 6765SOL     OW31756   1.391   2.078   0.797 -0.5137 -0.3955 -0.4116
 6765SOL    HW131757   1.469   2.091   0.852 -0.9948 -1.7807  0.6124
 6765SOL    HW231758   1.363   2.169   0.799  0.7420  0.0443 -2.7365
 6766SOL     OW31759   2.757   1.456  12.637  0.2338  0.1391 -0.0465
 6766SOL    HW131760   2.707   1.488  12.562  0.7476 -0.5819 -0.6972
 6766SOL    HW231761   2.789   1.379  12.590  1.4581  1.2470 -1.0488
 6767SOL     OW31762   0.740   2.860   8.125  0.0636 -0.1094  0.1379
 6767SOL    HW131763   0.732   2.931   8.060 -0.3590  0.0232  0.3387
 6767SOL    HW231764   0.662   2.887   8.172 -0.2020  1.1822 -1.0299
 6768SOL     OW31765   0.476   4.198  16.642 -0.5489  0.2976 -0.1669
 6768SOL    HW131766   0.515   4.260  16.704  1.3836 -0.7141 -0.3720
 6768SOL    HW231767   0.414   4.253  16.593 -0.3170 -0.5106 -1.3776
 6769SOL     OW31768   2.969   0.499   9.376  0.0644 -0.0271 -0.1214
 6769SOL    HW131769   3.035   0.568   9.364  0.0083  0.1595  0.6464
 6769SOL    HW231770   2.895   0.525   9.322  0.5748  0.0996 -0.7656
 6770SOL     OW31771   2.735   3.979   2.259  0.7528 -0.1866 -0.6467
 6770SOL    HW131772   2.822   3.977   2.219  0.9529 -1.4963 -0.1309
 6770SOL    HW231773   2.678   3.954   2.186 -0.3969 -2.1793  0.9307
 6771SOL     OW31774   1.241   1.991   6.062  0.3292  0.2362 -0.2940
 6771SOL    HW131775   1.307   1.925   6.041 -0.3123 -0.6797  0.5591
 6771SOL    HW231776   1.273   2.054   5.997 -2.0383  1.4531 -0.2677
 6772SOL     OW31777   1.027   3.000   7.455 -0.1677 -0.3258  0.6242
 6772SOL    HW131778   0.996   3.031   7.370  1.5829  0.3298  0.2351
 6772SOL    HW231779   0.999   3.072   7.511 -0.2709  0.3983 -0.3504
 6773SOL     OW31780   1.873   4.174  14.307 -0.0882  0.1976 -0.3836
 6773SOL    HW131781   1.912   4.108  14.250  0.2273 -0.6245  0.7854
 6773SOL    HW231782   1.783   4.173  14.277 -0.8395 -0.2608  1.8898
 6774SOL     OW31783   2.072   2.241   2.153  0.1882 -0.0192 -0.2147
 6774SOL    HW131784   2.118   2.199   2.080 -1.2858 -1.9268 -0.0364
 6774SOL    HW231785   2.112   2.217   2.236 -0.2831  1.1152  0.3400
 6775SOL     OW31786   0.316   2.333   3.191 -0.9957  0.5451  0.0787
 6775SOL    HW131787   0.378   2.405   3.202 -0.8743  0.2620  1.2217
 6775SOL    HW231788   0.378   2.260   3.183 -1.1486  0.4889 -0.6227
 6776SOL     OW31789   4.335   1.457  10.435 -0.0317  0.3260  0.0613
 6776SOL    HW131790   4.299   1.370  10.453  0.3713  0.1927  0.2363
 6776SOL    HW231791   4.360   1.478  10.525 -0.1940  0.2880  0.1150
 6777SOL     OW31792   3.491   3.529  13.536 -0.7548  0.1680  0.0931
 6777SOL    HW131793   3.489   3.532  13.441 -0.9090  1.2151  0.1286
 6777SOL    HW231794   3.545   3.450  13.540 -0.4462  0.3994  0.6148
 6778SOL     OW31795   2.564   0.287   7.349  0.6380 -0.3260 -0.1401
 6778SOL    HW131796   2.644   0.287   7.296  1.4001  0.3616  1.0254
 6778SOL    HW231797   2.581   0.264   7.440 -0.3572  1.4599  0.5005
 6779SOL     OW31798   3.216   0.024   7.563  0.4402 -0.4680  0.4667
 6779SOL    HW131799   3.233   4.653   7.541  1.2282 -0.0874 -0.5108
 6779SOL    HW231800   3.307   0.047   7.585  0.4612 -1.7802  1.7554
 6780SOL     OW31801   0.849   4.639   8.897  0.1814 -0.1037  0.2226
 6780SOL    HW131802   0.941   4.665   8.906  0.6152 -2.1671  1.6072
 6780SOL    HW231803   0.858   4.613   8.806  1.3652 -0.3281  0.4058
 6781SOL     OW31804   3.813   0.009   3.682 -0.0519 -1.1292 -0.1257
 6781SOL    HW131805   3.765   0.064   3.744 -0.3008 -1.3831 -0.0952
 6781SOL    HW231806   3.823   4.652   3.738 -0.2096 -1.6024 -0.7543
 6782SOL     OW31807   3.043   4.532   6.003 -0.7960  0.3465  0.1974
 6782SOL    HW131808   2.949   4.542   5.992 -0.7225  0.7419 -0.0768
 6782SOL    HW231809   3.062   4.447   5.962  0.8381  0.3270  0.9777
 6783SOL     OW31810   3.036   0.311   0.459 -0.1345 -0.3105  0.1998
 6783SOL    HW131811   2.942   0.304   0.474 -0.1646 -1.3483 -0.5246
 6783SOL    HW231812   3.047   0.393   0.507 -0.2266  0.2269 -0.7009
 6784SOL     OW31813   3.458   0.953   5.257  0.1674 -0.3030 -0.0282
 6784SOL    HW131814   3.513   0.984   5.329 -1.3262  0.9842  0.5566
 6784SOL    HW231815   3.378   0.999   5.284  0.6971  0.8808 -0.4524
 6785SOL     OW31816   0.091   0.328  15.303 -0.0336 -0.0764  0.4895
 6785SOL    HW131817   0.080   0.236  15.329  2.3311  0.4440  3.3044
 6785SOL    HW231818   0.158   0.348  15.369 -0.4979 -0.0627  0.9512
 6786SOL     OW31819   1.580   1.186   1.845 -0.3477  0.0677 -0.3074
 6786SOL    HW131820   1.596   1.196   1.751 -0.5316  1.1796 -0.2118
 6786SOL    HW231821   1.566   1.091   1.852  2.7270 -0.3997 -0.3765
 6787SOL     OW31822   3.494   1.547   9.495 -0.0164  0.0687  0.3933
 6787SOL    HW131823   3.569   1.500   9.531  2.5258  1.7020 -2.8347
 6787SOL    HW231824   3.494   1.529   9.401 -1.8947 -1.1582  0.6208
 6788SOL     OW31825   4.514   1.915   1.818 -0.1995 -0.1257  0.0794
 6788SOL    HW131826   4.610   1.924   1.820 -0.1554 -0.7803  1.1372
 6788SOL    HW231827   4.514   1.822   1.841 -0.4853  0.0468  0.7911
 6789SOL     OW31828   1.161   4.470  17.188 -0.4862  0.2206  0.2943
 6789SOL    HW131829   1.111   4.388  17.193 -0.9036  0.4718  0.2775
 6789SOL    HW231830   1.141   4.484  17.095  1.1329 -1.9174 -0.3717
 6790SOL     OW31831   0.897   2.973  11.872  0.3384  0.7417  0.1086
 6790SOL    HW131832   0.852   3.001  11.793 -0.8467  0.2575  0.6057
 6790SOL    HW231833   0.909   2.883  11.843 -0.8221  0.9043 -0.8740
 6791SOL     OW31834   1.381   2.996   8.699  0.1517  0.1940  0.0951
 6791SOL    HW131835   1.342   3.039   8.775 -1.9248 -0.8092 -0.4134
 6791SOL    HW231836   1.464   3.041   8.684 -0.9176  2.3664  0.7509
 6792SOL     OW31837   2.843   0.254   7.311 -0.6106 -0.1364 -0.4630
 6792SOL    HW131838   2.878   0.168   7.336  0.0590  0.0304 -0.8533
 6792SOL    HW231839   2.902   0.282   7.241  0.7045  0.6210  0.9482
 6793SOL     OW31840   3.701   3.045  13.762  1.0348  0.1941  0.0426
 6793SOL    HW131841   3.619   3.062  13.808  1.2944  1.7102 -0.0662
 6793SOL    HW231842   3.701   2.949  13.769  1.6349  0.0805 -1.5560
 6794SOL     OW31843   1.499   3.293   0.189  0.4102  0.2367  0.1856
 6794SOL    HW131844   1.426   3.246   0.229  1.1125 -0.7822  0.2722
 6794SOL    HW231845   1.557   3.293   0.266  1.4921  1.8724 -0.6189
 6795SOL     OW31846   3.505   0.768   8.405  0.3695  0.4953  0.0665
 6795SOL    HW131847   3.440   0.765   8.475  1.5222  0.1721  1.1330
 6795SOL    HW231848   3.584   0.735   8.447  0.9159  1.3123 -0.3075
 6796SOL     OW31849   3.149   4.599   3.487 -0.6712 -0.7236 -0.5187
 6796SOL    HW131850   3.088   4.662   3.525 -1.0485 -1.2589 -0.2297
 6796SOL    HW231851   3.149   4.522   3.544 -1.5500  0.4522  1.0737
 6797SOL     OW31852   3.861   3.508   5.046 -0.2237  0.6079  0.1211
 6797SOL    HW131853   3.870   3.597   5.080  0.6322 -0.3066  2.2571
 6797SOL    HW231854   3.831   3.528   4.958  0.6225  1.6808  0.0871
 6798SOL     OW31855   4.481   0.402   4.484 -0.3650  0.5424  0.1331
 6798SOL    HW131856   4.397   0.359   4.470  0.7795 -1.3011 -0.9140
 6798SOL    HW231857   4.459   0.474   4.544 -0.6371  1.4501 -1.0624
 6799SOL     OW31858   0.881   2.826  14.663  0.1869  0.4308 -0.2768
 6799SOL    HW131859   0.903   2.919  14.666 -1.9529  0.9114  0.7133
 6799SOL    HW231860   0.791   2.837  14.694  0.3928  0.7775  0.1948
 6800SOL     OW31861   3.400   2.654   7.590 -0.3400 -1.1469  0.3810
 6800SOL    HW131862   3.389   2.590   7.519  0.9810 -0.6859 -0.2345
 6800SOL    HW231863   3.320   2.637   7.640 -0.0974 -1.1246  0.7741
 6801SOL     OW31864   1.468   2.762   3.685 -0.3620 -0.2149 -0.0937
 6801SOL    HW131865   1.436   2.679   3.648 -1.6276  1.0773 -1.8807
 6801SOL    HW231866   1.384   2.806   3.696 -0.3848 -0.4385  0.6168
 6802SOL     OW31867   3.489   4.184   5.231 -0.2785 -0.1128 -0.2348
 6802SOL    HW131868   3.468   4.229   5.149 -2.3859 -0.9882 -0.2010
 6802SOL    HW231869   3.464   4.095   5.207 -0.0280 -0.2147 -0.1191
 6803SOL     OW31870   0.660   0.288   1.846 -0.4263  0.4353  0.0105
 6803SOL    HW131871   0.635   0.368   1.892 -1.8069 -0.1360  0.2488
 6803SOL    HW231872   0.726   0.252   1.906  0.7515  1.7583 -0.5002
 6804SOL     OW31873   2.562   2.427   6.358 -1.0399 -0.4110  0.2903
 6804SOL    HW131874   2.646   2.406   6.317 -0.6064  0.4403  0.7495
 6804SOL    HW231875   2.513   2.347   6.339  2.0216 -2.3033  0.3657
 6805SOL     OW31876   4.475   2.232   2.287  0.6344 -0.4425  0.3391
 6805SOL    HW131877   4.526   2.309   2.260 -2.4198  1.2576 -0.6751
 6805SOL    HW231878   4.468   2.183   2.205 -0.4197  1.0523 -0.4739
 6806SOL     OW31879   0.977   1.581   6.017 -0.0168  0.4679 -0.3390
 6806SOL    HW131880   0.998   1.519   5.947  0.5714 -1.1714  1.3100
 6806SOL    HW231881   1.056   1.608   6.063 -0.7689 -0.3217  1.3817
 6807SOL     OW31882   4.049   2.942   3.645 -0.2293 -0.0720 -0.6248
 6807SOL    HW131883   3.987   2.917   3.713  0.9712 -0.9581  0.1475
 6807SOL    HW231884   4.061   3.036   3.658 -0.3920 -0.2675  1.0026
 6808SOL     OW31885   0.051   4.093   1.732 -0.1672 -0.5407  0.3037
 6808SOL    HW131886   0.092   4.050   1.807 -2.8486 -1.9541  0.9694
 6808SOL    HW231887   0.081   4.183   1.738 -0.5004 -0.4174  0.1009
 6809SOL     OW31888   0.004   4.013   7.244 -0.4659  0.4066 -0.5397
 6809SOL    HW131889   0.027   4.087   7.300 -0.1326 -1.0619  1.2760
 6809SOL    HW231890   4.662   4.058   7.187  0.1149  1.0845 -0.6489
 6810SOL     OW31891   1.732   3.550   4.082 -0.2600 -0.4325  0.0350
 6810SOL    HW131892   1.657   3.564   4.140 -0.5644  0.1478 -0.5060
 6810SOL    HW231893   1.752   3.456   4.077  1.7201 -0.0382  0.4730
 6811SOL     OW31894   0.584   1.429   9.451 -0.1352 -0.2841 -0.7432
 6811SOL    HW131895   0.660   1.398   9.500  0.1638  0.3677 -0.8009
 6811SOL    HW231896   0.551   1.346   9.415  1.0747 -0.5753 -1.1910
 6812SOL     OW31897   3.641   1.444  15.725 -0.2363 -0.0617  0.3402
 6812SOL    HW131898   3.631   1.396  15.807 -1.9678  1.5742  1.1039
 6812SOL    HW231899   3.689   1.519  15.762  3.4919 -0.7279 -3.2641
 6813SOL     OW31900   2.181   2.389   1.120 -0.6082  0.2159  0.6859
 6813SOL    HW131901   2.108   2.429   1.072 -0.3848  0.7253  0.7693
 6813SOL    HW231902   2.141   2.370   1.205 -0.3182 -0.3652  0.6908
 6814SOL     OW31903   1.352   1.321   6.479  0.6972 -0.7836  0.0687
 6814SOL    HW131904   1.373   1.397   6.424 -3.3902  1.2683  1.3224
 6814SOL    HW231905   1.339   1.363   6.564 -1.2374 -2.0788  0.4261
 6815SOL     OW31906   2.763   1.523   0.043  0.6141  0.6258 -0.0794
 6815SOL    HW131907   2.709   1.447   0.023  1.6000 -0.1793  0.3532
 6815SOL    HW231908   2.847   1.493   0.008 -0.0857 -1.5436  0.1113
 6816SOL     OW31909   3.443   0.025   3.962 -0.0751 -0.0239 -0.1048
 6816SOL    HW131910   3.446   4.671   3.903  0.6161 -0.6713  0.7673
 6816SOL    HW231911   3.350   0.050   3.956  0.0408  0.2881 -0.6539
 6817SOL     OW31912   2.391   3.122   6.840 -0.2234  0.3583  0.2940
 6817SOL    HW131913   2.391   3.213   6.809 -2.9136  0.0653 -0.5658
 6817SOL    HW231914   2.399   3.135   6.934 -2.8889  0.2085  0.5150
 6818SOL     OW31915   0.711   1.466  16.324  0.0471 -0.2363  0.1172
 6818SOL    HW131916   0.615   1.462  16.328 -0.0997  0.4823 -2.5644
 6818SOL    HW231917   0.724   1.504  16.411  1.7400  0.3418 -0.3878
 6819SOL     OW31918   2.387   1.107   2.625 -0.2293  0.0129 -0.2200
 6819SOL    HW131919   2.407   1.030   2.678  0.7826  0.1974 -0.3256
 6819SOL    HW231920   2.295   1.085   2.616 -0.6552  1.1682  1.3779
 6820SOL     OW31921   2.304   3.599   0.170 -0.3209  0.1686  0.2741
 6820SOL    HW131922   2.398   3.587   0.153 -0.3750  0.6683 -0.4055
 6820SOL    HW231923   2.272   3.640   0.090 -0.1145  0.8597  0.5412
 6821SOL     OW31924   2.789   3.334  10.392 -0.0971  0.1420  0.0679
 6821SOL    HW131925   2.875   3.353  10.430  0.7606 -0.7401 -1.4267
 6821SOL    HW231926   2.806   3.342  10.298  0.9424 -1.8631  0.0866
 6822SOL     OW31927   2.900   2.548   4.009  0.6323 -0.0568  0.1941
 6822SOL    HW131928   2.966   2.614   4.030  0.3942  0.4748 -0.7554
 6822SOL    HW231929   2.958   2.472   4.002 -0.6756 -0.9185 -1.2182
 6823SOL     OW31930   3.222   4.312  13.588 -0.4157  0.2199  0.4087
 6823SOL    HW131931   3.245   4.224  13.620  1.8465  1.4915  2.2937
 6823SOL    HW231932   3.127   4.301  13.581 -0.4787  1.4890 -0.5826
 6824SOL     OW31933   4.218   4.265  12.488 -0.2712 -0.0729  0.2675
 6824SOL    HW131934   4.174   4.287  12.407 -1.2081  1.0304  1.0791
 6824SOL    HW231935   4.247   4.351  12.517 -1.0451  0.3397 -0.1962
 6825SOL     OW31936   0.430   3.353   4.198 -0.6880 -0.1259  0.0735
 6825SOL    HW131937   0.518   3.390   4.195 -1.4030  1.5011 -0.9040
 6825SOL    HW231938   0.381   3.418   4.148  1.1067  2.1547  1.2605
 6826SOL     OW31939   3.681   4.691  12.355 -0.2742 -0.2748  0.6876
 6826SOL    HW131940   3.662   4.719  12.265  2.0222  2.0379  0.8975
 6826SOL    HW231941   3.714   4.602  12.353 -2.2485 -0.9349 -2.6173
 6827SOL     OW31942   4.178   2.518   7.311  0.4750  0.4142  0.1676
 6827SOL    HW131943   4.116   2.547   7.378  1.1882 -0.1655  1.0882
 6827SOL    HW231944   4.151   2.565   7.232  2.6137 -0.4332 -1.0554
 6828SOL     OW31945   1.288   2.841   9.136  0.0771  0.0488 -0.5775
 6828SOL    HW131946   1.344   2.778   9.181  1.9907  1.1268 -1.4504
 6828SOL    HW231947   1.262   2.799   9.054 -0.6387  0.1365 -0.3953
 6829SOL     OW31948   0.634   2.974   4.960 -0.4215 -0.5431  0.1910
 6829SOL    HW131949   0.610   2.892   5.004  0.0653 -0.1617  1.1719
 6829SOL    HW231950   0.724   2.989   4.988 -0.8010  2.7931 -0.3505
 6830SOL     OW31951   4.318   2.880  10.454 -0.2595  0.5153 -0.3024
 6830SOL    HW131952   4.291   2.888  10.363  0.8136 -2.0256 -0.8440
 6830SOL    HW231953   4.335   2.786  10.460  2.3329  0.8814 -2.2057
 6831SOL     OW31954   1.955   1.906  11.511  0.2952 -0.3810 -0.2187
 6831SOL    HW131955   1.861   1.915  11.494  0.0010  1.1758  2.2537
 6831SOL    HW231956   1.950   1.938  11.601  0.0149 -2.3724  0.4543
 6832SOL     OW31957   2.635   1.282   4.022 -0.0141 -0.3182 -0.0116
 6832SOL    HW131958   2.563   1.233   3.981 -1.6720  0.9651  1.3354
 6832SOL    HW231959   2.704   1.218   4.007  1.8205  1.5430  0.4797
 6833SOL     OW31960   4.514   2.122   2.853  0.6333 -0.0214  0.1462
 6833SOL    HW131961   4.539   2.037   2.817  0.2991 -0.3464  0.6790
 6833SOL    HW231962   4.438   2.148   2.800  0.9345 -2.3724 -1.4518
 6834SOL     OW31963   4.270   1.950  17.381  0.6725  0.0104  0.0192
 6834SOL    HW131964   4.188   1.997  17.368  0.8920  0.1677 -0.7678
 6834SOL    HW231965   4.242   1.863  17.409  1.1385 -0.1145  0.0982
 6835SOL     OW31966   4.319   2.465   6.057 -0.0068  0.2246  0.1632
 6835SOL    HW131967   4.318   2.403   6.131 -1.6149  1.1849  0.9463
 6835SOL    HW231968   4.305   2.403   5.985 -2.3141  0.9688 -0.0107
 6836SOL     OW31969   1.038   4.177   9.032 -0.4800  0.2171  0.0448
 6836SOL    HW131970   0.999   4.231   8.963 -0.5115 -0.1640 -0.2302
 6836SOL    HW231971   0.986   4.182   9.113 -1.1547  1.0560 -0.4332
 6837SOL     OW31972   2.816   2.923   5.951  0.9110 -0.1458 -0.9153
 6837SOL    HW131973   2.813   3.018   5.952 -1.1181 -0.2194 -0.1130
 6837SOL    HW231974   2.867   2.927   5.871 -1.1135  2.3062 -2.0730
 6838SOL     OW31975   2.610   0.186  11.209  0.5383  0.4179 -0.3217
 6838SOL    HW131976   2.704   0.203  11.198  0.0110  1.8931 -2.6169
 6838SOL    HW231977   2.581   0.253  11.147  3.7607  1.8300 -0.3214
 6839SOL     OW31978   3.018   0.054  16.865 -0.2260 -0.4985  0.2414
 6839SOL    HW131979   2.971   0.136  16.884 -1.5518 -1.7332  2.2731
 6839SOL    HW231980   3.033   0.065  16.771 -0.3543 -1.3064  0.1339
 6840SOL     OW31981   2.494   4.585   3.342  0.0825  0.5019 -0.2487
 6840SOL    HW131982   2.420   4.609   3.287 -0.9022  0.2112  0.9574
 6840SOL    HW231983   2.534   4.516   3.290 -1.4349 -0.5800  0.0391
 6841SOL     OW31984   3.402   3.802  15.340  0.1158 -0.4692 -0.4119
 6841SOL    HW131985   3.434   3.748  15.412  2.3979  1.2998 -0.0592
 6841SOL    HW231986   3.312   3.776  15.324 -0.2774  0.5901  0.0734
 6842SOL     OW31987   0.638   2.474   2.935  0.0219 -0.0797 -0.4810
 6842SOL    HW131988   0.676   2.392   2.968  0.6040  1.0782  1.7326
 6842SOL    HW231989   0.552   2.434   2.921 -0.8251  1.3640  0.7317
 6843SOL     OW31990   4.435   0.681   7.113  0.5545 -0.0111  0.0812
 6843SOL    HW131991   4.502   0.654   7.176  0.0825 -0.0776  0.5645
 6843SOL    HW231992   4.381   0.730   7.176  0.6794 -1.4327  1.3015
 6844SOL     OW31993   4.273   3.021   5.947  0.0743  0.0738  0.1266
 6844SOL    HW131994   4.204   2.970   5.990  1.4843 -2.7206 -0.9272
 6844SOL    HW231995   4.233   3.058   5.869 -0.8774 -0.0053  0.5816
 6845SOL     OW31996   2.480   3.123   5.434 -0.0641 -0.3181 -0.1297
 6845SOL    HW131997   2.524   3.175   5.367  1.2970 -2.2061 -0.6875
 6845SOL    HW231998   2.481   3.037   5.393 -0.1474 -0.5712  0.3999
 6846SOL     OW31999   3.979   1.817   7.234  0.2590 -0.4972  0.1360
 6846SOL    HW132000   3.907   1.866   7.274 -1.5476 -3.5734  0.7221
 6846SOL    HW232001   3.940   1.734   7.205  0.4203 -0.8297  0.8677
 6847SOL     OW32002   1.456   2.262   4.658 -0.1639  0.2171 -0.1355
 6847SOL    HW132003   1.418   2.342   4.694 -0.7367 -0.1747  0.1296
 6847SOL    HW232004   1.542   2.295   4.631 -0.4858  2.0684  1.0616
 6848SOL     OW32005   0.201   0.568   2.605  0.1876 -0.4119  0.7084
 6848SOL    HW132006   0.250   0.542   2.527 -1.1059  0.8549 -0.5269
 6848SOL    HW232007   0.200   0.488   2.657  2.3655 -0.9108 -0.0387
 6849SOL     OW32008   0.155   1.105  15.611 -0.3068  0.1906  0.0910
 6849SOL    HW132009   0.139   1.095  15.517  3.1874  0.9413 -0.5808
 6849SOL    HW232010   0.234   1.056  15.630  0.3960  2.0089  1.8070
 6850SOL     OW32011   0.290   1.984   6.968 -0.4493  0.1004 -0.1974
 6850SOL    HW132012   0.234   1.993   7.045 -0.6043  0.5175 -0.3603
 6850SOL    HW232013   0.274   2.067   6.923  2.5227  0.6683 -0.1812
 6851SOL     OW32014   4.339   3.825   3.275 -0.2026 -0.3560 -0.1086
 6851SOL    HW132015   4.375   3.752   3.325  3.2614  0.8972 -0.8095
 6851SOL    HW232016   4.420   3.862   3.240 -0.5612  0.5663  0.0466
 6852SOL     OW32017   3.644   2.818   9.017  0.1343 -0.4099 -0.2767
 6852SOL    HW132018   3.642   2.772   9.101  0.5099  1.3470  0.6852
 6852SOL    HW232019   3.675   2.900   9.055 -0.8481 -0.2712  0.2032
 6853SOL     OW32020   1.484   3.886   7.344 -0.2129 -0.2810  0.0202
 6853SOL    HW132021   1.483   3.845   7.430  0.2299  1.0609  0.6702
 6853SOL    HW232022   1.556   3.949   7.342 -1.7147  1.4199 -0.3239
 6854SOL     OW32023   4.380   3.936   6.782  0.0636 -0.2016 -0.0587
 6854SOL    HW132024   4.392   4.031   6.783 -1.0410 -0.0818  1.4570
 6854SOL    HW232025   4.365   3.914   6.874 -0.6491  3.2328  0.6481
 6855SOL     OW32026   2.863   3.437   2.794  0.9366  0.7998 -0.2360
 6855SOL    HW132027   2.938   3.458   2.738  0.1928  0.1515 -1.4833
 6855SOL    HW232028   2.912   3.380   2.854  1.7129  1.7544  0.0369
 6856SOL     OW32029   2.538   0.272   6.572  0.6980  0.1473  0.2646
 6856SOL    HW132030   2.511   0.181   6.587  0.4813  0.1139 -0.3034
 6856SOL    HW232031   2.479   0.295   6.500  0.2862  0.7203  0.7846
 6857SOL     OW32032   4.187   1.800   2.694  0.4024 -0.3082 -0.0614
 6857SOL    HW132033   4.119   1.867   2.683  3.3858  2.9477  1.3654
 6857SOL    HW232034   4.246   1.801   2.619 -1.1118 -2.3829 -1.2601
 6858SOL     OW32035   0.052   2.368   3.240  0.5559  0.0668  0.0638
 6858SOL    HW132036   0.143   2.341   3.240  0.9313  1.2996 -1.3713
 6858SOL    HW232037   0.045   2.411   3.325 -2.7813 -1.8220  0.7533
 6859SOL     OW32038   0.005   2.726   3.231 -0.5091  0.2431 -0.3208
 6859SOL    HW132039   4.666   2.658   3.201 -0.2991 -1.0687  2.2781
 6859SOL    HW232040   0.070   2.712   3.163  0.9696 -0.1112  1.1761
 6860SOL     OW32041   1.322   3.109   1.452  0.0740  0.2888 -0.1066
 6860SOL    HW132042   1.240   3.058   1.451  1.1655 -1.5263  1.6892
 6860SOL    HW232043   1.287   3.198   1.451 -1.7270 -0.4090  0.9451
 6861SOL     OW32044   0.598   1.189   3.841  0.0565  0.2176 -0.3371
 6861SOL    HW132045   0.506   1.212   3.855  1.2675  5.1729 -0.6347
 6861SOL    HW232046   0.617   1.255   3.773  2.8807 -0.8388 -0.5775
 6862SOL     OW32047   0.524   0.123   7.774  0.0968  0.5173 -0.2850
 6862SOL    HW132048   0.571   0.194   7.818 -0.0484 -0.2617  1.1487
 6862SOL    HW232049   0.435   0.155   7.783 -0.3688 -1.1781  1.2660
 6863SOL     OW32050   2.006   3.188   5.689  1.0851 -0.1211 -0.0628
 6863SOL    HW132051   1.911   3.202   5.686  0.6432 -2.5313  2.1856
 6863SOL    HW232052   2.010   3.095   5.668 -0.8510 -0.0934 -0.5790
 6864SOL     OW32053   2.402   1.398   0.929 -0.5772 -0.1443 -0.1224
 6864SOL    HW132054   2.421   1.409   0.836  2.8643 -0.2664  0.5658
 6864SOL    HW232055   2.340   1.325   0.923 -3.6174  2.3962 -0.1339
 6865SOL     OW32056   0.651   4.051   3.588 -0.2392 -0.1223 -0.6050
 6865SOL    HW132057   0.619   4.068   3.499  0.4542 -1.1567 -1.0515
 6865SOL    HW232058   0.630   4.136   3.626  0.6818  1.2088 -3.0667
 6866SOL     OW32059   4.705   4.673   2.801 -0.1591 -0.0838  0.4140
 6866SOL    HW132060   0.013   0.022   2.860  0.2040  0.0075  0.1241
 6866SOL    HW232061   4.618   4.706   2.778  1.5518  3.8771 -0.3209
 6867SOL     OW32062   2.008   3.592  12.312  0.0714  0.1104  0.0165
 6867SOL    HW132063   2.031   3.607  12.220  0.6433 -0.9954 -0.0265
 6867SOL    HW232064   1.942   3.660  12.322  1.9022  1.4120  3.2435
 6868SOL     OW32065   4.391   1.487   1.053 -0.4450  0.1411 -0.1238
 6868SOL    HW132066   4.296   1.481   1.059 -0.3933 -0.8508 -0.3431
 6868SOL    HW232067   4.410   1.465   0.962  0.9894 -1.5379  0.5792
 6869SOL     OW32068   3.813   2.005   4.129 -0.0210 -0.3489 -0.4795
 6869SOL    HW132069   3.854   1.923   4.157 -1.8486 -1.7171 -1.7932
 6869SOL    HW232070   3.844   2.061   4.200  0.5483 -0.8206 -0.3609
 6870SOL     OW32071   2.942   1.617   8.832 -0.0485  0.0685  0.1248
 6870SOL    HW132072   2.920   1.613   8.926 -0.8716 -1.2920 -0.1194
 6870SOL    HW232073   2.851   1.619   8.803 -0.9797  0.9577  3.0429
 6871SOL     OW32074   3.836   3.068   6.512  0.1465  0.0268  0.2245
 6871SOL    HW132075   3.753   3.022   6.499  1.6042 -2.4397 -0.2474
 6871SOL    HW232076   3.878   3.064   6.427 -0.7397  2.8131 -0.3553
 6872SOL     OW32077   3.163   2.882   9.215 -0.6392  0.0333 -0.3499
 6872SOL    HW132078   3.084   2.838   9.248  0.4818 -1.1792  0.7359
 6872SOL    HW232079   3.224   2.811   9.194 -1.1090 -0.3240 -0.4902
 6873SOL     OW32080   4.150   0.033  14.514  0.3715  0.0712 -0.1446
 6873SOL    HW132081   4.139   0.127  14.500  2.4864  0.6486  1.9930
 6873SOL    HW232082   4.195   0.008  14.434  1.3276 -0.5312  0.5818
 6874SOL     OW32083   1.606   0.974   0.999 -0.0190  0.2281 -0.3035
 6874SOL    HW132084   1.543   0.923   0.949  2.8299 -0.1718 -3.4656
 6874SOL    HW232085   1.569   1.062   0.994 -1.0190 -0.0022  3.1587
 6875SOL     OW32086   2.856   2.971   6.454  0.1488  0.2185 -0.3677
 6875SOL    HW132087   2.799   3.005   6.524  1.3908  0.6667  0.4388
 6875SOL    HW232088   2.829   3.021   6.377 -0.6642 -2.4086 -1.7552
 6876SOL     OW32089   1.903   2.059   5.770  0.0005  0.1187  0.3624
 6876SOL    HW132090   1.931   2.129   5.829 -4.0500  1.6066  0.5050
 6876SOL    HW232091   1.951   2.065   5.687  1.2246  0.2244  1.0820
 6877SOL     OW32092   3.163   3.557   5.671  0.1982  0.5344 -0.1259
 6877SOL    HW132093   3.163   3.600   5.585 -1.0383 -1.4152 -1.0822
 6877SOL    HW232094   3.244   3.582   5.717  0.4375  1.1395 -0.8720
 6878SOL     OW32095   0.806   2.470  13.525 -0.3342 -0.8599  0.1352
 6878SOL    HW132096   0.721   2.456  13.566 -0.3875  3.0328  1.3468
 6878SOL    HW232097   0.774   2.485  13.436 -1.9026 -0.1667  0.8125
 6879SOL     OW32098   3.303   4.474   6.362 -0.3656  0.0395 -0.3150
 6879SOL    HW132099   3.220   4.520   6.365 -0.4393  0.0392 -2.0226
 6879SOL    HW232100   3.362   4.527   6.416  0.2991 -0.9528 -0.0667
 6880SOL     OW32101   2.046   3.013   6.288  0.2569 -0.4770 -0.6192
 6880SOL    HW132102   2.122   3.000   6.231  1.3260 -0.4730  0.8063
 6880SOL    HW232103   2.022   2.931   6.332  0.8407 -0.2547  0.1124
 6881SOL     OW32104   4.173   3.990  13.381 -0.4129  0.1435  0.3164
 6881SOL    HW132105   4.122   4.038  13.315 -1.3050 -0.5149  0.5287
 6881SOL    HW232106   4.198   3.911  13.335  0.3801  0.5195  0.1038
 6882SOL     OW32107   2.536   1.995   0.299 -0.4394 -0.2352  0.0285
 6882SOL    HW132108   2.444   2.021   0.297 -0.2546  0.3240 -0.9630
 6882SOL    HW232109   2.529   1.923   0.362  0.7847 -0.7643 -0.4498
 6883SOL     OW32110   0.584   1.403  13.314  0.2947  0.3703 -0.0192
 6883SOL    HW132111   0.536   1.473  13.358 -0.3307 -0.0508 -0.0297
 6883SOL    HW232112   0.508   1.346  13.298 -0.5626  1.3309  0.6610
 6884SOL     OW32113   2.490   1.791   6.611  0.4374  0.9539  0.3215
 6884SOL    HW132114   2.509   1.878   6.646 -0.4375  1.6260 -0.8746
 6884SOL    HW232115   2.539   1.794   6.530  2.4755 -1.7632  1.4561
 6885SOL     OW32116   0.617   3.777   5.246  0.3492 -0.2972 -0.6231
 6885SOL    HW132117   0.548   3.793   5.181  0.1372 -0.7919 -0.5220
 6885SOL    HW232118   0.685   3.757   5.181 -1.7226 -2.2896 -2.1813
 6886SOL     OW32119   1.348   0.213   8.439  0.1568  0.2926 -0.1907
 6886SOL    HW132120   1.382   0.239   8.353 -0.7320  2.8604  0.2319
 6886SOL    HW232121   1.279   0.278   8.453 -1.0153 -0.8087 -0.9622
 6887SOL     OW32122   0.127   1.682   2.355 -0.0626 -0.1385 -0.6822
 6887SOL    HW132123   0.158   1.755   2.301 -1.6610  1.9761  1.2467
 6887SOL    HW232124   0.066   1.635   2.298 -0.2906  1.9028 -2.1222
 6888SOL     OW32125   2.980   1.309   7.314 -0.2364 -0.0557 -0.0615
 6888SOL    HW132126   3.009   1.218   7.324 -1.3374 -0.5303 -1.1099
 6888SOL    HW232127   3.004   1.324   7.222  1.7927  2.2604  0.8479
 6889SOL     OW32128   0.343   2.125   8.849  0.1959  0.9781  0.1403
 6889SOL    HW132129   0.250   2.125   8.875 -0.0390  0.3038 -0.7155
 6889SOL    HW232130   0.367   2.099   8.938  0.1896  0.7536  0.0745
 6890SOL     OW32131   1.816   1.768   9.816 -0.7306  0.6605  0.1618
 6890SOL    HW132132   1.898   1.738   9.854  0.4553  2.3238 -1.1041
 6890SOL    HW232133   1.797   1.698   9.754  2.2158  0.9691 -1.0879
 6891SOL     OW32134   0.558   2.287   5.135  0.0359 -0.3566  0.3639
 6891SOL    HW132135   0.478   2.256   5.178 -0.7816  0.5569 -0.4966
 6891SOL    HW232136   0.577   2.214   5.076  1.5216  1.5753 -1.5245
 6892SOL     OW32137   3.836   4.690   6.025 -0.2694  0.4096 -0.0611
 6892SOL    HW132138   3.876   4.632   5.961  0.7231 -0.2227  1.1446
 6892SOL    HW232139   3.805   4.628   6.091 -1.9438  2.1533  0.8086
 6893SOL     OW32140   0.041   2.152   4.706 -0.1356  0.3964  0.3985
 6893SOL    HW132141   0.014   2.108   4.625 -0.8292  1.5762  0.0008
 6893SOL    HW232142   0.089   2.223   4.664 -3.7527  2.1480 -0.7214
 6894SOL     OW32143   4.577   3.976   3.267 -0.3270 -0.3444 -0.2384
 6894SOL    HW132144   4.566   4.048   3.206 -1.1749 -0.2472  0.0285
 6894SOL    HW232145   4.538   4.009   3.348  0.3983 -0.5806  0.2136
 6895SOL     OW32146   1.860   2.015   3.468  0.1645  0.1260 -0.0859
 6895SOL    HW132147   1.816   1.931   3.485  2.1501 -0.6833  1.0531
 6895SOL    HW232148   1.937   1.980   3.423  0.4937 -1.6652  1.8610
 6896SOL     OW32149   1.866   1.593  17.667 -0.1806 -0.8151  0.0271
 6896SOL    HW132150   1.913   1.510  17.656 -5.2755 -3.8016  0.3729
 6896SOL    HW232151   1.899   1.641  17.591 -0.7632  0.8183  0.8278
 6897SOL     OW32152   0.356   1.414   3.553 -0.0859 -0.6856  0.2162
 6897SOL    HW132153   0.261   1.426   3.554  0.2883  2.1434  1.0669
 6897SOL    HW232154   0.373   1.425   3.459 -0.9341  3.5816  0.5830
 6898SOL     OW32155   0.550   1.836   9.323  0.4339  0.0225 -0.2158
 6898SOL    HW132156   0.636   1.865   9.352  0.9052 -2.0005  0.4159
 6898SOL    HW232157   0.492   1.893   9.374  1.9269  1.2653  0.1023
 6899SOL     OW32158   1.396   2.232   5.152  0.1714  0.1208 -0.3667
 6899SOL    HW132159   1.330   2.168   5.178 -0.8469  2.5518  2.9293
 6899SOL    HW232160   1.339   2.309   5.149 -0.3245 -0.2887 -1.5814
 6900SOL     OW32161   4.583   0.411   8.273  0.5570 -0.0233  0.1933
 6900SOL    HW132162   4.623   0.492   8.244 -0.8635  0.4838 -0.3773
 6900SOL    HW232163   4.510   0.413   8.211 -0.1741 -1.0663  1.0104
 6901SOL     OW32164   0.662   2.153   2.254 -0.4238  0.0274  0.4186
 6901SOL    HW132165   0.587   2.111   2.295  0.0528 -0.5161  0.7298
 6901SOL    HW232166   0.615   2.221   2.205 -0.2512  0.1715  0.4525
 6902SOL     OW32167   1.498   4.473  14.569 -0.0184  0.1872 -0.3969
 6902SOL    HW132168   1.537   4.475  14.657 -0.5221  0.8865 -0.1930
 6902SOL    HW232169   1.534   4.394  14.528  0.7947 -0.9136  2.4346
 6903SOL     OW32170   0.175   4.153  17.457 -0.0415 -0.7221  0.1690
 6903SOL    HW132171   0.253   4.102  17.481 -1.6094 -3.0915  0.1282
 6903SOL    HW232172   0.117   4.155  17.533  0.5316 -1.2479  0.6189
 6904SOL     OW32173   2.772   2.022  16.543  0.2224  0.0185 -0.1468
 6904SOL    HW132174   2.834   1.972  16.490  1.1950  0.9713  0.0959
 6904SOL    HW232175   2.808   2.110  16.540  1.1637 -0.3493  0.3484
 6905SOL     OW32176   4.708   2.616  12.454  0.5392 -0.7531  0.8838
 6905SOL    HW132177   4.668   2.588  12.537 -2.8821 -0.4168 -0.6474
 6905SOL    HW232178   0.003   2.530  12.414  0.6693  0.3002 -1.3013
 6906SOL     OW32179   4.002   1.704  10.203  0.0369 -0.2198 -0.0644
 6906SOL    HW132180   4.024   1.714  10.111 -1.2754  0.8930 -0.2651
 6906SOL    HW232181   4.081   1.659  10.233  1.3334  1.1944 -1.3773
 6907SOL     OW32182   2.120   0.923   6.343  0.1120 -0.5474 -0.5377
 6907SOL    HW132183   2.125   0.882   6.257  0.2545  1.3315 -1.4211
 6907SOL    HW232184   2.151   1.011   6.324 -0.9799  0.2064  1.1854
 6908SOL     OW32185   1.646   1.272   5.983 -0.1499 -0.2559 -0.4965
 6908SOL    HW132186   1.708   1.240   5.918  1.1560 -1.3936  1.3217
 6908SOL    HW232187   1.575   1.213   5.959  0.3485 -0.9084 -0.3673
 6909SOL     OW32188   0.619   4.417   9.348 -0.2107  0.1160  0.2144
 6909SOL    HW132189   0.707   4.384   9.365 -0.5055  0.1712  1.7745
 6909SOL    HW232190   0.626   4.513   9.348  1.6369 -0.0307  0.7664
 6910SOL     OW32191   0.026   0.786   4.321  0.2411  0.3262  0.3896
 6910SOL    HW132192   0.027   0.862   4.262 -0.0281 -1.2257 -1.6473
 6910SOL    HW232193   4.655   0.780   4.346  0.4765  1.9931  1.6200
 6911SOL     OW32194   3.023   3.190   8.137  0.0419 -0.3121  0.0602
 6911SOL    HW132195   3.009   3.188   8.232  0.2625  0.5052  0.1142
 6911SOL    HW232196   2.942   3.146   8.111 -0.4446  0.5177  0.1540
 6912SOL     OW32197   1.054   1.013   4.830  0.1452 -0.3913  0.1159
 6912SOL    HW132198   1.090   1.089   4.784 -0.5706  0.1321  0.4197
 6912SOL    HW232199   1.048   0.948   4.759  1.7141  2.6507 -2.8430
 6913SOL     OW32200   0.866   2.216   7.154 -0.1979 -0.5865 -0.0137
 6913SOL    HW132201   0.796   2.239   7.093 -0.9116  0.5676  1.2322
 6913SOL    HW232202   0.821   2.215   7.238  1.3749  3.7768  0.9106
 6914SOL     OW32203   3.643   1.971   6.304  0.2999 -0.0611  0.2963
 6914SOL    HW132204   3.697   2.038   6.346 -0.0693 -1.3075  2.7644
 6914SOL    HW232205   3.702   1.897   6.316 -1.3792 -1.8121 -2.2389
 6915SOL     OW32206   2.737   3.496  15.627  0.1257  0.3537 -0.5396
 6915SOL    HW132207   2.646   3.467  15.624  0.2405 -0.2786  1.5004
 6915SOL    HW232208   2.726   3.573  15.683 -0.6403 -1.5510  1.9413
 6916SOL     OW32209   1.295   2.800  15.078  0.2223 -0.6363  0.0630
 6916SOL    HW132210   1.331   2.712  15.090 -1.1675 -0.9683  1.7379
 6916SOL    HW232211   1.280   2.824  14.987  1.4874 -1.5768 -0.3789
 6917SOL     OW32212   3.384   2.950  11.687  0.0659 -0.4326  0.7704
 6917SOL    HW132213   3.397   3.012  11.615 -1.1514  1.3211  2.0994
 6917SOL    HW232214   3.290   2.964  11.697  0.2911  2.2187 -0.8118
 6918SOL     OW32215   1.562   2.570   7.260  0.0196  0.0268  0.3264
 6918SOL    HW132216   1.552   2.625   7.182  2.3310 -0.4544 -0.2925
 6918SOL    HW232217   1.557   2.637   7.329 -0.1253  0.7782 -0.4008
 6919SOL     OW32218   1.925   3.302   1.632 -0.3940 -0.1725  0.1642
 6919SOL    HW132219   1.937   3.397   1.625 -2.2662  0.1114  0.8922
 6919SOL    HW232220   1.830   3.295   1.638 -0.7006  2.0232 -2.0238
 6920SOL     OW32221   3.168   0.215   7.129 -0.8281  0.1705  0.4215
 6920SOL    HW132222   3.132   0.244   7.213 -1.6334  2.5662 -0.7462
 6920SOL    HW232223   3.232   0.283   7.106  0.5547 -1.2561  0.0770
 6921SOL     OW32224   4.341   2.603  10.453  0.1098 -0.0647  0.0355
 6921SOL    HW132225   4.254   2.568  10.433 -0.2008  0.2161  0.9037
 6921SOL    HW232226   4.391   2.528  10.486 -1.2298 -0.5867  0.8853
 6922SOL     OW32227   2.106   0.725  17.379  0.6003  0.0546 -0.4767
 6922SOL    HW132228   2.188   0.753  17.419  0.6274 -1.4820  0.5529
 6922SOL    HW232229   2.122   0.750  17.288  1.2985  0.4438 -0.2467
 6923SOL     OW32230   0.567   2.200   3.216 -0.4940 -0.0346 -0.3224
 6923SOL    HW132231   0.563   2.272   3.279  0.8055 -0.0455 -0.2253
 6923SOL    HW232232   0.637   2.228   3.156  0.5631 -2.8778 -0.3917
 6924SOL     OW32233   1.328   2.508   4.247 -0.7178 -0.0886 -0.2277
 6924SOL    HW132234   1.387   2.478   4.178 -0.9995 -0.2155 -0.4159
 6924SOL    HW232235   1.315   2.428   4.297 -0.5506 -1.1180 -1.8211
 6925SOL     OW32236   3.595   1.116  11.010 -0.1709 -0.1054 -0.3149
 6925SOL    HW132237   3.570   1.039  11.061 -2.4902  0.2115 -0.9640
 6925SOL    HW232238   3.535   1.106  10.937  0.2560 -0.2199 -0.6502
 6926SOL     OW32239   3.214   0.809   2.878 -0.6480 -0.7391 -0.1637
 6926SOL    HW132240   3.168   0.726   2.891 -1.6061 -0.3358 -0.9663
 6926SOL    HW232241   3.177   0.854   2.954 -0.6772  0.2766 -0.7778
 6927SOL     OW32242   1.318   0.123   8.715 -0.0275 -0.7977 -0.1653
 6927SOL    HW132243   1.390   0.081   8.762  0.8918  1.7715  0.6864
 6927SOL    HW232244   1.352   0.165   8.636  0.0388 -0.2348  0.1648
 6928SOL     OW32245   4.497   2.014  17.088  0.0789 -0.6196 -0.1834
 6928SOL    HW132246   4.457   2.098  17.111  0.0467 -0.8243  0.4993
 6928SOL    HW232247   4.509   2.022  16.993  0.9330 -0.0920 -0.0266
 6929SOL     OW32248   2.852   4.551   2.283  0.3689 -0.2274  0.3983
 6929SOL    HW132249   2.936   4.590   2.308 -0.9121  1.8902  1.3773
 6929SOL    HW232250   2.852   4.467   2.330 -2.2520 -0.7087 -0.4961
 6930SOL     OW32251   3.539   1.888   8.475  0.3797 -0.2133  1.0411
 6930SOL    HW132252   3.563   1.901   8.566  2.3913 -0.0992  0.4856
 6930SOL    HW232253   3.445   1.906   8.484  0.5199  1.4709 -0.8228
 6931SOL     OW32254   0.920   2.928  12.197 -0.5279  0.4200  0.5285
 6931SOL    HW132255   1.002   2.953  12.238  0.9052 -0.5123 -1.7775
 6931SOL    HW232256   0.916   2.973  12.112 -0.1344  0.6330  0.6246
 6932SOL     OW32257   0.241   2.510   2.115 -0.2812  0.1192 -0.3598
 6932SOL    HW132258   0.184   2.579   2.148 -2.5658 -1.9294 -0.0679
 6932SOL    HW232259   0.236   2.457   2.195  0.7714  0.0221 -0.3488
 6933SOL     OW32260   0.612   3.720   5.666  0.2218 -0.2643  0.3172
 6933SOL    HW132261   0.661   3.789   5.621  1.5867  0.1519  2.4391
 6933SOL    HW232262   0.612   3.763   5.751 -2.2695  2.0160 -0.8415
 6934SOL     OW32263   2.566   3.714  16.951  0.0273  0.3193 -0.3108
 6934SOL    HW132264   2.493   3.662  16.917 -2.1841  2.4977  1.1061
 6934SOL    HW232265   2.526   3.732  17.036  1.0779 -1.3402  0.5200
 6935SOL     OW32266   2.350   4.141  13.884 -0.1904 -0.0760  0.3053
 6935SOL    HW132267   2.287   4.092  13.936  0.8464 -0.1657  1.4968
 6935SOL    HW232268   2.435   4.105  13.913 -0.2236 -0.6970 -0.3653
 6936SOL     OW32269   1.988   4.114  16.205 -0.4984 -0.3390 -0.1313
 6936SOL    HW132270   1.998   4.075  16.118  0.7171 -1.0197  0.3131
 6936SOL    HW232271   2.017   4.204  16.193 -0.2496 -0.3811  0.1412
 6937SOL     OW32272   0.478   1.715   1.387  0.0271 -0.1006 -0.9499
 6937SOL    HW132273   0.533   1.638   1.402  1.7671  1.0733 -1.2394
 6937SOL    HW232274   0.544   1.778   1.358  1.4768 -0.9745  0.4751
 6938SOL     OW32275   2.427   2.949   9.045 -0.5119  0.2928 -0.1047
 6938SOL    HW132276   2.394   2.981   8.961  0.2003  1.4640  0.0570
 6938SOL    HW232277   2.354   2.900   9.084 -1.5479  2.8000  1.1617
 6939SOL     OW32278   0.105   0.226   5.525 -0.0346 -0.3338 -0.0412
 6939SOL    HW132279   0.103   0.289   5.598 -1.1040 -0.8474  0.3691
 6939SOL    HW232280   0.057   0.153   5.565 -0.5579 -0.3841 -0.7734
 6940SOL     OW32281   0.614   4.339   7.316  0.9618  0.4707  0.3042
 6940SOL    HW132282   0.560   4.375   7.386  0.5621 -2.2733  1.4316
 6940SOL    HW232283   0.706   4.345   7.343  0.8655  2.9994 -0.0061
 6941SOL     OW32284   3.873   2.265  16.846 -0.2530  0.4789 -0.0393
 6941SOL    HW132285   3.824   2.312  16.778 -1.6449 -1.0191 -0.0757
 6941SOL    HW232286   3.951   2.229  16.804  0.7046  0.4975  1.7414
 6942SOL     OW32287   4.434   0.450  11.894  0.2333 -0.3468  0.2652
 6942SOL    HW132288   4.367   0.515  11.871 -1.2446 -1.7119  0.7174
 6942SOL    HW232289   4.416   0.422  11.984  3.3126 -1.5294  0.5181
 6943SOL     OW32290   3.016   0.379   6.306 -0.1611 -0.5751  0.0720
 6943SOL    HW132291   2.953   0.309   6.326  0.5086 -1.9357 -2.5769
 6943SOL    HW232292   3.094   0.348   6.352 -0.6823  0.3586  1.5996
 6944SOL     OW32293   3.485   4.490   3.849 -0.5019 -0.2298  0.3350
 6944SOL    HW132294   3.493   4.421   3.915 -0.3028 -0.0809  0.4665
 6944SOL    HW232295   3.545   4.464   3.779  1.1458  1.4169  1.1295
 6945SOL     OW32296   0.750   3.429   7.362 -0.4843 -0.0204 -0.3734
 6945SOL    HW132297   0.742   3.461   7.452  0.1199  3.4320 -1.5301
 6945SOL    HW232298   0.685   3.485   7.320 -1.6391 -0.7359  0.4829
 6946SOL     OW32299   1.401   0.780   5.770  0.2639  0.0620 -0.3202
 6946SOL    HW132300   1.392   0.757   5.678 -0.4179  0.2836 -0.3090
 6946SOL    HW232301   1.344   0.856   5.785 -1.7443 -1.3202 -0.8474
 6947SOL     OW32302   0.920   0.855   8.475  0.0699  0.0992 -0.2040
 6947SOL    HW132303   0.944   0.936   8.429  3.2361 -1.1821 -0.7335
 6947SOL    HW232304   0.947   0.865   8.566 -0.7847  0.1218  0.0493
 6948SOL     OW32305   0.914   4.652   4.076 -0.2699 -0.3615 -0.2514
 6948SOL    HW132306   0.921   0.007   4.133  0.1727 -1.4705  1.1867
 6948SOL    HW232307   0.941   4.691   3.993 -0.1177 -3.0725 -1.4877
 6949SOL     OW32308   4.086   3.719  14.054  0.2149  0.0778 -0.0019
 6949SOL    HW132309   4.003   3.673  14.066 -0.0344  0.4161 -0.4271
 6949SOL    HW232310   4.114   3.690  13.967 -2.0888  0.1034 -0.7410
 6950SOL     OW32311   2.073   3.098   3.199 -0.5442  0.0025 -0.0277
 6950SOL    HW132312   2.038   3.029   3.144  0.8199  0.7334 -1.7995
 6950SOL    HW232313   2.002   3.161   3.184 -1.0629 -0.1611  1.7224
 6951SOL     OW32314   2.857   1.562   3.207  0.4112  0.8165  0.1584
 6951SOL    HW132315   2.867   1.541   3.114 -1.8380 -1.1876  0.3479
 6951SOL    HW232316   2.766   1.592   3.215  0.5930  1.4235 -0.0724
 6952SOL     OW32317   3.857   0.905  13.485  0.6201  0.1943  0.2239
 6952SOL    HW132318   3.918   0.936  13.418  0.9736  1.1496  0.9816
 6952SOL    HW232319   3.794   0.977  13.487  0.1586 -0.2405  1.5450
 6953SOL     OW32320   3.450   0.343   5.228  0.3757  0.1902 -0.0210
 6953SOL    HW132321   3.356   0.351   5.247  0.5600  0.9253  0.5547
 6953SOL    HW232322   3.477   0.360   5.318  0.5361 -1.0810  0.1692
 6954SOL     OW32323   2.210   0.009   5.095  0.1177 -0.3693 -0.8550
 6954SOL    HW132324   2.177   4.668   5.030  1.1876 -0.2999 -1.4754
 6954SOL    HW232325   2.297   0.030   5.059  0.6402 -1.8895 -0.4792
 6955SOL     OW32326   1.080   2.347  16.483 -0.0926 -0.2957 -0.0378
 6955SOL    HW132327   1.003   2.404  16.478  1.3073  1.7411  1.3404
 6955SOL    HW232328   1.065   2.297  16.564  0.1127  1.8741  1.3512
 6956SOL     OW32329   0.925   3.310   5.358 -1.0566  0.0943 -0.3394
 6956SOL    HW132330   0.834   3.282   5.366 -0.5069 -1.3537  0.8073
 6956SOL    HW232331   0.937   3.320   5.264 -1.0209 -0.4141 -0.3893
 6957SOL     OW32332   1.736   2.925   6.078 -0.0655  0.0149  0.0505
 6957SOL    HW132333   1.694   2.947   5.995  1.4087  1.0281 -0.4281
 6957SOL    HW232334   1.827   2.926   6.049  0.0966 -3.2684  0.4357
 6958SOL     OW32335   0.705   0.434  10.998  0.4267 -0.4019  0.5800
 6958SOL    HW132336   0.670   0.373  11.063  0.2512  0.2422  1.0908
 6958SOL    HW232337   0.759   0.368  10.954  1.3683  1.2292 -0.7018
 6959SOL     OW32338   0.214   2.847   6.640 -0.0670  0.0139 -0.4941
 6959SOL    HW132339   0.305   2.870   6.624 -0.1066  0.4269 -0.1356
 6959SOL    HW232340   0.197   2.803   6.557  3.6198 -1.6975 -0.3186
 6960SOL     OW32341   0.727   2.913   5.664 -0.0104  0.3288  0.3597
 6960SOL    HW132342   0.645   2.865   5.673  0.7153 -0.9251  0.2100
 6960SOL    HW232343   0.739   2.959   5.747 -1.2738 -0.5949  1.0384
 6961SOL     OW32344   0.154   4.109   3.803 -0.5404 -0.1472  0.1159
 6961SOL    HW132345   0.115   4.092   3.718  0.6125 -1.0579 -0.2205
 6961SOL    HW232346   0.216   4.037   3.812  0.0766  0.2811 -0.7558
 6962SOL     OW32347   4.198   3.875   6.167 -0.7758  0.2000 -0.0895
 6962SOL    HW132348   4.144   3.921   6.102  2.3940 -0.6686 -3.2847
 6962SOL    HW232349   4.232   3.812   6.104 -0.2067 -0.8328  1.2504
 6963SOL     OW32350   2.517   4.558  15.192 -0.6843  0.6827  0.1158
 6963SOL    HW132351   2.599   4.537  15.237 -0.6633  0.8206  0.1415
 6963SOL    HW232352   2.516   4.653  15.204 -0.0936  0.8344 -0.9859
 6964SOL     OW32353   0.007   2.351   0.191 -0.1027 -0.9102 -0.7496
 6964SOL    HW132354   4.690   2.372   0.277  0.5923  0.7202 -0.8531
 6964SOL    HW232355   4.711   2.257   0.183  0.7150 -1.1473  0.2886
 6965SOL     OW32356   0.400   0.132   6.442  0.3128  0.6350 -0.3995
 6965SOL    HW132357   0.396   0.062   6.508 -0.5337  0.2984 -0.7979
 6965SOL    HW232358   0.424   0.205   6.499 -0.4314  1.1300 -0.7209
 6966SOL     OW32359   1.560   4.655  15.459 -0.6001 -0.1784  0.3975
 6966SOL    HW132360   1.641   4.682  15.415 -0.5176 -3.9350 -1.7363
 6966SOL    HW232361   1.557   4.712  15.536  2.7366  0.5748 -0.0181
 6967SOL     OW32362   2.382   2.696   6.669  0.0192 -0.4180  0.0512
 6967SOL    HW132363   2.470   2.656   6.667  0.0649 -0.3557  0.7287
 6967SOL    HW232364   2.350   2.668   6.755  2.0407 -1.5904  0.4413
 6968SOL     OW32365   2.246   3.108   0.353 -0.6528 -0.0090  0.2964
 6968SOL    HW132366   2.251   3.201   0.333 -1.5315  0.0597  0.3962
 6968SOL    HW232367   2.177   3.083   0.292  0.7042 -0.4253 -1.0615
 6969SOL     OW32368   1.602   4.358   8.970  0.0243  0.0064 -0.4202
 6969SOL    HW132369   1.535   4.388   9.031  2.4104  1.3093  1.5385
 6969SOL    HW232370   1.566   4.280   8.927 -0.0938  0.5909 -1.3825
 6970SOL     OW32371   1.291   4.180   1.782  0.4416  0.2024 -0.0563
 6970SOL    HW132372   1.255   4.266   1.808  1.0555  0.7909 -1.1694
 6970SOL    HW232373   1.296   4.135   1.866 -2.0082 -1.4900 -0.8140
 6971SOL     OW32374   2.694   1.990   3.652 -0.5040  0.5032 -0.6783
 6971SOL    HW132375   2.656   1.965   3.736 -0.8431  1.1855 -0.6331
 6971SOL    HW232376   2.750   1.913   3.642 -0.6631  0.1120  1.3576
 6972SOL     OW32377   1.776   2.469   8.953 -0.0254  0.4863 -0.3195
 6972SOL    HW132378   1.760   2.452   8.860 -3.6844  1.0895  0.2268
 6972SOL    HW232379   1.742   2.558   8.962  1.8613  1.1553  0.3661
 6973SOL     OW32380   4.064   0.446   1.974  0.3343 -0.4407 -0.1303
 6973SOL    HW132381   4.005   0.389   1.923 -2.3787  2.5914 -0.3878
 6973SOL    HW232382   3.999   0.490   2.028  0.1579 -2.1989  1.1021
 6974SOL     OW32383   0.021   4.419   6.431 -0.6927  0.3204  0.2589
 6974SOL    HW132384   0.020   4.440   6.338 -0.4525 -1.7754 -0.2044
 6974SOL    HW232385   4.674   4.353   6.438 -1.4108  1.1381  1.1090
 6975SOL     OW32386   4.255   1.091   8.303  0.0921  0.1766 -0.2773
 6975SOL    HW132387   4.334   1.063   8.257 -1.3422 -1.8277 -1.5305
 6975SOL    HW232388   4.301   1.106   8.385 -1.0846  0.3592  0.3539
 6976SOL     OW32389   1.545   2.125  10.086  0.0490  0.4503  0.4006
 6976SOL    HW132390   1.497   2.202  10.116  2.3931  1.1931  2.2388
 6976SOL    HW232391   1.472   2.069  10.061  1.5428 -0.0579 -2.9048
 6977SOL     OW32392   0.578   1.366  11.670  0.4365  0.5365 -0.2573
 6977SOL    HW132393   0.532   1.320  11.600  3.0612 -0.2244 -1.4889
 6977SOL    HW232394   0.514   1.429  11.703 -0.0367  0.0298 -0.2061
 6978SOL     OW32395   2.784   3.508  11.433  0.0310 -0.0766 -0.1325
 6978SOL    HW132396   2.765   3.563  11.509 -2.6443 -1.9161  0.5367
 6978SOL    HW232397   2.746   3.421  11.449 -0.7807  0.3170  0.0527
 6979SOL     OW32398   0.985   1.871   9.306  0.3097  0.7637 -0.2106
 6979SOL    HW132399   0.912   1.931   9.290  0.0175 -0.0405 -1.8372
 6979SOL    HW232400   0.997   1.902   9.396  1.8023  1.5727 -0.6858
 6980SOL     OW32401   4.562   2.503   0.048 -0.2850 -0.4603  0.6770
 6980SOL    HW132402   4.581   2.439  17.664  0.2625  2.0777 -1.5302
 6980SOL    HW232403   4.622   2.469   0.113  0.4348 -0.6161 -0.0700
 6981SOL     OW32404   4.663   3.710   6.585  0.0822  0.3771  0.2844
 6981SOL    HW132405   0.034   3.725   6.562 -0.3463  0.8254 -1.1215
 6981SOL    HW232406   4.661   3.618   6.611 -0.4066  0.5034  0.6987
 6982SOL     OW32407   3.970   1.155   4.012 -0.2256 -0.0959 -0.3549
 6982SOL    HW132408   3.904   1.086   4.005 -0.7206  0.1293  2.1618
 6982SOL    HW232409   3.933   1.215   4.077 -1.3988 -0.1782 -0.9468
 6983SOL     OW32410   3.414   1.447   1.782  0.4073  0.1903 -0.4428
 6983SOL    HW132411   3.441   1.500   1.857  0.1392 -1.3802  0.7474
 6983SOL    HW232412   3.322   1.431   1.801  0.7552 -0.9137  0.2912
 6984SOL     OW32413   0.086   1.599   3.784  0.4020 -0.0264 -0.6122
 6984SOL    HW132414   0.166   1.549   3.799 -0.5586  0.0722  4.8081
 6984SOL    HW232415   0.026   1.541   3.830  0.6658 -0.4519 -0.8055
 6985SOL     OW32416   4.189   4.106  14.466 -0.8828  0.2467 -0.2419
 6985SOL    HW132417   4.199   4.037  14.531 -1.7071 -0.3709 -0.7793
 6985SOL    HW232418   4.118   4.152  14.511  0.1130  1.3359  0.2340
 6986SOL     OW32419   3.137   1.331   5.257  0.5046  0.3223  0.2001
 6986SOL    HW132420   3.081   1.408   5.271 -0.6682 -0.2478 -1.4335
 6986SOL    HW232421   3.123   1.321   5.163  0.0320 -0.9336  0.4039
 6987SOL     OW32422   1.871   4.649   4.744  0.3841  0.3306 -0.1405
 6987SOL    HW132423   1.794   4.593   4.730  0.9634 -0.5147  0.0599
 6987SOL    HW232424   1.903   4.653   4.654 -0.6186 -1.3909 -0.5792
 6988SOL     OW32425   3.989   2.842   3.209 -0.1795 -0.0396 -0.0892
 6988SOL    HW132426   4.053   2.848   3.280 -1.0799 -1.7962  0.8924
 6988SOL    HW232427   3.936   2.920   3.194 -0.2561  0.0550  0.6864
 6989SOL     OW32428   4.263   3.909   7.592  0.0421  0.0278  0.2501
 6989SOL    HW132429   4.319   3.839   7.558 -0.7583 -1.5180  2.1147
 6989SOL    HW232430   4.194   3.863   7.641 -0.3219 -0.4764 -0.7442
 6990SOL     OW32431   4.497   0.714   6.861  0.1684  1.0039  0.4451
 6990SOL    HW132432   4.585   0.676   6.867 -0.1621  0.5599  2.3365
 6990SOL    HW232433   4.469   0.711   6.953 -2.5468 -1.3426 -0.4386
 6991SOL     OW32434   0.649   3.183  12.580  0.1665  0.0501 -0.6253
 6991SOL    HW132435   0.630   3.235  12.657  0.0617  3.5314 -3.0068
 6991SOL    HW232436   0.646   3.100  12.628  0.9181 -0.4240 -1.3964
 6992SOL     OW32437   3.968   4.063   8.302 -0.3643  0.3306  0.0905
 6992SOL    HW132438   4.001   3.992   8.248  0.2105  1.0469 -0.4866
 6992SOL    HW232439   4.049   4.113   8.313 -0.3074  0.0964  0.7279
 6993SOL     OW32440   2.150   2.063   4.702 -0.0808  0.0646  0.1173
 6993SOL    HW132441   2.211   2.124   4.661 -0.0794 -0.6528 -0.9563
 6993SOL    HW232442   2.065   2.096   4.675  1.8138  4.0546 -0.9269
 6994SOL     OW32443   4.697   2.341  11.256 -0.0647  0.3699 -0.7740
 6994SOL    HW132444   4.703   2.273  11.188  1.3465 -0.3412  0.0793
 6994SOL    HW232445   4.707   2.420  11.204 -1.6570 -1.0213 -3.2428
 6995SOL     OW32446   1.940   1.664   8.740 -0.2778  0.2625  0.1678
 6995SOL    HW132447   1.905   1.596   8.682 -2.3617  2.6345 -1.3878
 6995SOL    HW232448   1.879   1.650   8.812 -0.5209 -1.5560 -0.3893
 6996SOL     OW32449   0.621   2.099   4.954  0.2943  0.8162 -0.0737
 6996SOL    HW132450   0.713   2.119   4.941  0.3698  0.0250 -0.8104
 6996SOL    HW232451   0.634   2.004   4.951  1.2851  0.9323  0.5002
 6997SOL     OW32452   0.798   0.367   5.099  0.2960 -0.1440  0.1689
 6997SOL    HW132453   0.835   0.301   5.041  2.0644  1.8642 -0.9992
 6997SOL    HW232454   0.812   0.443   5.043  1.6701 -0.2595  0.3628
 6998SOL     OW32455   4.374   0.766   3.060 -0.1115 -0.1233 -1.0186
 6998SOL    HW132456   4.443   0.832   3.070 -0.9571  0.5882  0.0596
 6998SOL    HW232457   4.415   0.690   3.101 -0.1570  0.1926 -0.3934
 6999SOL     OW32458   1.266   3.395   7.765  0.0706 -0.1586  0.4137
 6999SOL    HW132459   1.233   3.360   7.683  1.3037  0.0290 -0.1620
 6999SOL    HW232460   1.186   3.421   7.811  1.6900  0.7007  2.7483
 7000SOL     OW32461   3.234   0.787   2.209 -0.7025  0.1747  0.3758
 7000SOL    HW132462   3.161   0.803   2.149 -1.0601  2.1462  1.3465
 7000SOL    HW232463   3.175   0.758   2.279 -1.6551  2.0632  0.3506
 7001SOL     OW32464   4.012   0.927   5.956  0.0452  0.1603  0.2867
 7001SOL    HW132465   4.023   0.973   5.873  1.1456 -1.0716 -0.2499
 7001SOL    HW232466   3.955   0.992   5.999 -1.8869 -0.7769 -0.8739
 7002SOL     OW32467   4.672   0.479   9.275 -0.3883 -0.2511  0.5086
 7002SOL    HW132468   4.669   0.399   9.327  0.5905 -1.8259 -1.8648
 7002SOL    HW232469   4.600   0.532   9.311 -0.6801  1.0972 -2.0439
 7003SOL     OW32470   3.470   0.698   3.104 -1.0760 -0.5238 -0.5625
 7003SOL    HW132471   3.431   0.786   3.099  0.0162 -0.1541 -2.3311
 7003SOL    HW232472   3.450   0.656   3.020  0.5357  1.6897 -2.0457
 7004SOL     OW32473   0.177   3.465   6.395 -0.5636  0.1611 -0.5191
 7004SOL    HW132474   0.156   3.408   6.470 -0.1340  2.1085  1.0913
 7004SOL    HW232475   0.136   3.424   6.319 -2.2599 -1.7106  1.4089
 7005SOL     OW32476   3.648   2.141   7.204 -0.2743 -0.8596  0.1401
 7005SOL    HW132477   3.653   2.210   7.270  3.3890 -0.6531 -0.3209
 7005SOL    HW232478   3.734   2.149   7.162  0.3022 -2.2122  1.0707
 7006SOL     OW32479   3.012   1.515   5.644  0.4931  0.9033  0.3124
 7006SOL    HW132480   3.005   1.494   5.737  0.0266 -2.6045 -0.5211
 7006SOL    HW232481   3.044   1.605   5.641  2.4267  0.1746 -1.3581
 7007SOL     OW32482   1.915   0.970   6.531 -0.6898  0.3580 -0.1803
 7007SOL    HW132483   1.834   0.933   6.494 -2.0490  0.5299  2.6819
 7007SOL    HW232484   1.979   0.963   6.460 -1.3496 -1.1685 -0.6256
 7008SOL     OW32485   3.907   3.437  10.110 -0.0563  0.0415  0.1733
 7008SOL    HW132486   3.840   3.433  10.178  1.8092 -0.2462  2.0301
 7008SOL    HW232487   3.974   3.376  10.143 -1.4782 -2.7538 -2.1143
 7009SOL     OW32488   1.797   0.297  15.577  0.1558  0.3293 -0.3432
 7009SOL    HW132489   1.859   0.320  15.508  0.4579  0.1380 -0.1353
 7009SOL    HW232490   1.810   0.203  15.589 -1.0707 -0.0594 -2.1061
 7010SOL     OW32491   3.211   4.193   8.551  0.1334  0.4265 -0.5116
 7010SOL    HW132492   3.169   4.206   8.637 -1.5067 -2.8339 -0.8171
 7010SOL    HW232493   3.280   4.259   8.556 -1.4138  2.0798 -0.4741
 7011SOL     OW32494   2.780   3.512   7.084 -0.4862 -0.3608 -0.1338
 7011SOL    HW132495   2.702   3.552   7.122  0.6476 -0.2665  2.1035
 7011SOL    HW232496   2.805   3.449   7.151 -2.0562  2.2362  2.8809
 7012SOL     OW32497   3.624   3.808  14.244 -0.0927  0.4754  0.3378
 7012SOL    HW132498   3.567   3.827  14.319  0.5013  1.1238  0.6207
 7012SOL    HW232499   3.582   3.869  14.183  1.2117  1.0778  0.0536
 7013SOL     OW32500   3.361   2.160   1.074 -0.2758 -0.8034  0.4783
 7013SOL    HW132501   3.332   2.074   1.043 -1.1061  0.1293 -1.3092
 7013SOL    HW232502   3.449   2.162   1.036 -0.0817 -0.2038  0.9633
 7014SOL     OW32503   3.680   1.641   5.386 -0.0653 -0.5682 -0.1189
 7014SOL    HW132504   3.644   1.721   5.426 -1.5388 -1.0872 -0.4002
 7014SOL    HW232505   3.602   1.599   5.350 -0.1255  0.0127 -0.6700
 7015SOL     OW32506   3.857   2.173   6.354  0.3875 -0.2825  0.1922
 7015SOL    HW132507   3.931   2.148   6.410  0.0197 -0.6928  0.4949
 7015SOL    HW232508   3.828   2.259   6.384 -0.4367 -0.3483 -0.4358
 7016SOL     OW32509   1.082   2.524  10.221 -0.6094 -0.2230  0.0211
 7016SOL    HW132510   1.010   2.481  10.267  0.6009 -1.3465  0.8663
 7016SOL    HW232511   1.057   2.530  10.128  1.2318 -0.6373 -0.5077
 7017SOL     OW32512   0.701   1.010   7.356 -0.8742 -0.0443  0.6685
 7017SOL    HW132513   0.754   1.040   7.283 -1.6746  2.6958  1.2116
 7017SOL    HW232514   0.762   0.952   7.402 -0.4386  0.1604  0.3519
 7018SOL     OW32515   1.900   1.402   4.696 -0.7051  0.8290  0.0684
 7018SOL    HW132516   1.984   1.359   4.676 -0.2932  0.8799  1.6785
 7018SOL    HW232517   1.864   1.403   4.607  1.3070 -3.3967 -0.7766
 7019SOL     OW32518   4.572   1.019   2.312  0.3138 -0.2755  0.2599
 7019SOL    HW132519   4.646   0.997   2.256  0.7788 -0.0272  0.7702
 7019SOL    HW232520   4.623   1.061   2.381 -0.9156  0.1876  0.9010
 7020SOL     OW32521   2.095   2.755  16.072  0.2096 -0.3227  0.3417
 7020SOL    HW132522   2.106   2.662  16.092 -1.3085 -0.3332  1.1415
 7020SOL    HW232523   2.183   2.780  16.044  1.5990 -0.1645  4.7628
 7021SOL     OW32524   0.290   0.905   6.215  0.1635 -0.3675 -0.4844
 7021SOL    HW132525   0.385   0.903   6.229  0.1093  0.2574 -0.0292
 7021SOL    HW232526   0.277   0.847   6.141  0.0068  0.6766 -1.2697
 7022SOL     OW32527   0.918   3.588  14.731  0.3072 -0.0019 -0.2335
 7022SOL    HW132528   0.839   3.576  14.784 -1.7029  1.4123 -2.9523
 7022SOL    HW232529   0.983   3.577  14.801 -1.9029  0.6630  1.9236
 7023SOL     OW32530   2.588   3.693   5.660 -0.6854 -0.1100 -0.2633
 7023SOL    HW132531   2.533   3.771   5.667 -1.2269 -0.5824  0.6863
 7023SOL    HW232532   2.521   3.625   5.658 -0.7012 -0.0070 -3.7464
 7024SOL     OW32533   2.504   1.541   0.386 -0.1383 -0.1273 -0.1756
 7024SOL    HW132534   2.409   1.539   0.370  0.3639 -0.1358 -3.1089
 7024SOL    HW232535   2.507   1.624   0.433  1.9833 -0.2962 -0.0190
 7025SOL     OW32536   0.533   3.243   7.295 -0.2128 -0.0692 -0.1609
 7025SOL    HW132537   0.601   3.287   7.346  0.2374  0.5687 -1.3117
 7025SOL    HW232538   0.502   3.310   7.234 -2.3459 -1.6465 -0.8077
 7026SOL     OW32539   0.337   0.606   9.513 -0.1029 -0.3690 -0.3476
 7026SOL    HW132540   0.296   0.549   9.449 -0.1495  0.7850 -1.3561
 7026SOL    HW232541   0.418   0.556   9.522 -0.3620 -0.6540  0.4372
 7027SOL     OW32542   3.866   2.607   1.813 -0.7753 -0.0468 -0.6138
 7027SOL    HW132543   3.869   2.591   1.907  0.9498  0.6420 -0.5458
 7027SOL    HW232544   3.772   2.620   1.806 -1.2159 -1.0030  3.2336
 7028SOL     OW32545   3.984   1.008   9.908  0.0830 -0.6027  0.2493
 7028SOL    HW132546   3.893   0.986   9.926 -0.0205 -0.3542  0.0294
 7028SOL    HW232547   4.027   0.939   9.960  0.5096 -0.1346  0.5168
 7029SOL     OW32548   2.867   2.585   6.645 -0.2201 -0.2995 -0.0914
 7029SOL    HW132549   2.926   2.562   6.573  0.7648 -2.7879  1.5316
 7029SOL    HW232550   2.810   2.509   6.649 -1.2673  0.4862  0.0958
 7030SOL     OW32551   0.254   3.874  11.105  1.1602 -0.2636  0.1691
 7030SOL    HW132552   0.288   3.958  11.072 -0.5893 -0.0264 -1.0052
 7030SOL    HW232553   0.338   3.827  11.112  2.5945  2.3919  0.9807
 7031SOL     OW32554   1.071   4.061  10.234 -0.6064 -0.0476  0.8809
 7031SOL    HW132555   1.119   3.998  10.288 -0.3035  0.2953  1.0218
 7031SOL    HW232556   1.136   4.102  10.176  0.3348 -0.9804  1.2856
 7032SOL     OW32557   1.172   4.154   3.960 -0.4914  0.2020 -0.7352
 7032SOL    HW132558   1.077   4.159   3.947 -0.4462  0.2062 -1.0542
 7032SOL    HW232559   1.193   4.110   3.878  0.2649 -1.4688  0.3354
 7033SOL     OW32560   1.867   3.546  10.835 -0.2170  0.0759  0.3471
 7033SOL    HW132561   1.855   3.567  10.742 -0.0187 -0.7609  0.1308
 7033SOL    HW232562   1.955   3.508  10.834  0.9121  2.7597 -0.8380
 7034SOL     OW32563   3.634   1.780   0.230  0.6569  0.3257  0.2247
 7034SOL    HW132564   3.680   1.858   0.263  0.7662  0.2375  0.2788
 7034SOL    HW232565   3.541   1.804   0.225  0.6240 -0.0259 -0.7027
 7035SOL     OW32566   2.882   3.479   3.601 -0.1079 -0.4691 -0.6186
 7035SOL    HW132567   2.967   3.438   3.617 -1.4683 -2.1958  2.0859
 7035SOL    HW232568   2.820   3.433   3.656  1.8355 -1.2947  0.8651
 7036SOL     OW32569   3.670   3.204   7.833  0.2019  0.5007 -0.3196
 7036SOL    HW132570   3.599   3.211   7.897  0.4021  0.5274 -0.1032
 7036SOL    HW232571   3.631   3.272   7.778  0.7023 -0.0014 -1.3008
 7037SOL     OW32572   4.033   2.054   8.457 -0.6618 -0.5141 -0.3391
 7037SOL    HW132573   4.017   2.135   8.505 -0.1665 -0.1838 -0.7369
 7037SOL    HW232574   3.952   2.057   8.405 -2.4423  1.9735  2.6072
 7038SOL     OW32575   1.048   2.183  16.679  0.3231  0.0382  0.6527
 7038SOL    HW132576   1.042   2.197  16.774  0.6092 -2.3582  1.0439
 7038SOL    HW232577   1.043   2.087  16.683 -2.2513  0.1540 -0.4144
 7039SOL     OW32578   2.842   1.931   4.320 -0.0588  0.5942  0.0154
 7039SOL    HW132579   2.933   1.946   4.297 -0.0074 -0.3584 -0.4034
 7039SOL    HW232580   2.821   2.023   4.337 -0.7579  0.3567  0.4525
 7040SOL     OW32581   1.200   1.370   5.016 -0.4044  0.1363 -0.4251
 7040SOL    HW132582   1.107   1.357   4.997 -0.1176 -0.9910 -1.0831
 7040SOL    HW232583   1.242   1.398   4.935  1.1711 -0.5297  0.1751
 7041SOL     OW32584   3.873   2.540   7.017 -0.1382  0.4576  0.0607
 7041SOL    HW132585   3.782   2.564   7.034 -0.7828 -1.6795 -0.3527
 7041SOL    HW232586   3.858   2.458   6.970 -0.3181  0.5853 -0.1042
 7042SOL     OW32587   3.351   3.081   9.236 -0.2331  0.2417 -0.0036
 7042SOL    HW132588   3.428   3.035   9.270  0.7748  1.9987  0.0973
 7042SOL    HW232589   3.283   3.015   9.247 -1.1475  0.5700 -3.5117
 7043SOL     OW32590   3.827   4.206  16.691 -0.2001  0.1229  0.0351
 7043SOL    HW132591   3.868   4.172  16.770 -2.0200  0.9167  1.3338
 7043SOL    HW232592   3.738   4.172  16.695 -0.9851  1.9911 -1.6035
 7044SOL     OW32593   3.751   2.153   1.165 -0.2659  0.2788  0.2250
 7044SOL    HW132594   3.791   2.186   1.245  0.1957  1.5218 -0.5141
 7044SOL    HW232595   3.746   2.219   1.096 -0.5788 -0.5019 -0.4977
 7045SOL     OW32596   4.256   3.142   8.676 -0.0594  0.8560 -0.0272
 7045SOL    HW132597   4.167   3.108   8.678 -0.4897  2.0401  0.8905
 7045SOL    HW232598   4.245   3.237   8.685  1.7368  1.0460  0.1391
 7046SOL     OW32599   3.906   1.424  15.022  0.0593  0.0417 -0.5368
 7046SOL    HW132600   3.898   1.450  15.114  1.2532 -2.2340  0.2118
 7046SOL    HW232601   3.993   1.457  14.999  0.9915 -2.0463 -0.0768
 7047SOL     OW32602   4.075   3.129   3.356  0.2280 -0.2621  0.7923
 7047SOL    HW132603   4.006   3.186   3.324  1.5059  0.8944  0.0799
 7047SOL    HW232604   4.050   3.052   3.306 -1.1683  1.8205 -1.6730
 7048SOL     OW32605   0.685   1.334   7.908 -0.5296  0.5533  0.2727
 7048SOL    HW132606   0.651   1.317   7.820  2.0236 -0.8085 -0.4444
 7048SOL    HW232607   0.624   1.278   7.956 -0.8521 -1.4630 -2.4701
 7049SOL     OW32608   3.074   0.388   8.238  0.8384 -0.5650 -0.1704
 7049SOL    HW132609   3.055   0.466   8.186  0.8483 -0.4225  0.0422
 7049SOL    HW232610   3.081   0.421   8.327  1.7029 -1.8642  0.2530
 7050SOL     OW32611   3.553   0.183   8.508 -0.6993 -0.9981 -0.0076
 7050SOL    HW132612   3.510   0.133   8.576 -0.2877 -0.6467  0.5128
 7050SOL    HW232613   3.584   0.109   8.456  1.6054  0.7015 -1.0647
 7051SOL     OW32614   0.012   3.131   1.658 -0.2032  0.3787 -0.3725
 7051SOL    HW132615   0.091   3.184   1.671  0.7579 -0.2228 -4.0068
 7051SOL    HW232616   0.052   3.046   1.639 -1.2038  0.2319 -1.7559
 7052SOL     OW32617   3.860   1.432   8.582 -0.0881 -0.0656 -0.0897
 7052SOL    HW132618   3.769   1.429   8.551 -0.2418 -0.3548  0.3937
 7052SOL    HW232619   3.862   1.519   8.621 -0.9420  0.9327 -2.2388
 7053SOL     OW32620   4.365   4.597   5.397 -0.6929  0.1555  0.1756
 7053SOL    HW132621   4.340   4.627   5.484 -1.3550  1.1302 -0.3575
 7053SOL    HW232622   4.325   4.511   5.384 -1.7936  0.6627  0.2564
 7054SOL     OW32623   3.249   2.581  13.422 -0.1791  0.5154 -0.3099
 7054SOL    HW132624   3.208   2.498  13.446 -0.4276  0.2993 -1.4483
 7054SOL    HW232625   3.330   2.554  13.379 -2.3349 -0.9939 -3.4690
 7055SOL     OW32626   2.126   2.899   5.111 -0.0241 -0.0987  0.2582
 7055SOL    HW132627   2.106   2.982   5.067  1.8653  0.3585  0.2513
 7055SOL    HW232628   2.222   2.897   5.115 -0.1323 -0.9924  2.3906
 7056SOL     OW32629   3.263   3.023  15.786 -0.0932 -0.2447 -0.3109
 7056SOL    HW132630   3.177   3.030  15.828  0.3737  0.1096  0.5914
 7056SOL    HW232631   3.235   3.014  15.695  1.8220  0.0655 -0.9255
 7057SOL     OW32632   4.282   3.856   6.528  0.3016  0.1931 -0.0673
 7057SOL    HW132633   4.323   3.890   6.607  2.8928  0.6622 -1.6070
 7057SOL    HW232634   4.361   3.830   6.480  0.1702  1.2100 -0.8380
 7058SOL     OW32635   2.528   3.107  11.029  0.5157 -0.8563 -0.1323
 7058SOL    HW132636   2.561   3.017  11.025  1.3221 -0.5229 -1.0461
 7058SOL    HW232637   2.568   3.136  11.112  1.3504 -1.5483 -0.2868
 7059SOL     OW32638   0.882   0.966   3.813 -0.5772 -0.0087  0.1701
 7059SOL    HW132639   0.864   1.038   3.753  1.6218  2.3804  2.3914
 7059SOL    HW232640   0.977   0.968   3.801 -0.4226 -0.2382  1.3866
 7060SOL     OW32641   2.228   3.915   7.963  0.4879 -0.4712 -0.3163
 7060SOL    HW132642   2.310   3.898   7.916  1.7850  1.7488  1.0755
 7060SOL    HW232643   2.210   3.827   7.994  0.9118  0.6582  3.1902
 7061SOL     OW32644   0.531   1.485   6.159 -0.0744 -0.3519 -0.1681
 7061SOL    HW132645   0.505   1.486   6.067  0.4685  0.7054 -0.3174
 7061SOL    HW232646   0.627   1.487   6.152 -0.0551  1.1082  0.4820
 7062SOL     OW32647   3.675   1.674   8.372 -0.5804 -0.7917  0.4821
 7062SOL    HW132648   3.700   1.716   8.290  1.0240  0.4841  1.6189
 7062SOL    HW232649   3.616   1.737   8.414  2.0475  2.8215 -1.1786
 7063SOL     OW32650   1.747   3.703   6.934 -0.4075  0.1711 -0.0904
 7063SOL    HW132651   1.714   3.620   6.968  0.0484  1.1352  2.6995
 7063SOL    HW232652   1.694   3.720   6.856  0.6926 -2.2408 -1.3688
 7064SOL     OW32653   3.226   3.710   3.598  0.2357 -0.1962  0.5236
 7064SOL    HW132654   3.201   3.802   3.599 -0.5367 -0.3886 -0.6103
 7064SOL    HW232655   3.173   3.682   3.672  3.0605 -0.7649  2.3054
 7065SOL     OW32656   3.164   3.687  15.324  0.2778  0.0933 -0.3379
 7065SOL    HW132657   3.085   3.667  15.273  0.3625 -0.8403 -0.0975
 7065SOL    HW232658   3.133   3.652  15.407  0.3449  0.4070 -0.1813
 7066SOL     OW32659   0.482   1.788  15.372  0.1757 -0.1255 -0.6821
 7066SOL    HW132660   0.429   1.831  15.438 -2.4316  0.0056 -2.8451
 7066SOL    HW232661   0.464   1.831  15.288 -1.0934  0.1328 -0.2799
 7067SOL     OW32662   0.246   1.840  13.634 -0.0041  0.3040 -0.5919
 7067SOL    HW132663   0.201   1.802  13.709 -1.0752  0.9907 -0.8912
 7067SOL    HW232664   0.292   1.911  13.677 -1.1872  0.9281 -0.3660
 7068SOL     OW32665   2.676   2.821   7.025 -0.1420 -0.5174  0.1810
 7068SOL    HW132666   2.701   2.829   6.933 -0.9042 -1.0915 -0.0829
 7068SOL    HW232667   2.653   2.728   7.013  1.1938 -0.8111 -0.0912
 7069SOL     OW32668   4.147   4.159   5.863  0.4565 -0.0216 -0.4101
 7069SOL    HW132669   4.109   4.190   5.781  0.7254 -1.7768 -1.1897
 7069SOL    HW232670   4.110   4.076   5.892  1.2979  0.4378  1.9826
 7070SOL     OW32671   0.616   0.714   0.958  0.8500  0.3488  0.3145
 7070SOL    HW132672   0.531   0.744   0.928  1.1315  0.5028 -0.3194
 7070SOL    HW232673   0.621   0.620   0.937  0.2881  0.2689  0.5428
 7071SOL     OW32674   3.295   1.883   8.573  0.0496 -0.3812 -0.1933
 7071SOL    HW132675   3.250   1.801   8.592  0.3172 -0.1049  1.6136
 7071SOL    HW232676   3.223   1.946   8.564 -0.7292 -1.2380  0.1106
 7072SOL     OW32677   1.197   0.442   8.476 -0.4700  0.4397 -0.0621
 7072SOL    HW132678   1.157   0.406   8.556  0.9421 -0.1457  0.3778
 7072SOL    HW232679   1.178   0.536   8.482 -0.4720  0.4356  0.0021
 7073SOL     OW32680   1.444   3.125   6.351 -0.3225 -0.0264 -0.1601
 7073SOL    HW132681   1.478   3.177   6.278 -0.3198  0.9536  0.5435
 7073SOL    HW232682   1.434   3.194   6.416  1.7737  0.0776  0.0433
 7074SOL     OW32683   0.934   3.975  12.078  0.0745  1.0052  0.0238
 7074SOL    HW132684   0.845   3.996  12.108 -0.1856  1.5385 -1.1545
 7074SOL    HW232685   0.912   3.934  11.994 -1.6556  0.9514  0.4956
 7075SOL     OW32686   4.546   4.631   3.484 -0.0872 -0.2360  0.0752
 7075SOL    HW132687   4.513   4.656   3.397 -1.4055 -0.4335  0.5118
 7075SOL    HW232688   4.641   4.640   3.475  0.0210 -1.3892  0.1722
 7076SOL     OW32689   4.052   4.582   0.400  0.2412 -0.3190  0.0786
 7076SOL    HW132690   4.077   4.639   0.473 -0.3977 -0.3623  0.3275
 7076SOL    HW232691   4.101   4.628   0.332  2.2366 -0.1808  1.5918
 7077SOL     OW32692   4.490   4.367  10.314 -0.3229  0.7124 -0.5298
 7077SOL    HW132693   4.550   4.342  10.244  0.4327  3.0315 -0.7116
 7077SOL    HW232694   4.543   4.365  10.394 -0.0773  1.7955 -0.6677
 7078SOL     OW32695   0.949   1.283   2.495 -0.0144  0.3990  0.4554
 7078SOL    HW132696   0.874   1.242   2.453 -0.8555  0.9866  1.3905
 7078SOL    HW232697   0.909   1.369   2.508 -0.4779  0.3253 -0.4869
 7079SOL     OW32698   3.569   2.328   3.415 -0.6985 -0.2775  0.4176
 7079SOL    HW132699   3.548   2.234   3.406  1.7882 -0.4351 -3.5248
 7079SOL    HW232700   3.588   2.349   3.324  1.4601 -1.2231  0.6489
 7080SOL     OW32701   3.894   1.768   3.636  0.1925  0.4091  0.0718
 7080SOL    HW132702   3.984   1.758   3.606 -0.2798 -0.1546 -1.1891
 7080SOL    HW232703   3.900   1.765   3.731 -0.3982 -3.0506  0.0062
 7081SOL     OW32704   0.381   4.163   6.724 -0.5199  0.1863 -0.2782
 7081SOL    HW132705   0.456   4.198   6.772 -0.5525 -0.6889  0.4052
 7081SOL    HW232706   0.437   4.137   6.650  0.7967 -2.3079  1.6039
 7082SOL     OW32707   2.827   1.609   3.883  0.2462 -0.2280 -0.2008
 7082SOL    HW132708   2.783   1.640   3.962 -0.8943  1.2166 -1.4160
 7082SOL    HW232709   2.761   1.553   3.841 -0.2913 -0.5547  1.0925
 7083SOL     OW32710   2.429   1.312   6.155 -0.3996  0.2170 -0.0876
 7083SOL    HW132711   2.385   1.392   6.184  0.9305  1.3402 -1.1715
 7083SOL    HW232712   2.489   1.293   6.227  2.4279 -0.7762 -2.7032
 7084SOL     OW32713   0.188   0.704  17.521  0.6668  0.9462  0.2890
 7084SOL    HW132714   0.162   0.636  17.584 -0.3889  1.4420  0.3858
 7084SOL    HW232715   0.283   0.706  17.534  0.4303  0.3614  2.2157
 7085SOL     OW32716   1.127   2.309  11.464  0.3011  0.0457 -0.5142
 7085SOL    HW132717   1.171   2.256  11.397  1.0324  0.7393 -0.5832
 7085SOL    HW232718   1.184   2.294  11.539 -0.5004 -0.7538 -0.0659
 7086SOL     OW32719   3.251   3.486  16.905 -0.4991 -0.5163 -0.1157
 7086SOL    HW132720   3.211   3.531  16.830  1.6740 -0.1542 -1.0656
 7086SOL    HW232721   3.312   3.548  16.945 -0.1954 -0.3357 -0.8488
 7087SOL     OW32722   0.874   3.900   3.680 -0.1133 -0.6400 -0.0988
 7087SOL    HW132723   0.921   3.861   3.606  1.6352  1.8122 -0.2625
 7087SOL    HW232724   0.808   3.952   3.635  0.0146  0.1096  0.5769
 7088SOL     OW32725   0.042   0.189   0.862  0.2399  0.2515  0.7376
 7088SOL    HW132726   0.104   0.151   0.925 -1.1435 -0.3586  1.7335
 7088SOL    HW232727   0.005   0.259   0.916 -2.2142 -0.1474 -0.4070
 7089SOL     OW32728   3.833   1.816   4.518  0.6090 -0.1978  0.0321
 7089SOL    HW132729   3.917   1.852   4.546  0.8739 -0.2418 -0.7069
 7089SOL    HW232730   3.840   1.728   4.554  0.6535 -0.6947 -1.1817
 7090SOL     OW32731   4.629   1.424   4.642 -0.0411  0.1011 -0.4432
 7090SOL    HW132732   4.611   1.431   4.549  0.5889  1.1000 -0.4928
 7090SOL    HW232733   4.678   1.342   4.649  0.4610  0.6697  2.8464
 7091SOL     OW32734   0.155   0.490  10.196 -0.2325  0.3870 -0.3215
 7091SOL    HW132735   0.237   0.474  10.242 -1.2368 -1.9968  0.6400
 7091SOL    HW232736   0.172   0.546  10.120 -0.6596  1.0319  0.0539
 7092SOL     OW32737   4.013   3.100   8.115 -0.4352 -0.5275  0.3875
 7092SOL    HW132738   3.924   3.088   8.149 -1.0810 -0.9601 -1.4543
 7092SOL    HW232739   3.994   3.153   8.038 -0.0190  0.8118  1.2063
 7093SOL     OW32740   2.291   0.500  15.373  0.1019  0.3946  0.4084
 7093SOL    HW132741   2.242   0.520  15.293 -0.5146 -1.0264  0.4160
 7093SOL    HW232742   2.375   0.541  15.354 -0.1601  1.7250  2.1467
 7094SOL     OW32743   0.196   2.800   4.514  0.3472  0.1933 -0.3120
 7094SOL    HW132744   0.162   2.714   4.539  1.3916 -0.3043 -0.6226
 7094SOL    HW232745   0.136   2.824   4.444 -2.2023  0.0838  1.8173
 7095SOL     OW32746   0.328   1.465   7.089  0.1576  0.4188  0.4951
 7095SOL    HW132747   0.250   1.411   7.075  0.1208  0.7384 -0.4785
 7095SOL    HW232748   0.396   1.426   7.034  0.8692  0.9324  0.9986
 7096SOL     OW32749   2.074   3.446   7.269 -0.0535 -0.5617 -0.1969
 7096SOL    HW132750   2.064   3.485   7.182  0.1658  0.2566  0.1451
 7096SOL    HW232751   2.048   3.518   7.327  1.4956  0.1435 -0.3750
 7097SOL     OW32752   2.770   0.335  12.941 -0.2152 -0.0507  0.4844
 7097SOL    HW132753   2.702   0.386  12.897  1.5678  0.4267 -1.6934
 7097SOL    HW232754   2.715   0.282  12.999  0.7047 -1.8544 -0.2988
 7098SOL     OW32755   2.333   1.431   7.111 -1.3000 -0.2444 -0.2413
 7098SOL    HW132756   2.363   1.421   7.201  1.1889  0.5976 -0.9813
 7098SOL    HW232757   2.288   1.515   7.123  0.1925  0.6647 -1.0670
 7099SOL     OW32758   3.918   3.453  14.285  0.3159 -0.2338  0.1367
 7099SOL    HW132759   3.954   3.399  14.356 -0.0786  0.0361  0.5418
 7099SOL    HW232760   3.966   3.416  14.211  0.8745  2.4584 -0.8537
 7100SOL     OW32761   1.158   0.753   3.290 -1.1435  0.0711 -0.1430
 7100SOL    HW132762   1.215   0.696   3.237 -1.4073 -0.8648  0.5938
 7100SOL    HW232763   1.143   0.826   3.229 -1.0306  0.6798  0.5676
 7101SOL     OW32764   3.896   2.099   5.731  0.1749 -0.3140 -0.3893
 7101SOL    HW132765   3.806   2.084   5.760  0.5062 -1.5592 -0.0058
 7101SOL    HW232766   3.882   2.092   5.637  0.8354 -0.1641 -0.4954
 7102SOL     OW32767   2.230   4.375  12.555 -0.6266 -0.2685  0.3167
 7102SOL    HW132768   2.173   4.307  12.522  0.0567  0.0496 -1.5383
 7102SOL    HW232769   2.226   4.426  12.473 -0.5768 -1.7002 -0.5749
 7103SOL     OW32770   1.214   1.556   3.373  0.0447  0.3224  0.0400
 7103SOL    HW132771   1.185   1.624   3.312  0.3005 -1.6732 -2.2859
 7103SOL    HW232772   1.239   1.486   3.313  1.4102  1.3927 -0.6335
 7104SOL     OW32773   1.226   0.228   5.886  0.3309  0.3696 -0.1122
 7104SOL    HW132774   1.296   0.168   5.909 -1.0189 -0.8850  0.7715
 7104SOL    HW232775   1.176   0.167   5.831 -1.6152 -0.0613  2.1215
 7105SOL     OW32776   3.490   0.534   0.782 -0.7681 -0.0462  0.0236
 7105SOL    HW132777   3.519   0.493   0.701 -0.4702  0.0085  0.1013
 7105SOL    HW232778   3.406   0.577   0.765  0.2670  0.8302 -2.7897
 7106SOL     OW32779   4.719   4.311  14.991  0.6061  0.1741 -0.2679
 7106SOL    HW132780   4.672   4.366  14.928 -0.0007 -0.1777 -0.1224
 7106SOL    HW232781   0.082   4.305  14.945 -0.2310  3.8190 -2.2746
 7107SOL     OW32782   0.279   4.119   2.229 -0.5244 -0.7524 -0.4736
 7107SOL    HW132783   0.349   4.177   2.199 -1.2026 -1.1937 -2.8899
 7107SOL    HW232784   0.312   4.092   2.315  1.7426 -1.9900 -1.7291
 7108SOL     OW32785   0.267   0.808   2.711 -0.0694  0.1372  0.3102
 7108SOL    HW132786   0.362   0.817   2.709 -0.0945  0.0461 -1.3165
 7108SOL    HW232787   0.246   0.719   2.683  0.8281 -0.2731  0.9769
 7109SOL     OW32788   4.584   4.395  14.779  0.5743  0.7217 -0.3432
 7109SOL    HW132789   4.553   4.328  14.717 -0.4613  0.4736  0.4428
 7109SOL    HW232790   4.531   4.474  14.768 -1.6063 -0.3449  2.6743
 7110SOL     OW32791   1.252   0.544   4.518  0.3078  0.0683 -0.2253
 7110SOL    HW132792   1.314   0.471   4.516 -0.6355 -0.7004 -1.2039
 7110SOL    HW232793   1.310   0.610   4.556 -0.5798  1.8595 -1.9911
 7111SOL     OW32794   0.352   3.248  12.494 -0.2491  0.6943  0.0868
 7111SOL    HW132795   0.286   3.248  12.563  1.8299 -0.2581  2.1011
 7111SOL    HW232796   0.407   3.172  12.512 -0.5780  0.2090 -0.9745
 7112SOL     OW32797   1.232   2.687   5.951 -0.2629  0.6623 -0.6087
 7112SOL    HW132798   1.156   2.703   5.896 -2.1451 -1.1593  1.4672
 7112SOL    HW232799   1.223   2.738   6.031  0.8171 -0.1570  0.0445
 7113SOL     OW32800   4.460   2.086   3.113  0.0002 -0.0451  0.2863
 7113SOL    HW132801   4.371   2.121   3.112  0.0990  0.1702 -0.5425
 7113SOL    HW232802   4.491   2.088   3.023  0.4066  1.9945  0.4535
 7114SOL     OW32803   4.342   0.028  16.806  0.1653  0.6909  0.4653
 7114SOL    HW132804   4.302   4.662  16.816 -2.2684  2.3794  5.5651
 7114SOL    HW232805   4.417   0.031  16.867  1.1059 -0.3607 -0.6279
 7115SOL     OW32806   0.345   0.773  13.747 -0.1007 -0.5078  0.3465
 7115SOL    HW132807   0.265   0.824  13.758  1.3634  1.6410  1.1496
 7115SOL    HW232808   0.342   0.734  13.834 -1.3298  1.4680  1.1962
 7116SOL     OW32809   0.397   1.948  17.459 -0.2106  0.1919 -0.3629
 7116SOL    HW132810   0.320   1.912  17.504  1.6950 -2.5564  0.6997
 7116SOL    HW232811   0.425   2.012  17.525 -1.9053  0.5010  0.0535
 7117SOL     OW32812   0.483   1.810  17.241  0.5872  0.2656 -0.2625
 7117SOL    HW132813   0.486   1.875  17.311 -2.0975 -0.4261  0.5254
 7117SOL    HW232814   0.389   1.800  17.226  0.7683 -1.6411 -0.1894
 7118SOL     OW32815   3.338   0.329  10.793 -0.2344  0.3367 -0.0278
 7118SOL    HW132816   3.408   0.265  10.807  1.1807  1.7913 -0.4762
 7118SOL    HW232817   3.327   0.343  10.699 -1.4984 -2.5138 -0.2858
 7119SOL     OW32818   1.895   0.475   4.274 -0.4298 -0.0475 -0.0230
 7119SOL    HW132819   1.814   0.426   4.283 -0.6859 -0.1291 -2.6359
 7119SOL    HW232820   1.910   0.466   4.180  2.2471 -0.1124  0.4130
 7120SOL     OW32821   3.456   2.086  14.537 -0.1899 -0.4938 -0.0265
 7120SOL    HW132822   3.418   2.174  14.537  1.6607  0.3113 -3.7241
 7120SOL    HW232823   3.550   2.099  14.544  0.0853 -2.5181 -0.1025
 7121SOL     OW32824   4.122   4.648   1.388  0.1139  0.0636  1.0137
 7121SOL    HW132825   4.058   4.619   1.452  0.4152 -2.4127  0.2025
 7121SOL    HW232826   4.069   4.638   1.309  2.2973  0.3358 -0.5012
 7122SOL     OW32827   1.871   1.903   2.771 -0.1749  0.5824 -0.7925
 7122SOL    HW132828   1.954   1.894   2.724 -0.0892  2.2415 -0.9904
 7122SOL    HW232829   1.871   1.995   2.798 -0.9635 -0.0686  1.4213
 7123SOL     OW32830   3.199   4.647   4.226 -0.1273 -0.1389  0.1234
 7123SOL    HW132831   3.251   0.005   4.244 -1.7011  1.0304 -0.5348
 7123SOL    HW232832   3.179   4.671   4.136  0.0219  0.2750  0.1980
 7124SOL     OW32833   1.169   1.606   3.662  0.0238 -0.0609  0.3798
 7124SOL    HW132834   1.160   1.580   3.571 -0.4241  0.4296  0.2784
 7124SOL    HW232835   1.262   1.612   3.680 -0.2844 -1.0530  2.2594
 7125SOL     OW32836   4.123   1.516   1.368  0.4927 -0.2050  0.2587
 7125SOL    HW132837   4.111   1.554   1.281 -2.3744 -0.1098  0.7116
 7125SOL    HW232838   4.214   1.535   1.390  0.9761 -1.0011 -1.0176
 7126SOL     OW32839   0.078   0.031  16.297 -0.4469 -0.4561  0.2130
 7126SOL    HW132840   4.715   0.078  16.298 -0.5011 -0.5159 -1.2938
 7126SOL    HW232841   0.126   0.076  16.227 -1.0008 -1.3866 -0.7699
 7127SOL     OW32842   2.134   3.961   0.811  0.4575  0.9293  0.1866
 7127SOL    HW132843   2.166   3.879   0.849 -0.8689  0.4173  0.2235
 7127SOL    HW232844   2.108   4.010   0.889  0.4327  1.8482 -0.4011
 7128SOL     OW32845   0.876   3.993   6.298  0.0904  0.1027 -0.0970
 7128SOL    HW132846   0.948   4.054   6.284 -0.7982  1.4685  1.3024
 7128SOL    HW232847   0.800   4.051   6.290  0.8375  0.9232 -1.2303
 7129SOL     OW32848   2.124   2.766   8.178 -0.4736  0.3664 -0.2761
 7129SOL    HW132849   2.119   2.680   8.137 -1.8902  0.5684 -0.4938
 7129SOL    HW232850   2.109   2.746   8.271  0.0489  2.1892  0.2052
 7130SOL     OW32851   0.782   4.368   3.699 -0.3418 -0.1467  0.0601
 7130SOL    HW132852   0.771   4.361   3.605 -1.0351  1.2326  0.0343
 7130SOL    HW232853   0.695   4.353   3.736 -1.7853  1.0714 -2.9038
 7131SOL     OW32854   4.384   0.383   9.994 -0.2535 -0.1612  0.1210
 7131SOL    HW132855   4.464   0.376  10.046  0.1456 -0.7789 -0.5785
 7131SOL    HW232856   4.402   0.306   9.941 -1.4762 -0.2060 -0.2402
 7132SOL     OW32857   0.390   1.222   2.762  0.1955  0.4343  0.2832
 7132SOL    HW132858   0.425   1.168   2.691 -2.3476  0.7976 -1.2363
 7132SOL    HW232859   0.304   1.247   2.729  0.0581 -0.9345 -0.4224
 7133SOL     OW32860   1.051   1.988   1.103 -0.4202 -0.4265  0.1951
 7133SOL    HW132861   1.015   2.008   1.017  0.7038  1.3201  0.1194
 7133SOL    HW232862   1.141   1.985   1.071 -0.4406  1.1059 -0.0034
 7134SOL     OW32863   1.525   2.716   9.689  0.1463 -0.2053 -0.1249
 7134SOL    HW132864   1.619   2.712   9.705 -0.3526 -1.8634  2.2563
 7134SOL    HW232865   1.487   2.787   9.740  3.0258  1.1245  0.1185
 7135SOL     OW32866   1.744   4.590   9.416 -0.3673 -0.3581 -0.4735
 7135SOL    HW132867   1.726   4.676   9.453  0.6872  0.9928 -3.0544
 7135SOL    HW232868   1.663   4.547   9.444 -0.5854  0.4398  0.1225
 7136SOL     OW32869   1.647   3.089   0.913 -0.2893  0.4173  0.1358
 7136SOL    HW132870   1.602   3.129   0.987 -1.3679 -0.1835 -0.1952
 7136SOL    HW232871   1.715   3.156   0.904 -0.1447  0.1832 -0.5486
 7137SOL     OW32872   0.084   4.229   5.030 -0.0987  0.1136 -0.5730
 7137SOL    HW132873   0.024   4.260   5.098  0.3001  0.3988 -0.3485
 7137SOL    HW232874   0.020   4.185   4.975 -1.8889  0.9988  0.8042
 7138SOL     OW32875   1.144   2.225   4.123  0.1977  0.3757 -0.3574
 7138SOL    HW132876   1.222   2.273   4.095  1.0956 -0.4799  0.6782
 7138SOL    HW232877   1.158   2.209   4.217 -0.2001  1.4817 -0.1156
 7139SOL     OW32878   0.786   1.903   1.672  0.0993 -0.3320 -0.0504
 7139SOL    HW132879   0.761   1.951   1.594  1.1394  0.3300  0.0269
 7139SOL    HW232880   0.783   1.814   1.635 -1.4489 -0.4438  0.3605
 7140SOL     OW32881   4.120   2.316   6.599  0.3410 -0.0041 -0.1933
 7140SOL    HW132882   4.079   2.234   6.626  1.1037 -0.1576  0.5098
 7140SOL    HW232883   4.197   2.300   6.654 -0.6870  0.4003  1.3477
 7141SOL     OW32884   0.140   1.947   9.613  0.4120  0.1093 -0.7220
 7141SOL    HW132885   0.202   1.935   9.684 -2.1758 -0.8409  1.4045
 7141SOL    HW232886   0.067   1.980   9.667  1.4268  1.7277 -0.3417
 7142SOL     OW32887   1.624   2.463   5.478  0.2485 -0.0500  0.3105
 7142SOL    HW132888   1.540   2.443   5.435  0.4516  2.2908 -1.1764
 7142SOL    HW232889   1.588   2.498   5.559  0.1968 -1.6827  0.9861
 7143SOL     OW32890   1.025   3.074   0.310  0.2461  0.3041 -0.5110
 7143SOL    HW132891   1.019   3.019   0.388  0.7557  2.9384  1.3956
 7143SOL    HW232892   1.089   3.022   0.261  0.6435 -0.9929  1.3594
 7144SOL     OW32893   2.475   3.313   9.182  0.2747  0.1553  0.0522
 7144SOL    HW132894   2.485   3.265   9.100  0.8475  0.1941  0.0960
 7144SOL    HW232895   2.490   3.403   9.152 -2.3114 -0.1120 -1.9736
 7145SOL     OW32896   1.831   2.417   6.419 -0.4831 -0.4908  0.4032
 7145SOL    HW132897   1.792   2.332   6.440 -1.6962 -0.1336 -0.4270
 7145SOL    HW232898   1.755   2.473   6.433 -0.5400 -0.4168 -0.2055
 7146SOL     OW32899   3.012   4.639   6.996 -0.4741 -0.3133 -0.5163
 7146SOL    HW132900   3.015   0.003   7.039  1.7766 -0.5921 -0.1424
 7146SOL    HW232901   3.005   4.581   7.072 -2.0517  0.7038  0.1109
 7147SOL     OW32902   4.439   2.592   7.382  0.0431  0.6486 -0.0651
 7147SOL    HW132903   4.446   2.662   7.447 -0.8227  0.1184  0.6013
 7147SOL    HW232904   4.344   2.593   7.366 -0.2190 -1.5181  1.4365
 7148SOL     OW32905   4.184   3.011   6.357  0.7422 -0.5582  0.3552
 7148SOL    HW132906   4.119   2.989   6.291  0.6973  0.0411  0.1957
 7148SOL    HW232907   4.136   3.080   6.404  0.4588 -0.2911 -0.3295
 7149SOL     OW32908   4.644   3.177  12.008 -0.2535  0.3431  0.3521
 7149SOL    HW132909   4.677   3.169  12.097  2.3761  0.4624 -0.6268
 7149SOL    HW232910   4.556   3.140  12.017 -1.2195  1.5829 -4.2616
 7150SOL     OW32911   3.660   1.306  10.383  0.0056  0.9868  0.1735
 7150SOL    HW132912   3.656   1.401  10.372 -1.1284  0.7962 -1.1039
 7150SOL    HW232913   3.582   1.275  10.337 -0.5205  0.7235  1.2441
 7151SOL     OW32914   2.298   3.830  11.256  0.0963 -0.7035 -0.3373
 7151SOL    HW132915   2.256   3.821  11.342  1.2136  0.0609  0.2877
 7151SOL    HW232916   2.337   3.917  11.260  2.6172 -1.9912  2.8714
 7152SOL     OW32917   2.903   4.363  11.586  0.0960  0.3072 -0.1042
 7152SOL    HW132918   2.808   4.351  11.596 -0.1953  1.2114 -1.8112
 7152SOL    HW232919   2.938   4.332  11.670 -2.1323 -0.3644  0.5980
 7153SOL     OW32920   2.382   1.774   3.921  0.1848  0.2348  0.0401
 7153SOL    HW132921   2.419   1.852   3.880 -0.4547 -0.6664 -2.2386
 7153SOL    HW232922   2.450   1.710   3.900  0.6534 -0.0127  2.3510
 7154SOL     OW32923   2.859   3.502   0.565 -0.4948  0.3259 -0.0826
 7154SOL    HW132924   2.883   3.512   0.657 -1.6844  1.2999  0.1251
 7154SOL    HW232925   2.780   3.449   0.559  1.0972 -2.1147  0.3105
 7155SOL     OW32926   1.396   1.266   7.019 -0.1434  0.0185  0.0680
 7155SOL    HW132927   1.411   1.331   6.950 -0.3361  0.8044  0.7708
 7155SOL    HW232928   1.354   1.325   7.082 -1.9902 -1.0783 -0.1356
 7156SOL     OW32929   3.367   2.764  13.205  0.0260 -0.1279  0.3774
 7156SOL    HW132930   3.411   2.783  13.288  2.3261  0.6923 -1.0116
 7156SOL    HW232931   3.431   2.714  13.154 -0.2356 -1.2771  1.1667
 7157SOL     OW32932   1.492   4.483   5.410  0.1443  0.2458 -0.1421
 7157SOL    HW132933   1.494   4.556   5.349 -1.4193  1.7547  1.6197
 7157SOL    HW232934   1.578   4.491   5.451  0.4403 -3.2212 -0.1042
 7158SOL     OW32935   2.418   2.728   4.277  0.1988 -0.6890 -0.8512
 7158SOL    HW132936   2.371   2.790   4.222 -2.0183  0.4239  2.2532
 7158SOL    HW232937   2.475   2.682   4.216 -0.7968 -0.5773 -1.8643
 7159SOL     OW32938   3.646   4.261   1.779  0.6994  1.1020 -1.0218
 7159SOL    HW132939   3.675   4.323   1.845 -2.0875  0.6810  0.5789
 7159SOL    HW232940   3.551   4.273   1.788  0.5969 -0.0146 -0.6550
 7160SOL     OW32941   2.739   2.032   2.879 -0.2522  0.0148 -0.6238
 7160SOL    HW132942   2.814   2.072   2.923 -1.7229  0.4354  1.5506
 7160SOL    HW232943   2.684   2.110   2.875  2.2646  1.8961  1.9122
 7161SOL     OW32944   4.650   3.138   0.580  0.2824 -0.0492 -0.1781
 7161SOL    HW132945   4.717   3.161   0.516 -0.1999 -3.2692 -1.8181
 7161SOL    HW232946   4.598   3.218   0.566 -0.2139 -0.6041 -1.5172
 7162SOL     OW32947   4.471   0.506   8.783  0.8986  0.2731  0.1068
 7162SOL    HW132948   4.434   0.463   8.707  3.2529 -2.1487  0.3452
 7162SOL    HW232949   4.491   0.440   8.850  2.5466  0.4688 -0.1835
 7163SOL     OW32950   1.107   0.114   7.548  0.2292  0.3937 -0.7106
 7163SOL    HW132951   1.193   0.085   7.519  1.2140  1.4008  1.2139
 7163SOL    HW232952   1.074   0.166   7.475  0.0169 -0.5062 -1.2512
 7164SOL     OW32953   2.152   2.369  17.020 -0.0219 -0.0705  0.1322
 7164SOL    HW132954   2.065   2.408  17.025  1.1704  2.4956  0.6390
 7164SOL    HW232955   2.181   2.412  16.940 -1.7342 -1.2325 -1.1025
 7165SOL     OW32956   3.401   1.287  13.574 -0.1583 -0.9250  0.2348
 7165SOL    HW132957   3.396   1.374  13.615  1.5915  0.1979 -1.9129
 7165SOL    HW232958   3.402   1.227  13.648 -0.1474 -2.3404 -0.9215
 7166SOL     OW32959   2.141   2.090   3.757  0.4283 -0.1759  0.1948
 7166SOL    HW132960   2.056   2.115   3.722  0.5229  0.1536  0.1981
 7166SOL    HW232961   2.136   2.133   3.842  2.0319  1.0190 -0.3053
 7167SOL     OW32962   4.049   2.323   5.524 -0.1984 -0.5060 -0.2862
 7167SOL    HW132963   4.088   2.239   5.549 -0.9160 -0.6706  0.2686
 7167SOL    HW232964   4.077   2.327   5.432  0.3260  0.1654 -0.1025
 7168SOL     OW32965   3.609   2.636  13.133  0.8125  0.1918 -0.5737
 7168SOL    HW132966   3.658   2.686  13.198 -0.4878 -1.5499  1.7305
 7168SOL    HW232967   3.654   2.552  13.133 -1.1601 -0.8817  2.8913
 7169SOL     OW32968   3.554   1.163   7.314 -0.1157 -0.4444  0.0482
 7169SOL    HW132969   3.591   1.077   7.332 -0.9967 -0.8794 -0.1885
 7169SOL    HW232970   3.623   1.200   7.260  1.3251 -1.8652  0.9374
 7170SOL     OW32971   0.128   0.990   7.666 -0.4409  0.0256  0.2222
 7170SOL    HW132972   0.090   0.944   7.591 -1.3427  0.7176  0.2607
 7170SOL    HW232973   0.199   1.042   7.627  0.0552 -1.3726 -0.7291
 7171SOL     OW32974   2.966   2.903   2.719  0.7411 -0.1363  0.5822
 7171SOL    HW132975   2.878   2.903   2.757  0.8417  1.3065  0.8133
 7171SOL    HW232976   2.950   2.898   2.624  1.2971  1.5805  0.4039
 7172SOL     OW32977   0.507   1.589   4.387 -0.4130  0.2209 -0.5195
 7172SOL    HW132978   0.488   1.495   4.400  2.1225 -0.2036  0.0104
 7172SOL    HW232979   0.435   1.612   4.328 -0.0168  0.2995 -0.9737
 7173SOL     OW32980   1.230   2.841   7.512  0.4312 -0.5136 -0.0148
 7173SOL    HW132981   1.157   2.898   7.490  1.0862  0.4741  0.3701
 7173SOL    HW232982   1.201   2.760   7.470  0.0695 -1.1783  1.5426
 7174SOL     OW32983   2.650   1.905   8.180  0.0983  0.0575 -0.9580
 7174SOL    HW132984   2.703   1.898   8.101  1.3775  0.3958 -0.1190
 7174SOL    HW232985   2.663   1.819   8.221 -0.3595  0.7939  0.7448
 7175SOL     OW32986   2.255   3.842   1.185  0.1225  0.0806  0.4413
 7175SOL    HW132987   2.333   3.866   1.235  1.1262  1.8560 -1.9595
 7175SOL    HW232988   2.208   3.797   1.255 -0.5435 -2.5313 -1.6753
 7176SOL     OW32989   2.399   0.805   2.116 -0.0677  0.1951 -0.3107
 7176SOL    HW132990   2.384   0.711   2.114 -0.0790  0.2031 -0.5631
 7176SOL    HW232991   2.332   0.824   2.182  1.1677 -1.1465  1.3305
 7177SOL     OW32992   4.459   4.424   3.132  0.7551  0.1561  0.1244
 7177SOL    HW132993   4.367   4.415   3.107  0.7594 -0.7082  0.4247
 7177SOL    HW232994   4.461   4.516   3.158 -0.0224  0.9405 -2.5827
 7178SOL     OW32995   3.368   3.198   6.952  0.2954  0.1883 -0.4599
 7178SOL    HW132996   3.418   3.167   7.028  0.7066  1.3758 -0.2444
 7178SOL    HW232997   3.295   3.245   6.994  0.2076  0.2375 -0.6712
 7179SOL     OW32998   3.816   2.345   2.854 -0.1328  0.2170 -0.2786
 7179SOL    HW132999   3.860   2.302   2.928 -0.3134  0.7516  0.1412
 7179SOL    HW233000   3.770   2.271   2.815 -0.2449  0.4793 -0.6417
 7180SOL     OW33001   4.491   0.300   3.397 -0.1530 -0.1922 -0.1234
 7180SOL    HW133002   4.419   0.282   3.337 -0.5093 -2.4546  0.9678
 7180SOL    HW233003   4.481   0.395   3.408 -2.6059 -0.6135  1.3030
 7181SOL     OW33004   1.567   2.672   3.931  0.1824 -0.2880 -0.2870
 7181SOL    HW133005   1.644   2.719   3.900  1.0169 -2.3709 -1.4208
 7181SOL    HW233006   1.534   2.686   3.842 -0.4398 -0.8145 -0.1396
 7182SOL     OW33007   1.691   3.795   8.663  0.0246 -0.0421  0.5320
 7182SOL    HW133008   1.628   3.812   8.592 -0.1735  2.5065  1.3089
 7182SOL    HW233009   1.633   3.816   8.736 -0.4698 -1.2995  0.5043
 7183SOL     OW33010   0.240   2.568  16.731  0.1647  0.2110  0.9201
 7183SOL    HW133011   0.174   2.520  16.680 -0.9219  1.1619  1.4326
 7183SOL    HW233012   0.188   2.640  16.767  0.1475 -0.6100  2.5601
 7184SOL     OW33013   1.041   4.520   5.344  0.3819 -0.2355  0.2071
 7184SOL    HW133014   0.970   4.456   5.352  0.0825  0.1558  0.6167
 7184SOL    HW233015   1.115   4.471   5.382  0.0683 -0.2649  0.7809
 7185SOL     OW33016   3.311   2.638   5.586  0.1106 -0.2896 -0.0436
 7185SOL    HW133017   3.400   2.649   5.619 -0.8172  1.1193  1.9887
 7185SOL    HW233018   3.254   2.647   5.663  0.7481  1.0763  0.2556
 7186SOL     OW33019   3.904   3.468   9.478  0.1654  0.4101  0.2503
 7186SOL    HW133020   3.888   3.452   9.385 -0.8605 -0.1375  0.5206
 7186SOL    HW233021   3.815   3.476   9.511  0.1346 -1.4700  0.6348
 7187SOL     OW33022   4.546   3.172  16.427 -0.2339 -0.4995 -0.2870
 7187SOL    HW133023   4.603   3.229  16.376 -2.3192 -0.6207 -2.7727
 7187SOL    HW233024   4.609   3.141  16.492 -0.2985 -0.9831 -0.4530
 7188SOL     OW33025   1.767   2.075  16.406 -0.0975  0.4946  0.1329
 7188SOL    HW133026   1.681   2.117  16.409 -0.0270  0.6909 -0.6117
 7188SOL    HW233027   1.820   2.141  16.452  0.1803 -0.1689  0.7799
 7189SOL     OW33028   4.633   1.076   2.015  0.2483 -0.6333  0.0900
 7189SOL    HW133029   4.539   1.093   2.024  0.1018 -0.1171 -2.5237
 7189SOL    HW233030   4.635   0.982   2.030  2.2144 -0.7123 -0.6758
 7190SOL     OW33031   1.921   4.694   5.984  0.2853  0.0195  0.1370
 7190SOL    HW133032   1.830   4.674   5.964 -0.1132  0.8199  1.1570
 7190SOL    HW233033   1.971   4.676   5.904 -0.8918  2.0894 -1.0561
 7191SOL     OW33034   3.113   3.490   3.053 -0.0448  0.3253  0.3907
 7191SOL    HW133035   3.128   3.584   3.046  0.1995  0.1323 -1.6530
 7191SOL    HW233036   3.206   3.474   3.037 -0.3257 -2.3085  1.2774
 7192SOL     OW33037   3.646   2.738  14.411  0.2677 -0.2611  0.4301
 7192SOL    HW133038   3.569   2.688  14.385 -0.6734  0.0454  2.6041
 7192SOL    HW233039   3.631   2.826  14.376  3.9204 -0.3655 -1.3566
 7193SOL     OW33040   2.614   0.762   4.811  0.0550  0.5046 -0.9243
 7193SOL    HW133041   2.571   0.710   4.743 -1.3105  0.5902 -0.1447
 7193SOL    HW233042   2.673   0.698   4.852  2.2770  2.9660 -0.2956
 7194SOL     OW33043   2.712   3.338   6.091 -0.1097 -0.0892 -0.0950
 7194SOL    HW133044   2.778   3.309   6.028 -0.5702  1.1552 -1.1304
 7194SOL    HW233045   2.750   3.423   6.110 -1.5088  0.5974 -0.3547
 7195SOL     OW33046   1.606   1.173   2.932  0.2894  0.3573  0.0607
 7195SOL    HW133047   1.546   1.164   2.858 -0.3560 -1.7115  0.8322
 7195SOL    HW233048   1.563   1.243   2.981 -0.7949 -1.1405  1.2443
 7196SOL     OW33049   2.000   2.216  11.467  0.3802  0.1437  0.3792
 7196SOL    HW133050   1.973   2.149  11.404 -1.3294  1.6523 -0.4855
 7196SOL    HW233051   2.077   2.173  11.505  0.4064  1.9931  2.3712
 7197SOL     OW33052   4.500   4.044  16.861  0.7649  0.1217 -0.3922
 7197SOL    HW133053   4.429   4.091  16.817 -1.6164 -3.7113 -0.6092
 7197SOL    HW233054   4.531   4.097  16.934 -3.3074 -0.4746  1.7702
 7198SOL     OW33055   4.595   1.768  10.366 -0.4071  0.3252  0.8295
 7198SOL    HW133056   4.632   1.728  10.287 -3.1925 -1.5599  0.4609
 7198SOL    HW233057   4.580   1.859  10.341  1.6734  0.0009 -1.5906
 7199SOL     OW33058   2.860   2.702   8.066 -0.1048 -0.0532  0.1527
 7199SOL    HW133059   2.864   2.656   8.150 -1.4741  0.6302  0.5949
 7199SOL    HW233060   2.793   2.646   8.027  0.6253 -0.5711 -0.3511
 7200SOL     OW33061   3.366   1.954   3.751  0.4005 -0.4754 -0.2434
 7200SOL    HW133062   3.386   1.902   3.829  0.9162 -0.7304 -0.5474
 7200SOL    HW233063   3.439   2.014   3.766  0.6816 -1.3750  1.9637
 7201SOL     OW33064   2.912   4.653   0.201 -0.2413 -0.1187 -0.6088
 7201SOL    HW133065   2.833   4.644   0.254 -1.2149  2.5947 -1.6178
 7201SOL    HW233066   2.884   4.605   0.122 -2.6421 -0.3260  0.3746
 7202SOL     OW33067   2.587   1.201  10.357 -0.1123  0.2450  0.0342
 7202SOL    HW133068   2.594   1.106  10.346 -0.8201  0.2279 -0.2216
 7202SOL    HW233069   2.607   1.224  10.267  2.4436  0.5192  0.6735
 7203SOL     OW33070   0.828   2.462   8.909  0.1577  0.0643  0.2639
 7203SOL    HW133071   0.763   2.426   8.849  0.9303  0.3802 -0.7558
 7203SOL    HW233072   0.832   2.389   8.971  1.3198 -0.0026  0.1073
 7204SOL     OW33073   2.110   0.212   1.103  0.6791 -0.3566  0.1575
 7204SOL    HW133074   2.042   0.225   1.169  1.6767  1.0296  0.9035
 7204SOL    HW233075   2.068   0.264   1.034 -3.5824 -4.4392 -0.3490
 7205SOL     OW33076   3.956   3.940   9.712 -0.0936  0.2352 -0.5203
 7205SOL    HW133077   3.957   4.035   9.699  0.9673  0.2225 -0.5008
 7205SOL    HW233078   3.981   3.908   9.625  1.5317 -1.9361  0.7477
 7206SOL     OW33079   4.344   3.512   6.756 -0.2602 -0.2283 -0.0042
 7206SOL    HW133080   4.292   3.434   6.779 -2.9476  2.0684  1.7453
 7206SOL    HW233081   4.331   3.515   6.662 -2.8110 -2.2776  0.2698
 7207SOL     OW33082   2.482   2.167   4.674 -0.4135  0.3991 -0.5857
 7207SOL    HW133083   2.447   2.120   4.599  0.7072 -0.8604 -0.3177
 7207SOL    HW233084   2.459   2.257   4.650  1.6194  0.5982 -1.8802
 7208SOL     OW33085   3.428   2.062   2.598  0.0993 -0.4034 -0.0775
 7208SOL    HW133086   3.494   1.999   2.629 -0.0642 -0.9326 -0.8136
 7208SOL    HW233087   3.469   2.078   2.513 -0.1233  1.0659  0.0901
 7209SOL     OW33088   0.590   3.469   5.597 -0.5140 -0.3155  0.1619
 7209SOL    HW133089   0.619   3.560   5.604 -1.4899  0.1548 -1.7287
 7209SOL    HW233090   0.590   3.455   5.502 -2.9000  0.6425  0.0286
 7210SOL     OW33091   2.844   3.817   5.205  0.8028  0.3599 -0.1006
 7210SOL    HW133092   2.880   3.742   5.157 -0.4750 -0.2393 -0.1178
 7210SOL    HW233093   2.824   3.771   5.286  2.4882  0.2588  0.2512
 7211SOL     OW33094   0.210   4.103  16.739  1.1495 -0.8197  0.2420
 7211SOL    HW133095   0.285   4.162  16.730 -1.4204  2.1433 -1.8904
 7211SOL    HW233096   0.177   4.131  16.824 -1.5252  0.2639 -1.1873
 7212SOL     OW33097   0.940   1.990   6.899  0.0692  0.2620  0.1012
 7212SOL    HW133098   1.018   2.040   6.924  0.2625  0.3764 -0.7319
 7212SOL    HW233099   0.876   2.056   6.926 -0.3984 -0.0831 -0.1527
 7213SOL     OW33100   3.080   3.535  17.305 -0.6835 -0.2280 -0.2591
 7213SOL    HW133101   3.032   3.617  17.313 -0.7017 -0.0151 -2.5233
 7213SOL    HW233102   3.020   3.475  17.349  0.2732 -2.4635 -1.9758
 7214SOL     OW33103   1.541   3.725   6.744  0.3674 -0.3608 -0.0394
 7214SOL    HW133104   1.461   3.774   6.725  0.7678  0.1169 -0.5070
 7214SOL    HW233105   1.571   3.714   6.653 -1.9423  0.0239 -0.8506
 7215SOL     OW33106   2.923   0.784  14.211  0.3663 -0.1007 -0.1266
 7215SOL    HW133107   2.963   0.861  14.252  1.2518  0.0744 -1.2942
 7215SOL    HW233108   2.995   0.723  14.193 -0.0085 -0.5868  0.0204
 7216SOL     OW33109   3.152   3.046   0.422  0.6208 -0.2559  0.1063
 7216SOL    HW133110   3.167   2.954   0.444  1.3003 -0.6012 -1.7981
 7216SOL    HW233111   3.219   3.087   0.475  0.5374 -1.2782  0.9980
 7217SOL     OW33112   4.252   0.107   7.608  0.2559 -0.0899 -0.9663
 7217SOL    HW133113   4.218   0.037   7.552 -1.9157 -0.1428  0.4644
 7217SOL    HW233114   4.346   0.092   7.594  0.0852 -2.5859  0.5377
 7218SOL     OW33115   0.042   4.147  15.406  0.4247 -0.0911 -0.8381
 7218SOL    HW133116   0.067   4.194  15.326  2.4222 -0.0563 -0.1812
 7218SOL    HW233117   4.671   4.142  15.378 -0.5583 -0.8947  2.5778
 7219SOL     OW33118   2.778   0.276   5.113  0.1688  0.0590 -0.1920
 7219SOL    HW133119   2.797   0.345   5.177  1.0135  1.2982 -1.7686
 7219SOL    HW233120   2.863   0.233   5.103  0.3879 -0.1183  2.3570
 7220SOL     OW33121   3.466   0.963   4.196 -0.0894  0.3449  0.3889
 7220SOL    HW133122   3.455   1.006   4.281  1.5700 -2.0414  1.7939
 7220SOL    HW233123   3.445   0.873   4.219  0.7675 -0.1357 -0.6964
 7221SOL     OW33124   0.956   1.396   4.926  0.4798  0.0971 -0.4132
 7221SOL    HW133125   0.888   1.370   4.864 -0.8743  0.6149  0.8589
 7221SOL    HW233126   0.984   1.483   4.898  0.1758 -0.2229 -1.7177
 7222SOL     OW33127   2.551   0.932  10.277 -0.3917  0.0518  0.2618
 7222SOL    HW133128   2.504   0.861  10.321  0.9696 -0.8470  0.2700
 7222SOL    HW233129   2.615   0.882  10.226  0.4432  0.5477  0.8028
 7223SOL     OW33130   3.053   2.675   5.748 -0.2164  0.5697 -0.1605
 7223SOL    HW133131   2.996   2.642   5.817  1.7492 -0.4328  0.9836
 7223SOL    HW233132   3.012   2.627   5.676  0.9676  0.0794 -0.5142
 7224SOL     OW33133   4.621   1.821   7.356 -0.0860 -0.3439  0.0020
 7224SOL    HW133134   4.544   1.766   7.339 -0.7619  0.4108  0.6561
 7224SOL    HW233135   4.656   1.771   7.430  2.0627  0.4436 -0.5040
 7225SOL     OW33136   3.181   1.448  12.971  0.7465 -1.0575  0.1064
 7225SOL    HW133137   3.094   1.462  13.008  1.9753 -0.7014  2.8803
 7225SOL    HW233138   3.240   1.474  13.042 -1.1674  2.1155  0.5374
 7226SOL     OW33139   3.106   1.078   8.184 -0.2491 -0.3961  0.5409
 7226SOL    HW133140   3.119   1.129   8.264  2.9451 -0.5782  0.1503
 7226SOL    HW233141   3.155   1.129   8.119 -0.1720  0.2037  1.0639
 7227SOL     OW33142   2.519   2.820   1.913 -0.2942  0.1477  0.0187
 7227SOL    HW133143   2.429   2.854   1.914  0.7066  2.7256 -0.0313
 7227SOL    HW233144   2.499   2.744   1.968  2.5937 -0.0681  0.7699
 7228SOL     OW33145   4.279   3.332   2.600 -0.0544 -0.0672  0.3020
 7228SOL    HW133146   4.268   3.424   2.572 -3.1463 -0.4042  0.3681
 7228SOL    HW233147   4.204   3.301   2.548 -0.6108 -0.0636  1.1122
 7229SOL     OW33148   1.580   4.353   4.099 -0.8959  0.0816  0.1398
 7229SOL    HW133149   1.502   4.323   4.147  0.4320  0.7646  2.7447
 7229SOL    HW233150   1.644   4.315   4.159  0.1777  1.3572 -0.2191
 7230SOL     OW33151   2.399   0.489   2.063  0.0766  0.3701 -0.5288
 7230SOL    HW133152   2.475   0.523   2.111  0.0907  0.0756 -0.3404
 7230SOL    HW233153   2.445   0.451   1.988  1.4340  0.0220  0.4730
 7231SOL     OW33154   1.614   3.766   4.838 -0.1393 -0.6939  0.5028
 7231SOL    HW133155   1.604   3.722   4.922  1.4097 -0.3421  0.8897
 7231SOL    HW233156   1.581   3.854   4.855  0.7073  0.2274 -2.5893
 7232SOL     OW33157   3.015   3.650   6.461  0.2564  0.1642 -0.3092
 7232SOL    HW133158   2.945   3.699   6.418  0.0082 -0.4892 -0.6506
 7232SOL    HW233159   3.101   3.678   6.429  1.3144 -2.2786  0.4288
 7233SOL     OW33160   1.299   3.059  12.775 -0.0547  0.0146 -0.2015
 7233SOL    HW133161   1.219   3.078  12.824  0.6699 -0.1578  1.0545
 7233SOL    HW233162   1.357   3.041  12.849 -0.0836 -0.2108 -0.2337
 7234SOL     OW33163   3.646   2.368   7.380  0.0643  0.0797 -0.1433
 7234SOL    HW133164   3.707   2.409   7.442 -0.1940 -1.2411  0.9792
 7234SOL    HW233165   3.578   2.435   7.373 -0.0545  0.1360  1.4708
 7235SOL     OW33166   3.134   0.497   8.508  0.7266 -0.0517 -0.2019
 7235SOL    HW133167   3.223   0.485   8.543  0.4440 -2.4500 -0.2894
 7235SOL    HW233168   3.088   0.506   8.592 -0.3201  1.0647 -0.8988
 7236SOL     OW33169   1.896   4.515   2.917  0.3888 -0.4155 -0.1693
 7236SOL    HW133170   1.850   4.582   2.867  0.1284 -1.3264 -1.1581
 7236SOL    HW233171   1.861   4.428   2.896  1.2175 -1.0225  0.9202
 7237SOL     OW33172   0.808   1.317   0.977 -0.5592 -0.2714 -0.2597
 7237SOL    HW133173   0.765   1.371   1.043 -1.0387 -2.0518  0.8970
 7237SOL    HW233174   0.890   1.299   1.023  0.0466  0.4017 -1.0910
 7238SOL     OW33175   1.381   2.093   3.880 -0.2783  0.4377 -0.4113
 7238SOL    HW133176   1.376   2.130   3.792  2.0898 -0.5610 -0.9779
 7238SOL    HW233177   1.327   2.015   3.872 -4.1558  2.6171  4.2778
 7239SOL     OW33178   0.299   2.593   1.549  0.0440 -0.1706  0.5714
 7239SOL    HW133179   0.378   2.589   1.603 -0.9391 -2.3705  1.8151
 7239SOL    HW233180   0.327   2.562   1.463 -0.6401  2.8749 -0.7833
 7240SOL     OW33181   0.923   2.127   1.274 -0.0282  0.4040 -0.1567
 7240SOL    HW133182   0.880   2.185   1.211 -0.2840  1.9777  1.4792
 7240SOL    HW233183   0.980   2.081   1.212 -0.4391 -0.9749  0.4812
 7241SOL     OW33184   1.116   1.768   9.078 -0.1089  0.3855 -0.2878
 7241SOL    HW133185   1.166   1.843   9.045  0.9272  0.1327  0.6856
 7241SOL    HW233186   1.069   1.817   9.147  1.2180  0.5315  0.5159
 7242SOL     OW33187   0.214   1.799   8.315 -0.1916  0.2255  0.0251
 7242SOL    HW133188   0.278   1.811   8.245  0.6980  0.8627  0.9572
 7242SOL    HW233189   0.214   1.705   8.333 -1.0685 -0.1459 -1.8265
 7243SOL     OW33190   4.331   0.801   8.424  0.0511  0.6421  0.3177
 7243SOL    HW133191   4.389   0.779   8.497  0.4190 -0.0737 -0.1828
 7243SOL    HW233192   4.287   0.882   8.451 -0.7938  0.2897 -0.0012
 7244SOL     OW33193   1.552   0.548   9.165  0.4854 -0.5600 -0.5728
 7244SOL    HW133194   1.646   0.532   9.152  0.4628 -0.3947 -0.9719
 7244SOL    HW233195   1.532   0.491   9.239  0.4013 -0.8791 -0.8441
 7245SOL     OW33196   3.255   4.658   5.894  0.0462  0.2101  0.0933
 7245SOL    HW133197   3.279   4.581   5.843  1.9856 -0.7087  2.3731
 7245SOL    HW233198   3.180   4.622   5.942  1.9258 -0.8554  2.2698
 7246SOL     OW33199   0.043   1.191   4.558 -0.0207 -0.4497 -0.5920
 7246SOL    HW133200   0.033   1.097   4.567 -2.0006 -0.3190 -1.3060
 7246SOL    HW233201   4.720   1.215   4.476 -1.5216  0.5631  0.5043
 7247SOL     OW33202   0.891   3.305   8.301 -0.2080 -0.2506  0.1572
 7247SOL    HW133203   0.922   3.305   8.392  0.7028 -0.1840 -0.1536
 7247SOL    HW233204   0.822   3.370   8.310  1.3571  1.2861  1.1014
 7248SOL     OW33205   3.397   1.831   5.363  0.2392  0.0837 -0.4150
 7248SOL    HW133206   3.427   1.882   5.438  1.8954 -0.5995 -0.6023
 7248SOL    HW233207   3.305   1.813   5.377  0.5814 -1.3267 -0.0505
 7249SOL     OW33208   1.089   1.406   4.016  0.6835 -0.1278  0.1936
 7249SOL    HW133209   1.160   1.449   3.969  0.4856  0.9282  0.8602
 7249SOL    HW233210   1.081   1.469   4.088 -1.6598  2.4957 -2.4009
 7250SOL     OW33211   4.600   2.432   2.749  0.3232  0.2060  0.2761
 7250SOL    HW133212   4.603   2.389   2.835  0.2687  0.7303  0.5416
 7250SOL    HW233213   4.584   2.351   2.700 -0.1146  0.5966 -0.2141
 7251SOL     OW33214   2.527   0.884   8.661  0.0314  0.5123  0.4699
 7251SOL    HW133215   2.513   0.821   8.731 -0.6226  0.8110  0.6181
 7251SOL    HW233216   2.594   0.844   8.606  0.0001  1.5176 -0.3066
 7252SOL     OW33217   1.887   3.838   4.204  0.1978  0.6000 -0.5232
 7252SOL    HW133218   1.823   3.767   4.210 -0.5402  1.1750 -1.5193
 7252SOL    HW233219   1.866   3.878   4.119  1.4936  1.2875 -0.5295
 7253SOL     OW33220   2.379   2.731   1.036 -0.1100 -0.1294 -0.0704
 7253SOL    HW133221   2.310   2.775   1.086 -0.8209 -2.1582  0.7705
 7253SOL    HW233222   2.452   2.781   1.071 -0.8641  1.4418 -0.7464
 7254SOL     OW33223   3.249   1.392   4.589  0.2496 -0.1317  0.4899
 7254SOL    HW133224   3.162   1.417   4.622  0.5693  0.0771  1.1811
 7254SOL    HW233225   3.253   1.298   4.603  2.4268 -0.3747 -1.7178
 7255SOL     OW33226   1.221   1.373   2.182 -0.7143 -0.2840 -0.4081
 7255SOL    HW133227   1.276   1.351   2.107  0.7621 -0.2274  0.6551
 7255SOL    HW233228   1.137   1.392   2.141  0.5795  1.7243 -2.1188
 7256SOL     OW33229   1.401   0.092   9.990 -0.1553  0.1172  0.0816
 7256SOL    HW133230   1.389   0.064  10.080 -4.0405 -0.6147 -0.6971
 7256SOL    HW233231   1.367   0.181   9.999 -3.0446 -0.8246 -1.6986
 7257SOL     OW33232   3.543   3.401   1.937 -0.2084 -0.0665  0.1307
 7257SOL    HW133233   3.519   3.403   1.844  0.3552  2.6355  0.0294
 7257SOL    HW233234   3.565   3.310   1.957 -0.4383 -0.1286  0.1023
 7258SOL     OW33235   0.368   1.698   0.113  0.4575 -0.2084  0.6831
 7258SOL    HW133236   0.298   1.657   0.163  0.4373  1.0066  1.6626
 7258SOL    HW233237   0.324   1.739   0.039 -0.2021 -0.9107  0.6902
 7259SOL     OW33238   1.954   2.467   9.730 -0.1139  0.2766 -0.7284
 7259SOL    HW133239   2.006   2.514   9.665 -0.5783  0.9759 -0.5878
 7259SOL    HW233240   1.867   2.476   9.689 -0.2222 -0.8613 -0.7475
 7260SOL     OW33241   0.083   2.469   6.561  0.1210  0.3993 -0.4298
 7260SOL    HW133242   4.709   2.460   6.573 -0.1019  1.4850 -1.2972
 7260SOL    HW233243   0.110   2.382   6.532 -2.1610 -0.9311  1.4691
 7261SOL     OW33244   0.606   1.728   7.398 -0.0196  0.0831 -0.0569
 7261SOL    HW133245   0.597   1.822   7.410  1.1422  0.0697  0.8937
 7261SOL    HW233246   0.545   1.720   7.325 -3.1351 -0.2359  2.5626
 7262SOL     OW33247   3.488   0.943  13.377  0.0485  0.1957  0.0489
 7262SOL    HW133248   3.547   1.007  13.417 -2.7952  3.0065 -0.2836
 7262SOL    HW233249   3.400   0.980  13.383 -0.1333 -0.0697 -0.9944
 7263SOL     OW33250   0.256   4.294  14.304  0.1349  0.1640 -0.4575
 7263SOL    HW133251   0.270   4.258  14.216  0.3412 -2.5561  0.7078
 7263SOL    HW233252   0.190   4.357  14.276  1.3277  1.6473  0.0423
 7264SOL     OW33253   1.926   3.674   9.049  0.2195 -0.0440 -0.1266
 7264SOL    HW133254   1.836   3.643   9.040  0.0080  0.2143  1.0175
 7264SOL    HW233255   1.926   3.697   9.142  2.3315 -0.0717 -0.1152
 7265SOL     OW33256   0.475   1.761   8.816  0.2965 -0.1373  0.2592
 7265SOL    HW133257   0.568   1.758   8.840  0.9102 -0.6789 -2.1772
 7265SOL    HW233258   0.455   1.668   8.803  0.7983  0.1397 -2.5017
 7266SOL     OW33259   1.485   1.001   4.739 -0.2432  0.8399  0.0722
 7266SOL    HW133260   1.422   1.072   4.730 -0.5190  0.6188  0.2733
 7266SOL    HW233261   1.559   1.044   4.696  0.7942 -1.1499 -0.1172
 7267SOL     OW33262   0.687   2.223  13.067 -0.6312  0.4494 -0.1732
 7267SOL    HW133263   0.668   2.259  12.981 -0.1239  0.8929 -0.1038
 7267SOL    HW233264   0.781   2.236  13.081 -0.9955  2.1402  0.6772
 7268SOL     OW33265   3.459   1.232  10.234  0.6418 -0.6261 -0.6537
 7268SOL    HW133266   3.442   1.199  10.146  0.7852  0.7657 -1.2187
 7268SOL    HW233267   3.437   1.150  10.278 -0.7478 -0.0486 -0.2294
 7269SOL     OW33268   2.916   4.477   3.021  0.2312 -0.0360 -0.3820
 7269SOL    HW133269   2.908   4.519   2.936 -0.0194 -0.9748 -0.8301
 7269SOL    HW233270   2.917   4.546   3.088 -0.5001 -0.5140  0.1299
 7270SOL     OW33271   4.426   3.081   4.689  0.3563  0.2544  0.0571
 7270SOL    HW133272   4.448   3.068   4.782  0.0093 -1.0678 -0.0531
 7270SOL    HW233273   4.343   3.035   4.686  1.7804 -2.1898 -1.3472
 7271SOL     OW33274   1.964   0.604  13.281  0.4252  0.1670  0.1897
 7271SOL    HW133275   2.040   0.549  13.263 -0.4436 -0.6958 -0.8181
 7271SOL    HW233276   1.901   0.574  13.216  0.1014  0.0845  0.5429
 7272SOL     OW33277   3.354   1.583   3.417 -0.9388  0.0142  0.5599
 7272SOL    HW133278   3.327   1.501   3.459 -1.5066  0.8104  1.7498
 7272SOL    HW233279   3.301   1.649   3.461  0.1800  0.7330  0.8386
 7273SOL     OW33280   1.027   2.529   4.283 -0.3471  0.0136 -0.3476
 7273SOL    HW133281   0.937   2.521   4.250 -0.7789  0.3108  0.7322
 7273SOL    HW233282   1.069   2.494   4.205 -0.0385  0.0078 -0.1792
 7274SOL     OW33283   0.011   1.080  13.562  0.2376  0.6222  0.1055
 7274SOL    HW133284   4.697   1.158  13.517  0.6985 -0.1533 -1.5766
 7274SOL    HW233285   0.093   1.111  13.601 -0.3163  1.6192  0.4773
 7275SOL     OW33286   4.119   2.328   5.254  0.0658 -0.2406 -0.0860
 7275SOL    HW133287   4.119   2.387   5.178 -0.4281 -0.5464 -0.3205
 7275SOL    HW233288   4.132   2.243   5.212  0.6842  0.3449 -1.0814
 7276SOL     OW33289   3.709   0.083   4.394 -0.2712 -0.2100 -0.2404
 7276SOL    HW133290   3.683   0.041   4.312 -0.9127 -0.8815  0.3071
 7276SOL    HW233291   3.649   0.157   4.393  2.4439  1.9670 -0.0563
 7277SOL     OW33292   2.291   4.526  17.339  0.1570 -0.6310 -0.5404
 7277SOL    HW133293   2.307   4.575  17.258 -2.5846  0.1587 -0.6032
 7277SOL    HW233294   2.233   4.589  17.382  1.8586  0.2555  0.4362
 7278SOL     OW33295   3.376   3.213  11.860 -0.0687 -0.1415 -0.3794
 7278SOL    HW133296   3.407   3.289  11.909 -3.1871  2.1815 -2.0056
 7278SOL    HW233297   3.297   3.247  11.817 -1.0825 -0.4086  1.2335
 7279SOL     OW33298   1.691   4.557   5.939 -0.4405  0.3644  0.3724
 7279SOL    HW133299   1.600   4.562   5.912  0.9682 -0.1628 -4.4171
 7279SOL    HW233300   1.686   4.474   5.987  0.0535  0.0473 -0.1235
 7280SOL     OW33301   4.105   1.976   8.174  0.0032 -0.2925  0.3801
 7280SOL    HW133302   4.075   1.987   8.264  0.7640  0.1070  0.5908
 7280SOL    HW233303   4.091   1.884   8.153 -1.5200  0.0759 -0.1643
 7281SOL     OW33304   3.358   0.007   6.729 -0.2673 -0.4774 -0.4297
 7281SOL    HW133305   3.375   4.665   6.798 -0.6167  0.4871  0.5292
 7281SOL    HW233306   3.263   0.016   6.722 -0.0904  0.6174 -1.5183
 7282SOL     OW33307   2.708   2.728  11.326  0.0239  0.1130  0.6411
 7282SOL    HW133308   2.629   2.690  11.367 -0.2842 -1.2000 -1.1684
 7282SOL    HW233309   2.691   2.822  11.321  1.9700  0.5461  2.1655
 7283SOL     OW33310   1.820   0.855   6.922 -0.9249 -0.3130  0.2241
 7283SOL    HW133311   1.789   0.937   6.885 -0.4425 -0.6837 -1.0203
 7283SOL    HW233312   1.765   0.819   6.992 -2.0150  0.5187 -0.1969
 7284SOL     OW33313   0.964   1.697   2.275 -0.5121  0.2318  0.1498
 7284SOL    HW133314   0.934   1.767   2.217  1.3551  0.0805 -0.9771
 7284SOL    HW233315   1.012   1.640   2.216 -0.9739 -0.5586  0.5325
 7285SOL     OW33316   2.577   4.200   7.031 -0.3207 -0.6106 -0.5209
 7285SOL    HW133317   2.496   4.186   6.983 -2.6364 -0.5661  3.3992
 7285SOL    HW233318   2.617   4.276   6.989 -2.0199  1.7486  2.1136
 7286SOL     OW33319   3.353   4.455   4.334 -0.5415  0.4141 -0.0842
 7286SOL    HW133320   3.298   4.526   4.302 -0.2268  0.5954 -0.2300
 7286SOL    HW233321   3.283   4.392   4.352  0.0465 -0.0443  0.5867
 7287SOL     OW33322   2.337   0.272   6.402  0.1444  0.4623 -0.2722
 7287SOL    HW133323   2.259   0.222   6.378 -1.1987  2.4812 -0.0929
 7287SOL    HW233324   2.342   0.334   6.329 -0.6480 -1.2597 -1.7817
 7288SOL     OW33325   0.459   0.873   3.745  0.4157  0.0623  0.1003
 7288SOL    HW133326   0.460   0.902   3.654 -1.3424 -2.1986 -0.6701
 7288SOL    HW233327   0.546   0.847   3.772  1.0017  1.5639 -0.3378
 7289SOL     OW33328   2.998   2.320   4.285  0.5630 -0.5498 -0.9256
 7289SOL    HW133329   3.039   2.359   4.208 -1.8059  0.2643 -1.7830
 7289SOL    HW233330   3.061   2.347   4.352 -0.2125 -0.7814 -0.1073
 7290SOL     OW33331   1.725   2.674   8.522  0.4823  0.2508  0.3108
 7290SOL    HW133332   1.642   2.648   8.482  0.1957  0.9152  0.4761
 7290SOL    HW233333   1.779   2.692   8.445 -0.4936 -0.7751 -0.6013
 7291SOL     OW33334   0.676   0.466   7.205 -0.4746  0.2380  0.5086
 7291SOL    HW133335   0.723   0.548   7.191 -2.1175  1.3838  1.7040
 7291SOL    HW233336   0.659   0.477   7.298 -2.5896  1.3148 -0.0140
 7292SOL     OW33337   1.008   2.194  10.402 -0.2927  0.4644  0.6591
 7292SOL    HW133338   0.975   2.280  10.375 -1.5168 -0.6503 -1.3524
 7292SOL    HW233339   1.046   2.158  10.322 -0.4683  3.2782 -0.7009
 7293SOL     OW33340   2.344   0.492  11.709  0.1378 -0.1609  0.4117
 7293SOL    HW133341   2.299   0.568  11.745 -0.7966 -0.6215  0.2123
 7293SOL    HW233342   2.292   0.414  11.725  1.4344 -0.9715  0.7188
 7294SOL     OW33343   4.051   2.899   6.065 -0.2778 -0.2319 -0.5392
 7294SOL    HW133344   3.984   2.931   6.004 -0.4999 -3.1566 -1.8208
 7294SOL    HW233345   3.995   2.845   6.122  0.1577 -3.0031 -2.7464
 7295SOL     OW33346   0.079   4.375   1.776  0.6893  0.3762  0.3114
 7295SOL    HW133347   0.076   4.467   1.748 -1.1593 -1.0608 -4.2616
 7295SOL    HW233348   0.174   4.370   1.781  0.8638  1.3278 -1.7705
 7296SOL     OW33349   3.092   0.237   6.861 -0.0095 -0.4480 -0.1484
 7296SOL    HW133350   3.104   0.225   6.955  0.0153 -1.3556 -0.2679
 7296SOL    HW233351   3.151   0.310   6.843  1.1775 -1.5843 -0.8298
 7297SOL     OW33352   2.297   2.904  13.686 -0.1170 -0.5685 -0.3018
 7297SOL    HW133353   2.236   2.870  13.750 -0.0017 -0.1334  0.0366
 7297SOL    HW233354   2.307   2.834  13.621 -2.5692 -1.0294 -0.1681
 7298SOL     OW33355   3.645   0.588  11.377  0.0437 -0.0013  0.2907
 7298SOL    HW133356   3.657   0.623  11.465 -1.4150 -0.4059  0.6422
 7298SOL    HW233357   3.676   0.499  11.393 -1.1259 -0.4553  0.0583
 7299SOL     OW33358   0.173   2.993   6.091 -0.5223  0.1723  0.2864
 7299SOL    HW133359   0.202   2.967   6.179 -1.4045  0.2723  0.6131
 7299SOL    HW233360   0.082   2.964   6.095 -0.0791 -1.3804 -0.7912
 7300SOL     OW33361   3.366   0.275  13.157 -0.3790  0.4663 -0.0343
 7300SOL    HW133362   3.356   0.208  13.225  1.0645 -0.2670 -0.5466
 7300SOL    HW233363   3.364   0.220  13.079  0.7188 -0.6640  0.7245
 7301SOL     OW33364   3.517   3.508   9.008 -0.2934 -0.0141  0.8770
 7301SOL    HW133365   3.555   3.449   9.074 -1.2906 -2.6861 -0.9384
 7301SOL    HW233366   3.597   3.533   8.961 -1.5181 -0.1244 -1.2583
 7302SOL     OW33367   4.120   1.519   7.338  0.3653  0.8116 -0.4445
 7302SOL    HW133368   4.077   1.456   7.396 -1.7559  2.5550 -0.1343
 7302SOL    HW233369   4.061   1.537   7.265  0.1301  1.8756  0.0013
 7303SOL     OW33370   0.063   1.373  13.578  0.4604  0.4871  0.0417
 7303SOL    HW133371   0.122   1.449  13.581 -0.8951  1.6125 -2.1148
 7303SOL    HW233372   0.059   1.351  13.671 -3.2877 -0.6163 -0.3638
 7304SOL     OW33373   1.908   2.432   3.705 -0.4229 -0.3944 -0.1627
 7304SOL    HW133374   1.889   2.513   3.657 -1.5490 -0.2067  0.5914
 7304SOL    HW233375   2.000   2.447   3.725 -0.4767 -0.4422  0.1182
 7305SOL     OW33376   2.702   2.972   2.912  0.3911 -0.2521 -0.1308
 7305SOL    HW133377   2.699   2.921   2.993  1.7828  0.0926  0.1251
 7305SOL    HW233378   2.634   2.933   2.857  1.8925  0.3472 -2.4052
 7306SOL     OW33379   2.295   3.603   9.867 -0.0239 -0.0230  0.1391
 7306SOL    HW133380   2.240   3.553   9.807 -2.3017  5.2794 -2.2099
 7306SOL    HW233381   2.351   3.540   9.913 -0.5246  0.0138  0.8050
 7307SOL     OW33382   1.383   3.439   7.338  0.1714  0.0650 -0.1562
 7307SOL    HW133383   1.405   3.491   7.260 -0.2942  0.3843 -0.0757
 7307SOL    HW233384   1.429   3.486   7.408 -2.1615  2.0625  0.0271
 7308SOL     OW33385   0.693   1.461   4.056 -0.4204  0.0255 -0.2261
 7308SOL    HW133386   0.695   1.547   4.013 -0.2660  1.2200  2.1465
 7308SOL    HW233387   0.598   1.456   4.072 -0.6067 -1.7877 -1.8390
 7309SOL     OW33388   1.603   3.204   1.259  0.0330 -0.2736 -0.0263
 7309SOL    HW133389   1.685   3.188   1.305 -0.9842 -2.0893  1.1541
 7309SOL    HW233390   1.557   3.121   1.274  1.5003 -1.0693  0.0742
 7310SOL     OW33391   3.691   2.486   5.596 -0.0619 -0.0020  0.2847
 7310SOL    HW133392   3.641   2.558   5.633 -0.9460 -1.4779  1.9795
 7310SOL    HW233393   3.719   2.437   5.674 -0.3784  0.0173  0.4107
 7311SOL     OW33394   2.579   3.448   7.980 -0.0179 -0.2416 -0.1150
 7311SOL    HW133395   2.503   3.428   8.034 -0.2379 -0.1284 -0.3841
 7311SOL    HW233396   2.612   3.358   7.988  3.2063  1.1852  2.8120
 7312SOL     OW33397   3.285   3.287   8.327  0.8207 -0.1823  0.0793
 7312SOL    HW133398   3.200   3.246   8.345  0.6155 -0.1589 -0.8351
 7312SOL    HW233399   3.261   3.378   8.310  1.2113  0.2057  1.6663
 7313SOL     OW33400   4.341   0.443   9.181  0.1525  0.3436 -0.0003
 7313SOL    HW133401   4.357   0.534   9.205 -0.9306  0.3796  0.6175
 7313SOL    HW233402   4.312   0.409   9.266  1.0235  0.3928  0.3164
 7314SOL     OW33403   1.168   0.373   1.714  0.4575 -0.6764 -0.5682
 7314SOL    HW133404   1.235   0.413   1.659 -1.1478  1.2017 -1.1593
 7314SOL    HW233405   1.176   0.280   1.691  0.6292 -0.2936 -2.0988
 7315SOL     OW33406   4.714   3.535   8.107 -0.6662  0.7700  0.4576
 7315SOL    HW133407   4.704   3.498   8.019 -1.5407  0.4774  0.6824
 7315SOL    HW233408   4.628   3.508   8.138 -0.4035 -1.2158 -0.5443
 7316SOL     OW33409   1.168   3.335   1.523  0.0819 -0.7243  0.3752
 7316SOL    HW133410   1.167   3.374   1.610 -0.8636 -1.7905  0.8373
 7316SOL    HW233411   1.100   3.386   1.479 -0.0276 -1.5276 -0.3763
 7317SOL     OW33412   2.256   1.795  14.737 -0.7567 -0.7264 -0.3923
 7317SOL    HW133413   2.259   1.757  14.649  3.6044  1.2486 -1.1112
 7317SOL    HW233414   2.219   1.719  14.782 -0.9557  0.7968  2.0421
 7318SOL     OW33415   4.491   3.560   3.873 -0.5826  0.2772 -0.3124
 7318SOL    HW133416   4.519   3.505   3.946 -0.3237 -0.6601 -1.1315
 7318SOL    HW233417   4.403   3.591   3.898 -1.1105 -2.0423  0.7040
 7319SOL     OW33418   4.055   1.807   2.007 -0.3674  0.3891 -0.0416
 7319SOL    HW133419   4.119   1.745   1.972 -0.6597  0.4200 -0.6194
 7319SOL    HW233420   4.115   1.850   2.067 -2.6499  3.7827 -0.1639
 7320SOL     OW33421   2.091   4.377   8.142 -0.3041  0.1227 -0.5174
 7320SOL    HW133422   2.098   4.282   8.149  0.6966  0.2273 -0.1142
 7320SOL    HW233423   2.076   4.401   8.233 -0.8763 -2.1537 -0.0085
 7321SOL     OW33424   1.169   1.056  11.032  0.5933  0.2162  0.7728
 7321SOL    HW133425   1.127   1.100  11.105 -0.4354  0.1773  0.1975
 7321SOL    HW233426   1.108   0.987  11.008 -0.0719  0.4489  1.8000
 7322SOL     OW33427   1.604   3.291   3.317 -0.5184 -0.3597 -0.1251
 7322SOL    HW133428   1.569   3.258   3.234 -0.3731 -3.3922  1.0567
 7322SOL    HW233429   1.657   3.219   3.349 -1.0061 -0.5811  0.1908
 7323SOL     OW33430   2.933   0.704   9.077  0.3167  0.2201 -0.0025
 7323SOL    HW133431   3.008   0.663   9.035 -0.0758 -0.0373 -0.4410
 7323SOL    HW233432   2.882   0.627   9.104 -1.9919  1.5412 -0.5495
 7324SOL     OW33433   2.570   1.655   5.214 -0.1137 -0.2016 -0.3056
 7324SOL    HW133434   2.527   1.575   5.246 -0.3027 -1.0550 -2.7417
 7324SOL    HW233435   2.644   1.655   5.274 -0.9368  1.8824  0.6988
 7325SOL     OW33436   3.324   4.579   7.888 -0.0012 -0.0087 -0.1174
 7325SOL    HW133437   3.274   4.567   7.808  0.0136 -0.6799 -0.0284
 7325SOL    HW233438   3.315   4.493   7.930 -2.3556  0.6364  0.6743
 7326SOL     OW33439   4.452   0.037   3.709 -0.0118 -0.3639  0.0951
 7326SOL    HW133440   4.487   4.703   3.639 -0.1217 -1.5542  0.9687
 7326SOL    HW233441   4.485   4.718   3.790 -2.2759  0.3498  1.3883
 7327SOL     OW33442   4.650   3.853   4.577  0.1086 -0.0232  0.5815
 7327SOL    HW133443   0.014   3.894   4.597 -0.0179  0.1640  0.7340
 7327SOL    HW233444   4.635   3.907   4.498 -1.2014  2.2635  2.3726
 7328SOL     OW33445   1.730   3.039  15.109  0.4351  0.0731 -0.4356
 7328SOL    HW133446   1.696   3.044  15.199  1.1801  1.4372 -0.2248
 7328SOL    HW233447   1.675   2.972  15.069 -1.0642  0.0128  1.7278
 7329SOL     OW33448   2.741   4.137  11.301  0.2422 -0.7787  0.3273
 7329SOL    HW133449   2.740   4.042  11.295  1.9842 -0.8461  1.0957
 7329SOL    HW233450   2.782   4.162  11.218 -1.8859  0.1255 -0.4485
 7330SOL     OW33451   0.238   4.623  14.498 -0.0136 -0.1780  0.8351
 7330SOL    HW133452   0.320   4.669  14.516  0.7384 -1.6084  1.0904
 7330SOL    HW233453   0.212   4.680  14.426 -0.9460 -2.4076 -0.5939
 7331SOL     OW33454   2.783   2.734   4.837  0.5279 -0.3056  0.2954
 7331SOL    HW133455   2.870   2.774   4.830 -0.4271  1.7930  0.4431
 7331SOL    HW233456   2.806   2.641   4.847  1.1888 -0.0320  1.3655
 7332SOL     OW33457   3.165   0.733  14.579  0.1302  0.0473 -0.5729
 7332SOL    HW133458   3.210   0.774  14.652 -1.5670  1.0668 -0.0973
 7332SOL    HW233459   3.237   0.678  14.548  1.7193  0.9187  1.6317
 7333SOL     OW33460   4.427   3.433   8.646 -0.0481  0.5966 -0.6018
 7333SOL    HW133461   4.522   3.445   8.649 -0.0677  0.8523 -1.0798
 7333SOL    HW233462   4.404   3.390   8.564  0.6519  0.1622 -0.5784
 7334SOL     OW33463   3.540   2.448   0.247 -0.5416 -0.2885 -0.1344
 7334SOL    HW133464   3.550   2.515   0.314  3.8649  0.6809 -1.7555
 7334SOL    HW233465   3.475   2.493   0.193 -0.6492  0.4582  0.6225
 7335SOL     OW33466   2.791   3.757  11.296  0.3134  0.0691 -0.0498
 7335SOL    HW133467   2.764   3.667  11.313 -1.7819  0.8310  0.6809
 7335SOL    HW233468   2.715   3.798  11.255 -0.2060 -1.4654 -0.5980
 7336SOL     OW33469   0.093   3.623  10.563 -0.4056  0.2916 -0.2140
 7336SOL    HW133470   0.056   3.595  10.646  0.1168 -0.2152 -0.1514
 7336SOL    HW233471   0.180   3.584  10.567 -0.1523  0.8681 -0.0606
 7337SOL     OW33472   3.383   2.618  13.962 -0.0982 -0.0688 -0.3843
 7337SOL    HW133473   3.399   2.542  14.018 -1.9063 -0.6552 -0.6361
 7337SOL    HW233474   3.380   2.589  13.871 -0.0067  1.1134 -0.7590
 7338SOL     OW33475   1.360   2.485   4.775  0.0336 -0.2157  0.4821
 7338SOL    HW133476   1.352   2.508   4.682 -1.2823 -1.2803  0.3309
 7338SOL    HW233477   1.407   2.559   4.812  1.6696 -1.0559  0.1162
 7339SOL     OW33478   2.245   2.470   4.287 -0.0875  0.1156  0.4675
 7339SOL    HW133479   2.292   2.553   4.283 -2.8895  1.6317 -0.6166
 7339SOL    HW233480   2.160   2.510   4.269  0.7063  1.1472 -0.9590
 7340SOL     OW33481   1.023   0.468   4.681 -0.4702 -0.0831  0.2068
 7340SOL    HW133482   1.065   0.421   4.753 -0.6655 -0.8138 -0.1591
 7340SOL    HW233483   1.101   0.475   4.625 -2.1193  0.9180 -1.9637
 7341SOL     OW33484   3.999   1.788   4.146  1.0902 -0.0175  0.1769
 7341SOL    HW133485   3.950   1.727   4.200  0.0334  0.7952  0.1354
 7341SOL    HW233486   4.089   1.756   4.147  0.6745 -1.2079 -0.5992
 7342SOL     OW33487   4.680   2.095   9.753  0.2343  0.0353 -0.0085
 7342SOL    HW133488   4.623   2.084   9.677 -0.9579 -1.0548  1.0416
 7342SOL    HW233489   4.618   2.089   9.826 -0.7857  2.1416 -0.6885
 7343SOL     OW33490   2.235   2.353   4.779  0.9531 -0.3583 -0.0947
 7343SOL    HW133491   2.219   2.291   4.850 -0.7156  1.8819  1.4870
 7343SOL    HW233492   2.197   2.433   4.815  1.2832 -1.5724  2.9437
 7344SOL     OW33493   3.989   3.879   7.895  0.0536 -0.4093 -0.8277
 7344SOL    HW133494   4.028   3.964   7.872  2.1010 -1.4339 -1.1176
 7344SOL    HW233495   3.906   3.883   7.848 -0.6428  1.8150  0.5876
 7345SOL     OW33496   1.145   2.208   1.478  0.2094 -0.3264 -0.1144
 7345SOL    HW133497   1.083   2.193   1.549 -1.6677 -0.5448 -1.7840
 7345SOL    HW233498   1.084   2.216   1.404 -0.0024 -1.3610 -0.0561
 7346SOL     OW33499   3.409   3.365  15.501 -0.5331 -0.3146 -0.2771
 7346SOL    HW133500   3.470   3.293  15.513 -1.4629 -1.0028  0.3507
 7346SOL    HW233501   3.337   3.328  15.552  0.6356  0.4737  1.9907
 7347SOL     OW33502   2.677   0.461   2.624  0.7342  0.1976 -0.5327
 7347SOL    HW133503   2.689   0.499   2.711  1.3560  0.1056 -0.5774
 7347SOL    HW233504   2.653   0.372   2.650 -0.4575  1.1561  1.6626
 7348SOL     OW33505   2.630   2.340  15.646 -0.3374  0.7333  0.4108
 7348SOL    HW133506   2.540   2.308  15.651 -0.2685  0.4703  0.0064
 7348SOL    HW233507   2.639   2.380  15.732 -0.7479 -0.8729  1.1955
 7349SOL     OW33508   1.490   2.864   8.363  0.3242  0.0396  0.0461
 7349SOL    HW133509   1.547   2.926   8.409 -2.7352  1.4506  1.9146
 7349SOL    HW233510   1.491   2.891   8.272 -0.4903 -0.2543 -0.0507
 7350SOL     OW33511   1.659   1.646   4.506  0.0785  0.5021 -0.1741
 7350SOL    HW133512   1.721   1.576   4.487 -0.7347 -0.9176  2.4084
 7350SOL    HW233513   1.711   1.713   4.548  0.4261  0.2542 -0.2132
 7351SOL     OW33514   4.049   3.521   8.704  0.3209 -0.0522 -0.5866
 7351SOL    HW133515   4.043   3.442   8.758  1.6013  0.3004  0.0756
 7351SOL    HW233516   3.961   3.515   8.667  0.5565  0.1554 -1.1720
 7352SOL     OW33517   1.853   3.634   7.212  0.0624 -0.1068 -0.0637
 7352SOL    HW133518   1.813   3.552   7.181 -1.9193  0.6066  0.5812
 7352SOL    HW233519   1.916   3.647   7.141  0.8571  2.6996  1.1758
 7353SOL     OW33520   1.110   0.211   5.054 -0.6102  0.2182 -0.5998
 7353SOL    HW133521   1.098   0.198   5.148 -0.5450  1.0341 -0.4781
 7353SOL    HW233522   1.029   0.178   5.015  0.6191 -2.2828 -1.0432
 7354SOL     OW33523   2.155   1.957   6.856 -0.4289 -0.6449 -0.0347
 7354SOL    HW133524   2.127   1.868   6.837 -1.1187 -0.4524  0.0603
 7354SOL    HW233525   2.097   2.004   6.795  1.7424  1.8987 -0.1490
 7355SOL     OW33526   3.733   4.479  10.299 -0.1137 -0.0782 -0.2077
 7355SOL    HW133527   3.661   4.419  10.320 -2.5470  2.8111 -0.3766
 7355SOL    HW233528   3.815   4.429  10.294 -1.9029 -2.8684 -1.6757
 7356SOL     OW33529   2.825   2.852   3.228  0.2669 -0.2644 -0.0008
 7356SOL    HW133530   2.738   2.893   3.222  1.2269  1.6292 -0.8537
 7356SOL    HW233531   2.852   2.879   3.315  2.2440 -1.3552 -0.2787
 7357SOL     OW33532   0.677   0.338  16.724  0.0748 -0.0291  0.1946
 7357SOL    HW133533   0.692   0.343  16.630  4.5623 -0.4763  0.8694
 7357SOL    HW233534   0.712   0.252  16.748  0.3625  1.2768  4.4385
 7358SOL     OW33535   4.460   2.510   8.847 -0.0191  0.2155 -0.8818
 7358SOL    HW133536   4.506   2.490   8.765 -0.3508  1.2718 -1.3370
 7358SOL    HW233537   4.481   2.601   8.867 -0.0094  0.5255 -2.3026
 7359SOL     OW33538   2.410   1.970  13.259  0.1992 -0.0422 -0.1006
 7359SOL    HW133539   2.445   1.907  13.197 -1.5757  1.6035 -2.7751
 7359SOL    HW233540   2.486   2.014  13.298 -2.4262  3.0834  1.5693
 7360SOL     OW33541   0.337   4.501   2.885 -0.7406  0.4497 -0.1523
 7360SOL    HW133542   0.273   4.525   2.818 -1.3655 -2.5708 -0.6397
 7360SOL    HW233543   0.366   4.413   2.861 -1.8955 -0.5022  1.9622
 7361SOL     OW33544   3.742   2.309   3.963 -0.0982 -0.2547 -0.8165
 7361SOL    HW133545   3.754   2.402   3.941  1.0781 -0.2318 -0.1084
 7361SOL    HW233546   3.807   2.269   3.906  0.7538  1.4619 -1.0796
 7362SOL     OW33547   3.207   4.678   5.352 -0.0027 -0.0168  0.0274
 7362SOL    HW133548   3.231   4.601   5.403 -1.8353 -1.6835 -1.6246
 7362SOL    HW233549   3.146   0.003   5.411  0.1084 -0.2141  0.2960
 7363SOL     OW33550   0.294   4.373  14.568  0.0595 -0.0091  0.8616
 7363SOL    HW133551   0.271   4.333  14.484 -0.2296 -1.2098  1.5108
 7363SOL    HW233552   0.287   4.468  14.563 -0.8111 -0.1858 -1.2875
 7364SOL     OW33553   1.644   2.560   4.209  0.2755 -0.4582 -0.1976
 7364SOL    HW133554   1.630   2.591   4.119 -1.7833 -1.0304 -0.0852
 7364SOL    HW233555   1.635   2.465   4.204 -2.7876 -0.1722 -0.1577
 7365SOL     OW33556   4.299   2.007   7.866 -0.0322  0.3821 -0.1226
 7365SOL    HW133557   4.281   2.079   7.805  1.4331 -1.9046 -3.2182
 7365SOL    HW233558   4.337   2.056   7.939  0.9615  0.8698 -0.9701
 7366SOL     OW33559   4.458   2.804   5.813 -0.0372 -0.0341  0.0595
 7366SOL    HW133560   4.459   2.899   5.800  2.3027 -0.2136 -1.1801
 7366SOL    HW233561   4.429   2.788   5.903  2.4361 -3.2180  0.2982
 7367SOL     OW33562   4.173   0.363  16.626  0.6065 -0.1169  0.2431
 7367SOL    HW133563   4.219   0.364  16.541 -0.3714  1.6707 -0.2668
 7367SOL    HW233564   4.188   0.269  16.629 -1.1685 -0.3498  1.7160
 7368SOL     OW33565   0.851   1.794  16.279  0.4015  0.4894  0.7042
 7368SOL    HW133566   0.893   1.812  16.363  0.8332 -2.6235  1.1620
 7368SOL    HW233567   0.758   1.809  16.297 -0.3848 -1.3039 -1.7976
 7369SOL     OW33568   1.685   2.038   4.887  0.1162 -0.1751  0.0692
 7369SOL    HW133569   1.684   2.128   4.918  3.1700 -0.1419  0.0351
 7369SOL    HW233570   1.695   1.983   4.964  0.5679 -1.0168 -0.5932
 7370SOL     OW33571   3.155   1.470   9.121  0.1297 -0.1330 -0.4829
 7370SOL    HW133572   3.151   1.536   9.191  1.0112 -0.4342 -0.1525
 7370SOL    HW233573   3.065   1.444   9.140  0.8131 -1.7795  0.5043
 7371SOL     OW33574   1.134   2.547   7.533 -0.6197 -0.5731 -0.0106
 7371SOL    HW133575   1.079   2.494   7.475 -2.2672  0.5746  0.5129
 7371SOL    HW233576   1.224   2.514   7.528 -0.4632  0.0388 -1.1468
 7372SOL     OW33577   0.957   0.526   1.579 -0.1380  0.0864 -0.3584
 7372SOL    HW133578   0.998   0.462   1.636 -1.4786 -0.2858  0.2026
 7372SOL    HW233579   0.967   0.484   1.494 -0.0801  0.4660 -0.5411
 7373SOL     OW33580   3.711   3.323   2.848 -0.6434 -0.3208 -0.1943
 7373SOL    HW133581   3.781   3.349   2.789 -1.0700  1.5979  0.1472
 7373SOL    HW233582   3.702   3.236   2.809  1.5162  0.4275 -2.3563
 7374SOL     OW33583   2.451   2.347   8.697 -0.5356  0.3106  0.4429
 7374SOL    HW133584   2.405   2.387   8.771  0.0692  0.3530  0.7923
 7374SOL    HW233585   2.543   2.368   8.708 -0.7921  1.1277  0.9960
 7375SOL     OW33586   1.444   0.430   7.563 -0.1710 -0.4897  0.2327
 7375SOL    HW133587   1.369   0.459   7.510  0.0398 -2.2842 -1.0583
 7375SOL    HW233588   1.511   0.438   7.495  0.7911 -2.5645  0.9439
 7376SOL     OW33589   1.909   4.321   8.507 -0.0565  0.1028  0.3284
 7376SOL    HW133590   1.951   4.405   8.491  1.8164 -1.0396 -0.8328
 7376SOL    HW233591   1.831   4.341   8.558 -1.0940 -0.2855 -1.1015
 7377SOL     OW33592   0.985   0.047   8.014  0.0302  0.3176  0.2166
 7377SOL    HW133593   1.042   0.104   7.962 -0.1825 -1.4894 -1.9782
 7377SOL    HW233594   1.018   4.682   7.989 -1.7770 -0.0174 -1.0273
 7378SOL     OW33595   1.381   2.981  13.473  0.4669 -0.6777  0.2122
 7378SOL    HW133596   1.394   2.958  13.565  1.4042 -0.6648  0.0791
 7378SOL    HW233597   1.432   3.062  13.470  0.4865 -0.7263 -0.6316
 7379SOL     OW33598   1.066   0.430  17.089  0.4752  0.5493  0.2837
 7379SOL    HW133599   1.043   0.501  17.149 -0.7062  0.2083  0.2500
 7379SOL    HW233600   1.075   0.467  17.001  1.1660 -1.6275 -0.5456
 7380SOL     OW33601   4.271   2.900  11.255 -0.1581  0.0464  0.2852
 7380SOL    HW133602   4.211   2.921  11.183 -1.4008  2.6256  2.0743
 7380SOL    HW233603   4.211   2.902  11.330 -1.5323 -3.4383 -0.7028
 7381SOL     OW33604   2.750   2.646   2.827 -0.9051 -0.1001  0.4866
 7381SOL    HW133605   2.769   2.552   2.830 -1.8811 -0.3414 -0.8146
 7381SOL    HW233606   2.701   2.660   2.908 -0.0967  1.1315  0.7503
 7382SOL     OW33607   3.011   4.429   7.762 -0.2770 -0.9492 -0.0619
 7382SOL    HW133608   2.922   4.395   7.769 -0.5589 -0.2934 -0.4435
 7382SOL    HW233609   3.065   4.353   7.782  0.9748 -0.3058 -1.0263
 7383SOL     OW33610   2.473   4.688  11.001 -0.4084  0.3743  0.0108
 7383SOL    HW133611   2.388   4.687  11.046  0.0440 -1.2513  0.8259
 7383SOL    HW233612   2.527   4.699  11.079  1.9571  1.7972 -1.8607
 7384SOL     OW33613   1.366   2.960   5.936 -0.0736  0.3024  0.2214
 7384SOL    HW133614   1.320   2.876   5.937  0.4884 -0.0090 -0.0713
 7384SOL    HW233615   1.339   2.989   6.023  0.0130 -0.4266  0.4878
 7385SOL     OW33616   0.324   4.412   2.502  0.0287  0.2699 -0.8793
 7385SOL    HW133617   0.289   4.458   2.426 -1.8914  2.0963  1.0886
 7385SOL    HW233618   0.255   4.427   2.567 -0.0631 -1.5430 -0.5612
 7386SOL     OW33619   2.834   1.331   5.579  0.4782 -0.2187  0.7146
 7386SOL    HW133620   2.785   1.293   5.651 -2.8950  2.5140 -0.1266
 7386SOL    HW233621   2.889   1.402   5.612 -1.0714  0.7832  1.1709
 7387SOL     OW33622   3.151   1.693   8.290  0.3192  0.3997 -0.5766
 7387SOL    HW133623   3.191   1.752   8.227  1.1516  0.6909  0.2318
 7387SOL    HW233624   3.206   1.615   8.292  0.5298  0.6101  1.3079
 7388SOL     OW33625   0.361   2.798   7.496  0.6512  0.1683  0.2429
 7388SOL    HW133626   0.281   2.848   7.483  0.1242 -0.8039 -0.1947
 7388SOL    HW233627   0.354   2.724   7.436  0.8538  2.4274 -2.5123
 7389SOL     OW33628   0.792   3.199   9.000 -0.2041  0.2435  0.0997
 7389SOL    HW133629   0.843   3.199   9.081 -0.4504 -0.2808  0.2496
 7389SOL    HW233630   0.741   3.118   9.007 -1.6742  1.2273  0.8171
 7390SOL     OW33631   4.156   3.515   2.303  0.2027  0.0344  0.2221
 7390SOL    HW133632   4.166   3.546   2.392 -1.2082  0.8508  0.1083
 7390SOL    HW233633   4.188   3.427   2.322  0.4267  0.3141  1.1440
 7391SOL     OW33634   0.307   2.423   1.313  0.5935  0.2273 -0.1811
 7391SOL    HW133635   0.277   2.427   1.222  1.1719 -0.6998 -0.4127
 7391SOL    HW233636   0.402   2.423   1.303  0.5372  0.0176 -0.7652
 7392SOL     OW33637   1.435   3.262   3.090 -0.2390  0.2024 -0.1557
 7392SOL    HW133638   1.350   3.286   3.126  0.8038 -0.1995  2.5385
 7392SOL    HW233639   1.476   3.349   3.086  0.0230  0.1171  0.8383
 7393SOL     OW33640   4.080   2.726   6.397  0.0990 -0.5984 -1.0419
 7393SOL    HW133641   4.077   2.722   6.492 -0.6097 -0.8424 -1.0757
 7393SOL    HW233642   3.997   2.764   6.366 -0.9906 -1.9105  0.2950
 7394SOL     OW33643   3.174   4.466   8.215  0.1888 -0.5252 -0.4011
 7394SOL    HW133644   3.124   4.546   8.203  1.0996  0.3180  1.4547
 7394SOL    HW233645   3.167   4.429   8.127 -1.3374 -2.1096  0.3798
 7395SOL     OW33646   1.716   0.833   9.620  0.2211 -0.1084  0.4041
 7395SOL    HW133647   1.639   0.834   9.676 -1.0288 -0.1071 -1.3228
 7395SOL    HW233648   1.729   0.927   9.606  1.1522 -0.1681  0.8479
 7396SOL     OW33649   0.736   0.846   4.915  0.0415 -0.8057  0.0921
 7396SOL    HW133650   0.785   0.845   4.833 -2.3212  0.4575 -1.3237
 7396SOL    HW233651   0.676   0.772   4.910 -0.3451 -0.4681 -0.2926
 7397SOL     OW33652   4.697   1.173   2.508  0.6318  0.1670  0.3377
 7397SOL    HW133653   0.008   1.103   2.565  1.7603  0.4617  0.0740
 7397SOL    HW233654   0.057   1.214   2.480  0.5374  1.0875  1.4142
 7398SOL     OW33655   0.941   4.397  13.355  0.1147  0.4327 -0.2914
 7398SOL    HW133656   0.990   4.457  13.411  2.4288 -0.5468 -1.2562
 7398SOL    HW233657   0.888   4.455  13.301  1.2429  1.2687 -0.4931
 7399SOL     OW33658   4.152   1.122   6.261  0.1951 -0.0786  0.2332
 7399SOL    HW133659   4.226   1.116   6.322  0.7251  0.1085 -0.3933
 7399SOL    HW233660   4.135   1.029   6.246 -0.4710  0.0018  0.5175
 7400SOL     OW33661   0.919   2.015   2.855 -0.4029  0.3452  0.0626
 7400SOL    HW133662   0.970   2.065   2.919  0.7740 -0.7924  0.0227
 7400SOL    HW233663   0.952   2.057   2.775  2.6828  0.2183  1.2607
 7401SOL     OW33664   1.486   2.952   3.459 -0.0929 -0.2745 -0.4040
 7401SOL    HW133665   1.409   2.941   3.405 -1.6321 -1.3343  1.9970
 7401SOL    HW233666   1.478   2.875   3.516  0.0690 -0.5661 -0.7748
 7402SOL     OW33667   2.055   3.596   8.801  0.2677 -0.4706  0.5479
 7402SOL    HW133668   1.995   3.639   8.862 -0.2092 -0.2856 -0.0549
 7402SOL    HW233669   2.137   3.645   8.810  0.4825 -0.8705  0.8006
 7403SOL     OW33670   3.679   2.798   6.631  0.0574 -0.1778 -0.2037
 7403SOL    HW133671   3.632   2.795   6.714  0.4364 -0.0373  0.0144
 7403SOL    HW233672   3.630   2.862   6.580  1.5663 -0.5984 -2.2171
 7404SOL     OW33673   4.117   0.894  15.030 -0.0243  0.1403  0.1221
 7404SOL    HW133674   4.120   0.905  15.125 -1.5512 -1.2013  0.3291
 7404SOL    HW233675   4.076   0.808  15.021  0.8599 -0.4231  1.4610
 7405SOL     OW33676   4.334   0.729  14.281 -0.1769  0.0665  0.1487
 7405SOL    HW133677   4.420   0.693  14.261  0.9576  1.5030  2.5088
 7405SOL    HW233678   4.309   0.779  14.203  0.6739 -1.2316 -0.9483
 7406SOL     OW33679   4.003   3.036   7.666 -0.4790 -0.4664  0.0635
 7406SOL    HW133680   3.975   2.944   7.672 -1.4694 -0.2330 -0.7937
 7406SOL    HW233681   3.993   3.064   7.757 -0.3122 -0.9763  0.2399
 7407SOL     OW33682   0.346   4.308   1.782  0.2009  0.2039 -0.0529
 7407SOL    HW133683   0.376   4.217   1.779 -2.7668 -0.7902 -0.2323
 7407SOL    HW233684   0.353   4.331   1.689  1.5425  1.5337  0.3741
 7408SOL     OW33685   3.684   0.022   7.460 -1.0602  0.2950 -0.0570
 7408SOL    HW133686   3.724   0.080   7.394 -1.3798  1.1942  0.5385
 7408SOL    HW233687   3.732   4.662   7.441 -0.5353  0.8473 -1.0803
 7409SOL     OW33688   3.759   3.203   0.983 -0.3233  0.2325 -0.4310
 7409SOL    HW133689   3.818   3.226   0.910 -1.5517  0.5802 -1.3104
 7409SOL    HW233690   3.681   3.175   0.935 -0.1419 -2.2995  0.7924
 7410SOL     OW33691   3.730   4.609   1.274 -0.4096 -0.3127  0.8714
 7410SOL    HW133692   3.817   4.643   1.253 -1.3570  2.0468  0.7667
 7410SOL    HW233693   3.755   4.525   1.313  1.5944  0.0177  0.2995
 7411SOL     OW33694   3.637   0.601   5.551 -0.4829  0.4016  0.3339
 7411SOL    HW133695   3.547   0.623   5.574 -1.3443  0.4783 -2.9880
 7411SOL    HW233696   3.631   0.609   5.456  1.7482 -4.8856 -0.2913
 7412SOL     OW33697   0.915   0.854   6.142 -0.5404 -0.4250 -0.4579
 7412SOL    HW133698   0.948   0.778   6.093 -1.2873 -0.1922 -1.3010
 7412SOL    HW233699   0.824   0.849   6.115 -0.6830  1.1841 -0.2362
 7413SOL     OW33700   2.121   0.191   8.029 -0.7401 -0.1639  0.5615
 7413SOL    HW133701   2.211   0.225   8.023 -1.2159  1.0150  0.1619
 7413SOL    HW233702   2.095   0.187   7.937 -0.5112  0.7411  0.4587
 7414SOL     OW33703   1.038   3.015  12.933 -0.0270  0.6142  0.6201
 7414SOL    HW133704   1.084   2.933  12.919 -1.9899 -0.6966  1.9439
 7414SOL    HW233705   0.947   2.999  12.957  0.1135 -2.1225 -0.7771
 7415SOL     OW33706   0.087   0.922   4.596 -0.0970  0.1076  0.5338
 7415SOL    HW133707   0.072   0.903   4.504 -1.4919 -1.2325  1.0439
 7415SOL    HW233708   0.033   0.854   4.635 -0.0665 -1.0072 -1.3871
 7416SOL     OW33709   3.059   2.766   4.821  0.3993 -0.3431 -0.7045
 7416SOL    HW133710   3.111   2.802   4.893 -0.3248  2.2280 -1.4672
 7416SOL    HW233711   3.125   2.751   4.753 -0.6232  0.5740 -1.8937
 7417SOL     OW33712   4.118   0.781   0.940 -0.9025  0.3713  0.0299
 7417SOL    HW133713   4.053   0.850   0.922 -0.6294  0.4370 -0.6864
 7417SOL    HW233714   4.188   0.836   0.975  0.3353 -0.8165 -0.6183
 7418SOL     OW33715   3.935   1.519   9.613 -0.3943  0.2970  0.2351
 7418SOL    HW133716   3.969   1.432   9.592 -0.4976  0.4984 -0.7558
 7418SOL    HW233717   3.845   1.493   9.634 -1.2780 -0.8388 -4.9539
 7419SOL     OW33718   0.389   3.982  15.676  0.1673 -0.0828  0.0564
 7419SOL    HW133719   0.388   3.959  15.583  1.9708 -0.8643  0.2348
 7419SOL    HW233720   0.301   4.017  15.687 -1.5766 -3.3450 -3.3389
 7420SOL     OW33721   2.948   0.117   5.426  0.0581  0.4073 -0.4582
 7420SOL    HW133722   2.959   0.134   5.520  1.1798  1.3083 -0.7507
 7420SOL    HW233723   3.028   0.155   5.391  1.9335  0.0276  3.4488
 7421SOL     OW33724   4.046   4.234   6.146 -0.9340 -0.0166  0.4626
 7421SOL    HW133725   4.079   4.179   6.075 -1.7693  0.6707 -0.4498
 7421SOL    HW233726   3.952   4.218   6.141 -0.5903 -1.8552  0.0080
 7422SOL     OW33727   2.179   2.023   9.452  0.5044  0.8901 -0.1590
 7422SOL    HW133728   2.109   2.006   9.515 -0.1503 -0.4420 -1.2598
 7422SOL    HW233729   2.172   2.119   9.457  0.9584  0.9702 -0.9630
 7423SOL     OW33730   1.122   0.753  12.451 -0.5083 -0.0035  0.3875
 7423SOL    HW133731   1.123   0.687  12.383 -0.6103 -1.1964  1.5473
 7423SOL    HW233732   1.188   0.814  12.418 -0.6935  0.8622  1.6062
 7424SOL     OW33733   3.814   1.896   7.451  0.0350 -0.0853 -0.2866
 7424SOL    HW133734   3.832   1.812   7.494 -1.2670 -1.0854 -1.6535
 7424SOL    HW233735   3.852   1.956   7.515 -2.0776 -0.0128  0.8788
 7425SOL     OW33736   4.314   1.268   3.817 -0.0258 -0.5758  0.4131
 7425SOL    HW133737   4.253   1.204   3.779  1.0809 -0.3092 -1.7719
 7425SOL    HW233738   4.386   1.208   3.837  0.2773 -0.6266 -0.8340
 7426SOL     OW33739   0.212   3.335   2.807 -0.5132  0.4714 -0.6631
 7426SOL    HW133740   0.146   3.276   2.842  0.1213  0.6621  0.8643
 7426SOL    HW233741   0.167   3.391   2.744 -1.7180 -1.5923 -1.6269
 7427SOL     OW33742   1.388   1.914   6.683  0.7688  0.2915  0.2450
 7427SOL    HW133743   1.389   1.987   6.622  1.5167  1.3400  1.5036
 7427SOL    HW233744   1.325   1.936   6.751 -0.6560 -0.3102 -0.8922
 7428SOL     OW33745   3.797   1.036   0.677  0.4894  0.2320 -0.2781
 7428SOL    HW133746   3.762   0.948   0.662  1.7840 -0.1972 -0.7023
 7428SOL    HW233747   3.726   1.090   0.640 -0.2497 -0.3511  0.2814
 7429SOL     OW33748   2.744   0.556   9.234  0.0470 -0.0001  0.0468
 7429SOL    HW133749   2.686   0.599   9.296  0.0071 -1.0910  0.7574
 7429SOL    HW233750   2.682   0.489   9.205 -0.8640  0.9172 -0.0831
 7430SOL     OW33751   2.722   1.119   7.725 -0.4221 -0.3890 -0.1471
 7430SOL    HW133752   2.797   1.066   7.753  0.3729  1.1470  0.6475
 7430SOL    HW233753   2.656   1.098   7.792  1.6458  0.4349  2.1534
 7431SOL     OW33754   1.639   1.699   5.059  0.4150 -0.3446 -0.3462
 7431SOL    HW133755   1.684   1.658   4.984 -0.6744 -1.2377 -0.5100
 7431SOL    HW233756   1.672   1.636   5.123  1.2623  0.7181  0.2615
 7432SOL     OW33757   1.331   4.008   9.162 -0.1099  0.5885 -0.4633
 7432SOL    HW133758   1.365   3.933   9.211 -2.3044 -0.3305 -0.3579
 7432SOL    HW233759   1.266   3.953   9.118  0.6282  1.3462 -2.4920
 7433SOL     OW33760   0.226   2.207   6.869  0.5104  0.1446 -0.5647
 7433SOL    HW133761   0.138   2.225   6.836  0.4813 -0.7367 -0.9748
 7433SOL    HW233762   0.214   2.248   6.955 -1.4598  0.7784 -1.1243
 7434SOL     OW33763   2.314   2.959   8.802  0.2774  0.0504 -0.5101
 7434SOL    HW133764   2.293   2.867   8.811  2.5782 -0.4907 -0.7327
 7434SOL    HW233765   2.400   2.941   8.763  1.4743  1.3882  1.5370
 7435SOL     OW33766   2.030   0.796   3.870 -0.0604  0.0550  0.1344
 7435SOL    HW133767   2.052   0.876   3.918  0.9071 -1.0561  1.5420
 7435SOL    HW233768   2.086   0.820   3.796 -1.3599  1.0609 -0.5342
 7436SOL     OW33769   3.928   2.860  11.819  0.2559 -0.1524 -0.4110
 7436SOL    HW133770   3.912   2.870  11.725  0.8906  0.7520 -0.4143
 7436SOL    HW233771   3.857   2.795  11.828 -1.3437  2.2022  3.8887
 7437SOL     OW33772   3.929   1.277   4.523  0.1863  0.4067  0.2625
 7437SOL    HW133773   3.972   1.195   4.500  0.6999  0.8744 -0.4773
 7437SOL    HW233774   3.951   1.272   4.616 -0.6786  1.0876  0.5090
 7438SOL     OW33775   3.572   3.492   4.605 -0.0687  0.0221 -0.3026
 7438SOL    HW133776   3.538   3.417   4.557 -2.8128  0.2579  1.2780
 7438SOL    HW233777   3.605   3.539   4.528  0.8142 -0.9452 -0.5091
 7439SOL     OW33778   3.924   3.349   6.543 -0.2379  0.1718  0.0517
 7439SOL    HW133779   4.011   3.380   6.517  0.2018 -1.3380 -0.2636
 7439SOL    HW233780   3.917   3.256   6.524 -1.8644 -0.0709  1.8415
 7440SOL     OW33781   1.389   3.605   0.803  0.0711 -0.6071  0.0719
 7440SOL    HW133782   1.351   3.541   0.863  0.5418  0.4733  1.5376
 7440SOL    HW233783   1.414   3.670   0.869  0.1533 -0.3690 -0.1956
 7441SOL     OW33784   1.328   3.858   3.646  0.4074 -0.4958 -0.5861
 7441SOL    HW133785   1.388   3.904   3.705  0.6918 -0.2464 -1.0760
 7441SOL    HW233786   1.329   3.765   3.667 -2.5875 -0.6098 -0.9135
 7442SOL     OW33787   1.815   1.203   7.699  0.1168  0.7368 -0.4434
 7442SOL    HW133788   1.730   1.240   7.676  0.4835 -0.4556 -3.7311
 7442SOL    HW233789   1.871   1.260   7.647 -0.8044  1.2407 -0.8886
 7443SOL     OW33790   1.654   3.468   2.950 -0.2451  0.0926 -0.1576
 7443SOL    HW133791   1.680   3.551   2.992  1.8301  0.2479 -1.7449
 7443SOL    HW233792   1.574   3.501   2.910  0.0211 -0.4598 -1.1366
 7444SOL     OW33793   3.366   0.035   8.662  0.1622  0.2036 -0.0639
 7444SOL    HW133794   3.321   0.102   8.713 -0.0321  0.7081 -0.9021
 7444SOL    HW233795   3.294   4.711   8.619  0.2276  0.8192 -0.8159
 7445SOL     OW33796   2.412   3.769   7.611 -0.2826 -0.1711 -0.0239
 7445SOL    HW133797   2.440   3.681   7.637  2.2574  0.9152  0.8342
 7445SOL    HW233798   2.494   3.814   7.593 -0.0762 -0.6693 -0.3379
 7446SOL     OW33799   0.551   0.782   2.197 -0.6860 -0.0793 -0.0416
 7446SOL    HW133800   0.458   0.773   2.219 -0.5596 -2.8426 -0.5884
 7446SOL    HW233801   0.550   0.826   2.112  0.6885 -0.5769 -0.3169
 7447SOL     OW33802   3.906   2.158   3.805  0.0938 -0.0616  0.1116
 7447SOL    HW133803   3.847   2.137   3.733  0.4039  2.3535 -0.8448
 7447SOL    HW233804   3.919   2.077   3.853  1.5372 -0.2389 -0.5758
 7448SOL     OW33805   0.448   0.731   3.314 -0.3000 -0.5349  0.4167
 7448SOL    HW133806   0.529   0.689   3.286  0.3085  0.3619  0.8323
 7448SOL    HW233807   0.378   0.666   3.301 -0.0275 -1.2193  2.4856
 7449SOL     OW33808   1.883   3.276   3.056 -0.2236 -0.4196 -0.6519
 7449SOL    HW133809   1.799   3.319   3.070 -0.1214 -0.2615 -0.5296
 7449SOL    HW233810   1.938   3.352   3.040  1.1681 -1.4607 -0.8129
 7450SOL     OW33811   2.177   1.800   7.906 -0.4340  0.5534 -0.5668
 7450SOL    HW133812   2.213   1.857   7.974  0.1923  0.0038 -0.4344
 7450SOL    HW233813   2.204   1.711   7.928 -3.6761 -0.6590 -1.4567
 7451SOL     OW33814   0.773   2.327   9.498  0.2271 -0.4977 -0.5121
 7451SOL    HW133815   0.709   2.257   9.487  1.7924 -1.8373 -0.9500
 7451SOL    HW233816   0.848   2.270   9.483  0.2478 -0.6096 -0.0006
 7452SOL     OW33817   0.230   2.243   1.053 -0.1725 -0.0386 -0.0738
 7452SOL    HW133818   0.181   2.192   1.117  0.0486  0.1283  0.2234
 7452SOL    HW233819   0.172   2.234   0.976  0.1022 -3.5903  0.1425
 7453SOL     OW33820   2.752   4.585  16.437  0.4867 -0.3922  0.7497
 7453SOL    HW133821   2.800   4.531  16.374  1.3394 -1.1476  2.0496
 7453SOL    HW233822   2.785   4.541  16.515 -2.7349 -3.4271  0.3896
 7454SOL     OW33823   0.818   4.476   6.449 -0.1052 -0.1590 -0.1213
 7454SOL    HW133824   0.762   4.531   6.503  0.0983 -1.2429  1.2082
 7454SOL    HW233825   0.849   4.409   6.510  2.1970 -1.6226 -2.8936
 7455SOL     OW33826   2.285   3.260   0.585  0.0118 -0.0491  0.3917
 7455SOL    HW133827   2.320   3.234   0.500  0.7640  1.0840  0.3524
 7455SOL    HW233828   2.209   3.203   0.597 -0.7038  1.2769  2.1925
 7456SOL     OW33829   0.629   0.093   2.111  0.2191 -0.0945 -0.1784
 7456SOL    HW133830   0.540   0.075   2.080 -0.2588  2.6796 -0.4263
 7456SOL    HW233831   0.678   0.032   2.057 -0.5421 -0.2577 -0.6899
 7457SOL     OW33832   2.838   2.394  15.482  0.0674  0.2746 -0.0306
 7457SOL    HW133833   2.776   2.355  15.544  2.2484 -1.3027  1.2034
 7457SOL    HW233834   2.796   2.366  15.401  1.1511  1.3640 -0.9656
 7458SOL     OW33835   0.010   0.759  17.342 -0.1214  0.2863 -0.0301
 7458SOL    HW133836   4.689   0.673  17.339  0.0386  0.3465 -3.6045
 7458SOL    HW233837   0.082   0.736  17.401  0.7910  0.5616 -1.0404
 7459SOL     OW33838   1.241   2.568  17.581  0.2106 -0.4327 -0.5612
 7459SOL    HW133839   1.156   2.603  17.609 -0.1424 -2.6991  1.2082
 7459SOL    HW233840   1.225   2.481  17.617  0.3029  0.0979  0.7787
 7460SOL     OW33841   1.603   1.635  15.287 -0.4172 -0.1964  0.2990
 7460SOL    HW133842   1.605   1.575  15.213 -4.1242  1.2189 -0.9478
 7460SOL    HW233843   1.539   1.596  15.347 -0.0582  0.2673  0.9915
 7461SOL     OW33844   3.791   0.079   5.691  0.3627  0.4703  0.3000
 7461SOL    HW133845   3.722   0.044   5.748  1.6193  0.0862  1.6091
 7461SOL    HW233846   3.779   0.172   5.710  1.0700  0.7662 -0.6936
 7462SOL     OW33847   3.462   1.199  13.065 -0.3383 -0.2064 -0.0971
 7462SOL    HW133848   3.489   1.238  13.148 -1.4305 -2.0043  1.0992
 7462SOL    HW233849   3.534   1.135  13.071 -0.4834 -0.3261  0.4035
 7463SOL     OW33850   2.357   2.439   3.252  0.1153  0.3135 -0.0072
 7463SOL    HW133851   2.270   2.451   3.289  1.2960  0.0411  2.8296
 7463SOL    HW233852   2.374   2.349   3.278 -0.2567  0.4064  0.5472
 7464SOL     OW33853   4.506   0.905   4.838 -0.1045 -0.2327 -0.4375
 7464SOL    HW133854   4.431   0.846   4.840  0.6633 -1.1582  0.7611
 7464SOL    HW233855   4.577   0.854   4.799 -0.0376 -0.2539 -0.2887
 7465SOL     OW33856   0.766   1.425   2.130  0.2865 -0.5051 -0.3242
 7465SOL    HW133857   0.681   1.457   2.159 -0.6250 -2.2199 -1.1436
 7465SOL    HW233858   0.766   1.333   2.105  0.5131 -0.9299  1.2887
 7466SOL     OW33859   2.417   4.141   2.118 -0.7599  0.2291  0.6208
 7466SOL    HW133860   2.367   4.115   2.041  1.2358  0.6496 -0.8267
 7466SOL    HW233861   2.504   4.112   2.089 -1.6232 -0.7693 -0.9976
 7467SOL     OW33862   0.322   2.502   8.965 -0.1316 -0.3630 -0.2424
 7467SOL    HW133863   0.354   2.591   8.957  1.8911 -1.0213  0.5954
 7467SOL    HW233864   0.319   2.482   8.872 -0.8317  0.2100 -0.3480
 7468SOL     OW33865   2.713   0.528   9.949  0.4112  0.4130 -0.4259
 7468SOL    HW133866   2.671   0.452   9.909 -1.3086 -0.0174  2.2020
 7468SOL    HW233867   2.728   0.499  10.039 -1.9930  0.6405  0.0471
 7469SOL     OW33868   2.265   3.544  11.861  0.2167  0.5521 -0.5806
 7469SOL    HW133869   2.358   3.520  11.854 -0.0217 -1.0668  1.7613
 7469SOL    HW233870   2.277   3.625  11.911 -1.2678  1.1295 -1.1835
 7470SOL     OW33871   1.495   4.597   7.803 -0.0718  0.2855  0.2761
 7470SOL    HW133872   1.424   4.575   7.743 -0.0522  0.2434  0.2683
 7470SOL    HW233873   1.447   4.662   7.854  0.5002  2.1525 -1.5962
 7471SOL     OW33874   3.872   4.339   8.142 -0.2233  0.2069 -0.1256
 7471SOL    HW133875   3.954   4.312   8.101 -0.2847  1.1835 -0.8800
 7471SOL    HW233876   3.805   4.296   8.088 -1.3264  0.1925  1.2658
 7472SOL     OW33877   2.162   0.707   1.747  0.0286  0.6674 -0.1273
 7472SOL    HW133878   2.190   0.621   1.776 -0.7519  0.8076  1.0379
 7472SOL    HW233879   2.078   0.705   1.794  0.3340  3.6943  0.5644
 7473SOL     OW33880   4.181   3.161  14.846 -0.3228 -0.0921  0.3252
 7473SOL    HW133881   4.196   3.234  14.905 -1.1226  2.5348 -2.7272
 7473SOL    HW233882   4.170   3.207  14.763 -1.1863  0.0178  0.5006
 7474SOL     OW33883   2.482   3.777   1.377  0.0855  0.0537 -0.0253
 7474SOL    HW133884   2.571   3.808   1.360 -0.2556  2.7086  2.9988
 7474SOL    HW233885   2.447   3.848   1.431 -1.0692 -0.5923  0.0644
 7475SOL     OW33886   0.059   2.853   6.920 -0.5661  0.1610 -0.3000
 7475SOL    HW133887   0.056   2.777   6.862 -0.2917 -0.4931  0.5533
 7475SOL    HW233888   0.148   2.860   6.955 -0.6721 -1.7808  0.3516
 7476SOL     OW33889   1.856   4.030   7.558  0.2529 -0.5588 -0.3541
 7476SOL    HW133890   1.929   4.002   7.613 -1.7759 -0.3815  2.4709
 7476SOL    HW233891   1.886   4.001   7.472  2.0362  0.3241 -0.0266
 7477SOL     OW33892   4.613   2.436  13.710  0.3735  0.2835  0.2369
 7477SOL    HW133893   4.616   2.509  13.773  0.6823  0.1475  0.3795
 7477SOL    HW233894   4.689   2.380  13.722 -1.3302 -1.5453  2.5230
 7478SOL     OW33895   1.829   3.678  17.446  0.1497  0.3432 -0.5077
 7478SOL    HW133896   1.841   3.711  17.357  1.5886 -0.7387 -0.7218
 7478SOL    HW233897   1.902   3.616  17.452  1.0244  1.5349  1.0086
 7479SOL     OW33898   1.130   0.180   7.787 -0.0549 -0.0130 -0.2870
 7479SOL    HW133899   1.127   0.149   7.697  0.3076 -0.6117 -0.0965
 7479SOL    HW233900   1.163   0.269   7.775 -1.4832  0.4806 -0.5577
 7480SOL     OW33901   1.285   4.442   3.158  0.0401 -0.2347  0.4414
 7480SOL    HW133902   1.203   4.414   3.118 -0.6672  0.7504  1.2098
 7480SOL    HW233903   1.286   4.537   3.161  2.1247 -0.2258 -0.1377
 7481SOL     OW33904   3.376   1.219   7.114  0.0383  0.0055  0.2406
 7481SOL    HW133905   3.436   1.175   7.053  2.9356  0.2505  2.9185
 7481SOL    HW233906   3.421   1.205   7.197 -3.8003 -0.8413  2.1484
 7482SOL     OW33907   2.793   3.206   9.475 -0.1668  0.4014 -0.0297
 7482SOL    HW133908   2.831   3.197   9.563 -0.1220 -1.3074 -0.2291
 7482SOL    HW233909   2.783   3.300   9.464  1.4540  0.7129  1.1014
 7483SOL     OW33910   2.450   1.898  10.416 -0.1801  1.1665 -0.6847
 7483SOL    HW133911   2.475   1.907  10.508 -0.0491  1.0172 -0.7070
 7483SOL    HW233912   2.355   1.887  10.418 -0.1019  0.1696 -2.6016
 7484SOL     OW33913   0.411   1.168   8.401 -0.1501  0.1532 -0.2947
 7484SOL    HW133914   0.496   1.181   8.360 -1.0579  0.5042 -2.0240
 7484SOL    HW233915   0.367   1.121   8.330  1.2607  1.1453 -1.8193
 7485SOL     OW33916   4.134   2.491   3.292  0.2938  0.0465 -0.3016
 7485SOL    HW133917   4.160   2.470   3.381 -1.4074  0.4618  0.2831
 7485SOL    HW233918   4.193   2.566   3.284 -0.1269  0.5686  1.6239
 7486SOL     OW33919   2.445   2.430   5.394 -0.2990 -0.2343 -0.2538
 7486SOL    HW133920   2.408   2.346   5.423  1.7532 -1.6142 -1.6520
 7486SOL    HW233921   2.367   2.447   5.342  0.7534 -0.8778 -2.0410
 7487SOL     OW33922   1.561   1.582  12.461  0.6189 -0.7556  0.0300
 7487SOL    HW133923   1.610   1.608  12.540 -0.9591  0.8079  0.4860
 7487SOL    HW233924   1.499   1.524  12.506 -0.1602 -0.3993 -0.5862
 7488SOL     OW33925   1.432   3.150   1.924 -0.0831  0.0044  0.0774
 7488SOL    HW133926   1.365   3.137   1.857 -0.8090  0.2696  0.7634
 7488SOL    HW233927   1.438   3.057   1.946 -0.2410  0.0956  0.4847
 7489SOL     OW33928   3.505   0.326  10.063 -0.8176  0.3491 -0.0586
 7489SOL    HW133929   3.488   0.255  10.001 -2.0239  0.9201 -0.3715
 7489SOL    HW233930   3.430   0.377  10.033 -0.4407 -0.5042 -2.4665
 7490SOL     OW33931   0.690   2.920   2.350 -0.1956 -0.4293 -0.1026
 7490SOL    HW133932   0.702   2.854   2.417  0.2352  1.6426  1.8727
 7490SOL    HW233933   0.611   2.957   2.392  0.1603 -0.8319  0.9192
 7491SOL     OW33934   4.567   1.617   8.277  0.4058  0.4058  0.1294
 7491SOL    HW133935   4.636   1.625   8.343  0.4503 -0.5919  0.1991
 7491SOL    HW233936   4.497   1.676   8.305  1.0472  0.0609  2.5115
 7492SOL     OW33937   3.982   1.217   5.023 -0.0796  0.1243 -0.4222
 7492SOL    HW133938   3.936   1.187   5.101 -1.7906  3.1957 -0.2908
 7492SOL    HW233939   4.052   1.270   5.061 -0.4900 -0.0319  0.5616
 7493SOL     OW33940   0.114   1.292   8.280 -0.2494 -0.5919  0.3536
 7493SOL    HW133941   0.053   1.269   8.351 -0.4853  0.7140  0.5914
 7493SOL    HW233942   0.169   1.214   8.279  1.0701  0.3103  1.4518
 7494SOL     OW33943   2.136   2.474  10.084  0.1153 -0.1302  0.3145
 7494SOL    HW133944   2.091   2.394  10.055 -1.4238  0.4786  1.0291
 7494SOL    HW233945   2.207   2.448  10.142  0.9037 -2.1495 -1.5232
 7495SOL     OW33946   1.082   3.692   7.016  0.2544  0.6525  0.1919
 7495SOL    HW133947   1.152   3.739   6.971 -0.5844 -0.0445 -1.8270
 7495SOL    HW233948   1.114   3.713   7.104  0.8059  2.1561 -0.3748
 7496SOL     OW33949   3.647   4.508  11.713  0.2006 -0.1171  0.2322
 7496SOL    HW133950   3.582   4.524  11.781 -1.8983 -1.6786 -1.4079
 7496SOL    HW233951   3.612   4.432  11.668 -0.6329  0.5737 -0.2789
 7497SOL     OW33952   1.498   2.919  11.156 -0.1654 -0.2829  0.9928
 7497SOL    HW133953   1.563   2.940  11.224  0.6035  2.5306 -0.6411
 7497SOL    HW233954   1.422   2.968  11.186  0.0655  1.5975 -1.5604
 7498SOL     OW33955   3.159   0.731  15.511  0.2781  0.1027  0.5521
 7498SOL    HW133956   3.107   0.663  15.554  0.1027  0.4456  0.8867
 7498SOL    HW233957   3.246   0.729  15.551 -0.2752 -0.8876  1.7174
 7499SOL     OW33958   0.611   0.699   8.756 -0.5680 -0.0619 -0.3848
 7499SOL    HW133959   0.643   0.688   8.667 -0.1648 -2.7441  0.1024
 7499SOL    HW233960   0.562   0.618   8.765  1.0541 -0.8964  0.8559
 7500SOL     OW33961   1.509   3.534   3.204 -1.0331 -0.2074  0.7438
 7500SOL    HW133962   1.530   3.528   3.297 -1.1651 -0.0133  0.7853
 7500SOL    HW233963   1.588   3.559   3.157 -1.2717 -1.5598 -0.3676
 7501SOL     OW33964   2.104   4.418   3.086 -0.2148 -0.4632 -0.0167
 7501SOL    HW133965   2.162   4.377   3.022 -0.1474 -1.2288  0.5332
 7501SOL    HW233966   2.025   4.440   3.037  1.6163  3.3458 -1.2932
 7502SOL     OW33967   0.685   0.105  15.740 -0.0930  0.1331 -0.5108
 7502SOL    HW133968   0.619   0.141  15.799 -0.3735 -0.2755 -0.5731
 7502SOL    HW233969   0.686   0.178  15.678 -0.7800 -0.7785 -1.5937
 7503SOL     OW33970   0.719   2.768   3.075  0.7030 -0.1225  0.4945
 7503SOL    HW133971   0.778   2.719   3.134  1.0193  1.4762  1.5013
 7503SOL    HW233972   0.650   2.762   3.141 -1.4430 -1.5543 -1.9132
 7504SOL     OW33973   1.543   1.268   4.858  1.0266 -0.0903 -0.1073
 7504SOL    HW133974   1.468   1.324   4.839  0.5166 -0.5189  0.6188
 7504SOL    HW233975   1.542   1.276   4.954 -0.1103 -1.1995 -0.0170
 7505SOL     OW33976   0.225   2.280   7.140  0.2512  0.1614  0.2020
 7505SOL    HW133977   0.169   2.356   7.124  1.6234  0.9953 -0.6653
 7505SOL    HW233978   0.201   2.259   7.230  0.1968 -2.8348 -0.5018
 7506SOL     OW33979   0.778   1.114   4.918 -0.2799 -0.1096 -0.1110
 7506SOL    HW133980   0.745   1.024   4.926  0.2551 -0.2483  0.4824
 7506SOL    HW233981   0.867   1.093   4.888 -0.4726  0.5466 -1.1454
 7507SOL     OW33982   1.117   3.319   1.998 -0.0453  0.3350 -0.7482
 7507SOL    HW133983   1.167   3.357   2.070  2.7234 -0.6319 -2.1558
 7507SOL    HW233984   1.097   3.399   1.950  1.8353 -1.0951 -3.9555
 7508SOL     OW33985   0.460   3.964  11.585  0.6531  0.7679  0.4300
 7508SOL    HW133986   0.433   3.934  11.672  2.0614 -2.7587 -0.3594
 7508SOL    HW233987   0.385   3.944  11.528  0.9688 -0.5527  0.4778
 7509SOL     OW33988   2.572   2.541  10.348  0.5818  0.0778 -0.2649
 7509SOL    HW133989   2.652   2.510  10.390  0.9764  0.0582 -1.0147
 7509SOL    HW233990   2.514   2.568  10.419  0.2379  0.5597 -0.7301
 7510SOL     OW33991   1.114   0.732  11.716  0.3140  0.1190  0.0677
 7510SOL    HW133992   1.037   0.684  11.685  0.6078  0.2653 -0.8940
 7510SOL    HW233993   1.109   0.822  11.685  3.0603  0.4347  0.5223
 7511SOL     OW33994   4.496   1.408  15.076 -0.0557  0.5370 -0.6842
 7511SOL    HW133995   4.584   1.401  15.111 -0.3857 -1.0923 -0.1858
 7511SOL    HW233996   4.487   1.327  15.025 -0.6995  0.2409 -0.1070
 7512SOL     OW33997   1.496   0.080   2.013 -0.3440 -0.5923 -0.5052
 7512SOL    HW133998   1.577   0.044   1.976 -0.9602 -2.1185 -0.3540
 7512SOL    HW233999   1.457   0.121   1.936  0.0083 -0.0431 -0.3943
 7513SOL     OW34000   1.963   0.133   8.938 -0.0290  0.2747  0.2182
 7513SOL    HW134001   1.914   0.093   9.010  0.6259 -0.3904  0.2929
 7513SOL    HW234002   1.937   0.072   8.869  0.6932 -0.1772  0.3511
 7514SOL     OW34003   2.939   2.908   0.096 -0.2548 -0.1536  0.3432
 7514SOL    HW134004   2.905   2.850   0.027  1.6039 -2.4847  1.3800
 7514SOL    HW234005   3.018   2.941   0.055 -0.4796 -0.5026 -0.3798
 7515SOL     OW34006   2.368   2.195  12.491 -0.4553 -0.0102 -0.0141
 7515SOL    HW134007   2.433   2.165  12.556 -1.5504  0.1381  1.1562
 7515SOL    HW234008   2.378   2.290  12.490 -0.8626 -0.0003 -1.8965
 7516SOL     OW34009   4.561   2.230   5.929 -0.2381 -0.7616 -0.5538
 7516SOL    HW134010   4.469   2.236   5.955 -0.4476  0.9451 -1.6443
 7516SOL    HW234011   4.594   2.170   5.995 -0.4035  0.1814  0.3991
 7517SOL     OW34012   3.785   0.484   6.211  0.2600 -0.1236  0.2259
 7517SOL    HW134013   3.862   0.490   6.268  0.2077 -2.5973  0.5496
 7517SOL    HW234014   3.763   0.392   6.223 -0.6568 -0.0626 -0.9390
 7518SOL     OW34015   3.295   1.081   4.692  0.4273  0.2019 -0.0462
 7518SOL    HW134016   3.310   0.992   4.724  2.8476  0.8077  0.4905
 7518SOL    HW234017   3.255   1.062   4.607 -2.1738  0.7542  1.0388
 7519SOL     OW34018   3.599   0.527   6.598 -0.5950 -0.5000 -0.0725
 7519SOL    HW134019   3.514   0.525   6.555 -0.4893 -1.2658 -0.2556
 7519SOL    HW234020   3.647   0.466   6.541  1.4985  1.5581 -0.4994
 7520SOL     OW34021   1.991   2.583   7.055  0.4626  0.0008 -0.1325
 7520SOL    HW134022   1.947   2.638   7.120  0.0288 -0.6257  0.0953
 7520SOL    HW234023   2.025   2.520   7.118  0.6102 -1.4053 -1.6101
 7521SOL     OW34024   3.952   0.428   8.778  0.2953  0.1433 -0.4321
 7521SOL    HW134025   3.964   0.335   8.758 -0.4092 -0.0556  0.0475
 7521SOL    HW234026   4.005   0.429   8.858 -1.5633 -0.2370  0.8204
 7522SOL     OW34027   1.176   4.578  12.949  0.2139 -0.0424 -0.5258
 7522SOL    HW134028   1.116   4.505  12.967  0.6821  0.0452  1.3971
 7522SOL    HW234029   1.110   4.647  12.939  0.5887  0.3764 -0.0513
 7523SOL     OW34030   2.046   2.893  13.828 -0.7858 -0.1075 -0.0032
 7523SOL    HW134031   2.062   2.799  13.837  0.5771  0.3017  1.9114
 7523SOL    HW234032   1.969   2.917  13.878 -1.5951 -2.0466 -0.3249
 7524SOL     OW34033   2.159   4.039   6.459  0.1279 -0.1297  0.0257
 7524SOL    HW134034   2.136   4.128   6.485 -1.6813  0.0253 -2.1777
 7524SOL    HW234035   2.226   4.061   6.394  0.4507 -0.8457  0.1171
 7525SOL     OW34036   0.048   4.389  14.136 -0.1498  0.3062 -0.2841
 7525SOL    HW134037   4.676   4.391  14.162 -0.0105 -0.3899  0.2720
 7525SOL    HW234038   0.046   4.446  14.059  0.0998 -0.5151 -0.8926
 7526SOL     OW34039   0.200   4.584   3.110  0.1300  0.1058  0.0337
 7526SOL    HW134040   0.240   4.578   3.023  2.0428  0.9318  0.8412
 7526SOL    HW234041   0.181   4.490   3.115  0.7491 -0.0415 -0.2833
 7527SOL     OW34042   3.444   3.222   4.569  0.0286  0.3254  0.3449
 7527SOL    HW134043   3.386   3.164   4.520  3.0531 -2.4751  0.0391
 7527SOL    HW234044   3.525   3.184   4.535 -1.1132  0.2947 -2.3489
 7528SOL     OW34045   2.679   3.240   0.341 -0.0555  0.4067 -0.2681
 7528SOL    HW134046   2.770   3.263   0.326  0.5692 -2.3712 -0.6564
 7528SOL    HW234047   2.667   3.250   0.435  3.8987 -1.0948  0.3652
 7529SOL     OW34048   1.708   1.648   4.201  0.5429 -0.2929 -0.5774
 7529SOL    HW134049   1.764   1.628   4.126  2.6352  3.1665  0.0605
 7529SOL    HW234050   1.770   1.646   4.274 -1.9132  0.9176  1.5401
 7530SOL     OW34051   2.614   1.391   4.253 -0.0733  0.1002 -0.1034
 7530SOL    HW134052   2.695   1.440   4.264  0.2619 -0.1763 -1.3040
 7530SOL    HW234053   2.629   1.340   4.173  1.6273 -0.7180  0.7496
 7531SOL     OW34054   4.030   1.358   6.685  0.1998  0.0029 -0.2320
 7531SOL    HW134055   3.996   1.385   6.770 -0.4117 -1.3682 -0.0452
 7531SOL    HW234056   4.038   1.264   6.703 -0.3283 -0.0139 -0.0909
 7532SOL     OW34057   3.354   3.009   8.262  0.0502 -0.0432  0.4505
 7532SOL    HW134058   3.341   2.983   8.353  0.8007 -2.7093 -0.1739
 7532SOL    HW234059   3.332   3.101   8.251  1.2904 -0.0128 -1.7870
 7533SOL     OW34060   0.062   2.022   1.860  0.0686  0.2754 -0.1425
 7533SOL    HW134061   0.149   2.017   1.900 -0.9612  1.0347  2.2314
 7533SOL    HW234062   0.084   2.073   1.783  0.3595  0.7095  0.2291
 7534SOL     OW34063   2.476   1.780  15.679 -0.1206  0.4973  0.4003
 7534SOL    HW134064   2.501   1.872  15.668  0.3628  0.0632 -2.2462
 7534SOL    HW234065   2.401   1.784  15.619 -0.9471  0.7730  1.4554
 7535SOL     OW34066   0.947   3.759   5.593  0.3577 -0.6751 -0.0038
 7535SOL    HW134067   0.899   3.833   5.631  0.4398 -1.0950  0.9218
 7535SOL    HW234068   0.935   3.691   5.660  2.9593  0.7595  1.9413
 7536SOL     OW34069   1.552   4.607   4.925  0.6051  0.2749 -0.1998
 7536SOL    HW134070   1.610   4.564   4.862  0.3846  1.5668 -1.2851
 7536SOL    HW234071   1.470   4.562   4.906  1.7365 -1.9083  0.0224
 7537SOL     OW34072   4.417   4.129   2.099 -0.0504 -0.6843 -0.5710
 7537SOL    HW134073   4.487   4.102   2.158 -0.7744 -1.5496 -0.1039
 7537SOL    HW234074   4.462   4.171   2.026  1.5823 -0.1819  0.7319
 7538SOL     OW34075   0.518   1.302   2.980  0.0375 -0.1189 -0.1588
 7538SOL    HW134076   0.451   1.282   2.915  0.1253  2.2641 -1.0193
 7538SOL    HW234077   0.597   1.311   2.927 -0.9738  1.1864 -1.4680
 7539SOL     OW34078   3.359   0.550   6.182 -0.1668 -0.6869  0.0698
 7539SOL    HW134079   3.330   0.628   6.230  1.2408  0.2394 -0.5583
 7539SOL    HW234080   3.334   0.562   6.090  0.7249  0.1673 -0.0687
 7540SOL     OW34081   4.390   3.028  12.022  0.1322 -0.1431 -0.1028
 7540SOL    HW134082   4.327   3.001  12.089  1.7673 -2.4414  0.5303
 7540SOL    HW234083   4.337   3.017  11.944 -2.1269  0.3094  1.3625
 7541SOL     OW34084   1.241   0.332   4.808 -0.4148 -0.1757  0.2214
 7541SOL    HW134085   1.290   0.260   4.768  1.9695  0.6640  1.6117
 7541SOL    HW234086   1.207   0.284   4.883 -2.5731 -1.6029 -1.6817
 7542SOL     OW34087   4.658   2.418  12.242 -0.4325  0.3313 -0.4872
 7542SOL    HW134088   4.669   2.465  12.159 -0.3362  1.0108 -0.0862
 7542SOL    HW234089   4.570   2.380  12.237 -0.0094 -0.6414 -0.5564
 7543SOL     OW34090   1.412   2.558  14.114 -0.0720  0.4862  0.6248
 7543SOL    HW134091   1.318   2.549  14.100 -0.3364  3.2785  0.5738
 7543SOL    HW234092   1.458   2.476  14.100 -2.4505 -0.6956 -0.2117
 7544SOL     OW34093   2.901   1.815   1.951  1.0373  0.7865  0.6942
 7544SOL    HW134094   2.824   1.811   2.007  0.2135 -2.2202 -0.6776
 7544SOL    HW234095   2.934   1.727   1.970 -0.0023  0.5755  1.4906
 7545SOL     OW34096   2.373   3.269   5.166  0.0912 -0.1342 -0.6681
 7545SOL    HW134097   2.283   3.288   5.193 -0.7421 -1.8237 -2.3184
 7545SOL    HW234098   2.351   3.251   5.075  2.1655 -0.4872 -1.0899
 7546SOL     OW34099   2.687   2.198   8.143  0.1878  0.1808  0.0712
 7546SOL    HW134100   2.698   2.103   8.150 -1.0829 -0.1701 -2.5298
 7546SOL    HW234101   2.714   2.224   8.231 -0.5323  2.4918 -0.3795
 7547SOL     OW34102   0.239   0.581   0.407 -0.0564 -0.3862  0.6536
 7547SOL    HW134103   0.288   0.544   0.334  0.2033  1.2231  0.0205
 7547SOL    HW234104   0.153   0.542   0.391 -2.7960  5.7346  0.1809
 7548SOL     OW34105   2.591   1.701   7.013  0.5159 -0.9889 -0.1644
 7548SOL    HW134106   2.642   1.678   7.091 -1.5431 -0.3059  1.3868
 7548SOL    HW234107   2.600   1.796   7.002 -0.3427 -0.8326  0.4265
 7549SOL     OW34108   1.856   3.973   5.828  0.7539  0.6552  0.0531
 7549SOL    HW134109   1.928   4.025   5.790 -0.1292  2.9526  1.5528
 7549SOL    HW234110   1.823   4.037   5.890  3.0992  2.1024 -0.1931
 7550SOL     OW34111   3.741   4.228   6.322  0.5655 -0.3146  0.5191
 7550SOL    HW134112   3.776   4.186   6.401 -0.4689 -0.3655  0.9491
 7550SOL    HW234113   3.648   4.231   6.344  0.3525  0.5527 -0.5581
 7551SOL     OW34114   2.095   0.385   8.855 -0.3436 -0.0594  0.6524
 7551SOL    HW134115   2.061   0.297   8.875  1.3222 -1.4783 -2.6736
 7551SOL    HW234116   2.049   0.405   8.773  0.0987 -0.7176  0.2413
 7552SOL     OW34117   1.529   2.666  10.956  0.3282 -0.2629 -0.3100
 7552SOL    HW134118   1.514   2.760  10.947  2.7337  0.0369 -1.1533
 7552SOL    HW234119   1.469   2.650  11.029 -1.3024 -1.2064 -1.8390
 7553SOL     OW34120   4.353   2.378   1.163 -0.1361 -0.0473  0.2446
 7553SOL    HW134121   4.280   2.375   1.101  0.3581 -0.2967 -0.3192
 7553SOL    HW234122   4.334   2.306   1.224  0.4577 -0.0672  0.4062
 7554SOL     OW34123   1.672   3.138   7.064  0.3150  0.9843  0.3868
 7554SOL    HW134124   1.645   3.223   7.029 -0.6175  0.6965  0.4119
 7554SOL    HW234125   1.766   3.147   7.046  0.1305  0.0222 -1.0242
 7555SOL     OW34126   0.748   4.130   7.478  0.4310  0.2854  0.4771
 7555SOL    HW134127   0.819   4.183   7.443 -0.5612  0.7539 -0.8211
 7555SOL    HW234128   0.682   4.160   7.416  0.9180 -0.2728 -0.3214
 7556SOL     OW34129   3.628   2.636   7.092  0.2108  0.5107  0.0412
 7556SOL    HW134130   3.632   2.719   7.046 -0.6529  0.9919  0.8401
 7556SOL    HW234131   3.544   2.653   7.135  0.6032 -0.7996  1.3598
 7557SOL     OW34132   2.407   3.462  14.838 -0.1698 -0.4927  0.3022
 7557SOL    HW134133   2.492   3.501  14.817 -1.1514 -1.0422 -4.7344
 7557SOL    HW234134   2.355   3.527  14.791 -0.3799  0.1564  1.4207
 7558SOL     OW34135   1.657   1.172   8.874 -0.0057 -0.3575  0.1441
 7558SOL    HW134136   1.592   1.190   8.942 -1.1804  0.2174 -1.1395
 7558SOL    HW234137   1.715   1.248   8.866 -1.3912  0.7588  0.6708
 7559SOL     OW34138   3.603   2.772  13.680  0.1173 -0.4685  0.3276
 7559SOL    HW134139   3.522   2.823  13.672  0.2411 -0.7394 -2.4559
 7559SOL    HW234140   3.587   2.682  13.650  0.1807 -0.2100 -0.4833
 7560SOL     OW34141   2.728   0.345   2.091 -0.5655 -0.2963 -0.2658
 7560SOL    HW134142   2.700   0.426   2.135 -1.5691  0.0383 -1.5335
 7560SOL    HW234143   2.821   0.364   2.103 -0.3479 -2.0157  0.6792
 7561SOL     OW34144   2.590   2.580   4.532  0.3766 -0.8811  1.0008
 7561SOL    HW134145   2.671   2.528   4.539  1.5938  0.9640  0.5197
 7561SOL    HW234146   2.522   2.514   4.522  0.7432 -0.9049 -1.2374
 7562SOL     OW34147   2.071   2.428   6.249  0.8163 -0.2551 -0.2802
 7562SOL    HW134148   2.014   2.463   6.318  1.6921 -0.6358  0.6410
 7562SOL    HW234149   2.071   2.508   6.197  0.0449  0.7514  1.2845
 7563SOL     OW34150   0.133   1.916   7.929  0.1908  0.0032 -1.0711
 7563SOL    HW134151   0.097   1.960   8.006 -0.0518  0.2172 -1.3114
 7563SOL    HW234152   0.225   1.929   7.953  0.0775 -0.1808 -0.5205
 7564SOL     OW34153   0.568   1.997   6.962  0.1672  0.1714  0.6093
 7564SOL    HW134154   0.572   2.054   7.038  0.3194 -0.2296  0.8991
 7564SOL    HW234155   0.476   1.980   6.943  0.0505  2.2630 -0.6974
 7565SOL     OW34156   2.524   2.914   2.689  0.0554 -0.7425 -0.1233
 7565SOL    HW134157   2.591   2.981   2.673  0.1695 -0.7078  0.5003
 7565SOL    HW234158   2.451   2.957   2.646  0.0616 -0.9312 -0.3191
 7566SOL     OW34159   1.455   2.409   3.127 -0.0836  0.2121  0.3549
 7566SOL    HW134160   1.449   2.323   3.167  0.1672  0.0008 -0.0608
 7566SOL    HW234161   1.388   2.460   3.174 -0.6100  1.4047 -1.6670
 7567SOL     OW34162   0.765   3.279  11.434 -0.2481 -0.3839 -0.4205
 7567SOL    HW134163   0.784   3.343  11.365  1.4442 -2.1332 -1.5683
 7567SOL    HW234164   0.706   3.220  11.387 -0.1219  0.4106 -1.5852
 7568SOL     OW34165   3.468   2.557   8.495 -1.3407  0.2066 -0.0311
 7568SOL    HW134166   3.438   2.531   8.582  1.0340 -4.6455 -0.6779
 7568SOL    HW234167   3.443   2.483   8.441 -0.5053  0.6138 -0.9794
 7569SOL     OW34168   2.574   1.819   5.973  0.2354  0.2123 -0.4157
 7569SOL    HW134169   2.620   1.751   6.022 -1.7040 -0.4400  0.4906
 7569SOL    HW234170   2.485   1.788   5.988  1.3268 -2.8201 -0.2165
 7570SOL     OW34171   3.784   2.017   3.635 -0.5621  0.4808 -0.0827
 7570SOL    HW134172   3.830   1.933   3.631 -1.5729 -0.1395  1.5647
 7570SOL    HW234173   3.743   2.020   3.549  0.5285 -3.8861 -0.7606
 7571SOL     OW34174   1.285   4.483   1.049  0.5759  0.2032 -0.1422
 7571SOL    HW134175   1.299   4.578   1.056  2.5900  0.0734 -2.5523
 7571SOL    HW234176   1.240   4.478   1.134 -3.0162 -2.5738 -2.2649
 7572SOL     OW34177   4.378   0.571   5.829  0.1834 -0.3151 -0.0185
 7572SOL    HW134178   4.302   0.597   5.880 -1.2698 -3.2866 -0.6378
 7572SOL    HW234179   4.331   0.553   5.747  1.7141  0.1082 -0.9916
 7573SOL     OW34180   4.320   2.010   9.062  0.0078  0.0324 -0.8064
 7573SOL    HW134181   4.394   2.053   9.019 -0.4580 -0.6893 -2.3554
 7573SOL    HW234182   4.362   1.931   9.094 -1.0387 -0.1474  0.1112
 7574SOL     OW34183   3.318   2.375  13.754  0.0079  0.1559  0.1060
 7574SOL    HW134184   3.281   2.327  13.679  1.5296 -1.8967  0.6890
 7574SOL    HW234185   3.404   2.399  13.721  0.4395 -2.9031 -1.0162
 7575SOL     OW34186   0.660   3.053  14.557 -0.4385 -0.4618  0.3387
 7575SOL    HW134187   0.601   3.127  14.542 -1.5781 -1.7390 -1.4101
 7575SOL    HW234188   0.742   3.092  14.525 -1.1906 -0.8516 -2.0558
 7576SOL     OW34189   2.824   2.966   4.179  0.6336  0.4363 -0.5595
 7576SOL    HW134190   2.770   2.961   4.258  2.9532  0.8279  1.0475
 7576SOL    HW234191   2.764   2.951   4.106 -0.0727 -0.8495  0.2734
 7577SOL     OW34192   2.498   1.533  13.965  0.0029 -0.7275  0.0198
 7577SOL    HW134193   2.429   1.598  13.979  0.3324 -0.7753  1.8877
 7577SOL    HW234194   2.436   1.468  13.933 -0.5151 -0.5240  0.6144
 7578SOL     OW34195   3.956   2.829  12.253  0.4324  0.1654 -0.6205
 7578SOL    HW134196   3.955   2.735  12.273  1.1923  0.0500 -1.1279
 7578SOL    HW234197   3.862   2.846  12.251  0.4039  0.0788 -0.1874
 7579SOL     OW34198   0.086   0.479   4.339  0.9724  0.1658 -0.5585
 7579SOL    HW134199   0.042   0.456   4.421  0.0939 -0.6796 -1.2556
 7579SOL    HW234200   0.077   0.575   4.337 -1.0791  0.0265  2.3830
 7580SOL     OW34201   0.303   2.079   5.543 -0.2081 -0.2289  0.0286
 7580SOL    HW134202   0.288   2.077   5.638 -0.6621 -0.4735 -0.0501
 7580SOL    HW234203   0.299   1.986   5.520 -1.9893  0.1426 -1.1442
 7581SOL     OW34204   2.762   1.311  11.702 -0.2626  0.6392  0.1397
 7581SOL    HW134205   2.742   1.313  11.608  1.9518  0.5870 -0.3330
 7581SOL    HW234206   2.683   1.273  11.741 -0.0524  1.0041  0.9184
 7582SOL     OW34207   0.879   1.017   9.649  0.6979  0.2362 -0.1958
 7582SOL    HW134208   0.951   1.048   9.704  0.9970 -1.3823  0.3246
 7582SOL    HW234209   0.807   0.994   9.707  1.1525  0.7737  0.5933
 7583SOL     OW34210   1.839   2.680  17.444  0.1317 -0.3744 -0.2780
 7583SOL    HW134211   1.865   2.664  17.534  3.4652  3.7066 -0.4869
 7583SOL    HW234212   1.764   2.738  17.453  1.8908  2.3615 -3.0600
 7584SOL     OW34213   1.083   2.853   3.975  0.0121 -0.4573  0.3375
 7584SOL    HW134214   1.135   2.805   4.039 -0.7998 -0.8005  0.7317
 7584SOL    HW234215   1.027   2.897   4.039  0.0451 -0.5909  0.4570
 7585SOL     OW34216   1.297   1.119  11.466  0.1768 -0.1402  0.6633
 7585SOL    HW134217   1.373   1.177  11.478  0.0007 -0.1377  1.7286
 7585SOL    HW234218   1.343   1.041  11.436 -2.1675 -0.7608 -1.2819
 7586SOL     OW34219   1.682   4.015   1.733  0.3000 -0.0070  0.9664
 7586SOL    HW134220   1.688   4.048   1.823 -1.3300  0.5286  0.8951
 7586SOL    HW234221   1.736   3.936   1.730  0.4529  0.1470 -0.2530
 7587SOL     OW34222   0.820   0.346  11.774 -0.1369  0.2652  0.1428
 7587SOL    HW134223   0.818   0.441  11.761 -1.9405  0.1008 -0.7889
 7587SOL    HW234224   0.743   0.333  11.830  0.8578 -0.6476  1.2794
 7588SOL     OW34225   0.354   1.528  13.490 -0.0152  0.0999 -0.3222
 7588SOL    HW134226   0.399   1.499  13.570 -2.9869 -1.2248  0.8793
 7588SOL    HW234227   0.336   1.620  13.505  1.0853  0.1575  0.6725
 7589SOL     OW34228   2.851   3.012   8.019  0.3423 -0.0753  0.1576
 7589SOL    HW134229   2.835   2.919   8.034  0.7092 -0.3979 -1.4532
 7589SOL    HW234230   2.921   3.011   7.954 -1.8938 -0.4467 -2.2610
 7590SOL     OW34231   1.676   1.440   9.222  0.2056 -0.0442 -0.3849
 7590SOL    HW134232   1.663   1.349   9.196  0.6697 -0.8716  2.3557
 7590SOL    HW234233   1.642   1.448   9.311  0.8258  1.9033 -0.3052
 7591SOL     OW34234   0.820   2.416   8.491 -0.5916  0.0078  0.4564
 7591SOL    HW134235   0.811   2.350   8.423  1.0368 -0.6646  0.8962
 7591SOL    HW234236   0.840   2.491   8.435 -1.2575 -0.4434 -0.3861
 7592SOL     OW34237   1.102   2.042   0.845  0.0945 -0.8430  0.1550
 7592SOL    HW134238   1.062   2.050   0.759  0.7403 -1.8494 -0.2402
 7592SOL    HW234239   1.192   2.045   0.811 -0.8780  0.2761 -2.3379
 7593SOL     OW34240   3.050   2.162  16.303  0.0451  0.4894 -0.2097
 7593SOL    HW134241   2.996   2.088  16.275  0.7927  0.1088 -0.6618
 7593SOL    HW234242   3.054   2.141  16.397 -0.7651  3.9671  0.6000
 7594SOL     OW34243   4.308   1.925   9.962 -0.3122  0.2651 -0.2474
 7594SOL    HW134244   4.329   1.858   9.897 -0.2495 -0.6891  0.7469
 7594SOL    HW234245   4.222   1.891   9.986 -1.2362  1.2972 -2.1252
 7595SOL     OW34246   1.712   3.102  11.214  0.0524  0.2693  0.2107
 7595SOL    HW134247   1.806   3.086  11.208 -0.0405 -1.3594  2.7586
 7595SOL    HW234248   1.694   3.129  11.124 -1.1712 -2.6171 -0.4322
 7596SOL     OW34249   0.741   1.329   4.760 -0.1097  0.1092  0.8914
 7596SOL    HW134250   0.645   1.338   4.758 -0.2888 -2.0915 -1.0280
 7596SOL    HW234251   0.736   1.244   4.805 -0.4419 -1.3572 -1.8654
 7597SOL     OW34252   1.524   3.785  17.453  0.0405  0.1997  0.2405
 7597SOL    HW134253   1.520   3.791  17.548  2.8811 -0.0027  0.3551
 7597SOL    HW234254   1.612   3.748  17.441  0.3901  0.4633  2.0903
 7598SOL     OW34255   1.471   1.381   6.760 -0.2878  0.0064  0.4421
 7598SOL    HW134256   1.549   1.409   6.808  0.0775 -0.0992 -0.0816
 7598SOL    HW234257   1.512   1.299   6.730 -0.7523 -0.2973  0.6404
 7599SOL     OW34258   2.416   1.279   8.429  0.1340 -0.1332  0.2390
 7599SOL    HW134259   2.480   1.227   8.381 -3.4426 -1.2839 -3.3346
 7599SOL    HW234260   2.394   1.226   8.505  1.4249 -1.0150 -0.0092
 7600SOL     OW34261   3.017   2.965   7.115 -0.3271  0.1146 -0.2509
 7600SOL    HW134262   3.005   3.004   7.028 -0.8786  2.8436  1.0481
 7600SOL    HW234263   2.947   3.011   7.161 -0.2292  0.3525 -0.3346
 7601SOL     OW34264   3.543   0.287   7.052 -0.3979 -0.2288  0.0390
 7601SOL    HW134265   3.612   0.310   6.990 -1.4437 -0.3720 -1.1668
 7601SOL    HW234266   3.600   0.262   7.125 -1.2627  1.9046  1.4451
 7602SOL     OW34267   2.703   0.859  13.963 -0.0537 -0.0462 -0.2884
 7602SOL    HW134268   2.707   0.947  13.926 -1.5256 -0.0063 -0.3466
 7602SOL    HW234269   2.790   0.826  13.942  0.0099  0.7350 -1.2330
 7603SOL     OW34270   0.454   1.163   7.283  0.5646  0.2555 -0.5311
 7603SOL    HW134271   0.539   1.124   7.264  0.9876 -0.1200  2.0657
 7603SOL    HW234272   0.424   1.195   7.198 -1.0424 -0.1777 -0.1369
 7604SOL     OW34273   2.696   2.683  14.878 -0.4530 -0.6363  0.1090
 7604SOL    HW134274   2.734   2.702  14.963 -0.2120  0.5622 -0.2637
 7604SOL    HW234275   2.763   2.623  14.845  0.1951  0.8555 -1.2776
 7605SOL     OW34276   1.854   3.046  16.433  0.7517 -0.2673  0.2478
 7605SOL    HW134277   1.835   2.974  16.373  0.4751 -1.2724  1.5537
 7605SOL    HW234278   1.811   3.113  16.380  1.4694  1.0444  1.3419
 7606SOL     OW34279   4.331   1.343   0.220  0.5809  0.1349 -0.2656
 7606SOL    HW134280   4.399   1.406   0.244 -1.5626  2.4886 -0.3673
 7606SOL    HW234281   4.267   1.379   0.281  1.6900 -0.5420  1.2992
 7607SOL     OW34282   2.465   1.819   9.659  0.6880 -0.2258  0.4383
 7607SOL    HW134283   2.372   1.829   9.678  0.2580 -2.1423 -0.5709
 7607SOL    HW234284   2.503   1.779   9.737  1.6946 -1.4396 -0.6709
 7608SOL     OW34285   3.040   1.299   8.638 -0.2262  0.0674  0.1625
 7608SOL    HW134286   3.066   1.300   8.730 -0.9242 -3.6968  0.4063
 7608SOL    HW234287   2.945   1.309   8.640 -0.3947 -1.5360  0.0566
 7609SOL     OW34288   2.178   2.212  13.105  0.1778 -0.2069 -0.0645
 7609SOL    HW134289   2.202   2.209  13.013 -1.2857  0.6090 -0.4661
 7609SOL    HW234290   2.170   2.119  13.128 -1.1416 -0.0476  0.1292
 7610SOL     OW34291   1.534   2.505   2.519 -0.4027  0.0452 -0.6857
 7610SOL    HW134292   1.485   2.434   2.561  0.8492 -0.1431  0.4685
 7610SOL    HW234293   1.609   2.452   2.491 -0.5190  1.1428 -3.1192
 7611SOL     OW34294   4.063   2.014   5.926  0.0444  0.1412  0.5297
 7611SOL    HW134295   4.013   2.027   5.845 -1.9519  0.5817  1.8365
 7611SOL    HW234296   4.020   2.078   5.981 -0.4586  1.2357 -1.1373
 7612SOL     OW34297   2.362   0.550   2.492 -0.5872 -0.0975  0.1989
 7612SOL    HW134298   2.305   0.566   2.417 -2.3272 -0.6957  1.3994
 7612SOL    HW234299   2.397   0.638   2.508 -1.3379  0.3192 -0.4614
 7613SOL     OW34300   1.263   1.613   2.001 -0.5054 -0.4079  0.5136
 7613SOL    HW134301   1.180   1.573   2.025 -1.2962  1.6853  1.2817
 7613SOL    HW234302   1.297   1.556   1.932  0.8073  2.2425 -1.0448
 7614SOL     OW34303   2.520   3.750  14.361 -0.0698 -0.3009 -0.3029
 7614SOL    HW134304   2.486   3.758  14.450  2.5257  1.0510  0.5536
 7614SOL    HW234305   2.601   3.700  14.371  1.0931  1.4739 -0.8996
 7615SOL     OW34306   0.120   3.740  12.671  0.5678 -0.3160  0.7982
 7615SOL    HW134307   0.128   3.745  12.766  1.2089  1.4962  0.6402
 7615SOL    HW234308   0.036   3.786  12.664 -0.1835 -1.7406  0.3631
 7616SOL     OW34309   2.530   1.632   2.788  0.5591 -0.1842 -0.2063
 7616SOL    HW134310   2.548   1.542   2.760  2.1365  0.1368 -0.2322
 7616SOL    HW234311   2.615   1.676   2.782  0.4577 -0.2845 -2.3981
 7617SOL     OW34312   4.193   4.632   2.614 -0.2152 -0.2074 -0.0342
 7617SOL    HW134313   4.264   4.658   2.555  0.8920 -1.6651  0.6700
 7617SOL    HW234314   4.121   4.649   2.554 -2.0275 -2.8226  1.3971
 7618SOL     OW34315   2.754   1.275   3.596 -0.3639  0.0410  0.4162
 7618SOL    HW134316   2.755   1.363   3.557 -1.6711 -0.2410 -0.2382
 7618SOL    HW234317   2.829   1.275   3.656 -1.7166 -1.3978  2.0590
 7619SOL     OW34318   1.548   4.401   8.289  0.1715  0.1621  0.0513
 7619SOL    HW134319   1.559   4.486   8.246 -0.5932  0.7297  0.9519
 7619SOL    HW234320   1.475   4.371   8.235  0.1952 -0.1790  0.2075
 7620SOL     OW34321   0.381   3.924  17.333  0.1574  0.2098  0.2481
 7620SOL    HW134322   0.423   3.850  17.377  1.6616  0.8447 -0.1161
 7620SOL    HW234323   0.359   3.982  17.406 -3.0907  0.3503 -0.8684
 7621SOL     OW34324   1.818   3.179  10.276 -0.5512  0.4938  0.2854
 7621SOL    HW134325   1.868   3.253  10.310 -0.6424  0.6545  0.0635
 7621SOL    HW234326   1.890   3.129  10.237 -0.0672 -0.7270  2.7399
 7622SOL     OW34327   1.813   1.706  15.691  0.0297  0.0870  0.3225
 7622SOL    HW134328   1.732   1.754  15.711 -0.5222 -0.9704  0.6065
 7622SOL    HW234329   1.804   1.631  15.749  1.7019 -1.7069 -1.7462
 7623SOL     OW34330   3.157   4.655  13.886  0.1097 -0.1153 -0.3779
 7623SOL    HW134331   3.088   4.603  13.844 -1.2505 -1.3879  3.3252
 7623SOL    HW234332   3.111   4.676  13.968  0.1752  2.4986 -1.0329
 7624SOL     OW34333   1.121   2.984  15.222 -0.0875  0.1914  0.5402
 7624SOL    HW134334   1.183   2.916  15.195  1.4581  2.1223 -0.7257
 7624SOL    HW234335   1.171   3.020  15.295  1.7772  2.1959 -1.7300
 7625SOL     OW34336   1.866   0.330  13.154  0.2617 -0.5478  0.8800
 7625SOL    HW134337   1.937   0.268  13.144 -0.1113 -0.6628 -1.0254
 7625SOL    HW234338   1.873   0.344  13.249  0.8886  0.0082  0.7566
 7626SOL     OW34339   4.315   1.821   4.422 -0.0833  0.2052 -0.4607
 7626SOL    HW134340   4.387   1.880   4.397 -0.6088  0.9624 -0.1638
 7626SOL    HW234341   4.302   1.769   4.343 -2.1877 -0.9513  0.6392
 7627SOL     OW34342   0.247   3.895   6.718  0.2005  0.1444  0.4177
 7627SOL    HW134343   0.194   3.899   6.638 -0.2662  1.5018  0.7925
 7627SOL    HW234344   0.304   3.972   6.713  0.1226  0.2590  1.3506
 7628SOL     OW34345   4.395   0.074   2.492  0.0356 -0.4989  0.3105
 7628SOL    HW134346   4.458   0.094   2.423 -1.7774 -0.7436 -1.4252
 7628SOL    HW234347   4.320   0.132   2.481  0.2904  0.5834  4.0300
 7629SOL     OW34348   2.921   0.080   4.337 -0.1603  0.2612 -0.4015
 7629SOL    HW134349   2.881   0.152   4.387 -1.6965 -0.5232 -0.5074
 7629SOL    HW234350   2.848   0.020   4.324  0.8696 -0.7278 -1.5326
 7630SOL     OW34351   0.886   1.154   7.157 -0.1869  0.4514  0.5677
 7630SOL    HW134352   0.868   1.247   7.169 -2.7155 -0.2276  2.0797
 7630SOL    HW234353   0.823   1.132   7.089  0.2322  0.2239  0.2488
 7631SOL     OW34354   2.002   0.191   3.427  0.6916 -0.1031 -0.6153
 7631SOL    HW134355   2.015   0.137   3.349  1.7301 -0.6750 -0.0635
 7631SOL    HW234356   2.019   0.125   3.494 -0.7219  0.9958  0.8298
 7632SOL     OW34357   3.970   2.413   7.897 -0.0879  0.3456  0.6463
 7632SOL    HW134358   3.946   2.327   7.931  2.4903 -0.4531  0.4976
 7632SOL    HW234359   4.045   2.382   7.846 -0.5983  3.1204 -1.8348
 7633SOL     OW34360   2.550   4.116   8.776 -0.3259 -0.2346  0.5835
 7633SOL    HW134361   2.482   4.179   8.753 -0.7919 -0.8115  0.3750
 7633SOL    HW234362   2.510   4.048   8.830 -2.8145  1.3656  0.7631
 7634SOL     OW34363   4.580   4.662   3.946 -0.2568 -0.0302 -0.5452
 7634SOL    HW134364   4.628   0.021   3.970  0.3359 -0.6429  0.3313
 7634SOL    HW234365   4.492   4.674   3.982 -1.0379  0.8516 -2.7844
 7635SOL     OW34366   4.643   0.989   3.160 -0.2289 -0.3062  0.3236
 7635SOL    HW134367   4.674   0.926   3.096 -1.5327 -1.0071  0.3775
 7635SOL    HW234368   4.675   0.950   3.241 -1.5108 -0.2914  0.8423
 7636SOL     OW34369   4.095   4.629   4.246 -0.1362 -0.0670 -0.3217
 7636SOL    HW134370   4.185   4.600   4.255 -0.4395 -0.2750  1.8785
 7636SOL    HW234371   4.065   4.552   4.196  2.6666 -2.5091  1.7852
 7637SOL     OW34372   3.190   1.241  11.548 -0.2467  0.1386 -0.1781
 7637SOL    HW134373   3.133   1.165  11.534 -0.6502  0.4530 -0.2598
 7637SOL    HW234374   3.161   1.302  11.481  2.7366  1.8633  0.1030
 7638SOL     OW34375   1.471   4.327   2.724  0.8841  0.2420  0.3136
 7638SOL    HW134376   1.524   4.250   2.706  2.4958  1.3068  0.4891
 7638SOL    HW234377   1.471   4.375   2.642  1.2975  2.4750  1.6148
 7639SOL     OW34378   2.526   2.054   6.735 -0.3460  0.0709 -0.1480
 7639SOL    HW134379   2.494   2.036   6.823 -4.1386 -0.7878 -1.7045
 7639SOL    HW234380   2.476   2.131   6.709 -0.4324 -0.4494 -1.5108
 7640SOL     OW34381   2.332   3.133   1.746  0.4313  0.0967  0.1198
 7640SOL    HW134382   2.363   3.098   1.662 -0.0930 -2.6217  1.0756
 7640SOL    HW234383   2.402   3.195   1.767  0.2769 -0.4015  2.1164
 7641SOL     OW34384   3.482   3.140  13.433  0.3477  0.4853 -0.3782
 7641SOL    HW134385   3.410   3.190  13.472  1.3989  1.9883 -0.3463
 7641SOL    HW234386   3.556   3.177  13.481  0.9813 -0.8097 -0.3758
 7642SOL     OW34387   3.868   4.190   2.217  0.0979 -0.1610 -1.2874
 7642SOL    HW134388   3.888   4.188   2.123 -0.4342  1.1332 -1.4266
 7642SOL    HW234389   3.925   4.251   2.263 -0.1006  0.3413 -1.7048
 7643SOL     OW34390   3.062   3.268  12.504 -0.2420 -0.3357 -0.5097
 7643SOL    HW134391   3.089   3.316  12.426  0.4557 -0.3859 -0.3034
 7643SOL    HW234392   3.016   3.335  12.555  1.7779  1.0274 -0.4970
 7644SOL     OW34393   2.825   4.101   3.693 -0.1224 -0.1390 -0.5419
 7644SOL    HW134394   2.847   4.077   3.783  0.9670  0.7291 -0.5812
 7644SOL    HW234395   2.773   4.180   3.710  1.6949  1.0191 -0.4721
 7645SOL     OW34396   2.927   3.915   2.582 -0.5002 -0.3572 -0.4281
 7645SOL    HW134397   2.963   3.933   2.669 -1.7048 -0.4871  0.0981
 7645SOL    HW234398   2.995   3.870   2.531  0.3851 -0.9400  1.2962
 7646SOL     OW34399   0.230   2.390  13.359  0.5809  0.6577  0.4215
 7646SOL    HW134400   0.193   2.374  13.273 -1.0726  0.0622  1.2480
 7646SOL    HW234401   0.174   2.333  13.412  1.5926 -0.8487 -0.1266
 7647SOL     OW34402   3.136   2.299   1.978 -0.5083  0.6418 -0.8338
 7647SOL    HW134403   3.121   2.365   1.910  0.8636  0.5385 -1.2370
 7647SOL    HW234404   3.187   2.233   1.931  0.9883  0.2539  1.2980
 7648SOL     OW34405   1.468   4.693   2.251 -0.3057  0.4981  0.9393
 7648SOL    HW134406   1.548   4.696   2.303 -0.1736  0.4054  0.7400
 7648SOL    HW234407   1.490   0.027   2.176 -1.1836  0.3277  0.5559
 7649SOL     OW34408   2.583   2.902   0.543  0.0442 -0.2524 -0.3790
 7649SOL    HW134409   2.548   2.983   0.580 -4.0712 -2.3454  0.2692
 7649SOL    HW234410   2.660   2.893   0.600 -1.0076  0.0001  1.0746
 7650SOL     OW34411   2.684   3.443   9.891 -1.2907  0.3690 -0.1177
 7650SOL    HW134412   2.700   3.440   9.796 -0.8593  0.9951 -0.0627
 7650SOL    HW234413   2.650   3.533   9.897  0.4428  1.1050 -1.2199
 7651SOL     OW34414   0.513   0.216   3.294  0.2557  0.9161  0.1745
 7651SOL    HW134415   0.447   0.194   3.360  1.1331 -1.8312  0.1588
 7651SOL    HW234416   0.501   0.311   3.294  0.9098  0.9949 -0.8524
 7652SOL     OW34417   2.756   1.931  13.172 -0.3127  0.0873  0.3800
 7652SOL    HW134418   2.753   1.841  13.205  0.5118 -0.5338 -1.2558
 7652SOL    HW234419   2.806   1.909  13.094  1.9527  2.4671  1.1671
 7653SOL     OW34420   1.307   4.388  10.651 -0.1494 -0.0034 -0.1680
 7653SOL    HW134421   1.217   4.355  10.648 -1.1611  2.6026  1.4621
 7653SOL    HW234422   1.296   4.466  10.705  1.1232 -2.7012  3.9548
 7654SOL     OW34423   3.995   4.162  16.896  0.1395 -0.1216  0.0701
 7654SOL    HW134424   3.984   4.151  16.990 -0.2278  0.5562  0.1057
 7654SOL    HW234425   4.091   4.166  16.894  0.1909  0.2895  4.0706
 7655SOL     OW34426   1.327   0.835  15.447 -0.0402  0.6469  0.4648
 7655SOL    HW134427   1.283   0.884  15.518 -1.8086 -0.0284 -0.1537
 7655SOL    HW234428   1.373   0.767  15.496 -1.3336 -1.4703 -1.2807
 7656SOL     OW34429   3.206   1.014   5.483 -0.5325  0.0806 -0.0023
 7656SOL    HW134430   3.281   0.977   5.528 -2.7296 -2.7862  1.2935
 7656SOL    HW234431   3.201   0.955   5.407  1.5279 -1.0397  0.7285
 7657SOL     OW34432   1.819   0.071   9.193 -0.6339 -0.3617 -0.0757
 7657SOL    HW134433   1.796   4.701   9.175  0.1992 -0.7801  0.9617
 7657SOL    HW234434   1.729   0.103   9.199 -0.5398 -0.6432  2.6492
 7658SOL     OW34435   0.000   0.009   2.453 -0.0955  0.0582  0.4241
 7658SOL    HW134436   4.686   0.088   2.412 -0.5471 -0.9582 -1.1489
 7658SOL    HW234437   4.655   4.710   2.520  1.4984  0.0742  1.9915
 7659SOL     OW34438   1.229   0.486   5.394  0.7779  0.4095  1.1339
 7659SOL    HW134439   1.165   0.490   5.323  0.3496  0.5179  1.5248
 7659SOL    HW234440   1.179   0.434   5.458  1.1452  0.5905  1.5642
 7660SOL     OW34441   3.808   1.712   2.289  0.6702 -0.3361 -0.5405
 7660SOL    HW134442   3.722   1.696   2.329  1.2108 -1.5151  0.1624
 7660SOL    HW234443   3.853   1.633   2.318 -1.2616 -0.8106  1.2373
 7661SOL     OW34444   1.978   1.028   9.665  0.3800  0.6074 -0.3690
 7661SOL    HW134445   1.890   1.064   9.664  0.4428  0.7632 -0.4188
 7661SOL    HW234446   2.025   1.112   9.660 -1.1566  1.3930 -1.5555
 7662SOL     OW34447   0.427   1.511   8.783  0.6588 -1.2054 -0.0887
 7662SOL    HW134448   0.518   1.488   8.761  0.5009 -1.4739 -0.4589
 7662SOL    HW234449   0.397   1.456   8.711 -1.1812  0.3863 -0.5119
 7663SOL     OW34450   4.179   3.923  15.608  0.1034 -0.2790  0.1445
 7663SOL    HW134451   4.085   3.944  15.607  0.1801  0.1000  1.0481
 7663SOL    HW234452   4.190   3.907  15.515 -2.8795  1.6745 -0.5496
 7664SOL     OW34453   0.700   3.434   7.620 -0.0161 -0.4144 -0.3209
 7664SOL    HW134454   0.739   3.394   7.698  2.2522 -1.1858 -1.8407
 7664SOL    HW234455   0.638   3.498   7.655  1.2145 -0.8266  2.6046
 7665SOL     OW34456   0.655   0.555  15.975  0.0760 -0.0069  0.3071
 7665SOL    HW134457   0.583   0.615  15.995  2.5147  2.4257  1.6804
 7665SOL    HW234458   0.666   0.571  15.882  0.9179  1.3547  0.6441
 7666SOL     OW34459   1.422   0.852   5.330  0.3143 -0.1035  0.0921
 7666SOL    HW134460   1.389   0.808   5.252 -0.6499 -0.1428  0.5294
 7666SOL    HW234461   1.512   0.862   5.299  1.3270 -0.6263  2.8390
 7667SOL     OW34462   4.055   2.058   2.904 -0.8243  0.3706 -0.0747
 7667SOL    HW134463   4.129   2.115   2.880 -1.2899  1.9958  2.3480
 7667SOL    HW234464   4.016   2.039   2.818  1.7605  1.3782 -1.4876
 7668SOL     OW34465   3.911   2.351   4.601  0.3190  0.4350 -0.9076
 7668SOL    HW134466   3.954   2.266   4.590  0.3418  0.2367  0.6937
 7668SOL    HW234467   3.968   2.406   4.547 -0.5781  0.9670 -1.2972
 7669SOL     OW34468   1.347   1.260  10.902 -0.4717  0.3429 -0.0532
 7669SOL    HW134469   1.352   1.224  10.814  4.0861 -0.5290  0.5450
 7669SOL    HW234470   1.297   1.188  10.941 -1.8219  1.3384  0.0575
 7670SOL     OW34471   1.337   0.517  11.839 -0.1090  0.1715 -0.0307
 7670SOL    HW134472   1.269   0.452  11.857 -1.6830  1.4831 -1.1684
 7670SOL    HW234473   1.283   0.586  11.799 -1.3305  0.3258  1.8892
 7671SOL     OW34474   1.585   1.545   0.037 -0.2745 -0.1441  0.0313
 7671SOL    HW134475   1.671   1.580   0.011  1.0991 -2.0441  2.0169
 7671SOL    HW234476   1.611   1.537   0.129 -0.1897 -2.1288 -0.1583
 7672SOL     OW34477   3.368   3.095  12.315  0.1865 -1.0524  0.1517
 7672SOL    HW134478   3.309   3.058  12.248 -2.0456  1.7218  0.6162
 7672SOL    HW234479   3.427   3.148  12.261 -1.9328  1.5268  0.3798
 7673SOL     OW34480   4.192   3.126   8.311  0.7634  0.0952 -0.1055
 7673SOL    HW134481   4.126   3.127   8.242  0.5297 -0.7694  0.0935
 7673SOL    HW234482   4.148   3.192   8.364 -1.6559 -2.2429  0.8445
 7674SOL     OW34483   1.528   3.825   0.036 -0.7605  0.0296 -0.1569
 7674SOL    HW134484   1.567   3.770   0.104 -0.7353  1.8612  1.3042
 7674SOL    HW234485   1.442   3.784   0.041 -1.2498  1.1093  0.1045
 7675SOL     OW34486   0.745   1.219  11.823 -0.0970 -0.0975  0.3128
 7675SOL    HW134487   0.673   1.157  11.835 -0.5893  0.2748 -0.7987
 7675SOL    HW234488   0.698   1.276  11.763  1.1898  2.1574  1.4597
 7676SOL     OW34489   2.285   0.409   8.489  0.5402  0.3405 -0.3547
 7676SOL    HW134490   2.276   0.458   8.407 -2.1370  2.9148  1.4583
 7676SOL    HW234491   2.377   0.432   8.500 -0.3034  2.7444  1.8339
 7677SOL     OW34492   0.419   3.376   7.087 -0.6129  0.0424  0.2189
 7677SOL    HW134493   0.328   3.403   7.079 -1.0467 -0.7885  2.4531
 7677SOL    HW234494   0.451   3.396   6.999  1.3802 -0.0423  0.9237
 7678SOL     OW34495   4.564   1.024   2.872  0.3468  0.5551  0.3079
 7678SOL    HW134496   4.643   0.977   2.844  0.3154 -0.0196  1.1777
 7678SOL    HW234497   4.596   1.053   2.958 -0.6672  1.5597  0.3427
 7679SOL     OW34498   2.593   2.462   5.965 -0.1228 -0.1077 -0.1686
 7679SOL    HW134499   2.511   2.465   6.013 -0.8847 -2.0359 -1.3580
 7679SOL    HW234500   2.587   2.509   5.882 -0.8256 -1.4317 -0.8707
 7680SOL     OW34501   1.529   1.890   7.266 -0.0140 -0.0382 -0.1436
 7680SOL    HW134502   1.555   1.961   7.325 -1.8416  1.0301 -0.6568
 7680SOL    HW234503   1.519   1.938   7.184 -1.6342  0.7944  0.5545
 7681SOL     OW34504   2.575   2.846  15.419 -0.4132 -0.0309 -0.3367
 7681SOL    HW134505   2.653   2.898  15.399 -0.6913  0.5737  0.1386
 7681SOL    HW234506   2.602   2.786  15.489  0.9946  1.1457  0.1355
 7682SOL     OW34507   0.166   4.295  15.216  0.0005 -0.1590  0.1831
 7682SOL    HW134508   0.102   4.324  15.150 -1.6200 -1.6182  1.1221
 7682SOL    HW234509   0.243   4.270  15.165  0.9742  2.7581  0.1793
 7683SOL     OW34510   2.685   4.461   2.804  0.7951 -0.1509 -0.6853
 7683SOL    HW134511   2.722   4.375   2.823  0.6376  0.2158  1.3116
 7683SOL    HW234512   2.601   4.433   2.768  0.4184  0.2739 -0.1473
 7684SOL     OW34513   2.209   1.381   4.771 -0.2694 -0.6084  0.4059
 7684SOL    HW134514   2.238   1.338   4.691  0.3448 -0.7174  0.6895
 7684SOL    HW234515   2.287   1.360   4.822  1.6445  2.9016 -1.0605
 7685SOL     OW34516   1.951   4.132  16.839 -0.6260  0.5080 -0.0185
 7685SOL    HW134517   1.917   4.048  16.871  0.1050 -0.0753 -0.7684
 7685SOL    HW234518   1.922   4.184  16.914  0.2941  2.7693 -1.2365
 7686SOL     OW34519   1.093   2.190   8.790  0.1574 -0.1610 -0.0137
 7686SOL    HW134520   1.010   2.157   8.754  0.5444 -0.9636 -0.1511
 7686SOL    HW234521   1.105   2.265   8.731 -2.7995  2.4983  2.7350
 7687SOL     OW34522   3.689   1.330  15.444 -0.3873  0.6996  0.1887
 7687SOL    HW134523   3.679   1.385  15.522 -0.4703 -0.7497  1.1888
 7687SOL    HW234524   3.754   1.265  15.469 -1.5388 -0.4173  0.2702
 7688SOL     OW34525   4.392   1.615   1.380  0.9863 -0.5742 -0.1940
 7688SOL    HW134526   4.415   1.705   1.405  0.3469 -1.0389  2.0883
 7688SOL    HW234527   4.400   1.610   1.285 -0.5635 -3.7258 -0.1463
 7689SOL     OW34528   0.449   4.045   6.178 -0.4111  0.1129  0.1604
 7689SOL    HW134529   0.514   3.977   6.194 -1.0482 -1.0060 -2.0098
 7689SOL    HW234530   0.440   4.043   6.083  0.3233  2.5404  0.0237
 7690SOL     OW34531   3.241   2.443   2.185 -0.2952  0.4103 -0.3859
 7690SOL    HW134532   3.191   2.372   2.144 -0.2215 -0.1531  0.4971
 7690SOL    HW234533   3.187   2.514   2.151 -0.4849  0.5524  0.2175
 7691SOL     OW34534   0.411   0.975   7.519 -0.4823  0.3434  0.0434
 7691SOL    HW134535   0.406   1.036   7.446  1.3154 -2.5609 -2.5171
 7691SOL    HW234536   0.420   1.035   7.593 -0.1548  1.9691 -1.3172
 7692SOL     OW34537   0.720   1.996  12.186  0.0013  0.3516 -0.2644
 7692SOL    HW134538   0.800   1.948  12.205 -1.3314 -1.9738 -0.5626
 7692SOL    HW234539   0.687   1.992  12.275 -0.1817 -1.8623 -0.4309
 7693SOL     OW34540   4.371   4.506   6.945  0.7376 -0.0077 -0.0557
 7693SOL    HW134541   4.366   4.488   7.038  3.5161 -1.6384 -0.1949
 7693SOL    HW234542   4.412   4.592   6.951  0.5136  0.0203  1.0128
 7694SOL     OW34543   1.090   3.052   2.022  0.5443 -0.2774 -0.2813
 7694SOL    HW134544   1.138   3.127   1.988  0.2439  0.1278  0.1951
 7694SOL    HW234545   0.999   3.081   2.012  0.4545  0.7042  3.3339
 7695SOL     OW34546   2.743   3.328   0.879  0.5965  0.0390 -0.5829
 7695SOL    HW134547   2.750   3.270   0.955  0.5659  0.7694 -0.0339
 7695SOL    HW234548   2.808   3.396   0.896 -1.1480  1.9313 -1.4913
 7696SOL     OW34549   1.623   1.928   8.892 -0.4762 -0.5663  0.1985
 7696SOL    HW134550   1.558   1.980   8.844  1.0049 -2.2240 -3.5911
 7696SOL    HW234551   1.687   1.999   8.898  0.6977 -1.7480  1.7507
 7697SOL     OW34552   4.127   3.349   2.916  0.2575 -0.3927 -0.2384
 7697SOL    HW134553   4.195   3.416   2.921 -0.4435  0.3364 -0.5413
 7697SOL    HW234554   4.113   3.342   2.822 -1.2369 -0.3578 -0.0221
 7698SOL     OW34555   4.177   0.542   0.292  0.1085 -0.1312 -0.6664
 7698SOL    HW134556   4.082   0.537   0.298  0.0494  1.7588 -0.0407
 7698SOL    HW234557   4.196   0.453   0.323  0.6026  0.5930  1.1073
 7699SOL     OW34558   3.013   2.696  10.520  0.6717 -0.2247 -0.5447
 7699SOL    HW134559   3.020   2.787  10.549 -0.0422 -0.5947  0.8160
 7699SOL    HW234560   3.060   2.707  10.438  0.2093 -2.0290 -1.0569
 7700SOL     OW34561   1.252   4.653   9.550 -0.4412  0.3901  0.2177
 7700SOL    HW134562   1.236   4.560   9.538  0.5837  0.4094 -1.2628
 7700SOL    HW234563   1.300   4.658   9.633 -1.9975 -2.2297  1.2637
 7701SOL     OW34564   0.704   1.580   6.425 -0.2490 -0.4600  0.4934
 7701SOL    HW134565   0.646   1.508   6.450  1.7952 -2.5486 -0.8272
 7701SOL    HW234566   0.759   1.536   6.361 -1.9848 -2.0443  0.0978
 7702SOL     OW34567   1.327   1.216   1.919  0.2314 -0.1802  0.1946
 7702SOL    HW134568   1.414   1.198   1.885  0.4238  2.6425 -0.8247
 7702SOL    HW234569   1.304   1.159   1.992 -0.1766  0.1992  0.3673
 7703SOL     OW34570   0.283   2.739  10.048  0.5033  0.9106  0.7385
 7703SOL    HW134571   0.290   2.787   9.965  2.9452  0.2813  0.5867
 7703SOL    HW234572   0.188   2.732  10.058  0.7396  0.2116  2.5084
 7704SOL     OW34573   0.794   1.308   5.126 -0.4166 -0.1329  0.0709
 7704SOL    HW134574   0.853   1.350   5.062  1.1087 -2.9467 -0.3791
 7704SOL    HW234575   0.803   1.215   5.107 -0.5354  0.4706 -3.0197
 7705SOL     OW34576   2.195   1.298   2.817 -0.2382 -0.1169  0.0754
 7705SOL    HW134577   2.160   1.248   2.743  1.5592  1.2232 -1.6803
 7705SOL    HW234578   2.288   1.291   2.795 -0.0067  1.7866  0.4889
 7706SOL     OW34579   2.394   3.814   3.923 -0.0298 -0.3074 -0.2195
 7706SOL    HW134580   2.318   3.755   3.921 -0.0299 -0.3094 -0.1151
 7706SOL    HW234581   2.405   3.836   3.830  2.3878  1.0250  0.3825
 7707SOL     OW34582   3.632   0.280   2.580 -0.2297  0.1155 -0.4185
 7707SOL    HW134583   3.543   0.249   2.600  0.5809  0.1828  3.2710
 7707SOL    HW234584   3.633   0.275   2.484  0.0352  2.1245 -0.5220
 7708SOL     OW34585   3.643   0.592  10.626  0.8350  0.2573  0.4915
 7708SOL    HW134586   3.571   0.596  10.689  1.1138 -0.8171  0.8852
 7708SOL    HW234587   3.659   0.686  10.615 -1.6423  0.8645  2.0767
 7709SOL     OW34588   2.011   3.833   4.781  0.3632 -0.6777  0.6190
 7709SOL    HW134589   2.029   3.811   4.873  0.5535  1.7600  1.1838
 7709SOL    HW234590   2.103   3.829   4.753  0.7227 -1.1531  1.8578
 7710SOL     OW34591   1.431   3.005   7.543 -0.0368 -0.6003 -0.5912
 7710SOL    HW134592   1.400   3.054   7.467 -3.4647 -0.7318  0.6939
 7710SOL    HW234593   1.364   2.936   7.542 -0.2605 -0.4324  1.7083
 7711SOL     OW34594   2.230   3.797   7.034  0.7091 -0.1030  0.2597
 7711SOL    HW134595   2.313   3.842   7.048  0.4426  0.1731  0.9250
 7711SOL    HW234596   2.238   3.793   6.938 -1.9802  0.4185 -0.0039
 7712SOL     OW34597   0.257   2.074   3.353  0.1361 -0.4913  0.1186
 7712SOL    HW134598   0.244   2.098   3.445 -2.8726  0.0550 -0.4455
 7712SOL    HW234599   0.168   2.056   3.321  0.5104  0.8331 -1.6495
 7713SOL     OW34600   3.802   3.358   6.182 -0.3602  0.3141  0.1879
 7713SOL    HW134601   3.841   3.442   6.209 -0.7960  0.1378  1.3751
 7713SOL    HW234602   3.711   3.383   6.201 -0.6401 -0.7579  0.2415
 7714SOL     OW34603   0.489   2.052   1.253  0.4529 -1.1481 -0.1213
 7714SOL    HW134604   0.428   2.076   1.323  1.4139 -1.7962  0.9366
 7714SOL    HW234605   0.568   2.031   1.303  2.4810 -1.1917 -3.3476
 7715SOL     OW34606   4.276   4.195  16.773  0.6440 -0.3587  0.0324
 7715SOL    HW134607   4.306   4.284  16.792 -0.6329  0.0461  0.1333
 7715SOL    HW234608   4.215   4.211  16.700 -0.8660  0.7094  1.5394
 7716SOL     OW34609   0.070   1.473   9.630  0.0310  0.7148  0.0668
 7716SOL    HW134610   0.057   1.379   9.644  0.1121  1.0209  2.1649
 7716SOL    HW234611   0.125   1.487   9.707  1.8853 -0.4256 -1.0413
 7717SOL     OW34612   2.745   3.063  15.357 -0.0214  0.3365  0.0530
 7717SOL    HW134613   2.822   3.072  15.301  1.3364  0.8469  1.9808
 7717SOL    HW234614   2.768   3.139  15.411 -0.8432  0.5285  0.1304
 7718SOL     OW34615   0.687   2.267  12.801  0.0669  0.7755  0.0997
 7718SOL    HW134616   0.729   2.309  12.725  1.4781  1.7619  1.4048
 7718SOL    HW234617   0.647   2.185  12.773 -2.3963  1.9066  0.3637
 7719SOL     OW34618   2.129   3.671   1.375 -0.3685 -0.1152 -0.3501
 7719SOL    HW134619   2.062   3.655   1.441  1.1029  1.7915  1.6228
 7719SOL    HW234620   2.184   3.594   1.389 -3.1576 -2.3265 -1.6012
 7720SOL     OW34621   2.626   2.960   8.825  0.2842 -0.3096 -0.1120
 7720SOL    HW134622   2.583   2.976   8.909  1.2078 -0.1162  0.3176
 7720SOL    HW234623   2.687   2.894   8.857 -0.2460  1.0059  3.5396
 7721SOL     OW34624   1.097   0.323   3.393  0.2662  1.0160 -0.0607
 7721SOL    HW134625   1.111   0.361   3.479  1.5448  0.9127 -0.2252
 7721SOL    HW234626   1.185   0.310   3.357  0.1583 -0.8307  0.3530
 7722SOL     OW34627   1.266   2.457   8.311  0.0135 -0.0463  0.4228
 7722SOL    HW134628   1.199   2.485   8.374  0.6965 -0.2523  1.2318
 7722SOL    HW234629   1.333   2.520   8.338  1.1851 -1.2549  0.3275
 7723SOL     OW34630   1.773   1.276  16.043  0.4100 -0.1175 -0.3386
 7723SOL    HW134631   1.840   1.344  16.042 -0.1427  0.4178 -1.4072
 7723SOL    HW234632   1.709   1.314  15.983  0.6192  1.5572  0.4950
 7724SOL     OW34633   1.770   2.315   1.140 -0.4631 -0.6285  0.6499
 7724SOL    HW134634   1.756   2.241   1.198 -1.7234 -0.1836  0.9209
 7724SOL    HW234635   1.698   2.371   1.170 -0.4501  0.2059 -0.8536
 7725SOL     OW34636   1.313   0.923  12.342  0.4426  1.2781  0.0254
 7725SOL    HW134637   1.254   0.946  12.271 -0.5764 -0.3825  0.3364
 7725SOL    HW234638   1.370   0.999  12.334  1.9375 -0.2751 -4.1408
 7726SOL     OW34639   3.202   0.001   3.006  0.4807 -0.1881 -0.3433
 7726SOL    HW134640   3.290   0.032   3.029  0.4133  0.0872 -0.4513
 7726SOL    HW234641   3.200   4.648   3.067 -0.3131  0.2715  0.1931
 7727SOL     OW34642   1.549   0.077   6.789  0.3465 -0.3244 -0.3152
 7727SOL    HW134643   1.480   0.017   6.760 -0.3737 -0.1617  1.0641
 7727SOL    HW234644   1.502   0.156   6.764 -0.2602 -0.5963 -0.0298
 7728SOL     OW34645   1.169   4.602  12.000 -0.5215  0.3555  0.4093
 7728SOL    HW134646   1.198   4.586  12.090 -1.3549 -1.8724  0.2678
 7728SOL    HW234647   1.134   4.516  11.982  2.3504 -0.2385 -2.3877
 7729SOL     OW34648   1.577   1.028  16.119  0.0369  0.3666  0.6487
 7729SOL    HW134649   1.638   1.079  16.066 -0.4225 -0.3052 -0.5400
 7729SOL    HW234650   1.584   1.068  16.206 -0.6874  1.8773  0.0145
 7730SOL     OW34651   4.319   1.202   7.584  0.2192 -0.1039 -0.3486
 7730SOL    HW134652   4.287   1.112   7.575  2.5588 -1.1276  1.5776
 7730SOL    HW234653   4.315   1.222   7.678 -0.7193 -0.1400 -0.3788
 7731SOL     OW34654   3.470   0.077   7.591  0.4509 -0.6377  0.1153
 7731SOL    HW134655   3.518   0.113   7.665  1.0265 -0.1115 -0.5056
 7731SOL    HW234656   3.531   0.048   7.522  1.1867 -1.1393  0.9737
 7732SOL     OW34657   1.519   4.305   4.512 -0.1052 -0.4935  0.2399
 7732SOL    HW134658   1.496   4.253   4.590 -2.8006 -0.2943 -0.4020
 7732SOL    HW234659   1.429   4.311   4.478  0.1054  1.4563  0.0473
 7733SOL     OW34660   2.711   4.206   1.451  0.2441  0.2141 -0.2531
 7733SOL    HW134661   2.779   4.234   1.512 -0.6779 -0.5962  1.1478
 7733SOL    HW234662   2.746   4.239   1.368 -1.3461  1.7219 -0.3407
 7734SOL     OW34663   2.276   0.150   1.689 -0.0871  0.2133  0.0690
 7734SOL    HW134664   2.253   0.072   1.638  1.0875  0.1097 -0.2938
 7734SOL    HW234665   2.372   0.152   1.690 -0.0972  0.5650 -0.0427
 7735SOL     OW34666   1.419   2.533   9.274 -0.0815 -0.4136 -0.0690
 7735SOL    HW134667   1.491   2.476   9.300 -0.9729 -1.7289 -0.4645
 7735SOL    HW234668   1.445   2.615   9.317  1.2206 -0.8669 -0.0070
 7736SOL     OW34669   3.382   2.781   0.295  0.1304 -0.1277  0.0256
 7736SOL    HW134670   3.438   2.706   0.317  1.7799  1.1276  0.0662
 7736SOL    HW234671   3.403   2.854   0.352  0.7399  1.0134 -1.6699
 7737SOL     OW34672   2.550   0.642   8.816 -0.0259 -0.3257  0.1463
 7737SOL    HW134673   2.531   0.687   8.899  0.8411  1.6675 -0.7386
 7737SOL    HW234674   2.481   0.576   8.810 -0.7014  0.2035  2.0799
 7738SOL     OW34675   4.142   0.725   8.943  0.2083  0.2868 -0.0537
 7738SOL    HW134676   4.099   0.707   8.859 -0.7182 -1.0234  0.6987
 7738SOL    HW234677   4.227   0.693   8.912 -0.4237  0.4250 -1.9571
 7739SOL     OW34678   4.492   2.384   3.522 -0.1311  0.4183  0.2833
 7739SOL    HW134679   4.587   2.397   3.519 -0.0830 -0.2584 -1.3116
 7739SOL    HW234680   4.479   2.297   3.484 -1.6157  0.9712 -0.4819
 7740SOL     OW34681   1.883   1.759   0.619  0.0565 -0.0921  0.4772
 7740SOL    HW134682   1.938   1.714   0.684  0.7910  0.7770  0.4534
 7740SOL    HW234683   1.903   1.842   0.662 -0.4633 -0.5116  1.5393
 7741SOL     OW34684   0.436   3.988   5.343 -0.3180  0.2246  0.4081
 7741SOL    HW134685   0.504   3.922   5.354 -1.0561 -0.5436  0.3829
 7741SOL    HW234686   0.448   4.020   5.254 -0.6038 -2.0262 -0.4360
 7742SOL     OW34687   3.245   3.822   6.372  0.8685  0.4885 -0.7838
 7742SOL    HW134688   3.258   3.904   6.324 -1.4869  2.6243  2.1745
 7742SOL    HW234689   3.214   3.768   6.299  1.8852 -1.2492  0.0704
 7743SOL     OW34690   0.136   2.704   6.405 -0.0135  0.3467  0.1066
 7743SOL    HW134691   0.049   2.726   6.371 -0.4881  0.2800  1.2636
 7743SOL    HW234692   0.117   2.613   6.425  0.9057 -0.2777 -1.8474
 7744SOL     OW34693   3.203   3.088   2.464  0.2043  0.0291  0.4748
 7744SOL    HW134694   3.193   2.995   2.486 -0.3145  0.2701  1.2656
 7744SOL    HW234695   3.241   3.068   2.379  1.0404 -2.1114  1.3613
 7745SOL     OW34696   1.021   2.355   0.277  0.5582  0.2955  0.4091
 7745SOL    HW134697   1.097   2.303   0.251 -1.1342 -1.4787 -1.0147
 7745SOL    HW234698   0.951   2.337   0.214  1.0656 -2.1055  0.5339
 7746SOL     OW34699   0.042   3.586   4.789  0.1462 -0.3964 -0.7365
 7746SOL    HW134700   0.089   3.557   4.867  1.9945  0.6347 -1.4631
 7746SOL    HW234701   0.075   3.528   4.719 -0.0712  0.7644 -1.7872
 7747SOL     OW34702   3.240   0.594   4.455 -0.0365  0.0897 -0.0072
 7747SOL    HW134703   3.290   0.597   4.537 -1.6097  1.6533  0.9203
 7747SOL    HW234704   3.202   0.506   4.464 -0.9537  1.0035  5.3987
 7748SOL     OW34705   0.489   2.316   8.422  0.9551 -0.7214  0.5332
 7748SOL    HW134706   0.487   2.405   8.457 -3.4435 -1.3019  1.8093
 7748SOL    HW234707   0.462   2.334   8.332  1.8614 -0.3654  0.3303
 7749SOL     OW34708   1.164   2.564  12.628  0.1108 -0.0718  0.0390
 7749SOL    HW134709   1.125   2.647  12.655 -0.0631 -0.2019  0.1869
 7749SOL    HW234710   1.124   2.512  12.697  2.9155 -0.0418  1.6850
 7750SOL     OW34711   0.314   3.426   3.950 -0.1220 -0.0769 -0.0100
 7750SOL    HW134712   0.359   3.498   3.907 -0.8572  0.9055  0.8888
 7750SOL    HW234713   0.222   3.452   3.937  0.8946  2.1568 -2.6429
 7751SOL     OW34714   1.674   3.320   0.427 -0.0123 -0.4347 -0.1209
 7751SOL    HW134715   1.692   3.412   0.406 -0.2852 -0.4003 -0.2152
 7751SOL    HW234716   1.754   3.280   0.395  0.1480  1.1817 -1.7695
 7752SOL     OW34717   0.766   2.963  14.264 -0.4265  0.2643  0.1468
 7752SOL    HW134718   0.786   3.048  14.304  1.5764 -1.2326  2.3062
 7752SOL    HW234719   0.686   2.992  14.221  0.6266  0.6068 -1.5623
 7753SOL     OW34720   0.865   2.574   3.719 -0.1369  0.2482  0.2003
 7753SOL    HW134721   0.840   2.637   3.787 -0.5923  1.7033 -1.3021
 7753SOL    HW234722   0.912   2.635   3.662 -0.3150 -1.0595 -1.3452
 7754SOL     OW34723   0.357   0.573   1.180  0.1416  0.1304  0.3052
 7754SOL    HW134724   0.398   0.540   1.260  1.7014  0.4642 -0.3538
 7754SOL    HW234725   0.282   0.517   1.160 -0.4979  0.2734  2.4153
 7755SOL     OW34726   0.984   0.919   6.800  0.9544  0.6989 -0.1606
 7755SOL    HW134727   0.998   1.012   6.787 -2.2128  1.1881 -0.2263
 7755SOL    HW234728   0.914   0.904   6.737  1.6106 -1.7481 -0.3036
 7756SOL     OW34729   3.552   4.336   4.089 -0.1689  0.2372  0.0325
 7756SOL    HW134730   3.550   4.404   4.157  0.9454  0.8216 -0.5101
 7756SOL    HW234731   3.642   4.302   4.086  0.2508  1.6700 -4.1690
 7757SOL     OW34732   0.697   2.654  14.472 -0.6403  0.4627 -0.1987
 7757SOL    HW134733   0.660   2.597  14.540 -1.4979  0.8683 -0.3169
 7757SOL    HW234734   0.779   2.685  14.509 -0.6385 -0.2859  0.4268
 7758SOL     OW34735   1.698   2.201  11.521 -0.3374 -0.1407  0.6106
 7758SOL    HW134736   1.746   2.124  11.492 -1.1823 -0.6376  0.5148
 7758SOL    HW234737   1.770   2.253  11.556 -0.9598  0.8885  0.3525
 7759SOL     OW34738   1.960   1.315   8.717  0.3864  0.0846  0.2146
 7759SOL    HW134739   1.913   1.327   8.799  1.3044 -1.8692  1.0269
 7759SOL    HW234740   2.034   1.263   8.748  0.6970  1.5367  1.8930
 7760SOL     OW34741   1.072   0.594   6.226  0.0291  0.8915  0.2687
 7760SOL    HW134742   1.039   0.505   6.215  0.5158  0.8950 -1.2306
 7760SOL    HW234743   1.092   0.615   6.135  1.9848  0.3713  0.5606
 7761SOL     OW34744   2.818   1.762   3.599 -0.1616  0.5536 -0.3025
 7761SOL    HW134745   2.852   1.739   3.513 -0.2081  0.6848 -0.3569
 7761SOL    HW234746   2.785   1.674   3.618  2.3216 -0.0311  1.2401
 7762SOL     OW34747   0.652   3.283   5.320 -0.1359 -0.6365 -0.0810
 7762SOL    HW134748   0.607   3.231   5.253 -1.2702 -1.1684  1.0738
 7762SOL    HW234749   0.638   3.367   5.277 -1.1672 -0.3823  0.7323
 7763SOL     OW34750   0.810   4.080   8.492 -0.5983 -0.1156  0.2029
 7763SOL    HW134751   0.899   4.045   8.499 -0.2647  1.1793  2.6793
 7763SOL    HW234752   0.765   4.021   8.433 -1.3615 -1.1588  1.8217
 7764SOL     OW34753   1.680   2.374   1.424  0.5989 -0.2795 -0.7840
 7764SOL    HW134754   1.759   2.322   1.435  0.4086 -0.8165 -1.9102
 7764SOL    HW234755   1.625   2.334   1.491 -0.7904  0.2019 -1.6391
 7765SOL     OW34756   2.423   1.638   9.463 -0.1260 -0.0246 -0.5239
 7765SOL    HW134757   2.437   1.707   9.528 -0.7490 -2.4281  2.1328
 7765SOL    HW234758   2.365   1.582   9.514 -0.5359 -2.0381 -3.1727
 7766SOL     OW34759   3.174   3.942   5.540 -0.0513 -0.1745  0.3257
 7766SOL    HW134760   3.144   3.855   5.515 -2.3322  0.8590 -0.5630
 7766SOL    HW234761   3.149   3.944   5.633 -1.1651  0.3837  0.0233
 7767SOL     OW34762   1.766   3.873  14.026  0.3820  0.4365 -0.0393
 7767SOL    HW134763   1.834   3.910  14.082 -0.9580  1.8005  0.6866
 7767SOL    HW234764   1.808   3.805  13.973  1.3163 -0.1716  1.4778
 7768SOL     OW34765   2.737   0.828   7.521  0.3274 -0.1182 -0.3312
 7768SOL    HW134766   2.741   0.850   7.614 -0.3002  1.4983 -0.6872
 7768SOL    HW234767   2.688   0.746   7.523 -0.0149  0.1165  1.0128
 7769SOL     OW34768   2.758   4.588   5.932  0.2990  0.2666 -0.3322
 7769SOL    HW134769   2.735   4.680   5.941 -0.7489  0.0530 -0.9411
 7769SOL    HW234770   2.678   4.540   5.952 -0.3501  1.7149  0.5180
 7770SOL     OW34771   2.526   0.471   4.270 -0.1204 -0.0944  0.0148
 7770SOL    HW134772   2.466   0.543   4.250  0.0224  0.5026  1.7943
 7770SOL    HW234773   2.600   0.523   4.301 -1.0563  1.5692 -0.5569
 7771SOL     OW34774   1.694   4.133   5.142 -0.8277 -0.0520  0.1894
 7771SOL    HW134775   1.698   4.224   5.113 -0.2831  1.1156  3.9702
 7771SOL    HW234776   1.725   4.136   5.232  1.6545  0.9647 -0.6991
 7772SOL     OW34777   4.118   3.044  12.343 -0.0708 -0.3751  0.3229
 7772SOL    HW134778   4.104   3.025  12.436  0.0910  0.9033  0.6040
 7772SOL    HW234779   4.077   2.965  12.308 -0.8447 -1.0021  2.5906
 7773SOL     OW34780   0.160   4.398   3.728 -0.3420  0.1297 -0.3865
 7773SOL    HW134781   0.130   4.409   3.638  2.0734 -2.2231 -1.4807
 7773SOL    HW234782   0.168   4.303   3.737 -1.6932  0.3068  2.8053
 7774SOL     OW34783   0.792   2.053   4.351 -0.1080 -0.5246  0.3553
 7774SOL    HW134784   0.810   2.095   4.266 -1.6445  0.7960  0.6698
 7774SOL    HW234785   0.858   1.984   4.354 -1.0082 -1.4417 -0.6973
 7775SOL     OW34786   1.913   2.796   0.903  0.3517 -0.3687  0.3975
 7775SOL    HW134787   1.975   2.842   0.848  1.0459 -1.2425  0.4563
 7775SOL    HW234788   1.916   2.843   0.986  3.1405  2.3346 -1.2695
 7776SOL     OW34789   4.058   4.244  17.526 -0.2720  0.2132  0.3152
 7776SOL    HW134790   4.101   4.158  17.528  1.1459  0.8922 -1.8092
 7776SOL    HW234791   3.973   4.219  17.488  0.3641 -0.4413 -0.6726
 7777SOL     OW34792   2.093   3.850   6.112  0.1170 -0.1923  0.1928
 7777SOL    HW134793   2.130   3.858   6.024  0.3158 -0.8071  0.2217
 7777SOL    HW234794   2.004   3.820   6.091  0.0117 -0.4035  0.9451
 7778SOL     OW34795   3.647   3.946   7.434  0.3339 -0.0840  0.1774
 7778SOL    HW134796   3.562   3.963   7.393 -0.0431 -2.6743 -0.0576
 7778SOL    HW234797   3.634   3.859   7.471  2.4275 -0.0831  0.9038
 7779SOL     OW34798   3.297   2.787   8.844 -0.4837 -0.4882 -0.2533
 7779SOL    HW134799   3.330   2.764   8.931 -1.4068 -0.6943  0.0457
 7779SOL    HW234800   3.204   2.792   8.866 -0.0299 -0.6128  1.7130
 7780SOL     OW34801   4.420   2.794   4.868 -0.7077 -0.2205 -1.1113
 7780SOL    HW134802   4.510   2.825   4.872 -1.9847  3.1254  1.8625
 7780SOL    HW234803   4.426   2.700   4.854 -2.3339 -0.2514 -1.7129
 7781SOL     OW34804   1.780   1.807   7.333 -0.3936 -0.5885  0.1976
 7781SOL    HW134805   1.758   1.714   7.327 -2.0101 -0.2503  0.7075
 7781SOL    HW234806   1.697   1.844   7.301 -0.9128 -1.8475  0.0856
 7782SOL     OW34807   3.622   1.997   4.573  0.2596 -0.2654 -0.3508
 7782SOL    HW134808   3.559   1.951   4.628  1.3390  1.7331  2.5580
 7782SOL    HW234809   3.686   1.928   4.555  0.6881  0.2239 -0.7242
 7783SOL     OW34810   3.295   1.843   7.353  0.1805 -0.2503  0.5130
 7783SOL    HW134811   3.266   1.786   7.424 -2.3397 -1.6249 -1.5925
 7783SOL    HW234812   3.381   1.873   7.382  0.6373 -0.6837 -0.3665
 7784SOL     OW34813   0.479   1.069  13.926  0.2476  0.1003  0.1858
 7784SOL    HW134814   0.432   1.004  13.979 -1.0984  0.3010 -0.7683
 7784SOL    HW234815   0.522   1.122  13.993 -0.8401  0.6397  0.4611
 7785SOL     OW34816   3.410   4.394   8.516 -0.6711 -0.0592 -0.0263
 7785SOL    HW134817   3.380   4.478   8.482 -0.6234  0.9755  2.4837
 7785SOL    HW234818   3.447   4.426   8.598  0.3716 -0.2983 -0.4037
 7786SOL     OW34819   2.605   2.713  10.143 -0.0130 -0.1049  0.1016
 7786SOL    HW134820   2.560   2.794  10.164  1.1996  0.0195  2.2008
 7786SOL    HW234821   2.584   2.662  10.221 -1.0450 -2.5052 -1.7193
 7787SOL     OW34822   0.885   1.621   1.781 -0.4931  0.3152 -0.4520
 7787SOL    HW134823   0.880   1.542   1.728  0.3208  0.8403 -1.3206
 7787SOL    HW234824   0.906   1.689   1.717  2.0737 -0.8218 -0.8500
 7788SOL     OW34825   1.695   1.800  10.813 -0.6925  0.5916  0.2376
 7788SOL    HW134826   1.606   1.795  10.779 -0.2435  1.7415 -1.1049
 7788SOL    HW234827   1.673   1.863  10.881  0.7502  0.3419  0.9329
 7789SOL     OW34828   1.907   4.486   6.939 -0.8866 -0.0022 -0.2948
 7789SOL    HW134829   1.883   4.396   6.960 -0.7488  0.3678  1.4291
 7789SOL    HW234830   1.878   4.529   7.019 -0.8216  0.6751 -0.6374
 7790SOL     OW34831   3.891   2.366   2.581 -0.5081  0.2257 -0.3381
 7790SOL    HW134832   3.971   2.314   2.573 -0.7901  0.1159 -2.4215
 7790SOL    HW234833   3.855   2.354   2.669 -2.5809 -0.7203 -1.3298
 7791SOL     OW34834   0.711   2.648   4.421  0.4066 -0.3510  0.3407
 7791SOL    HW134835   0.671   2.727   4.383  0.0809 -1.2730 -1.2321
 7791SOL    HW234836   0.646   2.578   4.426  0.0786  0.0468  1.6955
 7792SOL     OW34837   1.059   4.362   3.635 -0.3885  0.2213 -0.1731
 7792SOL    HW134838   0.990   4.339   3.573  0.3762  0.9511 -1.2997
 7792SOL    HW234839   1.099   4.276   3.641 -0.2200  0.3798  0.9988
 7793SOL     OW34840   3.276   3.320   5.399 -0.0459  1.0035  0.0677
 7793SOL    HW134841   3.321   3.332   5.316  0.7217 -1.4420  0.1296
 7793SOL    HW234842   3.254   3.408   5.432  0.9112  0.1624  2.9766
 7794SOL     OW34843   1.473   0.812   8.788 -0.1689 -0.0485  0.0053
 7794SOL    HW134844   1.381   0.794   8.769 -0.0862 -0.2213 -0.2370
 7794SOL    HW234845   1.517   0.744   8.737 -2.7418 -1.5218 -0.1904
 7795SOL     OW34846   1.363   2.956  13.983  0.9181  0.4902  0.2712
 7795SOL    HW134847   1.352   3.020  14.054  1.2905  0.4395  0.3769
 7795SOL    HW234848   1.273   2.951  13.950  1.4074  0.8890 -1.1113
 7796SOL     OW34849   1.162   3.489   9.954  0.0019 -0.3970 -0.6649
 7796SOL    HW134850   1.181   3.492  10.048 -0.8118  1.6816 -0.5470
 7796SOL    HW234851   1.137   3.397   9.948 -1.9980  0.2211 -1.8352
 7797SOL     OW34852   3.815   2.216   3.272  0.0654 -0.2537  0.5123
 7797SOL    HW134853   3.759   2.289   3.247  3.1921  0.8953 -3.2685
 7797SOL    HW234854   3.775   2.150   3.215 -0.4805  0.3438  0.2077
 7798SOL     OW34855   2.774   1.481   8.225 -0.0039  0.8415  0.0207
 7798SOL    HW134856   2.684   1.512   8.232 -0.2455  0.1567 -0.0540
 7798SOL    HW234857   2.780   1.440   8.139 -3.4109  0.3272  0.0496
 7799SOL     OW34858   3.941   3.182   7.869 -0.1824 -0.2889 -0.4100
 7799SOL    HW134859   3.957   3.266   7.828  0.0884 -1.4653 -2.7236
 7799SOL    HW234860   3.846   3.194   7.872  0.1938  1.8160  2.3834
 7800SOL     OW34861   1.972   1.511  12.770 -0.1747  0.5654  0.0981
 7800SOL    HW134862   1.929   1.596  12.782  1.6889  1.4822  0.3866
 7800SOL    HW234863   1.903   1.454  12.805 -1.5844  2.8549  1.0224
 7801SOL     OW34864   2.457   4.624   4.642  0.5870  0.0129 -0.6955
 7801SOL    HW134865   2.398   4.699   4.639  0.5939  0.1614  2.5998
 7801SOL    HW234866   2.399   4.555   4.675  1.8465 -0.9708 -0.5362
 7802SOL     OW34867   0.531   0.876   9.660 -0.2589  0.3195  0.4623
 7802SOL    HW134868   0.483   0.959   9.668 -0.0039  0.4354  0.7708
 7802SOL    HW234869   0.604   0.888   9.721 -1.0230 -0.3229  1.4955
 7803SOL     OW34870   2.738   3.039   7.198  0.3037 -0.2384 -0.4491
 7803SOL    HW134871   2.659   3.028   7.251 -0.3863 -0.9925 -1.6234
 7803SOL    HW234872   2.711   2.987   7.122  0.3883 -0.8874 -0.0338
 7804SOL     OW34873   3.968   1.399   7.548  0.2849 -0.3392  0.4235
 7804SOL    HW134874   3.928   1.433   7.628  0.5155 -2.1576  1.2985
 7804SOL    HW234875   3.918   1.318   7.538 -0.1482  0.0390 -0.5316
 7805SOL     OW34876   2.344   3.778   6.790  0.4993 -0.0635  0.0579
 7805SOL    HW134877   2.406   3.850   6.787  2.7242 -1.9822  0.0878
 7805SOL    HW234878   2.324   3.765   6.697  1.6321  0.3455 -0.2401
 7806SOL     OW34879   4.173   1.312  16.117 -0.3848 -0.2901 -0.0287
 7806SOL    HW134880   4.231   1.386  16.132 -0.1912 -0.2405 -1.0775
 7806SOL    HW234881   4.100   1.328  16.177 -0.5249  2.6687 -1.0426
 7807SOL     OW34882   1.515   2.298  14.126 -0.1726  0.0109  0.5061
 7807SOL    HW134883   1.603   2.289  14.163 -0.6188 -2.5923  0.9217
 7807SOL    HW234884   1.481   2.214  14.157 -0.8475 -0.4804 -1.5324
 7808SOL     OW34885   4.579   2.660   7.101 -0.4339  0.1088 -0.0909
 7808SOL    HW134886   4.559   2.679   7.193  0.1756 -1.3502  0.3406
 7808SOL    HW234887   4.583   2.565   7.097  0.8561  0.2712 -2.8543
 7809SOL     OW34888   4.450   0.446  15.553  0.3163  0.2223  0.2140
 7809SOL    HW134889   4.434   0.512  15.621  2.7535 -0.3050  1.2941
 7809SOL    HW234890   4.500   0.491  15.484 -1.0119  0.5157 -0.5640
 7810SOL     OW34891   0.800   2.122   5.690 -0.7029  0.4390  0.3789
 7810SOL    HW134892   0.721   2.166   5.657 -0.2826  0.7261 -0.2371
 7810SOL    HW234893   0.867   2.178   5.652  0.7089 -1.3472  0.2550
 7811SOL     OW34894   2.429   1.515  10.023 -0.2546 -0.0361  0.4382
 7811SOL    HW134895   2.408   1.581  10.090 -3.2976 -1.1609  0.6086
 7811SOL    HW234896   2.497   1.556   9.970  0.6438 -1.5821  0.4220
 7812SOL     OW34897   3.815   3.758   2.567 -0.1977  0.4285 -0.5982
 7812SOL    HW134898   3.791   3.823   2.502  2.8900 -0.3600 -2.5328
 7812SOL    HW234899   3.762   3.683   2.540 -1.6420  0.6465  1.6514
 7813SOL     OW34900   1.443   1.830   5.788  0.0397 -0.7013 -0.2521
 7813SOL    HW134901   1.411   1.747   5.751 -0.4025 -0.2133 -0.9517
 7813SOL    HW234902   1.423   1.903   5.730  0.8517 -1.2478 -1.2522
 7814SOL     OW34903   0.785   0.956   2.618 -0.1368 -0.2535 -0.2544
 7814SOL    HW134904   0.874   0.991   2.627 -0.3436 -0.3459  2.0901
 7814SOL    HW234905   0.744   1.014   2.554  0.4445  0.9512  0.4749
 7815SOL     OW34906   2.106   4.263  17.306 -0.1730 -0.2778 -0.1907
 7815SOL    HW134907   2.076   4.271  17.216 -2.2926 -2.5783  0.3059
 7815SOL    HW234908   2.164   4.338  17.319  0.7161 -1.1214  0.7668
 7816SOL     OW34909   1.970   2.011   7.413  0.1629 -1.2724  0.2871
 7816SOL    HW134910   1.954   1.981   7.502 -0.0637 -1.9279  0.0240
 7816SOL    HW234911   1.916   1.945   7.371 -3.1925  1.6435  0.0383
 7817SOL     OW34912   4.090   3.895   9.939  0.2358  0.0164 -0.5978
 7817SOL    HW134913   4.041   3.888   9.858 -1.0853  5.1185 -0.2613
 7817SOL    HW234914   4.034   3.848  10.000  1.4834 -0.9421 -0.1822
 7818SOL     OW34915   2.825   4.183   3.420 -0.0490 -0.0734 -0.0185
 7818SOL    HW134916   2.865   4.270   3.416  1.7957 -0.9474 -0.5904
 7818SOL    HW234917   2.839   4.158   3.512  0.7930  0.5998  0.0372
 7819SOL     OW34918   3.118   3.494   1.993  0.5250 -0.7674 -0.2866
 7819SOL    HW134919   3.022   3.498   1.997  0.4273 -2.6460 -0.6420
 7819SOL    HW234920   3.148   3.493   1.902 -0.7108 -0.0383 -0.7026
 7820SOL     OW34921   2.510   0.597   4.592 -0.2300 -0.6719 -0.3318
 7820SOL    HW134922   2.423   0.636   4.580  0.7270  1.2035 -1.1625
 7820SOL    HW234923   2.559   0.635   4.519  0.3145 -0.2125  0.2702
 7821SOL     OW34924   1.951   3.896   2.992 -0.5792 -0.0789 -0.0754
 7821SOL    HW134925   1.913   3.966   3.046 -1.2152 -0.7942  0.4113
 7821SOL    HW234926   1.911   3.913   2.907 -0.2334  1.3017  0.0466
 7822SOL     OW34927   4.308   1.377   0.536  0.5432 -0.3583  0.0857
 7822SOL    HW134928   4.261   1.337   0.609  1.6194 -0.1353  0.8972
 7822SOL    HW234929   4.249   1.446   0.502  0.1587  0.3130  2.1421
 7823SOL     OW34930   0.630   0.671   9.489 -0.2678 -0.3257  0.0788
 7823SOL    HW134931   0.571   0.736   9.526 -0.5474 -1.5608  1.8252
 7823SOL    HW234932   0.706   0.699   9.540 -1.4847 -0.4504  1.9559
 7824SOL     OW34933   0.412   2.122  17.233  0.0599  0.2788  0.0231
 7824SOL    HW134934   0.419   2.040  17.281  1.2551 -0.0902 -0.7884
 7824SOL    HW234935   0.339   2.166  17.276  0.1557  0.8022 -0.3517
 7825SOL     OW34936   1.207   0.208   2.705 -0.1650  0.1817  0.7337
 7825SOL    HW134937   1.120   0.172   2.690  0.4368 -0.5335 -1.0479
 7825SOL    HW234938   1.188   0.231   2.796  0.0832  3.4187 -0.0399
 7826SOL     OW34939   0.958   0.215  14.581 -0.1017  0.2094 -0.6174
 7826SOL    HW134940   0.982   0.306  14.562 -0.0585  0.5083  0.8401
 7826SOL    HW234941   1.033   0.171  14.543  0.9376  0.0813  1.5799
 7827SOL     OW34942   1.997   3.429   7.717  0.4991 -0.8513  0.3838
 7827SOL    HW134943   2.082   3.472   7.725  0.8937 -1.2312 -1.5933
 7827SOL    HW234944   2.029   3.340   7.702 -0.7178 -0.7543 -2.9708
 7828SOL     OW34945   4.312   0.771   3.820 -0.2580  0.1038 -0.3596
 7828SOL    HW134946   4.333   0.785   3.728 -4.0702 -0.2718 -1.2956
 7828SOL    HW234947   4.283   0.680   3.816 -1.6542  0.4143  2.2211
 7829SOL     OW34948   0.429   2.891   0.988  0.9204 -0.1379 -0.2088
 7829SOL    HW134949   0.369   2.848   0.927 -1.4019  0.1855  1.8839
 7829SOL    HW234950   0.431   2.979   0.949  0.6505 -1.2386 -2.7243
 7830SOL     OW34951   0.546   3.782   7.111 -0.3114  0.0065  0.2079
 7830SOL    HW134952   0.528   3.702   7.062  0.7048  0.5091 -0.9787
 7830SOL    HW234953   0.589   3.736   7.183  1.0320  0.4786 -0.2964
 7831SOL     OW34954   4.240   0.065  11.343  0.3638  0.2496 -0.0720
 7831SOL    HW134955   4.209   0.006  11.274  0.2979  0.1696  0.0273
 7831SOL    HW234956   4.264   0.148  11.300 -2.5371  0.0188 -2.0960
 7832SOL     OW34957   4.613   2.083   1.043  0.1119  0.0294 -0.0531
 7832SOL    HW134958   4.549   2.012   1.036 -1.1582  1.1252  0.2648
 7832SOL    HW234959   4.693   2.047   1.081  0.7793  0.0070 -1.4718
 7833SOL     OW34960   4.703   3.433   7.868  1.0793 -0.0332 -0.3144
 7833SOL    HW134961   4.630   3.374   7.848  1.0718  0.4400 -1.7005
 7833SOL    HW234962   0.003   3.458   7.777 -1.5864  1.2558 -0.5626
 7834SOL     OW34963   1.317   3.735  17.276  0.1000  0.5226  0.2874
 7834SOL    HW134964   1.374   3.751  17.351  0.7794 -0.4632 -0.0215
 7834SOL    HW234965   1.350   3.800  17.214 -0.5390  0.5378 -0.0410
 7835SOL     OW34966   1.273   4.578   7.630 -0.1489 -0.1715 -0.1994
 7835SOL    HW134967   1.285   4.509   7.564 -2.8104 -0.7321 -0.1148
 7835SOL    HW234968   1.330   4.646   7.593 -0.1678 -0.8550 -1.5143
 7836SOL     OW34969   0.599   2.394   0.976  0.5292 -0.4045  0.8050
 7836SOL    HW134970   0.589   2.337   0.900  0.4350 -0.5601  0.9321
 7836SOL    HW234971   0.521   2.449   0.971  0.1092 -1.1385 -0.9115
 7837SOL     OW34972   0.098   0.988  12.388 -0.4651  0.8674  0.1752
 7837SOL    HW134973   0.155   0.960  12.460  2.2358  4.1680 -0.6616
 7837SOL    HW234974   0.151   0.968  12.311 -0.2324 -0.1201  0.5951
 7838SOL     OW34975   1.426   2.576  15.157  0.4690  0.0415 -0.2385
 7838SOL    HW134976   1.477   2.520  15.098  2.5835  2.1005 -0.3966
 7838SOL    HW234977   1.475   2.561  15.238 -3.0733 -1.9297  1.4978
 7839SOL     OW34978   3.713   3.564  12.078  0.1078  0.0296  0.1283
 7839SOL    HW134979   3.768   3.629  12.035  0.0456  0.1184  0.1823
 7839SOL    HW234980   3.762   3.562  12.160 -1.3013 -0.2985  0.9640
 7840SOL     OW34981   0.071   3.417  13.311 -0.3641  0.6033  0.3416
 7840SOL    HW134982   0.043   3.444  13.398  1.0206  0.6068  0.7767
 7840SOL    HW234983   0.065   3.322  13.320 -1.6800  0.7936  1.4641
 7841SOL     OW34984   0.956   3.114   6.110  0.0909  0.6088 -0.3330
 7841SOL    HW134985   0.879   3.084   6.063  0.7316  0.3583 -1.2218
 7841SOL    HW234986   0.933   3.156   6.193  1.4180 -0.1911  0.4527
 7842SOL     OW34987   4.682   1.039   3.453 -0.3209  0.3028  0.0207
 7842SOL    HW134988   4.704   1.095   3.378 -0.9200  0.3742 -0.1016
 7842SOL    HW234989   0.037   0.981   3.461  0.2774  1.0085 -0.5320
 7843SOL     OW34990   4.196   3.328   8.086  0.3962 -0.5323 -0.9585
 7843SOL    HW134991   4.157   3.240   8.084 -1.7167  0.3769  1.6845
 7843SOL    HW234992   4.122   3.384   8.108  1.0394 -0.5831  1.3585
 7844SOL     OW34993   1.394   0.851   3.780  0.7298 -0.6082 -0.0451
 7844SOL    HW134994   1.402   0.869   3.686  1.2513  0.1680  0.1505
 7844SOL    HW234995   1.406   0.756   3.783  0.7329 -0.6879 -2.3153
 7845SOL     OW34996   3.202   1.751   4.748  0.2646 -0.0824 -0.0940
 7845SOL    HW134997   3.169   1.833   4.783 -2.6851 -1.0617 -0.5116
 7845SOL    HW234998   3.134   1.725   4.686  1.0049  0.2198 -1.0379
 7846SOL     OW34999   2.079   1.952  10.007 -0.1282  0.6036  0.0401
 7846SOL    HW135000   2.025   1.958  10.086  1.9691  0.0391  1.5156
 7846SOL    HW235001   2.050   2.024   9.950 -0.8654 -1.2203 -1.8577
 7847SOL     OW35002   0.132   0.240   5.938  0.0586 -0.7833  0.5143
 7847SOL    HW135003   0.136   0.153   5.898  0.3449 -0.2811 -0.5606
 7847SOL    HW235004   0.186   0.237   6.017 -1.9002  1.8939  1.9332
 7848SOL     OW35005   3.300   1.604   5.014  0.7920 -0.1730  0.2386
 7848SOL    HW135006   3.324   1.673   4.952  2.4876 -1.4026 -0.4553
 7848SOL    HW235007   3.207   1.625   5.024  0.7055 -0.2256 -0.4304
 7849SOL     OW35008   2.734   0.052   2.423 -0.6572  0.2750 -0.2785
 7849SOL    HW135009   2.781   4.698   2.386  0.3823  0.9306 -0.2717
 7849SOL    HW235010   2.685   4.719   2.485  0.2428 -2.2342 -1.7394
 7850SOL     OW35011   2.509   0.023   7.967 -0.2017  0.1259 -0.3239
 7850SOL    HW135012   2.537   0.110   7.940  0.9471  0.5890  2.3742
 7850SOL    HW235013   2.555   4.686   7.907 -1.3476 -1.0202 -0.1052
 7851SOL     OW35014   4.206   1.211  14.871  0.1274 -0.1121  0.5128
 7851SOL    HW135015   4.277   1.249  14.923  0.7248 -0.3931 -0.1016
 7851SOL    HW235016   4.154   1.291  14.854  0.6759 -0.1995 -1.5799
 7852SOL     OW35017   3.921   2.562   5.501  0.3197  0.5033 -0.4893
 7852SOL    HW135018   3.827   2.541   5.503  0.2398  1.0202  1.3469
 7852SOL    HW235019   3.956   2.474   5.515  0.9485  0.5679 -1.7626
 7853SOL     OW35020   4.165   4.053  12.969  0.1067 -0.4395 -0.6818
 7853SOL    HW135021   4.185   4.139  12.931 -1.0123  0.2639  0.3119
 7853SOL    HW235022   4.108   4.084  13.039  0.3279 -0.4278 -0.5096
 7854SOL     OW35023   1.348   0.227  10.295 -0.3083 -0.1294 -0.0896
 7854SOL    HW135024   1.291   0.150  10.292  1.9648 -1.8013  0.2702
 7854SOL    HW235025   1.386   0.219  10.383 -1.8966 -0.4784  0.5678
 7855SOL     OW35026   1.069   3.006   1.453 -0.1189 -0.1426  0.1418
 7855SOL    HW135027   1.001   3.072   1.439 -2.1514 -1.9593  1.4724
 7855SOL    HW235028   1.024   2.943   1.510 -0.0863 -0.7531 -0.5026
 7856SOL     OW35029   3.179   3.393   0.660 -0.3265  0.0419  0.6044
 7856SOL    HW135030   3.191   3.364   0.569  0.9122  1.3804  0.3556
 7856SOL    HW235031   3.130   3.319   0.698 -2.8242  2.4087  1.9762
 7857SOL     OW35032   1.514   2.789   9.313  0.5669 -0.3276 -0.0302
 7857SOL    HW135033   1.584   2.803   9.377  0.1419  0.2494  0.3019
 7857SOL    HW235034   1.538   2.857   9.251  1.9114 -0.9206 -0.1694
 7858SOL     OW35035   0.228   3.963   7.938 -1.0517  0.1640 -0.2000
 7858SOL    HW135036   0.289   3.950   7.866  0.0792  0.5507  0.6794
 7858SOL    HW235037   0.257   4.040   7.987  2.9834 -1.2503 -0.3878
 7859SOL     OW35038   3.997   1.503  17.139  0.2949  0.2647 -0.0020
 7859SOL    HW135039   3.974   1.547  17.221 -0.1615  1.4494 -0.7706
 7859SOL    HW235040   4.092   1.505  17.148  0.4747 -2.5152 -1.4185
 7860SOL     OW35041   2.532   4.183   9.227  0.1638 -0.4871 -1.5571
 7860SOL    HW135042   2.584   4.196   9.306 -2.5737  4.4450 -0.4923
 7860SOL    HW235043   2.468   4.120   9.260 -0.3365  1.6935  1.6713
 7861SOL     OW35044   1.813   2.620   5.376 -0.1077  0.2832  0.2724
 7861SOL    HW135045   1.808   2.711   5.407  1.5718  0.5756 -0.3102
 7861SOL    HW235046   1.776   2.569   5.447 -0.8785 -0.6993 -0.8349
 7862SOL     OW35047   3.686   4.614   6.844  0.1860 -0.0529  0.6341
 7862SOL    HW135048   3.720   4.524   6.838  1.2273  0.3170  0.8882
 7862SOL    HW235049   3.608   4.610   6.898 -0.7720 -0.4121 -0.7893
 7863SOL     OW35050   0.243   0.663   8.670  0.2265  0.3001 -0.1432
 7863SOL    HW135051   0.297   0.687   8.595 -0.0934 -0.2097 -0.5373
 7863SOL    HW235052   0.154   0.682   8.642  0.7662  2.2699 -0.5035
 7864SOL     OW35053   0.445   1.542   1.932  0.5084 -0.3126 -0.3429
 7864SOL    HW135054   0.524   1.595   1.938 -0.0950  0.2703  2.3999
 7864SOL    HW235055   0.433   1.569   1.841 -0.3321  0.4335 -0.0114
 7865SOL     OW35056   0.788   2.522   1.469 -0.1506 -0.8396 -0.7455
 7865SOL    HW135057   0.849   2.519   1.542  1.2948  2.4406 -1.8465
 7865SOL    HW235058   0.752   2.609   1.483  0.7366 -0.5784 -0.1069
 7866SOL     OW35059   3.563   2.203   4.430 -0.5467 -0.0417  0.2482
 7866SOL    HW135060   3.590   2.170   4.345 -2.3193  0.6108 -0.5685
 7866SOL    HW235061   3.585   2.130   4.488  0.0944  0.7517  1.0020
 7867SOL     OW35062   4.433   2.015  10.569  0.0165  0.1829 -0.1021
 7867SOL    HW135063   4.429   2.031  10.663  0.2903  3.1584 -0.5929
 7867SOL    HW235064   4.385   1.932  10.571 -1.5478  1.0848 -0.2542
 7868SOL     OW35065   1.248   0.479   7.765  0.1764  0.6093 -0.1647
 7868SOL    HW135066   1.229   0.493   7.672  0.7230 -1.1264 -0.5457
 7868SOL    HW235067   1.278   0.565   7.793  1.4017  0.3615 -0.7393
 7869SOL     OW35068   0.767   0.619   2.153 -0.0049 -0.1392 -0.7445
 7869SOL    HW135069   0.808   0.651   2.072 -1.2892  1.2787 -0.8492
 7869SOL    HW235070   0.692   0.677   2.167 -0.0627 -0.2556 -0.5852
 7870SOL     OW35071   0.024   3.964   7.605  0.0965 -0.0797 -0.3953
 7870SOL    HW135072   0.021   3.981   7.699  1.0568  1.3639 -0.6226
 7870SOL    HW235073   4.687   4.033   7.572  2.8611  2.1291 -0.5810
 7871SOL     OW35074   0.666   0.434   7.508  0.5531  0.1356 -0.6100
 7871SOL    HW135075   0.686   0.387   7.589 -1.5333 -1.9965 -1.3503
 7871SOL    HW235076   0.579   0.404   7.482 -0.2212  0.9461  1.0559
 7872SOL     OW35077   0.153   2.299  12.610 -0.4843 -0.5303  0.2621
 7872SOL    HW135078   0.181   2.390  12.593  0.1734 -0.1679  3.2080
 7872SOL    HW235079   0.239   2.260  12.630 -0.0891  0.3178  0.2328
 7873SOL     OW35080   4.195   4.067   2.827 -0.1268 -0.4041  0.6079
 7873SOL    HW135081   4.233   4.079   2.740  0.3797 -1.7237  0.6495
 7873SOL    HW235082   4.271   4.048   2.882  0.3505 -1.7924 -0.5346
 7874SOL     OW35083   2.691   2.515  13.586 -0.1640 -0.2256 -0.4318
 7874SOL    HW135084   2.701   2.556  13.672 -1.6530 -0.4638 -0.1588
 7874SOL    HW235085   2.601   2.539  13.565  0.4049  2.4760  0.1802
 7875SOL     OW35086   0.219   1.969  10.478  0.0858  0.1730  0.2661
 7875SOL    HW135087   0.184   2.017  10.554  0.7598  0.8790  0.1265
 7875SOL    HW235088   0.301   2.015  10.464 -0.7240  1.7107  0.5455
 7876SOL     OW35089   1.037   0.213   1.418 -0.1520  0.2956 -0.2972
 7876SOL    HW135090   1.120   0.212   1.465 -0.4158 -0.1396  0.1533
 7876SOL    HW235091   0.965   0.195   1.479 -0.1517  0.4944 -0.2373
 7877SOL     OW35092   2.681   1.919   3.338 -0.2483 -0.0387  0.0556
 7877SOL    HW135093   2.638   1.930   3.253 -2.6365 -1.7464  1.0456
 7877SOL    HW235094   2.673   2.005   3.377 -2.4776  0.2365 -1.0388
 7878SOL     OW35095   4.294   0.011   4.007  0.5280 -0.5268  0.0946
 7878SOL    HW135096   4.273   0.043   3.920  2.0043  1.0765  0.3273
 7878SOL    HW235097   4.305   0.091   4.059  1.9595  0.0670 -1.1240
 7879SOL     OW35098   4.166   0.562   8.680  0.2014  0.0135  0.3169
 7879SOL    HW135099   4.089   0.522   8.721  0.2199 -0.7142 -0.3528
 7879SOL    HW235100   4.136   0.560   8.589  1.9222 -3.0713 -0.1826
 7880SOL     OW35101   1.934   1.926  10.266  0.2502 -0.0054  0.5286
 7880SOL    HW135102   1.842   1.907  10.248  0.6651  0.6711 -2.3094
 7880SOL    HW235103   1.927   2.021  10.277  0.9857  0.3072 -1.8362
 7881SOL     OW35104   0.804   4.652  15.235 -0.0331  0.5503 -0.4157
 7881SOL    HW135105   0.875   4.591  15.213 -0.4671  0.1760 -0.7703
 7881SOL    HW235106   0.807   4.658  15.331 -1.4520  0.5934 -0.3730
 7882SOL     OW35107   2.650   4.673  11.629 -0.5893 -0.0275  0.2190
 7882SOL    HW135108   2.595   4.602  11.660  0.0236  0.2019  1.8181
 7882SOL    HW235109   2.607   0.022  11.678 -2.3091  0.3814 -1.8849
 7883SOL     OW35110   3.278   0.077   2.438 -0.6360  0.1723  0.0738
 7883SOL    HW135111   3.291   0.111   2.527  0.0284 -0.4473  0.2152
 7883SOL    HW235112   3.309   0.147   2.381  0.0860  0.3147  0.6419
 7884SOL     OW35113   3.589   3.973   9.681 -0.4528 -0.5696  0.1670
 7884SOL    HW135114   3.630   3.898   9.638  1.3439 -0.4648  1.7268
 7884SOL    HW235115   3.575   4.032   9.607  0.3649 -0.5480  0.0334
 7885SOL     OW35116   3.423   4.288   7.316 -0.5089  0.4456 -0.5000
 7885SOL    HW135117   3.517   4.279   7.332 -1.2039  0.9084  3.9654
 7885SOL    HW235118   3.400   4.374   7.351 -2.2169 -0.6628  1.0795
 7886SOL     OW35119   2.925   3.975   0.036  0.5962  0.2531 -0.6940
 7886SOL    HW135120   2.879   3.908   0.087  0.0208  0.9256 -0.3300
 7886SOL    HW235121   2.886   4.052   0.078 -0.0988  1.1811 -3.0326
 7887SOL     OW35122   1.038   0.432   5.862 -0.0483 -0.2198  0.1225
 7887SOL    HW135123   0.987   0.353   5.883 -1.3891  0.5239 -0.3800
 7887SOL    HW235124   1.113   0.395   5.816 -0.2662  0.6737 -0.9348
 7888SOL     OW35125   2.007   2.515   0.465 -0.4592  0.0438 -0.0762
 7888SOL    HW135126   1.959   2.593   0.491  0.7339  1.5603 -2.4687
 7888SOL    HW235127   2.089   2.540   0.509 -0.6185  0.3497  0.0430
 7889SOL     OW35128   4.705   1.685  11.816 -0.1452 -0.6602 -0.5314
 7889SOL    HW135129   4.717   1.750  11.747  1.4617  0.3230  0.6431
 7889SOL    HW235130   0.026   1.724  11.894 -0.2496  2.0405 -1.8099
 7890SOL     OW35131   2.692   2.693  17.366 -0.5816  0.0859 -0.2233
 7890SOL    HW135132   2.639   2.731  17.296 -0.8023 -0.0822 -0.1509
 7890SOL    HW235133   2.700   2.606  17.326 -3.4428  0.0950 -0.8429
 7891SOL     OW35134   4.106   3.706   6.751  0.2275  0.0210 -0.0516
 7891SOL    HW135135   4.166   3.632   6.764 -0.3221 -0.5151 -0.5657
 7891SOL    HW235136   4.153   3.738   6.674  1.7162 -1.2740  0.3098
 7892SOL     OW35137   1.272   3.428  10.212 -0.0687  0.7327  0.1678
 7892SOL    HW135138   1.338   3.496  10.215 -0.1004  0.6929  1.5878
 7892SOL    HW235139   1.231   3.446  10.297 -1.8988 -1.3522 -0.2488
 7893SOL     OW35140   1.141   4.128   1.556 -0.0012 -0.5032 -0.2030
 7893SOL    HW135141   1.166   4.121   1.648  1.8080 -1.4091 -0.7592
 7893SOL    HW235142   1.199   4.196   1.521  1.8350 -1.6757  0.5466
 7894SOL     OW35143   3.068   1.795   2.685  0.3705  0.2595 -0.4894
 7894SOL    HW135144   3.126   1.861   2.723 -0.5904  0.8786 -0.1279
 7894SOL    HW235145   3.098   1.798   2.594 -0.1260  0.0999 -0.6575
 7895SOL     OW35146   0.574   3.127  11.304 -0.1411 -0.1906  0.0829
 7895SOL    HW135147   0.526   3.208  11.283 -1.4443 -0.6339  1.3596
 7895SOL    HW235148   0.554   3.068  11.232 -3.4205  0.7610  0.2158
 7896SOL     OW35149   0.878   1.217   6.408  0.1736 -0.3895  0.0951
 7896SOL    HW135150   0.809   1.236   6.472  0.2818  2.0568 -0.5096
 7896SOL    HW235151   0.863   1.284   6.341  3.4232  0.2748  0.0244
 7897SOL     OW35152   0.232   3.426   0.431 -0.0138  0.5095  0.6042
 7897SOL    HW135153   0.196   3.338   0.446  1.4223 -0.1159  0.3617
 7897SOL    HW235154   0.299   3.417   0.363  1.0609 -0.1788  1.7552
 7898SOL     OW35155   1.886   3.326   8.105 -0.2577  1.1456 -0.1715
 7898SOL    HW135156   1.850   3.270   8.036 -0.3380  0.6282  0.2855
 7898SOL    HW235157   1.803   3.369   8.127  0.8721  3.2822 -0.1621
 7899SOL     OW35158   1.701   1.640  14.117 -0.0740 -0.0527 -0.8464
 7899SOL    HW135159   1.650   1.561  14.099 -1.1478  0.2544  0.8029
 7899SOL    HW235160   1.770   1.607  14.175  0.4526  1.6108 -0.5392
 7900SOL     OW35161   1.879   1.482   4.439  0.0007  0.0636 -0.2090
 7900SOL    HW135162   1.911   1.444   4.357  0.9802  0.3117  0.0642
 7900SOL    HW235163   1.949   1.538   4.473  0.2934  0.0821 -0.8345
 7901SOL     OW35164   0.543   2.430   4.338  0.5081  0.0719 -0.1906
 7901SOL    HW135165   0.614   2.397   4.284  1.7310 -0.2916  1.6222
 7901SOL    HW235166   0.527   2.361   4.402  1.2710  0.5155  0.4842
 7902SOL     OW35167   0.856   3.046   6.946 -0.1334 -0.3666 -0.2579
 7902SOL    HW135168   0.851   3.082   6.857  0.8066  1.6144  0.4845
 7902SOL    HW235169   0.767   3.059   6.980  0.2571 -2.8115  1.7078
 7903SOL     OW35170   2.128   4.260  17.018  0.0207  0.0119  0.4269
 7903SOL    HW135171   2.110   4.196  16.950  0.7794 -1.0237  1.1996
 7903SOL    HW235172   2.221   4.236  17.025  0.4042  1.6168  0.9835
 7904SOL     OW35173   1.391   2.663  12.313  0.2194 -0.0006  0.0848
 7904SOL    HW135174   1.396   2.693  12.404  1.1115  0.3724 -0.0934
 7904SOL    HW235175   1.479   2.626  12.311  0.7045  1.2465 -1.7013
 7905SOL     OW35176   3.862   1.440  16.904  0.2754  1.0178  0.1333
 7905SOL    HW135177   3.775   1.404  16.920  1.3541 -0.9387  1.6626
 7905SOL    HW235178   3.910   1.449  16.987 -1.9238  2.7002  1.2504
 7906SOL     OW35179   2.870   1.452   2.152  0.1090 -0.0319  0.4231
 7906SOL    HW135180   2.924   1.508   2.096  1.3460 -1.7319 -0.0916
 7906SOL    HW235181   2.850   1.379   2.093  1.8720  2.1429 -2.8887
 7907SOL     OW35182   1.612   4.181   3.899  0.4389  0.0590 -0.1066
 7907SOL    HW135183   1.654   4.229   3.827  1.5345  0.3509  0.7210
 7907SOL    HW235184   1.599   4.249   3.966 -1.0474  0.2243 -0.5611
 7908SOL     OW35185   3.782   4.198   0.535  0.1552  0.2950 -0.4350
 7908SOL    HW135186   3.855   4.213   0.475  0.1819 -0.9374 -0.6974
 7908SOL    HW235187   3.821   4.163   0.615 -0.0604 -0.9032 -0.8629
 7909SOL     OW35188   4.716   0.525   4.915 -0.3179  0.0030 -0.3358
 7909SOL    HW135189   4.699   0.582   4.990  0.0527 -1.1740  0.6387
 7909SOL    HW235190   4.640   0.546   4.860  1.2793  0.5083 -2.3687
 7910SOL     OW35191   2.317   1.992   2.717  0.0946  0.1479  0.7780
 7910SOL    HW135192   2.288   1.911   2.674 -0.8666  0.5879  0.6140
 7910SOL    HW235193   2.394   2.008   2.662 -0.1738 -1.6900 -0.1349
 7911SOL     OW35194   4.598   3.810   6.095  0.1226 -0.1665  0.9838
 7911SOL    HW135195   4.681   3.808   6.047 -0.9767 -0.2238 -0.8971
 7911SOL    HW235196   4.547   3.848   6.024 -2.3867  0.3852  3.0717
 7912SOL     OW35197   2.963   4.424   4.154 -0.4153  0.1398 -0.2068
 7912SOL    HW135198   2.956   4.416   4.058 -1.4573  0.7762 -0.1736
 7912SOL    HW235199   3.023   4.497   4.166  0.5636 -0.8450  0.8655
 7913SOL     OW35200   2.262   2.112   6.499  0.1400 -0.3343  0.7705
 7913SOL    HW135201   2.255   2.196   6.455 -0.5567  0.0778  1.6582
 7913SOL    HW235202   2.304   2.132   6.583  0.4600  0.0419  0.5193
 7914SOL     OW35203   2.989   4.569   4.461 -0.3512  0.1404 -0.0733
 7914SOL    HW135204   3.044   4.603   4.391 -1.1319 -0.7486 -1.1093
 7914SOL    HW235205   2.909   4.617   4.439 -0.6677 -0.3891 -0.0663
 7915SOL     OW35206   2.818   2.397  10.897  0.3044  0.3132 -0.1403
 7915SOL    HW135207   2.821   2.493  10.902 -0.5317  0.4416 -1.8045
 7915SOL    HW235208   2.753   2.376  10.964 -2.0360  0.9061 -2.2262
 7916SOL     OW35209   0.514   0.762  14.232  0.4267  0.0937  0.2612
 7916SOL    HW135210   0.567   0.716  14.167 -0.8481 -0.2118 -0.5839
 7916SOL    HW235211   0.439   0.774  14.173 -0.3906 -0.3057  1.2223
 7917SOL     OW35212   0.904   3.826   8.138 -0.3390 -0.1602  0.4931
 7917SOL    HW135213   0.911   3.893   8.206 -0.5184  0.5099 -0.1530
 7917SOL    HW235214   0.924   3.874   8.058 -3.1506 -1.1048 -0.7801
 7918SOL     OW35215   3.964   3.528   9.858  1.2677  0.0403 -0.0544
 7918SOL    HW135216   3.901   3.600   9.850  0.3056 -1.0999 -2.6985
 7918SOL    HW235217   3.935   3.486   9.939  1.5715 -0.0575  0.0033
 7919SOL     OW35218   1.225   4.040   7.506  0.1321 -0.2435  0.4009
 7919SOL    HW135219   1.192   3.970   7.562  0.0116 -0.9117 -0.5192
 7919SOL    HW235220   1.299   4.071   7.559  0.6883  2.3913 -1.8923
 7920SOL     OW35221   1.176   4.022   4.262  0.1739 -0.0193  0.7477
 7920SOL    HW135222   1.238   3.972   4.314 -0.0337 -2.1254 -1.0410
 7920SOL    HW235223   1.101   3.998   4.317  0.1493 -2.1263 -0.1925
 7921SOL     OW35224   2.436   0.233  15.474 -0.5169  1.0505 -0.8127
 7921SOL    HW135225   2.353   0.203  15.510  0.8332 -2.3801 -0.5669
 7921SOL    HW235226   2.416   0.317  15.432  1.5605  2.6495  1.3972
 7922SOL     OW35227   1.330   4.178   4.674 -0.2615  0.1639  0.0430
 7922SOL    HW135228   1.322   4.082   4.669  1.6798 -0.0953  1.5874
 7922SOL    HW235229   1.247   4.207   4.711 -0.6751 -0.7120 -0.1794
 7923SOL     OW35230   1.991   2.280  16.458 -0.0839  0.3244  0.3598
 7923SOL    HW135231   1.921   2.331  16.499 -0.8030 -1.2204  1.0933
 7923SOL    HW235232   2.004   2.216  16.529  1.9756 -0.6758 -0.9238
 7924SOL     OW35233   0.729   0.424  16.216 -0.3668 -0.1275  0.1778
 7924SOL    HW135234   0.793   0.495  16.224 -2.1069  1.4765 -0.0532
 7924SOL    HW235235   0.687   0.464  16.141 -0.7538 -2.0136 -0.6094
 7925SOL     OW35236   1.096   1.778   2.511 -0.1594 -0.3135  0.2024
 7925SOL    HW135237   1.047   1.744   2.436  1.5539 -0.2895 -0.9218
 7925SOL    HW235238   1.173   1.721   2.503 -0.5402 -0.4017 -2.6640
 7926SOL     OW35239   4.625   1.393   8.122  0.1050  0.0389 -0.1071
 7926SOL    HW135240   4.709   1.412   8.165 -0.3244 -1.4554  1.4074
 7926SOL    HW235241   4.577   1.459   8.173  2.5798  1.0297  0.9416
 7927SOL     OW35242   1.279   2.524   2.711  0.2470 -0.0794  0.2989
 7927SOL    HW135243   1.372   2.501   2.716  0.2451  0.0950  1.0487
 7927SOL    HW235244   1.253   2.519   2.803 -1.2500 -0.2868 -0.1272
 7928SOL     OW35245   0.255   2.084  13.356  0.1746 -0.4206  0.3697
 7928SOL    HW135246   0.343   2.122  13.349  0.1364 -0.3971  0.0211
 7928SOL    HW235247   0.217   2.111  13.440 -1.2305  2.2129 -1.1389
 7929SOL     OW35248   2.602   4.078   6.761  0.2828  0.2371 -0.0281
 7929SOL    HW135249   2.531   4.122   6.808  0.4283  0.7881 -0.3237
 7929SOL    HW235250   2.633   4.136   6.691  0.3477  1.2760  0.8583
 7930SOL     OW35251   1.146   2.628   9.432  0.0969 -0.5609 -0.0291
 7930SOL    HW135252   1.052   2.620   9.447 -0.0640 -2.2653 -1.9613
 7930SOL    HW235253   1.151   2.624   9.336  1.3350  1.9428 -0.0687
 7931SOL     OW35254   2.815   4.217   3.006 -0.6296 -0.3424 -0.1123
 7931SOL    HW135255   2.882   4.277   3.037 -1.0464 -0.4282  0.9558
 7931SOL    HW235256   2.861   4.153   2.951  0.6401  2.0725 -1.8147
 7932SOL     OW35257   1.758   1.842   4.643 -0.4727 -0.4449 -0.1131
 7932SOL    HW135258   1.828   1.792   4.686  0.2536 -0.8951 -1.8224
 7932SOL    HW235259   1.701   1.866   4.716 -1.3882 -3.2481  0.1267
 7933SOL     OW35260   3.426   0.033   7.098 -0.3240  0.1801  0.0315
 7933SOL    HW135261   3.342   0.079   7.109 -0.3997 -0.2107  1.1095
 7933SOL    HW235262   3.477   0.108   7.067  0.2105 -0.4169 -0.5268
 7934SOL     OW35263   2.723   2.972  10.269  0.8168 -0.1385 -0.7626
 7934SOL    HW135264   2.628   2.961  10.263  0.6934  1.2106 -1.2616
 7934SOL    HW235265   2.738   3.016  10.186  1.8436 -0.0671 -0.5455
 7935SOL     OW35266   1.079   4.150  12.195  0.4344  0.0245  0.1517
 7935SOL    HW135267   1.002   4.195  12.229  1.1506  1.3462  0.0244
 7935SOL    HW235268   1.032   4.072  12.167  0.8702  0.4212 -1.6924
 7936SOL     OW35269   4.050   0.905   5.159 -0.3670 -0.2568 -0.2702
 7936SOL    HW135270   4.117   0.969   5.186 -1.0556 -0.0373  0.9005
 7936SOL    HW235271   4.050   0.918   5.064 -1.0135 -1.8895 -0.4941
 7937SOL     OW35272   0.857   1.893   5.387 -0.2609  0.0760  0.4147
 7937SOL    HW135273   0.831   1.952   5.316 -0.4915  1.1544  1.4060
 7937SOL    HW235274   0.786   1.913   5.448 -1.5530  2.2656 -1.8215
 7938SOL     OW35275   2.358   3.855   2.381 -0.1870 -0.3300  0.5175
 7938SOL    HW135276   2.290   3.849   2.314 -0.1983  0.1827  0.4825
 7938SOL    HW235277   2.418   3.784   2.357 -0.2133 -0.1235 -0.1462
 7939SOL     OW35278   1.121   0.237  10.961 -0.2091  0.1456  0.1264
 7939SOL    HW135279   1.110   0.148  10.929  1.0379  0.0619 -0.0840
 7939SOL    HW235280   1.172   0.276  10.890 -0.3837 -1.6958 -1.0109
 7940SOL     OW35281   2.612   0.367  13.917 -0.2637 -1.2486 -0.3468
 7940SOL    HW135282   2.584   0.456  13.897 -0.0910 -0.8998  0.9872
 7940SOL    HW235283   2.559   0.309  13.862 -2.5483 -0.7676  1.3461
 7941SOL     OW35284   1.670   0.768   7.131  0.0165 -0.0629  0.9640
 7941SOL    HW135285   1.598   0.729   7.180  0.0132 -0.0989  0.9296
 7941SOL    HW235286   1.739   0.774   7.197  0.3662  0.6487  0.5389
 7942SOL     OW35287   2.414   2.684   9.421 -0.4195 -0.1529  0.0863
 7942SOL    HW135288   2.442   2.718   9.506 -1.4108  0.5945  0.1144
 7942SOL    HW235289   2.432   2.760   9.365  1.0492  0.4843  1.4196
 7943SOL     OW35290   4.471   3.599   3.362  0.3495 -0.9228  0.3036
 7943SOL    HW135291   4.446   3.518   3.407 -1.4385 -0.4331  0.1935
 7943SOL    HW235292   4.558   3.599   3.400  0.9153 -0.7313 -0.9942
 7944SOL     OW35293   0.785   2.386  10.387  0.5647  0.0614  0.1436
 7944SOL    HW135294   0.719   2.326  10.352  0.3268  0.9371 -0.9023
 7944SOL    HW235295   0.748   2.469  10.356  1.7931  0.3444 -0.5865
 7945SOL     OW35296   1.431   4.114   8.912 -0.2507 -0.9289 -0.1828
 7945SOL    HW135297   1.477   4.030   8.911 -1.1745 -1.4187 -1.6506
 7945SOL    HW235298   1.409   4.110   9.005 -3.4103 -1.0351 -0.9335
 7946SOL     OW35299   2.357   4.530   2.102  0.6483  0.0222 -0.1151
 7946SOL    HW135300   2.440   4.578   2.110  1.1793 -0.5163 -2.3948
 7946SOL    HW235301   2.365   4.523   2.007 -2.5284  0.4479 -0.4177
 7947SOL     OW35302   0.217   2.878   4.131 -0.1762  0.5589  0.2054
 7947SOL    HW135303   0.221   2.860   4.037 -2.3932 -0.2589  0.2501
 7947SOL    HW235304   0.196   2.971   4.138  1.1971  0.6940  2.2905
 7948SOL     OW35305   2.605   3.503   3.992 -0.0228  0.4945 -0.4271
 7948SOL    HW135306   2.590   3.423   4.042 -0.4909  0.1152 -1.1682
 7948SOL    HW235307   2.584   3.574   4.053  0.9156 -2.0487  2.8597
 7949SOL     OW35308   0.374   3.512   5.750 -0.3464  0.3955  0.7696
 7949SOL    HW135309   0.457   3.520   5.703 -0.1367  1.1747  1.2791
 7949SOL    HW235310   0.344   3.423   5.730  0.3175  0.2431  0.4334
 7950SOL     OW35311   0.345   2.994   3.654  0.2897  0.3473  0.1844
 7950SOL    HW135312   0.347   3.069   3.714  0.0009  0.4366  0.0819
 7950SOL    HW235313   0.321   3.042   3.575 -0.6984  0.7480  0.7305
 7951SOL     OW35314   4.133   0.694  16.615  0.8019  0.5810 -0.6780
 7951SOL    HW135315   4.152   0.601  16.629  2.2893  0.9525 -0.2166
 7951SOL    HW235316   4.105   0.718  16.703  0.9684 -2.2758  0.1766
 7952SOL     OW35317   1.140   0.227   6.888  0.2969  0.1541 -0.6066
 7952SOL    HW135318   1.050   0.209   6.858 -0.3643 -1.1265  2.1837
 7952SOL    HW235319   1.170   0.147   6.930 -2.2309 -0.3983  0.1633
 7953SOL     OW35320   0.442   2.109   0.983  0.5533  0.1190  0.3098
 7953SOL    HW135321   0.460   2.100   1.077  2.1713 -1.3722 -0.1452
 7953SOL    HW235322   0.357   2.154   0.988 -0.3923 -1.8131  2.0692
 7954SOL     OW35323   2.558   3.933   8.401 -0.7126 -0.1360 -0.3158
 7954SOL    HW135324   2.621   3.956   8.469 -1.4429  1.3466 -0.1145
 7954SOL    HW235325   2.481   3.911   8.453  0.7345  0.8737  2.2639
 7955SOL     OW35326   3.023   0.490   6.071 -0.2015 -0.1593  0.2653
 7955SOL    HW135327   2.937   0.472   6.034 -0.7513 -0.8492  1.8620
 7955SOL    HW235328   3.028   0.450   6.158  1.7682  0.5906  0.4902
 7956SOL     OW35329   2.497   2.410  14.085 -0.0774  0.1805  0.0664
 7956SOL    HW135330   2.583   2.451  14.082 -0.7460  1.5458 -0.2757
 7956SOL    HW235331   2.467   2.393  13.996 -1.1639 -0.4586  0.5437
 7957SOL     OW35332   0.176   0.128   7.741  0.4707  0.0450  0.4714
 7957SOL    HW135333   0.225   0.179   7.677  0.1932 -1.0197 -0.5776
 7957SOL    HW235334   0.134   0.195   7.796 -0.8667 -0.2044 -0.2569
 7958SOL     OW35335   2.192   1.169   2.310 -0.0297  0.3772 -0.1655
 7958SOL    HW135336   2.150   1.221   2.378 -1.4531 -1.5050  0.3999
 7958SOL    HW235337   2.280   1.206   2.313  0.2449 -0.1256 -1.8743
 7959SOL     OW35338   2.562   1.790   4.733  0.3323  0.1261 -0.0805
 7959SOL    HW135339   2.520   1.848   4.797  0.7237 -2.4642  2.5086
 7959SOL    HW235340   2.585   1.729   4.804  0.6804 -1.8581 -1.8981
 7960SOL     OW35341   1.441   1.605  17.489  0.6013 -0.0023 -0.3386
 7960SOL    HW135342   1.462   1.597  17.582 -2.2327  1.0920  0.3780
 7960SOL    HW235343   1.508   1.665  17.456 -1.9698  1.5076 -2.6894
 7961SOL     OW35344   3.152   3.309  15.591 -0.3214  0.6116  0.6236
 7961SOL    HW135345   3.133   3.374  15.523 -0.0140 -0.1671 -0.2033
 7961SOL    HW235346   3.078   3.310  15.652 -0.8599  1.3548 -0.0388
 7962SOL     OW35347   3.799   3.230   1.238 -0.8087  0.1267  0.6421
 7962SOL    HW135348   3.782   3.215   1.145 -0.1886 -0.0864  0.5628
 7962SOL    HW235349   3.882   3.278   1.237 -0.8718  0.2019 -1.1110
 7963SOL     OW35350   1.801   3.168  12.294  0.5171 -0.4855  0.1042
 7963SOL    HW135351   1.736   3.116  12.341  0.7597 -0.4068  0.5254
 7963SOL    HW235352   1.849   3.104  12.242  0.2511 -1.1021  0.6260
 7964SOL     OW35353   4.654   0.976   0.556  0.2541 -0.0887  0.6485
 7964SOL    HW135354   4.582   1.023   0.514  0.3325  0.1775  0.8067
 7964SOL    HW235355   4.679   0.919   0.484 -0.7532 -0.7332  0.8051
 7965SOL     OW35356   3.217   0.198   5.954  0.4937 -0.3746 -0.4958
 7965SOL    HW135357   3.238   0.109   5.927  2.5634  0.3940 -1.4508
 7965SOL    HW235358   3.166   0.194   6.035  1.8476  1.9544  0.4887
 7966SOL     OW35359   1.107   0.461  12.478  0.0620 -0.4612  0.1100
 7966SOL    HW135360   1.098   0.370  12.450 -1.0935 -0.1270 -0.6031
 7966SOL    HW235361   1.143   0.498  12.397 -1.1029 -0.5926 -0.4626
 7967SOL     OW35362   4.192   3.091  15.161  0.4778 -0.6914 -0.2043
 7967SOL    HW135363   4.102   3.121  15.164  0.5622 -0.5513  0.7113
 7967SOL    HW235364   4.242   3.161  15.117 -1.8856  0.8301 -0.4466
 7968SOL     OW35365   4.349   1.781   9.744  0.1099  0.2221  0.2357
 7968SOL    HW135366   4.380   1.809   9.658  0.8797 -0.0544  0.4232
 7968SOL    HW235367   4.265   1.744   9.717  1.6310 -1.9388 -1.5178
 7969SOL     OW35368   1.260   2.186  15.579 -1.0652  0.4911  0.0167
 7969SOL    HW135369   1.353   2.189  15.557 -1.1520  0.0264 -0.4276
 7969SOL    HW235370   1.236   2.277  15.563  0.5845  0.8350 -0.5249
 7970SOL     OW35371   3.059   0.688   6.984 -0.7356  1.4053  0.4000
 7970SOL    HW135372   3.119   0.732   6.923 -0.6367 -1.9434 -1.9240
 7970SOL    HW235373   2.974   0.713   6.948 -0.8520  0.3788 -0.0325
 7971SOL     OW35374   2.296   3.806   4.722 -0.3318  0.4227 -0.0966
 7971SOL    HW135375   2.343   3.733   4.763 -0.6182 -0.6379 -1.6647
 7971SOL    HW235376   2.319   3.793   4.630 -1.8494  1.3575 -0.5990
 7972SOL     OW35377   1.297   2.536   3.576  0.6115 -0.0133 -0.2083
 7972SOL    HW135378   1.225   2.501   3.628  1.1680  1.1897  1.3593
 7972SOL    HW235379   1.245   2.549   3.496  1.0472 -0.1515 -0.5115
 7973SOL     OW35380   4.545   2.664  16.153  0.0521  0.4389 -0.2087
 7973SOL    HW135381   4.539   2.730  16.222  0.6058 -1.3609  1.5680
 7973SOL    HW235382   4.506   2.702  16.074 -1.6948 -3.0728 -1.0319
 7974SOL     OW35383   4.054   3.591   1.742  0.5453 -0.2991 -0.3157
 7974SOL    HW135384   3.966   3.573   1.776  0.9448 -1.8323 -0.0841
 7974SOL    HW235385   4.046   3.556   1.653  0.2390 -1.9313  0.3602
 7975SOL     OW35386   2.188   3.298   9.805  0.0661 -0.0727  0.5872
 7975SOL    HW135387   2.120   3.348   9.849 -0.1969  0.9802 -1.0165
 7975SOL    HW235388   2.149   3.290   9.718  1.9335  0.2410 -0.2778
 7976SOL     OW35389   1.348   1.449   4.800 -0.5703  0.2330  0.3341
 7976SOL    HW135390   1.354   1.446   4.705 -0.4377 -0.6019  0.3710
 7976SOL    HW235391   1.380   1.538   4.817 -0.0952 -0.1960  1.7136
 7977SOL     OW35392   2.454   2.941  10.201  0.6051 -0.3660  0.3703
 7977SOL    HW135393   2.433   3.031  10.176  2.3086  0.0022  0.2439
 7977SOL    HW235394   2.374   2.896  10.175  0.9927 -1.0396  0.3347
 7978SOL     OW35395   1.820   3.500  10.552 -0.3761  0.2486  0.6134
 7978SOL    HW135396   1.809   3.417  10.598  0.5338 -1.0839 -1.6418
 7978SOL    HW235397   1.736   3.509  10.507 -1.1257 -2.3130  1.5317
 7979SOL     OW35398   4.645   3.943   6.694  0.4144  0.3061  0.0609
 7979SOL    HW135399   4.561   3.935   6.740  2.2827 -0.5508  3.2861
 7979SOL    HW235400   4.646   3.860   6.645  3.0641 -1.4581  3.1766
 7980SOL     OW35401   4.015   0.805  17.441 -0.2727 -0.2899  0.2982
 7980SOL    HW135402   4.042   0.896  17.443 -0.8419 -0.1675  1.9885
 7980SOL    HW235403   4.043   0.780  17.353 -0.8541 -3.1506  0.9075
 7981SOL     OW35404   4.663   4.437  11.538  0.3519  0.1529 -0.2007
 7981SOL    HW135405   4.626   4.349  11.537  0.3998  0.1329 -0.2180
 7981SOL    HW235406   0.029   4.420  11.500  0.1251 -0.1350 -0.5911
 7982SOL     OW35407   4.054   0.867   3.838 -0.0381  0.1246  0.5656
 7982SOL    HW135408   4.020   0.822   3.915  0.4362  0.7660  1.1627
 7982SOL    HW235409   4.149   0.854   3.836 -0.0780 -0.1251  0.3607
 7983SOL     OW35410   2.347   2.943  13.159 -0.4151  0.1571 -0.4256
 7983SOL    HW135411   2.281   3.012  13.155 -0.2620  0.3494  0.2972
 7983SOL    HW235412   2.321   2.871  13.102 -0.0083  0.3708 -0.8776
 7984SOL     OW35413   3.297   1.396   6.334 -0.0172 -0.5427 -0.1960
 7984SOL    HW135414   3.383   1.359   6.314 -0.2357 -1.5502  0.6501
 7984SOL    HW235415   3.252   1.312   6.343 -0.4725 -0.1428  1.3500
 7985SOL     OW35416   1.682   4.353  12.452 -0.2627  0.3126 -0.0292
 7985SOL    HW135417   1.629   4.348  12.531  1.6211  0.5378  1.2550
 7985SOL    HW235418   1.706   4.260  12.450 -1.3978  0.0014  1.2422
 7986SOL     OW35419   4.639   1.933   8.149 -0.0767  0.3824 -0.1076
 7986SOL    HW135420   4.554   1.975   8.164 -0.6930 -0.2763 -1.7631
 7986SOL    HW235421   4.622   1.847   8.185 -0.2045  1.2570  1.9232
 7987SOL     OW35422   2.827   3.229   1.972 -0.1982 -0.6753  0.2354
 7987SOL    HW135423   2.813   3.192   1.885 -2.4281 -0.9771  0.7177
 7987SOL    HW235424   2.741   3.222   2.012 -0.7545  3.2116 -0.2835
 7988SOL     OW35425   4.115   0.139   5.690  0.1864  0.0452 -0.1440
 7988SOL    HW135426   4.102   0.205   5.758 -0.7471 -1.3684  1.0454
 7988SOL    HW235427   4.030   0.100   5.675  0.2408 -0.0609 -0.1770
 7989SOL     OW35428   2.398   2.827   7.064 -0.1823  0.1676 -0.0329
 7989SOL    HW135429   2.396   2.740   7.023 -0.8637  0.5361 -0.7802
 7989SOL    HW235430   2.492   2.845   7.070 -0.4097  1.0819  0.7467
 7990SOL     OW35431   4.695   0.967  15.829  0.0409 -0.4486  0.5238
 7990SOL    HW135432   4.655   1.051  15.808 -0.4586  0.0878  3.7253
 7990SOL    HW235433   4.642   0.906  15.777  0.6335 -0.6017  0.0922
 7991SOL     OW35434   4.421   3.417  13.662  0.1294  0.1073 -0.2132
 7991SOL    HW135435   4.503   3.420  13.612  0.7719 -1.3882  0.7600
 7991SOL    HW235436   4.464   3.397  13.745 -0.8095  1.8803  0.6911
 7992SOL     OW35437   3.510   3.180   3.594 -0.9075 -0.3133 -0.4077
 7992SOL    HW135438   3.530   3.256   3.541 -0.2449 -0.2757 -0.0977
 7992SOL    HW235439   3.597   3.157   3.626 -0.9288 -0.8102 -0.7087
 7993SOL     OW35440   2.350   2.768   5.720  0.0582 -0.3063  0.2380
 7993SOL    HW135441   2.393   2.784   5.636  0.8761  0.6982  0.8495
 7993SOL    HW235442   2.354   2.848   5.773 -1.4095 -1.7304  2.4568
 7994SOL     OW35443   3.800   0.228   6.291  0.1641  0.0765  0.4201
 7994SOL    HW135444   3.775   0.268   6.374 -1.7357 -0.4950  0.1407
 7994SOL    HW235445   3.729   0.164   6.287 -1.4557  1.9695 -1.3847
 7995SOL     OW35446   0.779   4.167   2.324 -0.1044 -0.2224  0.0154
 7995SOL    HW135447   0.761   4.080   2.360 -1.0708 -0.1942 -0.4031
 7995SOL    HW235448   0.733   4.219   2.390 -0.1342  0.4197 -0.5058
 7996SOL     OW35449   0.088   2.557   4.855 -0.7957 -0.3410 -0.6633
 7996SOL    HW135450   0.157   2.495   4.879 -0.0570  0.2610 -1.2359
 7996SOL    HW235451   0.059   2.571   4.945 -1.1106 -0.1882 -0.7911
 7997SOL     OW35452   3.965   2.179  11.345  0.0300 -0.1821  0.5299
 7997SOL    HW135453   3.993   2.166  11.255  0.6978  0.8520  0.5895
 7997SOL    HW235454   3.965   2.084  11.361 -1.7985  0.1473  2.4610
 7998SOL     OW35455   1.188   2.493   2.158  0.7622 -0.0460  0.3459
 7998SOL    HW135456   1.128   2.422   2.181  2.1105 -1.0129  0.8870
 7998SOL    HW235457   1.146   2.572   2.192 -1.1950 -1.1614  0.5412
 7999SOL     OW35458   3.606   0.434   3.957  0.1896  0.2423 -0.3885
 7999SOL    HW135459   3.651   0.506   3.914  2.2568 -2.3587 -2.6008
 7999SOL    HW235460   3.517   0.469   3.965 -0.5399 -1.6387 -0.2409
 8000SOL     OW35461   1.485   1.383   1.207 -0.5959  0.1537  0.9115
 8000SOL    HW135462   1.566   1.339   1.231  1.1321  3.5778  1.4205
 8000SOL    HW235463   1.477   1.343   1.120  0.5567  1.8139  0.0339
 8001SOL     OW35464   4.454   2.938   5.510 -0.5092  0.6669  0.6663
 8001SOL    HW135465   4.508   2.858   5.512  0.4657  1.3290  0.9926
 8001SOL    HW235466   4.371   2.902   5.479 -0.6763  0.2477  1.5758
 8002SOL     OW35467   2.760   2.194   4.300 -0.4216  0.1411  0.0096
 8002SOL    HW135468   2.847   2.230   4.281 -0.5906 -0.2818 -1.5909
 8002SOL    HW235469   2.738   2.261   4.365 -0.3979  1.1336 -1.0101
 8003SOL     OW35470   3.874   1.601   0.953 -0.2540  0.1025  0.5118
 8003SOL    HW135471   3.832   1.658   1.018 -1.0112  1.4933 -1.2013
 8003SOL    HW235472   3.867   1.659   0.878 -1.4511 -0.9354 -0.1733
 8004SOL     OW35473   3.302   1.849   9.199  0.3060  0.3547  0.0991
 8004SOL    HW135474   3.212   1.840   9.231  0.1045 -0.3948 -0.6676
 8004SOL    HW235475   3.343   1.903   9.267 -0.2703 -1.9711  2.3188
 8005SOL     OW35476   1.541   3.848   8.912 -0.1420 -0.1757  0.1691
 8005SOL    HW135477   1.606   3.797   8.960 -1.2839 -1.0908  0.7512
 8005SOL    HW235478   1.475   3.778   8.909  1.1881 -1.5109  1.8191
 8006SOL     OW35479   0.047   0.468   7.176 -0.5826  0.2806 -0.3845
 8006SOL    HW135480   0.024   0.379   7.151  1.9185 -1.5543  3.7233
 8006SOL    HW235481   0.141   0.449   7.180 -0.5597  0.6972  1.4239
 8007SOL     OW35482   0.588   0.156   9.580  0.0380 -0.5451  0.0853
 8007SOL    HW135483   0.500   0.165   9.616  0.2218  1.6120  0.0076
 8007SOL    HW235484   0.612   0.080   9.633  0.2046 -1.2112 -0.9357
 8008SOL     OW35485   1.060   3.444   2.298 -0.1491  0.3382  0.5404
 8008SOL    HW135486   1.107   3.418   2.219  1.4440 -0.4979  1.7792
 8008SOL    HW235487   1.129   3.451   2.364  0.1206 -0.1182  0.3043
 8009SOL     OW35488   2.989   3.954   9.043 -0.2389  0.0667  0.1575
 8009SOL    HW135489   2.951   4.025   9.095  0.2985 -0.4743  1.2730
 8009SOL    HW235490   2.959   3.879   9.094  3.4577 -0.3595  1.6813
 8010SOL     OW35491   2.177   1.870   3.603  0.6540 -0.2518  0.8231
 8010SOL    HW135492   2.149   1.923   3.678 -0.3479 -0.0740  0.3326
 8010SOL    HW235493   2.260   1.916   3.592  1.2018 -1.2070  0.9691
 8011SOL     OW35494   1.527   3.861   1.308 -0.0558 -0.4678 -0.2363
 8011SOL    HW135495   1.618   3.831   1.303 -0.1570 -0.5703 -1.3621
 8011SOL    HW235496   1.526   3.939   1.251 -1.5563  0.4816  1.0751
 8012SOL     OW35497   3.845   2.799   7.657 -0.0458 -0.1676 -0.1622
 8012SOL    HW135498   3.835   2.750   7.739  0.3964  0.8664  0.5113
 8012SOL    HW235499   3.759   2.840   7.649  0.6969  2.0045  2.9833
 8013SOL     OW35500   4.315   0.772   7.883 -0.7472 -0.1057 -0.1494
 8013SOL    HW135501   4.402   0.733   7.875 -0.1638  1.5106 -1.6847
 8013SOL    HW235502   4.343   0.864   7.890  2.8207 -0.9555 -3.5196
 8014SOL     OW35503   0.907   2.106   4.078 -0.3880 -0.3191  0.6263
 8014SOL    HW135504   0.984   2.162   4.087 -0.3438 -0.1673 -0.6412
 8014SOL    HW235505   0.935   2.049   4.007 -1.5923  1.7654 -1.5248
 8015SOL     OW35506   0.571   4.343   2.416  0.3183  0.3496 -0.3661
 8015SOL    HW135507   0.496   4.387   2.456  1.3741  0.5085  1.4498
 8015SOL    HW235508   0.551   4.352   2.323 -0.8519 -2.1227 -0.3622
 8016SOL     OW35509   2.325   0.734  11.859  0.0355  0.0410  0.3406
 8016SOL    HW135510   2.349   0.818  11.897 -1.2190  0.5463  0.0268
 8016SOL    HW235511   2.318   0.680  11.938 -1.6583  0.4548  0.4629
 8017SOL     OW35512   2.227   0.349  16.278  0.3301 -0.3280 -0.2425
 8017SOL    HW135513   2.159   0.416  16.279  0.9528  0.2696  1.6427
 8017SOL    HW235514   2.230   0.319  16.369  1.7392  1.3530  0.2795
 8018SOL     OW35515   2.887   4.023   2.006 -1.0375 -0.4968  0.1229
 8018SOL    HW135516   2.854   4.044   1.919 -1.8162  0.0661  0.5517
 8018SOL    HW235517   2.914   3.932   1.993  1.2788  0.1117  0.6143
 8019SOL     OW35518   4.413   1.770   2.862 -0.2167 -0.0556  0.4235
 8019SOL    HW135519   4.331   1.781   2.814  0.8775  1.2360 -1.1408
 8019SOL    HW235520   4.378   1.782   2.950 -1.1699 -0.5655  0.1107
 8020SOL     OW35521   0.839   3.462   2.003 -0.4026 -0.4088  0.2172
 8020SOL    HW135522   0.867   3.541   1.957 -1.8218 -0.4033 -0.6348
 8020SOL    HW235523   0.855   3.491   2.093 -0.0509  2.0757 -0.6345
 8021SOL     OW35524   2.940   4.641   0.768  0.6784 -1.0008 -0.3887
 8021SOL    HW135525   2.913   4.589   0.844  0.0873 -0.7355 -0.4158
 8021SOL    HW235526   2.893   0.003   0.783  2.3444 -0.0373 -0.4056
 8022SOL     OW35527   3.054   2.363  16.976 -0.2990  0.6698 -0.1853
 8022SOL    HW135528   3.053   2.377  17.070  2.2139  1.4356 -0.2651
 8022SOL    HW235529   2.978   2.308  16.957 -0.8096  1.8726 -1.7043
 8023SOL     OW35530   2.948   3.241   0.355 -0.2282  0.0670 -0.6421
 8023SOL    HW135531   3.006   3.256   0.281  0.3868  1.2043  0.0575
 8023SOL    HW235532   2.983   3.168   0.406  0.7969 -0.1679 -1.7029
 8024SOL     OW35533   3.078   1.693   4.315  0.1821 -0.4673 -0.1745
 8024SOL    HW135534   3.173   1.683   4.316  0.1916 -0.3101  0.6355
 8024SOL    HW235535   3.060   1.727   4.227 -0.4079 -0.2749  0.0184
 8025SOL     OW35536   1.937   2.437   2.492  0.3874 -0.1016 -0.0550
 8025SOL    HW135537   2.017   2.384   2.485 -0.0716 -0.3081 -3.5015
 8025SOL    HW235538   1.878   2.364   2.511 -0.9817  0.9763 -0.1752
 8026SOL     OW35539   3.307   1.974   7.002  0.2266 -0.1333  0.2349
 8026SOL    HW135540   3.221   2.014   7.011  0.4855  0.5761 -0.4344
 8026SOL    HW235541   3.313   1.969   6.906  1.9224 -1.2649  0.3934
 8027SOL     OW35542   4.414   2.043  10.832 -0.6161 -0.7917  0.0337
 8027SOL    HW135543   4.339   2.034  10.890 -0.7689  2.3387  0.3644
 8027SOL    HW235544   4.427   2.135  10.855  2.6786 -0.1245 -4.4761
 8028SOL     OW35545   3.415   0.112   9.901  0.0781 -0.5231 -0.6272
 8028SOL    HW135546   3.326   0.112   9.866  0.0144  1.5436 -0.4723
 8028SOL    HW235547   3.418   0.018   9.916  0.4243 -0.5726 -1.0224
 8029SOL     OW35548   3.649   3.133   0.225  0.0626 -0.2626  0.3909
 8029SOL    HW135549   3.621   3.060   0.170 -0.3672 -1.2957  1.9937
 8029SOL    HW235550   3.721   3.097   0.276  1.9104  0.6434 -1.5960
 8030SOL     OW35551   2.604   1.326  10.092 -0.6784  0.4318  1.2909
 8030SOL    HW135552   2.604   1.278  10.009 -2.7227 -3.3238  3.4331
 8030SOL    HW235553   2.525   1.379  10.083 -1.4020 -0.7356  0.7005
 8031SOL     OW35554   3.652   2.726   8.740 -0.3196  0.4548 -0.2301
 8031SOL    HW135555   3.601   2.802   8.711 -0.8671  0.3424  0.4440
 8031SOL    HW235556   3.634   2.711   8.833 -3.0131 -1.3818 -1.0495
 8032SOL     OW35557   0.458   3.658  13.854  0.1788  0.2475 -0.1290
 8032SOL    HW135558   0.523   3.636  13.787 -1.5644 -2.4998 -0.9317
 8032SOL    HW235559   0.409   3.731  13.818 -2.1446 -2.0486 -1.6618
 8033SOL     OW35560   0.393   0.124   3.052  0.3686 -0.4881 -0.2676
 8033SOL    HW135561   0.436   0.140   3.136 -1.5846 -0.1056  0.6486
 8033SOL    HW235562   0.341   0.203   3.038 -2.0788 -2.1754 -0.5897
 8034SOL     OW35563   0.998   2.188  12.616 -0.3979 -0.9093 -0.3553
 8034SOL    HW135564   0.990   2.266  12.562  1.0729  1.1563  2.4178
 8034SOL    HW235565   1.093   2.180  12.626 -0.3399 -1.0159 -1.0255
 8035SOL     OW35566   1.410   0.131   4.676  0.4415  0.1538  0.5514
 8035SOL    HW135567   1.466   0.142   4.753  0.8104  3.8923 -0.2739
 8035SOL    HW235568   1.465   0.068   4.631 -0.4849  0.2189 -0.6597
 8036SOL     OW35569   4.529   2.807  17.270  0.7336  0.3186 -0.2225
 8036SOL    HW135570   4.621   2.833  17.260  0.9201 -0.5623 -0.8481
 8036SOL    HW235571   4.511   2.765  17.186 -0.0613 -0.5635  0.3952
 8037SOL     OW35572   2.603   1.995   5.195  0.1104  0.3406 -0.3151
 8037SOL    HW135573   2.549   1.983   5.117  0.9404 -1.3077 -0.6300
 8037SOL    HW235574   2.604   2.090   5.189 -2.6303  0.4550  1.0881
 8038SOL     OW35575   2.121   1.527   4.984 -0.1108  0.5528  0.3887
 8038SOL    HW135576   2.147   1.487   4.901  0.6881  0.7724  0.5428
 8038SOL    HW235577   2.127   1.457   5.048  1.3950 -0.0525 -0.4294
 8039SOL     OW35578   2.791   2.008   6.767  0.4716  0.1394 -0.6526
 8039SOL    HW135579   2.788   1.913   6.762 -0.4228  0.0660  1.6263
 8039SOL    HW235580   2.697   2.025   6.768  0.3833 -0.3735 -0.3380
 8040SOL     OW35581   1.791   0.985   1.212  1.1839  0.2362  0.3832
 8040SOL    HW135582   1.719   1.033   1.253 -2.0580 -1.1518 -3.6228
 8040SOL    HW235583   1.749   0.958   1.130  1.3829  0.5428  0.1780
 8041SOL     OW35584   2.010   4.581   8.437  0.0829 -0.1429 -0.2427
 8041SOL    HW135585   1.937   4.631   8.473 -1.0635 -2.0871  0.1341
 8041SOL    HW235586   2.017   4.618   8.349 -0.6992  2.8601  0.9933
 8042SOL     OW35587   2.639   0.380  16.801  0.3389  0.0769 -0.6736
 8042SOL    HW135588   2.555   0.361  16.842  0.9124  1.9855  1.4030
 8042SOL    HW235589   2.627   0.309  16.738  0.5103 -0.9566  0.4641
 8043SOL     OW35590   1.130   0.754   2.667  0.6098 -0.1303  0.2287
 8043SOL    HW135591   1.161   0.674   2.624  0.9333  1.3986 -2.3855
 8043SOL    HW235592   1.140   0.719   2.755 -2.0721 -1.8692 -0.1653
 8044SOL     OW35593   3.920   2.280   7.490  0.2156  0.1557  0.6877
 8044SOL    HW135594   3.900   2.203   7.543  0.4479 -0.0247  0.5111
 8044SOL    HW235595   3.881   2.353   7.538 -0.4939 -1.4160  2.4929
 8045SOL     OW35596   3.410   4.029   4.126 -0.2495  0.1733 -0.1663
 8045SOL    HW135597   3.429   3.987   4.210  0.4590  1.3526  0.2685
 8045SOL    HW235598   3.452   4.114   4.136  1.4945 -0.7610  0.5255
 8046SOL     OW35599   0.766   4.665   5.137  0.1866 -0.2650 -0.3081
 8046SOL    HW135600   0.685   4.615   5.125  1.1476 -1.4235 -2.1182
 8046SOL    HW235601   0.767   4.665   5.233 -4.1078  0.7981 -0.2921
 8047SOL     OW35602   2.282   0.861   7.911 -0.1340 -0.6116 -0.4340
 8047SOL    HW135603   2.257   0.952   7.896  2.9852  0.5282  1.2299
 8047SOL    HW235604   2.199   0.829   7.946 -0.8385  1.9528  0.2760
 8048SOL     OW35605   0.460   2.247   6.727  0.7705  0.2542  0.2899
 8048SOL    HW135606   0.396   2.251   6.798 -0.5357  1.8101 -0.9962
 8048SOL    HW235607   0.519   2.312   6.765  1.1318 -0.0436  0.2345
 8049SOL     OW35608   2.761   1.440   1.274  0.1024 -0.3256  0.8266
 8049SOL    HW135609   2.830   1.435   1.208 -0.1123  0.4889  0.5447
 8049SOL    HW235610   2.693   1.393   1.226  0.4469  1.1909 -1.1200
 8050SOL     OW35611   2.772   3.045   9.276 -0.1514  0.4477  0.5635
 8050SOL    HW135612   2.779   3.110   9.346  0.2847 -0.7248  1.5923
 8050SOL    HW235613   2.850   3.083   9.235  0.1941 -2.1712 -1.2459
 8051SOL     OW35614   1.211   3.015   2.439 -0.4732 -0.1229  0.8820
 8051SOL    HW135615   1.244   2.986   2.354 -0.7634 -0.3658  0.8506
 8051SOL    HW235616   1.233   2.938   2.491  1.7090  0.3231  0.5928
 8052SOL     OW35617   1.643   4.249   6.742 -0.1841  0.4852  0.0398
 8052SOL    HW135618   1.638   4.228   6.835  0.1959 -0.4859 -0.1557
 8052SOL    HW235619   1.735   4.238   6.717 -0.7111 -2.4084 -0.6429
 8053SOL     OW35620   2.783   4.173   2.567  0.5768  0.0200  1.0723
 8053SOL    HW135621   2.847   4.103   2.576  0.4174 -0.1794  0.6706
 8053SOL    HW235622   2.832   4.243   2.611  0.0276  0.2768  1.2777
 8054SOL     OW35623   3.402   3.044   4.800 -0.4125  0.0361 -0.0857
 8054SOL    HW135624   3.434   3.124   4.757 -0.4226 -1.4089 -2.8240
 8054SOL    HW235625   3.483   2.996   4.817 -1.0862 -0.9972  0.2110
 8055SOL     OW35626   3.313   4.522  13.430  0.0334  0.2150  0.9158
 8055SOL    HW135627   3.367   4.558  13.499 -0.5024  1.4071  0.7154
 8055SOL    HW235628   3.274   4.447  13.476  2.3059 -0.1232  2.2871
 8056SOL     OW35629   2.713   4.325   6.532 -0.1066 -0.1345  0.0708
 8056SOL    HW135630   2.787   4.356   6.584 -0.8130 -1.1923  1.6975
 8056SOL    HW235631   2.747   4.328   6.443  1.7274 -2.0252  0.7143
 8057SOL     OW35632   0.906   4.255   1.116  0.4822 -0.4202  0.0452
 8057SOL    HW135633   0.941   4.170   1.144  0.9612 -0.4358 -0.6084
 8057SOL    HW235634   0.940   4.322   1.176  2.1901 -0.9886 -0.2877
 8058SOL     OW35635   4.219   0.262   5.072 -0.0839 -0.4455  0.3258
 8058SOL    HW135636   4.183   0.295   4.989  1.0924  0.5023  0.2044
 8058SOL    HW235637   4.313   0.277   5.068 -0.1630  0.3258  1.6178
 8059SOL     OW35638   1.648   0.675   4.484  0.0089  0.0353 -0.3885
 8059SOL    HW135639   1.586   0.705   4.551 -1.3516  0.9690 -2.0711
 8059SOL    HW235640   1.640   0.580   4.491  1.8925 -0.2506 -2.4996
 8060SOL     OW35641   0.683   4.095   4.593 -0.5842  0.8713 -0.1222
 8060SOL    HW135642   0.736   4.174   4.593  0.8938 -0.1248 -0.0554
 8060SOL    HW235643   0.705   4.066   4.504 -1.0994  0.0792  0.0040
 8061SOL     OW35644   2.280   0.735   4.631 -0.6868 -0.0886  0.6281
 8061SOL    HW135645   2.204   0.677   4.628 -0.5237 -0.4359  2.9172
 8061SOL    HW235646   2.248   0.787   4.558 -0.4048 -0.5346  0.1875
 8062SOL     OW35647   1.321   2.156   5.879  0.0844  0.0302 -0.0357
 8062SOL    HW135648   1.282   2.240   5.855  1.1651  0.7647  0.7927
 8062SOL    HW235649   1.392   2.160   5.815  0.0287 -1.9381 -0.2467
 8063SOL     OW35650   4.220   1.483   4.053 -0.6187  0.4068  0.0998
 8063SOL    HW135651   4.147   1.439   4.098  0.7078 -0.8437  1.0572
 8063SOL    HW235652   4.271   1.408   4.020  0.1510  1.3996 -0.9565
 8064SOL     OW35653   4.442   3.034   3.487 -0.2375 -0.2217  0.2044
 8064SOL    HW135654   4.436   2.941   3.507 -0.2393  0.3015  2.7436
 8064SOL    HW235655   4.386   3.039   3.409 -0.2242 -0.1426  0.1997
 8065SOL     OW35656   1.257   2.185   2.514  0.2767 -0.3334 -0.1684
 8065SOL    HW135657   1.320   2.207   2.583 -1.4906  1.0625  1.0359
 8065SOL    HW235658   1.231   2.276   2.497  1.6713  0.1741  0.4346
 8066SOL     OW35659   0.824   3.480  11.249 -0.6731 -0.3012  0.8699
 8066SOL    HW135660   0.870   3.511  11.170  1.3032 -0.2085  2.0531
 8066SOL    HW235661   0.874   3.519  11.321 -0.8569  1.5871  0.0004
 8067SOL     OW35662   4.121   0.879   9.484  0.9265 -0.3051 -0.2597
 8067SOL    HW135663   4.198   0.842   9.440  1.0567  0.6475 -0.8205
 8067SOL    HW235664   4.135   0.858   9.576 -1.1456  0.8739  0.3202
 8068SOL     OW35665   0.997   1.947  12.260 -0.7381  0.0463 -0.2853
 8068SOL    HW135666   1.078   1.944  12.207 -0.4377  1.5133  0.0961
 8068SOL    HW235667   1.030   1.970  12.347  0.2696 -0.5593 -0.5025
 8069SOL     OW35668   2.106   3.755   3.174 -0.6218  0.6172  0.3442
 8069SOL    HW135669   2.056   3.804   3.107  1.8876 -1.5547 -3.1150
 8069SOL    HW235670   2.180   3.737   3.116 -1.4556 -2.2539  0.1819
 8070SOL     OW35671   4.400   4.467  11.218 -0.3483 -0.1446 -0.5944
 8070SOL    HW135672   4.396   4.372  11.208 -1.2682 -0.0264 -1.3178
 8070SOL    HW235673   4.315   4.498  11.188 -0.9485  2.3093  3.6377
 8071SOL     OW35674   0.796   1.151   2.126  0.1814 -0.0416 -0.1949
 8071SOL    HW135675   0.714   1.104   2.111 -0.1046  0.6610 -0.8254
 8071SOL    HW235676   0.798   1.164   2.221 -2.3374  0.8603 -0.2583
 8072SOL     OW35677   4.463   3.361   7.382  0.3857 -0.3510  0.0945
 8072SOL    HW135678   4.482   3.303   7.308 -1.8741  2.0545 -2.3691
 8072SOL    HW235679   4.489   3.304   7.455 -0.6122 -1.3701 -0.3588
 8073SOL     OW35680   3.531   1.295   7.579  0.1437 -0.8764 -0.1605
 8073SOL    HW135681   3.535   1.252   7.494  0.3071  0.8491 -1.0294
 8073SOL    HW235682   3.565   1.384   7.567  1.4127 -1.5409 -1.6186
 8074SOL     OW35683   2.909   4.448   3.362 -0.3307  0.1354 -0.1464
 8074SOL    HW135684   2.855   4.427   3.286 -0.7374 -1.6518  0.6354
 8074SOL    HW235685   2.895   4.542   3.351  1.0173  0.6484  2.8039
 8075SOL     OW35686   0.226   3.671   7.270  0.0020  0.3362 -0.0526
 8075SOL    HW135687   0.144   3.644   7.310  0.0443  0.6165  0.2273
 8075SOL    HW235688   0.245   3.589   7.226 -2.1704  0.0165 -0.3919
 8076SOL     OW35689   3.259   3.051   4.431 -0.4143  0.1745 -0.1371
 8076SOL    HW135690   3.205   3.067   4.354 -1.9077 -1.7925  0.4984
 8076SOL    HW235691   3.202   3.011   4.497  0.8628 -1.9906 -0.3235
 8077SOL     OW35692   2.409   2.779   4.651  0.4268  0.0464  0.1320
 8077SOL    HW135693   2.364   2.759   4.569 -0.8334 -0.4662  0.9456
 8077SOL    HW235694   2.488   2.725   4.645  0.4846  0.1505 -0.0297
 8078SOL     OW35695   2.924   1.531   7.490  0.1281 -0.3867 -0.0907
 8078SOL    HW135696   2.909   1.598   7.423 -0.9034 -0.2058  0.3180
 8078SOL    HW235697   2.940   1.456   7.434 -2.9981  0.7072 -2.4140
 8079SOL     OW35698   3.748   0.363   6.862 -0.0526 -0.2599 -0.3113
 8079SOL    HW135699   3.832   0.331   6.829 -0.4693 -1.9125  0.2507
 8079SOL    HW235700   3.698   0.340   6.784 -1.7245 -1.7079  1.1864
 8080SOL     OW35701   1.939   4.025   8.102 -0.0460  0.2159 -0.0759
 8080SOL    HW135702   1.971   4.062   8.184 -0.3172  0.5906 -0.1398
 8080SOL    HW235703   1.860   4.076   8.084 -0.5376 -0.5664 -0.1802
 8081SOL     OW35704   2.970   3.467   8.011  0.2297 -0.3059 -0.1164
 8081SOL    HW135705   2.920   3.543   8.039 -1.8422 -1.6530 -0.1114
 8081SOL    HW235706   2.993   3.424   8.093  2.5615  0.0897 -0.5817
 8082SOL     OW35707   1.180   1.018   5.330  0.6049  0.1095 -0.0046
 8082SOL    HW135708   1.202   1.051   5.243  1.0836 -1.5867 -0.5346
 8082SOL    HW235709   1.266   1.009   5.373  0.1173  2.5310  1.4730
 8083SOL     OW35710   2.432   3.548   5.117 -0.1268 -0.0801  0.3259
 8083SOL    HW135711   2.515   3.550   5.069 -0.9693 -0.6213 -1.1520
 8083SOL    HW235712   2.449   3.476   5.178  0.6483 -0.2018 -0.0296
 8084SOL     OW35713   4.660   1.425  11.751  0.1589 -0.3687  0.1641
 8084SOL    HW135714   4.580   1.437  11.700 -1.2693 -0.4009  2.3980
 8084SOL    HW235715   4.686   1.516  11.766 -0.8544 -0.7117  4.0520
 8085SOL     OW35716   1.067   4.623   2.899 -0.1871 -0.1795  0.4625
 8085SOL    HW135717   1.123   4.574   2.839 -1.3897  1.3470 -1.9423
 8085SOL    HW235718   1.015   4.679   2.841 -0.1899 -0.2406  0.4061
 8086SOL     OW35719   0.029   1.588   9.040  0.6429 -0.4663  0.7578
 8086SOL    HW135720   0.053   1.678   9.017  1.8222 -1.3715 -1.6561
 8086SOL    HW235721   0.033   1.545   8.954  1.5249  0.9215  0.1081
 8087SOL     OW35722   2.664   1.603   4.947  0.0673  0.0525 -0.1394
 8087SOL    HW135723   2.622   1.639   5.025 -0.4536  3.4036 -1.9701
 8087SOL    HW235724   2.706   1.525   4.984 -1.5487  0.0057  1.5670
 8088SOL     OW35725   3.707   4.274   2.938  0.3631  0.4114  0.2638
 8088SOL    HW135726   3.683   4.366   2.939  1.0447  0.6644 -3.7081
 8088SOL    HW235727   3.800   4.275   2.961  0.9629  1.2580 -2.1675
 8089SOL     OW35728   3.018   4.635  14.441  0.0943  0.3195 -0.3165
 8089SOL    HW135729   3.018   4.636  14.537 -0.9055  0.7037 -0.3156
 8089SOL    HW235730   2.938   4.686  14.426 -0.7038 -1.0893 -0.9805
 8090SOL     OW35731   4.261   3.687   7.247 -0.1536  0.2014  0.0611
 8090SOL    HW135732   4.190   3.677   7.310 -1.0366  0.5855 -0.8611
 8090SOL    HW235733   4.332   3.675   7.310 -1.6701  1.1655  1.9396
 8091SOL     OW35734   1.553   0.852   9.037  0.0594  0.4749  0.3212
 8091SOL    HW135735   1.483   0.899   9.081  0.6650  0.4902  1.2569
 8091SOL    HW235736   1.535   0.844   8.943  0.7314  0.4239  0.1984
 8092SOL     OW35737   2.330   1.357   3.490 -0.4666  0.5832  0.2211
 8092SOL    HW135738   2.389   1.362   3.565  0.1781  2.5046 -0.4148
 8092SOL    HW235739   2.288   1.443   3.490  0.2446  0.9329 -0.1507
 8093SOL     OW35740   1.145   0.674  10.111 -0.1140 -0.0582 -0.1571
 8093SOL    HW135741   1.086   0.600  10.127 -1.1248  1.2629  2.0873
 8093SOL    HW235742   1.229   0.648  10.150  0.9467 -0.4447 -2.6894
 8094SOL     OW35743   4.712   1.434   6.938 -0.1207  0.4236 -0.2896
 8094SOL    HW135744   0.009   1.488   7.016  1.8758 -1.4257  0.5487
 8094SOL    HW235745   0.017   1.485   6.861 -2.3199  0.5548 -0.9343
 8095SOL     OW35746   1.884   3.687   7.782  0.6122 -0.1512  0.3758
 8095SOL    HW135747   1.914   3.600   7.755 -1.8319 -0.8425 -0.0691
 8095SOL    HW235748   1.862   3.724   7.697  2.1053  0.4646  0.2690
 8096SOL     OW35749   2.558   3.938   4.598  0.0908 -0.6777 -0.3701
 8096SOL    HW135750   2.516   3.940   4.512  0.5985 -1.7287 -0.6500
 8096SOL    HW235751   2.570   4.032   4.614  0.4339 -0.4774 -1.7980
 8097SOL     OW35752   3.530   4.093   2.372  0.0997  0.2106  0.1552
 8097SOL    HW135753   3.549   4.125   2.283  0.3870  0.2319  0.2247
 8097SOL    HW235754   3.571   4.160   2.427 -1.4785 -0.8743  2.6064
 8098SOL     OW35755   2.997   1.454   4.688 -0.1797  0.0011  0.4183
 8098SOL    HW135756   2.905   1.429   4.681 -0.1347  0.1498 -0.7478
 8098SOL    HW235757   2.995   1.549   4.674  0.1607  0.1594  1.4437
 8099SOL     OW35758   0.529   1.373   9.816 -0.1596  0.1547 -0.0772
 8099SOL    HW135759   0.554   1.317   9.742 -0.0165  0.7976 -0.5114
 8099SOL    HW235760   0.592   1.445   9.808  1.2049 -1.1785 -1.3460
 8100SOL     OW35761   2.565   3.884  17.674 -0.2675 -0.0302  0.1028
 8100SOL    HW135762   2.484   3.933  17.662  0.0433  0.5268  0.2948
 8100SOL    HW235763   2.563   3.868   0.084  0.0269  2.8216  0.5792
 8101SOL     OW35764   1.895   0.289   4.486 -0.5104  0.1952 -0.0061
 8101SOL    HW135765   1.903   0.376   4.447 -2.0425  0.7325  0.8966
 8101SOL    HW235766   1.988   0.264   4.482 -0.2164  0.9880  1.6483
 8102SOL     OW35767   0.670   2.475  13.228 -0.0213  0.7152 -0.5298
 8102SOL    HW135768   0.684   2.534  13.154  0.6839 -0.6950 -1.5180
 8102SOL    HW235769   0.673   2.389  13.186  1.6843 -0.1015  1.2945
 8103SOL     OW35770   4.692   3.112   3.851 -0.1293  0.3188  0.8411
 8103SOL    HW135771   4.636   3.036   3.838  0.2011  0.2118  0.0574
 8103SOL    HW235772   0.054   3.081   3.887  0.9264  1.1129 -0.8704
 8104SOL     OW35773   3.799   0.701   3.103  0.9737 -0.5076 -0.2536
 8104SOL    HW135774   3.736   0.713   3.174  0.1465  1.1563 -1.2728
 8104SOL    HW235775   3.833   0.790   3.094  1.0830 -0.4638  0.5891
 8105SOL     OW35776   2.290   4.113   3.674  0.2130 -1.1507 -0.2973
 8105SOL    HW135777   2.286   4.146   3.585 -0.2349  3.0964  1.2816
 8105SOL    HW235778   2.330   4.027   3.662  0.5093 -1.1061  0.3417
 8106SOL     OW35779   3.226   4.072   5.305 -0.6469  0.2005  0.0548
 8106SOL    HW135780   3.177   4.028   5.375  0.4202  0.0692  0.7191
 8106SOL    HW235781   3.175   4.052   5.227  1.4542  0.2934 -1.3330
 8107SOL     OW35782   1.303   2.146   3.599 -0.1706 -0.2532  0.1239
 8107SOL    HW135783   1.268   2.142   3.510  0.3560  0.7569 -0.1221
 8107SOL    HW235784   1.222   2.125   3.645 -0.8213  1.0830 -0.4292
 8108SOL     OW35785   4.598   0.689   5.084 -0.0407 -0.3485 -0.4419
 8108SOL    HW135786   4.575   0.779   5.109  0.7320 -0.1644 -0.3940
 8108SOL    HW235787   4.527   0.641   5.128  0.3140 -0.5470 -0.0813
 8109SOL     OW35788   2.515   2.599  16.814  0.1633  0.2901 -0.4350
 8109SOL    HW135789   2.438   2.542  16.803  1.5345 -1.4862 -0.8493
 8109SOL    HW235790   2.475   2.671  16.863 -0.5120 -0.8942  0.7846
 8110SOL     OW35791   1.149   4.384   6.746 -0.1423  0.4739  0.2132
 8110SOL    HW135792   1.171   4.443   6.674 -0.3044 -0.5311 -0.6632
 8110SOL    HW235793   1.197   4.304   6.723  0.4958  1.7143 -2.7593
 8111SOL     OW35794   3.670   1.352   0.157  0.5121  0.6232  0.0485
 8111SOL    HW135795   3.617   1.283   0.119 -2.8014  2.5595  1.1992
 8111SOL    HW235796   3.630   1.432   0.124  0.4055  0.1071 -1.0582
 8112SOL     OW35797   4.036   1.042  16.395  0.8383  0.1305  0.4971
 8112SOL    HW135798   4.030   1.137  16.395  0.1361  0.0857  0.6556
 8112SOL    HW235799   4.118   1.031  16.348  1.6758  0.6041  1.8498
 8113SOL     OW35800   1.437   2.150   8.991  0.3394 -0.1047  0.0351
 8113SOL    HW135801   1.498   2.213   8.951  0.3621  0.2567  0.6361
 8113SOL    HW235802   1.395   2.209   9.053  1.1509  1.9259 -1.3208
 8114SOL     OW35803   3.127   0.286   7.394 -0.2930  0.5115 -0.2154
 8114SOL    HW135804   3.078   0.357   7.437 -1.2340  0.9379 -1.9779
 8114SOL    HW235805   3.168   0.253   7.473 -1.3449  0.2867  0.2356
 8115SOL     OW35806   0.153   1.169  13.090 -0.5456 -0.0368  0.0353
 8115SOL    HW135807   0.080   1.218  13.054  2.1418  1.0757 -3.8154
 8115SOL    HW235808   0.146   1.082  13.051 -0.0190 -0.1007  0.0842
 8116SOL     OW35809   0.384   3.943   3.841  0.0105  0.1032 -0.4322
 8116SOL    HW135810   0.447   3.974   3.776  1.6597  1.1988  1.6611
 8116SOL    HW235811   0.444   3.915   3.910 -0.5484 -0.2306 -0.0831
 8117SOL     OW35812   2.560   4.351   9.924  0.1524  0.1977 -0.3502
 8117SOL    HW135813   2.471   4.383   9.914  0.9081  3.2219  2.3672
 8117SOL    HW235814   2.570   4.390  10.011 -1.4568 -0.5722  0.1657
 8118SOL     OW35815   2.035   3.075  11.924 -0.2947  0.0769 -0.0759
 8118SOL    HW135816   1.994   3.160  11.919 -1.0714 -0.3408 -0.7091
 8118SOL    HW235817   2.118   3.094  11.880  0.9778  0.9537  2.6896
 8119SOL     OW35818   1.141   1.739   9.783  0.3607  0.3168  0.4177
 8119SOL    HW135819   1.221   1.697   9.812  1.4051  1.4203 -0.8593
 8119SOL    HW235820   1.080   1.693   9.840 -0.3803  1.1544  0.3081
 8120SOL     OW35821   2.120   1.509  16.730 -0.5943 -0.1425  0.0964
 8120SOL    HW135822   2.102   1.520  16.636 -2.0985  0.3902  0.4547
 8120SOL    HW235823   2.037   1.470  16.758 -0.8423 -0.7430 -1.4491
 8121SOL     OW35824   3.972   4.473   6.642  0.1044  0.1267 -0.0868
 8121SOL    HW135825   3.920   4.541   6.600  0.2053  0.7715  0.8205
 8121SOL    HW235826   4.014   4.426   6.570 -0.1199  0.2912 -0.3274
 8122SOL     OW35827   2.950   0.175   8.145  0.1101 -0.3159 -0.0690
 8122SOL    HW135828   2.879   0.182   8.209 -0.3973 -1.7546 -0.4724
 8122SOL    HW235829   2.993   0.260   8.154 -1.8057  0.5666  0.8975
 8123SOL     OW35830   3.229   2.790   0.530  0.9462 -0.1071 -0.0480
 8123SOL    HW135831   3.227   2.716   0.469 -1.9497 -1.3482  1.5757
 8123SOL    HW235832   3.321   2.781   0.555  0.0940 -1.1988  2.7060
 8124SOL     OW35833   0.216   3.711   2.996  0.5251 -0.1643 -0.1275
 8124SOL    HW135834   0.302   3.736   3.030  1.3108 -1.0797 -1.4040
 8124SOL    HW235835   0.189   3.636   3.048 -2.2706  1.2162  0.3744
 8125SOL     OW35836   1.978   3.618   2.473 -0.1617 -0.1870 -0.7651
 8125SOL    HW135837   2.049   3.586   2.418 -1.5030  2.6073 -4.1175
 8125SOL    HW235838   2.019   3.605   2.559  0.0547 -0.5077 -0.9178
 8126SOL     OW35839   2.355   2.799   9.713  0.0867  0.0342 -0.1745
 8126SOL    HW135840   2.318   2.737   9.776 -2.4174  0.6894 -0.9808
 8126SOL    HW235841   2.377   2.874   9.768  1.7865  1.2507 -2.5044
 8127SOL     OW35842   0.517   1.210  16.576 -0.3733  0.0593 -0.0262
 8127SOL    HW135843   0.477   1.199  16.489  0.2579  0.6641 -0.3934
 8127SOL    HW235844   0.441   1.175  16.623  0.1237 -0.1075  0.6589
 8128SOL     OW35845   4.426   2.526   4.814 -0.1560 -0.2797  0.1177
 8128SOL    HW135846   4.333   2.514   4.834 -0.3658 -0.0646 -0.7361
 8128SOL    HW235847   4.465   2.439   4.825 -0.0034 -0.4258 -1.6574
 8129SOL     OW35848   2.414   2.414  10.181  0.5059 -0.3768  0.5871
 8129SOL    HW135849   2.481   2.455  10.237  1.5245 -1.0088 -0.1691
 8129SOL    HW235850   2.374   2.348  10.238 -1.9765  1.0323  0.4787
 8130SOL     OW35851   4.710   1.788   2.961 -0.0214 -0.0521  0.9155
 8130SOL    HW135852   4.624   1.772   2.922  1.1460  0.4296 -1.9149
 8130SOL    HW235853   4.698   1.740   3.043 -1.5644  0.5944  1.0500
 8131SOL     OW35854   1.055   2.739   3.552 -0.0677  0.2946  0.2081
 8131SOL    HW135855   1.027   2.815   3.501 -0.7705  0.1199  0.3304
 8131SOL    HW235856   1.122   2.779   3.608  2.3166  0.6874 -2.9450
 8132SOL     OW35857   0.991   2.741   0.367 -0.5199 -0.2448 -0.2035
 8132SOL    HW135858   0.896   2.733   0.367 -0.3939 -1.8449  1.5662
 8132SOL    HW235859   1.011   2.788   0.448 -0.6702 -1.7833  0.7261
 8133SOL     OW35860   4.686   3.658   5.248  0.0414  0.0866  0.5832
 8133SOL    HW135861   4.613   3.669   5.188 -0.1479  0.1725  0.8307
 8133SOL    HW235862   4.683   3.564   5.268 -2.1914  0.2836  1.1067
 8134SOL     OW35863   4.094   4.165   5.079 -0.1109 -0.0506 -0.2875
 8134SOL    HW135864   4.050   4.249   5.092 -1.7960 -0.9105 -0.3130
 8134SOL    HW235865   4.184   4.191   5.064  0.3465 -1.7285 -0.4419
 8135SOL     OW35866   3.596   1.876   2.715 -0.4584 -0.1017 -0.4475
 8135SOL    HW135867   3.592   1.799   2.659  1.7222 -1.7085  1.5893
 8135SOL    HW235868   3.585   1.838   2.802 -1.0789 -1.2680 -1.0491
 8136SOL     OW35869   1.308   1.006   5.080  0.5351 -0.0307  0.2031
 8136SOL    HW135870   1.305   0.910   5.074  0.0358 -0.1349  2.0372
 8136SOL    HW235871   1.301   1.031   4.988  1.9120  0.9554  0.3720
 8137SOL     OW35872   4.313   1.348  10.132  0.0739  0.2673 -0.1053
 8137SOL    HW135873   4.359   1.427  10.106  0.8436 -0.5448 -1.1975
 8137SOL    HW235874   4.363   1.321  10.209  0.0157 -0.6907 -0.4019
 8138SOL     OW35875   2.675   2.475  17.184  0.4180  0.5911  0.3112
 8138SOL    HW135876   2.691   2.424  17.105 -2.3023  1.3745 -0.7294
 8138SOL    HW235877   2.583   2.454  17.200 -0.4443  3.7182 -0.3993
 8139SOL     OW35878   1.146   1.620   4.385  0.0844  0.0048  0.3650
 8139SOL    HW135879   1.175   1.610   4.295 -0.5539 -0.8506  0.2592
 8139SOL    HW235880   1.215   1.575   4.434  1.2344  1.4977  0.1360
 8140SOL     OW35881   4.426   0.076   6.859  0.2878 -0.4327 -0.2668
 8140SOL    HW135882   4.435   0.165   6.893  0.9395 -0.1656 -1.1458
 8140SOL    HW235883   4.519   0.057   6.866  0.4259 -0.2512 -1.4783
 8141SOL     OW35884   0.109   2.237   0.469 -0.1084 -0.3836 -0.1623
 8141SOL    HW135885   0.164   2.238   0.391  0.0006 -0.5362 -0.0881
 8141SOL    HW235886   0.042   2.176   0.439 -1.1541  0.0502  1.2708
 8142SOL     OW35887   3.767   3.446  15.695 -0.2371 -0.2530  0.6435
 8142SOL    HW135888   3.830   3.422  15.763  1.8100  2.4954 -0.2650
 8142SOL    HW235889   3.697   3.390  15.728  0.2562 -1.9400 -1.2014
 8143SOL     OW35890   0.152   1.989   6.240  0.3647 -0.1706  0.3565
 8143SOL    HW135891   0.200   2.067   6.214  0.1772 -0.0292  0.4350
 8143SOL    HW235892   0.063   2.020   6.228  0.1486 -0.9420 -0.0403
 8144SOL     OW35893   0.086   4.422   5.953 -0.1435  0.4238 -0.2802
 8144SOL    HW135894   0.128   4.336   5.949  0.6078  0.8428 -1.6442
 8144SOL    HW235895   0.069   4.427   6.047  0.7305 -0.8629 -0.0596
 8145SOL     OW35896   4.151   1.489  14.953 -0.6683  0.3006 -0.4422
 8145SOL    HW135897   4.161   1.488  14.857 -1.4069 -1.7994 -0.5025
 8145SOL    HW235898   4.198   1.571  14.965  0.6062 -0.6633  1.2331
 8146SOL     OW35899   4.120   4.279  12.224 -0.7804  0.4392  0.3721
 8146SOL    HW135900   4.109   4.184  12.226  1.9925  0.1822  2.0097
 8146SOL    HW235901   4.164   4.291  12.140 -0.5414  0.1574  0.4598
 8147SOL     OW35902   1.843   1.318   6.564 -0.1155 -0.3752  0.3836
 8147SOL    HW135903   1.797   1.373   6.500 -1.5608 -1.3854  0.5553
 8147SOL    HW235904   1.909   1.376   6.601 -0.0012 -0.2369 -0.0361
 8148SOL     OW35905   2.943   1.005   5.890  0.1789 -0.0559 -0.2447
 8148SOL    HW135906   2.891   1.074   5.848  0.0444  1.6823  2.8117
 8148SOL    HW235907   2.980   0.973   5.807  4.6051  0.3901  1.5605
 8149SOL     OW35908   2.734   2.801   2.164  0.3793  0.2628  0.2006
 8149SOL    HW135909   2.650   2.814   2.121  0.4163 -0.7444 -0.1841
 8149SOL    HW235910   2.759   2.714   2.134  0.5875  0.6652 -0.7725
 8150SOL     OW35911   1.045   0.082  16.696  0.3622 -0.0931  0.2848
 8150SOL    HW135912   1.126   0.071  16.646  1.0760  1.0639  1.1808
 8150SOL    HW235913   1.090   0.110  16.775  0.7920 -0.1266  0.0532
 8151SOL     OW35914   1.520   1.240   0.976  0.7286  0.3758  0.0981
 8151SOL    HW135915   1.599   1.255   0.923  2.1401 -0.1651  2.0217
 8151SOL    HW235916   1.450   1.252   0.913 -1.5931 -0.7831  2.4702
 8152SOL     OW35917   2.556   3.244  12.641  0.1682 -0.3798 -0.2699
 8152SOL    HW135918   2.632   3.187  12.638  0.4976  0.0218  0.2561
 8152SOL    HW235919   2.496   3.194  12.586 -0.6777 -1.6727  1.8238
 8153SOL     OW35920   3.627   2.894   4.871 -0.4398  0.1551 -0.2551
 8153SOL    HW135921   3.643   2.918   4.780 -1.3629  0.9317 -0.2211
 8153SOL    HW235922   3.668   2.970   4.914 -0.7479  0.4601 -0.4982
 8154SOL     OW35923   3.712   1.944   9.031 -0.0134  0.0662 -0.1917
 8154SOL    HW135924   3.720   2.039   9.040 -0.1835 -0.0675  1.3330
 8154SOL    HW235925   3.755   1.935   8.946 -0.5380 -0.0471 -0.4466
 8155SOL     OW35926   3.664   1.516   7.444  0.0152 -0.2479 -0.1160
 8155SOL    HW135927   3.636   1.568   7.369 -0.5795  0.9334  0.9214
 8155SOL    HW235928   3.757   1.500   7.426  0.5948  1.0577  1.7511
 8156SOL     OW35929   1.108   0.870   1.858 -0.1886 -0.1926  0.5053
 8156SOL    HW135930   1.076   0.959   1.868 -0.8387 -0.3362 -0.2189
 8156SOL    HW235931   1.118   0.837   1.947  1.6665 -0.7708  0.0796
 8157SOL     OW35932   3.317   4.012   9.493  0.2528  0.5554  0.1801
 8157SOL    HW135933   3.227   4.043   9.481  0.2356  1.0250  1.4891
 8157SOL    HW235934   3.363   4.096   9.487 -0.3812  1.0367  1.8379
 8158SOL     OW35935   0.818   3.391   0.654 -0.8940  0.3295  0.4496
 8158SOL    HW135936   0.897   3.442   0.673  0.1436 -1.5944  1.3034
 8158SOL    HW235937   0.792   3.436   0.573 -1.2768  1.0047  0.9512
 8159SOL     OW35938   0.586   4.321  11.338 -0.0667 -0.0956  0.7255
 8159SOL    HW135939   0.630   4.261  11.398  2.8158 -0.4839 -1.7517
 8159SOL    HW235940   0.497   4.323  11.373 -0.6734  1.8812 -0.9067
 8160SOL     OW35941   0.339   1.503   3.802 -0.2988 -0.8761 -0.6025
 8160SOL    HW135942   0.359   1.476   3.712  2.7143  1.4414 -0.6131
 8160SOL    HW235943   0.419   1.494   3.853 -0.8749 -0.0774  0.4333
 8161SOL     OW35944   2.901   3.730  17.382 -0.0418  0.2552  0.2113
 8161SOL    HW135945   2.870   3.808  17.428  0.8556  0.4304  0.5120
 8161SOL    HW235946   2.846   3.667  17.428  0.8345  0.0971  1.0311
 8162SOL     OW35947   0.237   4.528   4.927 -0.2181 -0.0214 -0.3509
 8162SOL    HW135948   0.266   4.599   4.870 -1.8438  1.5246  0.7350
 8162SOL    HW235949   0.289   4.456   4.892 -0.9262 -0.4139 -0.5983
 8163SOL     OW35950   3.284   3.030   6.600  0.4183  0.3189  0.1272
 8163SOL    HW135951   3.218   3.099   6.602  0.2101  0.1406 -0.3732
 8163SOL    HW235952   3.278   2.983   6.683  0.1272 -0.8226 -0.5360
 8164SOL     OW35953   0.735   0.400   6.016  0.1234  0.2944  0.7116
 8164SOL    HW135954   0.645   0.370   6.027  0.9338 -2.0899  0.8963
 8164SOL    HW235955   0.721   0.493   6.031 -0.3994  0.2402  0.5416
 8165SOL     OW35956   0.383   1.406  11.462  0.1866  0.1984 -0.0091
 8165SOL    HW135957   0.382   1.484  11.406  1.6786  1.2765  1.4365
 8165SOL    HW235958   0.288   1.397  11.464  0.2820 -0.4885  2.0530
 8166SOL     OW35959   3.493   2.501   6.807  0.2416  0.1851 -0.0297
 8166SOL    HW135960   3.500   2.548   6.890  1.1831 -0.7826  0.4475
 8166SOL    HW235961   3.420   2.552   6.773 -1.6209 -1.1617  1.9107
 8167SOL     OW35962   2.400   2.266   9.195  0.0791  0.0208  0.8574
 8167SOL    HW135963   2.324   2.209   9.183  0.4101 -0.8461  2.9983
 8167SOL    HW235964   2.347   2.342   9.221 -0.5060 -0.7190  1.8355
 8168SOL     OW35965   2.565   3.131   8.341 -0.1573 -0.0811 -0.2456
 8168SOL    HW135966   2.567   3.132   8.437 -1.3048  2.6319 -0.2813
 8168SOL    HW235967   2.621   3.056   8.320 -0.7319 -0.0479 -1.9171
 8169SOL     OW35968   3.168   3.224   4.815 -0.0910 -0.2171 -0.1475
 8169SOL    HW135969   3.087   3.178   4.792  1.3560 -2.7421 -0.1789
 8169SOL    HW235970   3.223   3.157   4.774  0.0328 -0.4656  0.4227
 8170SOL     OW35971   3.189   1.004  11.099  0.2082  0.3279  0.0299
 8170SOL    HW135972   3.124   1.022  11.031 -1.7826  2.2038  2.4361
 8170SOL    HW235973   3.222   1.092  11.116  0.6723 -0.1694  1.7921
 8171SOL     OW35974   0.642   0.728   1.237  0.3878 -0.2665  0.4037
 8171SOL    HW135975   0.582   0.655   1.223 -0.1443  0.3859 -0.7126
 8171SOL    HW235976   0.666   0.742   1.146  0.3310 -2.9275 -0.0326
 8172SOL     OW35977   1.251   3.346   4.252  0.0760 -0.7670  0.4202
 8172SOL    HW135978   1.240   3.437   4.225 -1.1007 -1.7912 -2.5361
 8172SOL    HW235979   1.192   3.339   4.327  0.8155 -0.8539  0.9901
 8173SOL     OW35980   3.487   3.453  11.954 -0.0774  0.0866  0.3243
 8173SOL    HW135981   3.449   3.520  11.897  1.9405  0.6925 -0.3359
 8173SOL    HW235982   3.579   3.474  11.935  0.2161  0.3645  2.0567
 8174SOL     OW35983   0.674   4.389   0.853  0.2306 -0.4238 -1.0400
 8174SOL    HW135984   0.645   4.359   0.939  1.6009  3.1664  0.6762
 8174SOL    HW235985   0.769   4.392   0.866 -0.2983  0.6375  2.5624
 8175SOL     OW35986   4.238   4.647   7.925  0.2841 -0.1493 -0.1424
 8175SOL    HW135987   4.267   4.715   7.865 -1.6743  1.6356  0.9376
 8175SOL    HW235988   4.201   4.698   7.997  0.1984 -0.0629 -0.2475
 8176SOL     OW35989   0.731   1.505  12.813  0.3716 -0.0120  0.0536
 8176SOL    HW135990   0.728   1.410  12.806 -0.4037 -0.1338  1.8487
 8176SOL    HW235991   0.771   1.513  12.900 -0.0574  1.2310  0.1348
 8177SOL     OW35992   2.074   1.717   2.302  0.2415  0.7094 -0.9748
 8177SOL    HW135993   2.000   1.681   2.254  1.2807  0.1374 -2.1556
 8177SOL    HW235994   2.038   1.728   2.390 -0.3432  3.1017 -1.5115
 8178SOL     OW35995   3.140   3.035   1.018 -0.8252 -0.5772  0.3749
 8178SOL    HW135996   3.100   3.041   1.104 -1.4376  0.1982  0.0347
 8178SOL    HW235997   3.107   2.948   0.996  1.2951 -0.6554 -2.5332
 8179SOL     OW35998   0.643   3.256   5.789 -0.1274 -0.3863 -0.4792
 8179SOL    HW135999   0.584   3.198   5.740 -1.2179  0.4082 -0.0997
 8179SOL    HW236000   0.643   3.341   5.744  1.2750 -0.1524 -0.0353
 8180SOL     OW36001   2.398   2.338  12.778 -0.4302 -0.4732 -0.4758
 8180SOL    HW136002   2.474   2.283  12.763 -0.2623 -0.3486 -0.0980
 8180SOL    HW236003   2.331   2.274  12.805 -0.4185 -0.4083 -0.2903
 8181SOL     OW36004   0.151   3.362   7.343  1.0539  0.3557  0.3081
 8181SOL    HW136005   0.076   3.358   7.283  1.6097  1.1838 -0.4324
 8181SOL    HW236006   0.169   3.271   7.367 -2.0141 -1.1104 -2.8290
 8182SOL     OW36007   0.884   0.394   4.453  0.3604 -0.0983 -0.1383
 8182SOL    HW136008   0.906   0.310   4.493 -0.7196 -0.6025 -0.6013
 8182SOL    HW236009   0.946   0.448   4.502  1.1344 -2.1913  1.1907
 8183SOL     OW36010   4.150   2.322   3.782 -0.7326  0.3051  0.0858
 8183SOL    HW136011   4.150   2.227   3.766  1.0315  0.0667  1.4566
 8183SOL    HW236012   4.125   2.325   3.875 -1.0012 -0.8846  0.0512
 8184SOL     OW36013   0.425   1.623   2.697  0.0509 -0.5561 -0.2658
 8184SOL    HW136014   0.336   1.611   2.665  0.5353 -1.4138 -1.2760
 8184SOL    HW236015   0.399   1.598   2.786  2.1367 -0.8994  0.2480
 8185SOL     OW36016   0.187   1.101   5.697  0.2922 -0.0692  0.4029
 8185SOL    HW136017   0.255   1.128   5.636 -2.0954 -0.8090 -2.6138
 8185SOL    HW236018   0.140   1.030   5.653 -1.2830  0.9371  0.4732
 8186SOL     OW36019   3.252   3.087   6.228 -0.0827  0.1610  0.5591
 8186SOL    HW136020   3.334   3.125   6.260  1.1403 -1.0700 -1.1379
 8186SOL    HW236021   3.190   3.159   6.214 -0.8228 -0.3021  1.4568
 8187SOL     OW36022   2.559   3.314   4.882 -0.2888  0.1930  0.2033
 8187SOL    HW136023   2.510   3.232   4.870  0.9386 -0.6153  0.7192
 8187SOL    HW236024   2.618   3.282   4.950 -1.2910  3.4111  2.5865
 8188SOL     OW36025   3.318   2.791  14.813 -0.0360 -0.5033 -0.4107
 8188SOL    HW136026   3.397   2.767  14.862 -0.0266  0.3967  0.0173
 8188SOL    HW236027   3.297   2.709  14.769  0.5150 -2.1698  2.4612
 8189SOL     OW36028   2.118   1.353   2.493 -0.0754 -0.1981 -0.5271
 8189SOL    HW136029   2.049   1.322   2.553  2.4891  1.1444  3.0861
 8189SOL    HW236030   2.127   1.448   2.505 -2.4068  0.1436 -1.3555
 8190SOL     OW36031   2.085   2.664   5.740  0.3744 -0.0708 -0.2944
 8190SOL    HW136032   2.086   2.573   5.711  1.4779 -0.7740  1.9152
 8190SOL    HW236033   2.180   2.677   5.749  0.7076 -1.0240 -2.3663
 8191SOL     OW36034   1.695   3.110  13.208 -0.4868 -0.3964  0.0993
 8191SOL    HW136035   1.767   3.132  13.267  0.2778  0.1169 -1.0247
 8191SOL    HW236036   1.671   3.022  13.236 -0.4330 -1.0157 -1.7876
 8192SOL     OW36037   2.064   0.608   6.545 -0.4594  0.0227 -0.6664
 8192SOL    HW136038   1.991   0.656   6.583  1.6523  0.4999  2.7065
 8192SOL    HW236039   2.038   0.601   6.452 -2.1864 -0.9852 -0.1219
 8193SOL     OW36040   0.598   1.653   3.775  0.0858 -0.2546 -0.3700
 8193SOL    HW136041   0.519   1.699   3.803 -0.7640 -2.1243  0.2799
 8193SOL    HW236042   0.660   1.689   3.839 -0.4961 -1.5252  0.9150
 8194SOL     OW36043   3.718   4.196   7.361  0.8004  0.5683  0.2105
 8194SOL    HW136044   3.785   4.221   7.424 -0.1006 -0.9934  1.8035
 8194SOL    HW236045   3.720   4.100   7.367  0.9457  0.3720 -2.8258
 8195SOL     OW36046   2.923   4.194   2.292 -0.1172 -0.0778 -0.4209
 8195SOL    HW136047   2.961   4.241   2.218  1.3672 -1.6051 -0.6277
 8195SOL    HW236048   2.978   4.117   2.307  1.3568  0.7192 -1.7591
 8196SOL     OW36049   4.163   1.207   0.671 -0.2362 -0.1098  0.1853
 8196SOL    HW136050   4.214   1.163   0.740  2.7881 -1.1224 -2.6903
 8196SOL    HW236051   4.123   1.280   0.717 -1.4713 -0.3870 -0.4681
 8197SOL     OW36052   0.266   3.945   7.521 -0.5297  0.6714 -0.2615
 8197SOL    HW136053   0.173   3.940   7.547 -0.8695  1.3508 -1.3737
 8197SOL    HW236054   0.289   4.033   7.550 -0.4983  0.7434 -0.5078
 8198SOL     OW36055   1.499   3.237  10.980  0.0465  0.2269 -0.4572
 8198SOL    HW136056   1.426   3.274  10.930 -0.6192  0.3114  0.5767
 8198SOL    HW236057   1.556   3.314  10.991  0.6809 -0.2388 -0.4821
 8199SOL     OW36058   2.636   3.064   6.633  0.4645 -0.5888  0.4538
 8199SOL    HW136059   2.570   3.081   6.700  1.5302 -0.3658  1.4495
 8199SOL    HW236060   2.577   3.044   6.561 -0.2031  0.1902  0.7827
 8200SOL     OW36061   3.496   0.950   1.909 -0.5449  0.3943  0.4871
 8200SOL    HW136062   3.510   1.040   1.882 -0.0817  0.1198 -0.1796
 8200SOL    HW236063   3.491   0.910   1.822 -2.0469  2.1387 -0.2186
 8201SOL     OW36064   0.995   0.200  16.431 -0.1385  0.2366 -0.1321
 8201SOL    HW136065   1.069   0.245  16.391 -2.2380  4.2596  0.4572
 8201SOL    HW236066   1.038   0.123  16.467  1.6519  1.7055  0.8585
 8202SOL     OW36067   3.334   2.410   3.906  0.4395 -0.2073 -0.2451
 8202SOL    HW136068   3.413   2.429   3.956  0.1124  1.6162 -0.4190
 8202SOL    HW236069   3.302   2.499   3.892  1.9314  0.4889  0.7778
 8203SOL     OW36070   0.866   2.581   2.789 -0.3284  0.1981 -0.2170
 8203SOL    HW136071   0.801   2.554   2.853  0.7888  2.5628  1.9220
 8203SOL    HW236072   0.904   2.497   2.764 -0.5360 -0.2347  0.9517
 8204SOL     OW36073   1.923   2.809   1.374  0.4114  0.1922 -0.1459
 8204SOL    HW136074   1.852   2.745   1.368  0.0642  0.4434  1.2448
 8204SOL    HW236075   1.971   2.763   1.442 -0.2314 -0.5567 -0.2007
 8205SOL     OW36076   1.433   2.142   2.004  0.0353 -0.2660  0.2439
 8205SOL    HW136077   1.356   2.086   1.989  1.2505 -2.6112  2.7129
 8205SOL    HW236078   1.409   2.215   1.947 -0.1667 -0.9066 -0.4806
 8206SOL     OW36079   2.849   4.396   1.199  0.2912 -0.2040  0.4131
 8206SOL    HW136080   2.889   4.325   1.149 -3.1500 -1.8487  0.0065
 8206SOL    HW236081   2.795   4.433   1.129  1.8908 -1.2577 -1.3641
 8207SOL     OW36082   4.684   0.607   7.632  0.3149  0.4116 -0.3098
 8207SOL    HW136083   4.613   0.620   7.570  0.7518  0.9598 -0.6932
 8207SOL    HW236084   4.633   0.626   7.711  1.0819  0.0950  0.2535
 8208SOL     OW36085   0.719   0.414  17.236 -0.1416  0.3274 -0.2146
 8208SOL    HW136086   0.655   0.397  17.167 -0.4372 -0.9825  0.3868
 8208SOL    HW236087   0.721   0.507  17.257 -1.2384  0.4539 -0.6794
 8209SOL     OW36088   3.083   0.047   6.179  0.4793 -0.6159  0.3074
 8209SOL    HW136089   3.052   4.702   6.117 -0.0679 -0.7068  0.6814
 8209SOL    HW236090   3.004   0.073   6.225 -1.4433 -2.4555 -1.9856
 8210SOL     OW36091   2.260   2.289   3.608  0.0006 -0.2488  0.1709
 8210SOL    HW136092   2.219   2.234   3.675 -0.9193 -0.7517 -0.8132
 8210SOL    HW236093   2.283   2.366   3.660  0.8917 -0.6162  0.3145
 8211SOL     OW36094   4.482   0.522  10.637 -0.0806 -0.2607 -0.1411
 8211SOL    HW136095   4.482   0.427  10.622  0.6853  0.0919 -2.3675
 8211SOL    HW236096   4.493   0.519  10.732 -0.5313  2.8223 -0.0172
 8212SOL     OW36097   4.238   3.030  16.128  0.0112  0.2867  0.3667
 8212SOL    HW136098   4.155   3.013  16.085 -1.1861  4.0349  1.1772
 8212SOL    HW236099   4.265   3.113  16.087 -0.7811  1.3589  2.0376
 8213SOL     OW36100   0.882   0.838   8.057 -0.1714 -0.0383 -0.0553
 8213SOL    HW136101   0.810   0.897   8.077  0.0873 -0.1075  1.0559
 8213SOL    HW236102   0.846   0.783   7.987 -0.1539  0.2371 -0.2774
 8214SOL     OW36103   1.197   2.724   4.210 -0.0067  0.2662 -0.6761
 8214SOL    HW136104   1.254   2.648   4.224  0.2102  0.7652  1.1676
 8214SOL    HW236105   1.114   2.686   4.239  0.4163 -1.1799 -1.3819
 8215SOL     OW36106   3.909   0.973   2.258  0.2213  0.1956 -0.0463
 8215SOL    HW136107   3.839   0.982   2.193  0.7734 -1.6462 -0.8765
 8215SOL    HW236108   3.984   0.947   2.205  0.7528  1.0236  0.2973
 8216SOL     OW36109   4.181   0.060   3.760  0.5641  0.2241 -0.3876
 8216SOL    HW136110   4.145   4.705   3.713  0.2688  0.2801 -0.2565
 8216SOL    HW236111   4.272   0.065   3.733 -0.1076 -0.2904 -2.7690
 8217SOL     OW36112   3.407   4.249   8.836 -0.5789 -0.1694 -0.3207
 8217SOL    HW136113   3.320   4.261   8.874 -0.2399 -0.3403  0.5035
 8217SOL    HW236114   3.442   4.337   8.818 -0.4668 -0.1415  0.0486
 8218SOL     OW36115   4.507   4.164  16.409  0.0977 -0.2885 -0.0566
 8218SOL    HW136116   4.520   4.118  16.326  0.6535  2.3450 -1.4456
 8218SOL    HW236117   4.522   4.100  16.478 -0.1813  0.3938  0.6387
 8219SOL     OW36118   3.032   3.248  12.050 -0.0392  0.0523  0.1160
 8219SOL    HW136119   3.041   3.288  11.963  0.7897  1.6115  0.9305
 8219SOL    HW236120   2.981   3.307  12.104  0.0225  1.0544 -0.9246
 8220SOL     OW36121   0.399   2.758   5.648 -0.2883  0.7709 -0.2037
 8220SOL    HW136122   0.434   2.766   5.737 -1.3326 -2.4710  0.4863
 8220SOL    HW236123   0.402   2.663   5.641  1.6889  0.8707 -0.4435
 8221SOL     OW36124   2.813   2.925  14.731 -0.6163  0.2546 -0.0661
 8221SOL    HW136125   2.784   2.915  14.822  0.2444  1.7446  0.3698
 8221SOL    HW236126   2.727   2.919  14.691 -0.3200 -1.6013 -0.4257
 8222SOL     OW36127   4.032   1.799   8.738  0.2503 -0.0990  0.2915
 8222SOL    HW136128   3.946   1.760   8.753  0.8480 -1.7960 -0.7395
 8222SOL    HW236129   4.008   1.892   8.742 -1.2001 -0.5141  1.1080
 8223SOL     OW36130   1.769   3.510   5.301  0.5872 -0.2668 -0.1058
 8223SOL    HW136131   1.811   3.427   5.323  1.1793  0.5780  1.8992
 8223SOL    HW236132   1.712   3.523   5.377 -1.6006  0.1783 -1.8136
 8224SOL     OW36133   2.681   4.610   2.070  0.0482 -0.1888  0.3412
 8224SOL    HW136134   2.745   4.583   2.136 -0.4056 -1.8506  0.0889
 8224SOL    HW236135   2.729   4.565   2.000  1.4261  3.4197 -1.0515
 8225SOL     OW36136   0.802   4.025   8.769 -0.4624  0.0983 -0.5344
 8225SOL    HW136137   0.734   4.015   8.702  0.2871  0.5281 -1.3535
 8225SOL    HW236138   0.813   4.117   8.793  0.6603 -0.1310 -0.1969
 8226SOL     OW36139   1.885   2.166   4.192 -0.2879  0.2821 -0.1402
 8226SOL    HW136140   1.859   2.146   4.103 -1.5996 -2.2785  0.8271
 8226SOL    HW236141   1.837   2.103   4.245  1.7196 -0.7306  0.5000
 8227SOL     OW36142   1.350   4.130   8.397 -0.1507 -0.4853 -0.0054
 8227SOL    HW136143   1.332   4.215   8.358  2.9927 -1.0160 -2.6182
 8227SOL    HW236144   1.325   4.077   8.321  1.3965  0.1946 -0.9813
 8228SOL     OW36145   3.885   4.670   5.070  0.1718  0.0176 -0.2903
 8228SOL    HW136146   3.905   4.696   4.980  2.4349 -0.6342  0.0115
 8228SOL    HW236147   3.790   4.677   5.071  0.0865 -1.3548  0.6617
 8229SOL     OW36148   2.369   3.162   7.122  0.2510  0.1696  0.0347
 8229SOL    HW136149   2.419   3.097   7.172  1.0767  0.1495 -0.8050
 8229SOL    HW236150   2.279   3.143   7.147  1.2680  0.3837  3.8390
 8230SOL     OW36151   3.573   2.024   8.089 -0.1086 -0.4460  0.6213
 8230SOL    HW136152   3.530   2.107   8.110  1.0361  0.3452 -0.1896
 8230SOL    HW236153   3.567   2.010   7.994 -1.0876  0.1775  0.5915
 8231SOL     OW36154   1.109   3.118   3.104  0.6742 -0.2985 -0.1349
 8231SOL    HW136155   1.111   3.167   3.021 -0.0695  0.8561  0.5275
 8231SOL    HW236156   1.014   3.119   3.105  0.7052  1.0429  1.2027
 8232SOL     OW36157   3.854   2.838   6.286  0.1345  0.1957  0.6210
 8232SOL    HW136158   3.813   2.890   6.217  0.7668 -0.4563 -0.2425
 8232SOL    HW236159   3.781   2.777   6.297  0.0023  0.5533  1.7577
 8233SOL     OW36160   3.044   4.054   9.435  0.1467 -0.4865 -0.4534
 8233SOL    HW136161   3.015   4.041   9.345  0.5097  0.7370 -0.7571
 8233SOL    HW236162   2.962   4.040   9.481  0.0011  1.0073 -0.2604
 8234SOL     OW36163   4.551   1.410  16.938  0.2933 -0.1126  0.0339
 8234SOL    HW136164   4.484   1.369  16.992  1.5388 -2.3364 -0.0989
 8234SOL    HW236165   4.588   1.474  16.998 -1.2373  0.5453  0.2485
 8235SOL     OW36166   0.018   1.247   3.271  0.0640  0.2994 -0.6242
 8235SOL    HW136167   4.705   1.235   3.182 -0.0152 -2.2094 -0.2262
 8235SOL    HW236168   0.109   1.227   3.250  0.3773 -0.2359  1.3075
 8236SOL     OW36169   0.103   1.149  11.511 -0.0634 -0.0489 -0.6681
 8236SOL    HW136170   0.129   1.142  11.419  0.8975 -3.0645 -0.1532
 8236SOL    HW236171   0.019   1.194  11.501 -0.3091 -0.1621  0.8435
 8237SOL     OW36172   2.162   0.116   6.988 -0.4902 -0.5333 -0.0274
 8237SOL    HW136173   2.182   0.189   7.047 -0.7812 -0.6209  0.1852
 8237SOL    HW236174   2.245   0.071   6.976 -0.8735 -1.0083 -0.8773
 8238SOL     OW36175   2.150   0.209   4.409  0.3993  0.1630  0.4234
 8238SOL    HW136176   2.217   0.210   4.341 -0.4177  0.1802 -0.3886
 8238SOL    HW236177   2.211   0.198   4.481  0.5427 -3.5361 -0.2334
 8239SOL     OW36178   1.229   0.701   1.322  0.2852  0.5403  0.0241
 8239SOL    HW136179   1.298   0.765   1.303  0.2589  0.9538  1.3142
 8239SOL    HW236180   1.188   0.708   1.236  0.4926 -1.2486 -0.2213
 8240SOL     OW36181   0.221   1.905   2.832 -0.0650 -0.2304  0.2072
 8240SOL    HW136182   0.260   1.824   2.798 -1.1579 -1.3830  1.6956
 8240SOL    HW236183   0.146   1.861   2.872 -0.6663 -1.1914 -1.9843
 8241SOL     OW36184   3.408   3.459   0.794  0.0960 -0.1071 -0.3269
 8241SOL    HW136185   3.396   3.473   0.888 -0.3715  3.4514 -0.8970
 8241SOL    HW236186   3.326   3.422   0.761 -0.2123  0.0597  0.2428
 8242SOL     OW36187   1.043   0.936   8.775  0.2778  0.1000  0.9722
 8242SOL    HW136188   1.079   1.020   8.746 -0.7046  0.6344  1.3246
 8242SOL    HW236189   1.003   0.958   8.858  0.2048 -1.5098  1.3631
 8243SOL     OW36190   1.421   3.250  13.241  0.3367 -0.0473 -0.1820
 8243SOL    HW136191   1.359   3.183  13.212 -2.9164  2.4951  0.9671
 8243SOL    HW236192   1.503   3.205  13.220 -0.4430 -2.3252  1.7717
 8244SOL     OW36193   2.717   1.532   0.574 -0.4559 -0.6227 -0.5868
 8244SOL    HW136194   2.661   1.518   0.497 -0.4625  0.7491 -0.8271
 8244SOL    HW236195   2.782   1.462   0.569  0.1833  0.0242 -1.1909
 8245SOL     OW36196   1.835   4.511   6.666 -0.1656 -0.3148 -0.0423
 8245SOL    HW136197   1.865   4.480   6.751  1.0777  1.0377  0.0065
 8245SOL    HW236198   1.822   4.604   6.683 -2.5605 -0.6482 -0.0139
 8246SOL     OW36199   0.271   4.701   6.674  0.0319 -0.2260 -0.0493
 8246SOL    HW136200   0.246   0.071   6.689 -0.5055 -0.7688  2.3423
 8246SOL    HW236201   0.195   4.677   6.620  1.2956  0.9261 -2.3566
 8247SOL     OW36202   1.829   2.975   0.110 -0.6808  0.2446 -0.6538
 8247SOL    HW136203   1.796   3.063   0.096 -0.3180  0.4691 -0.0898
 8247SOL    HW236204   1.808   2.921   0.034  1.0667  0.3727 -1.2249
 8248SOL     OW36205   4.165   3.582  13.824  0.0698  0.5351 -0.3962
 8248SOL    HW136206   4.136   3.491  13.825 -1.5219  1.0569  1.4238
 8248SOL    HW236207   4.244   3.556  13.776  0.9722 -1.2438  2.0333
 8249SOL     OW36208   0.437   0.330   6.790  0.0317 -0.1485  0.2688
 8249SOL    HW136209   0.505   0.323   6.856  1.3011  0.5618 -0.9572
 8249SOL    HW236210   0.373   0.382   6.840 -1.4872 -0.7788 -1.0107
 8250SOL     OW36211   1.592   3.870   9.358 -0.6193 -0.8290  0.7049
 8250SOL    HW136212   1.522   3.825   9.311  0.8249 -1.2914 -0.9774
 8250SOL    HW236213   1.620   3.926   9.285 -2.6659 -1.2821 -0.4236
 8251SOL     OW36214   3.435   1.336   5.907  0.6003 -0.0085  0.0011
 8251SOL    HW136215   3.359   1.279   5.900  2.0817 -1.7450 -2.1670
 8251SOL    HW236216   3.419   1.390   5.984 -1.6335 -2.1810  1.0477
 8252SOL     OW36217   1.155   0.816   6.988 -0.5045  0.0098 -0.2165
 8252SOL    HW136218   1.079   0.856   6.945 -1.1213 -0.6849  0.2136
 8252SOL    HW236219   1.213   0.892   6.981 -1.7652  0.6023 -4.2344
 8253SOL     OW36220   2.159   2.790  12.093 -0.4628 -0.1667  0.4488
 8253SOL    HW136221   2.100   2.857  12.129 -0.5566 -0.1770  0.3158
 8253SOL    HW236222   2.115   2.764  12.012 -1.3234  2.6068 -0.0001
 8254SOL     OW36223   2.556   2.577   7.715 -0.6045  0.3230 -0.8309
 8254SOL    HW136224   2.499   2.501   7.701 -0.5745  0.1035  0.2116
 8254SOL    HW236225   2.608   2.564   7.636 -1.6324 -2.2712 -1.0651
 8255SOL     OW36226   2.517   2.075   9.799 -0.6174 -0.3109 -0.1216
 8255SOL    HW136227   2.587   2.017   9.831  0.7078  1.0010 -0.6326
 8255SOL    HW236228   2.437   2.026   9.819  0.0972 -1.2130  0.5546
 8256SOL     OW36229   3.524   2.247   6.741 -0.1708 -0.2532  0.5873
 8256SOL    HW136230   3.494   2.338   6.745  0.7173  0.0114  1.1560
 8256SOL    HW236231   3.438   2.209   6.759 -0.6241  0.1683 -0.6632
 8257SOL     OW36232   3.209   3.587   5.269 -0.4986 -0.0330 -0.1442
 8257SOL    HW136233   3.152   3.597   5.193  0.0760 -0.1795 -0.5877
 8257SOL    HW236234   3.279   3.533   5.233 -0.6287 -1.8846  2.3902
 8258SOL     OW36235   3.049   2.042  16.544 -0.2221  0.4085 -0.4085
 8258SOL    HW136236   3.023   1.962  16.500 -1.5277 -0.1806  1.4653
 8258SOL    HW236237   3.139   2.025  16.572  0.2258  0.9429 -1.5173
 8259SOL     OW36238   2.880   4.358  10.449 -0.1765 -0.0781 -0.1259
 8259SOL    HW136239   2.895   4.422  10.379  1.4313 -1.5253 -1.0807
 8259SOL    HW236240   2.805   4.321  10.402 -0.9999  1.3350  0.0446
 8260SOL     OW36241   1.889   0.459   0.122  0.0399 -0.0304 -0.4086
 8260SOL    HW136242   1.914   0.392   0.057  2.1706  0.6482 -0.2878
 8260SOL    HW236243   1.973   0.504   0.127  0.1393 -0.3297  0.5750
 8261SOL     OW36244   2.062   4.260   6.216  0.0848 -0.0923 -0.5698
 8261SOL    HW136245   1.991   4.196   6.222  0.8544 -0.6613  2.0835
 8261SOL    HW236246   2.024   4.339   6.255  1.5853  0.1931  0.2786
 8262SOL     OW36247   2.057   4.259   0.502 -0.0624 -0.6989 -0.1263
 8262SOL    HW136248   2.123   4.190   0.499  1.4455  0.8420 -2.4410
 8262SOL    HW236249   1.985   4.219   0.552 -0.2416  1.4830  1.3783
 8263SOL     OW36250   4.484   1.948   5.261 -0.1886  0.2549 -0.5155
 8263SOL    HW136251   4.505   2.028   5.311  1.1760  0.1215 -0.8782
 8263SOL    HW236252   4.433   1.899   5.326  1.3034  0.7298  1.0219
 8264SOL     OW36253   3.831   1.745   6.342 -0.1370  0.2763  0.2755
 8264SOL    HW136254   3.909   1.726   6.289 -0.1363  2.5531 -0.5343
 8264SOL    HW236255   3.800   1.655   6.328  0.8034 -0.2251  1.3990
 8265SOL     OW36256   0.332   0.087   5.436  0.0984 -0.4824  0.0950
 8265SOL    HW136257   0.279   0.162   5.464  0.8016  0.3213 -0.7307
 8265SOL    HW236258   0.306   0.060   5.348  0.3766  0.8371 -0.3901
 8266SOL     OW36259   2.440   4.700   6.649  0.2935 -0.1889  0.3454
 8266SOL    HW136260   2.349   4.688   6.678 -0.0600  2.1825  0.2326
 8266SOL    HW236261   2.445   4.612   6.613 -0.5849 -0.1540  0.1441
 8267SOL     OW36262   2.431   3.914   5.676 -0.2538 -0.6740 -0.5728
 8267SOL    HW136263   2.363   3.930   5.610 -0.1301 -0.8136 -0.7332
 8267SOL    HW236264   2.484   3.993   5.662 -0.4700 -0.4120  0.0638
 8268SOL     OW36265   2.153   1.121   3.501  0.4927 -0.2140  0.5148
 8268SOL    HW136266   2.071   1.138   3.455  0.0556  1.6743  1.9974
 8268SOL    HW236267   2.184   1.202   3.542 -1.2909  0.5750  0.2721
 8269SOL     OW36268   4.322   2.686   3.252  0.1399 -0.2327 -0.7864
 8269SOL    HW136269   4.391   2.654   3.194  0.5684 -2.9965  1.2510
 8269SOL    HW236270   4.296   2.772   3.220 -2.0971 -0.1734  1.1848
 8270SOL     OW36271   1.592   1.386   7.554  0.1049 -0.0829  0.1574
 8270SOL    HW136272   1.550   1.412   7.472  0.3791 -1.0536 -0.2919
 8270SOL    HW236273   1.664   1.447   7.566  0.5469 -0.6014  0.1657
 8271SOL     OW36274   0.227   2.224   6.493 -0.7293 -0.1173  0.2227
 8271SOL    HW136275   0.277   2.234   6.574 -1.5617  1.3683  0.5497
 8271SOL    HW236276   0.204   2.131   6.493  0.8071 -0.5048  2.9161
 8272SOL     OW36277   0.152   3.154   6.373  0.2165  0.1118 -0.4241
 8272SOL    HW136278   0.090   3.192   6.311  1.6870  1.1765 -1.2482
 8272SOL    HW236279   0.090   3.122   6.437 -2.0383  0.5584 -2.3935
 8273SOL     OW36280   4.324   3.667  16.072  0.0155  0.5039 -0.3663
 8273SOL    HW136281   4.390   3.732  16.047 -0.3012  1.1057  0.3409
 8273SOL    HW236282   4.374   3.587  16.084 -1.4122 -0.3271  0.0621
 8274SOL     OW36283   0.331   0.737   5.083 -0.2415 -0.5612  0.3976
 8274SOL    HW136284   0.310   0.724   5.175  2.3153 -0.8561  0.9431
 8274SOL    HW236285   0.286   0.660   5.047  1.3293 -0.9393 -0.7741
 8275SOL     OW36286   4.701   1.292   0.470  0.1199 -0.1140  0.6196
 8275SOL    HW136287   0.004   1.221   0.410 -3.6577 -0.6668 -0.2012
 8275SOL    HW236288   4.623   1.246   0.501 -0.8797  1.9251  1.1221
 8276SOL     OW36289   1.656   1.099   5.373 -0.3286  0.0168 -0.6233
 8276SOL    HW136290   1.620   1.072   5.458  1.7288 -2.7989 -0.6337
 8276SOL    HW236291   1.646   1.017   5.324  1.5701 -0.7833  0.3224
 8277SOL     OW36292   2.122   1.410   0.506  0.0799 -0.0999  0.7327
 8277SOL    HW136293   2.098   1.367   0.424 -1.3024 -1.1966  1.7193
 8277SOL    HW236294   2.138   1.496   0.467 -0.8873  0.1971  0.9866
 8278SOL     OW36295   1.641   2.179   5.879 -0.6177  0.2522  0.3478
 8278SOL    HW136296   1.709   2.117   5.854 -1.3141  0.0425 -1.0531
 8278SOL    HW236297   1.587   2.161   5.802 -0.5744  0.6558  0.2229
 8279SOL     OW36298   2.516   3.042   7.321  0.4697 -0.2189  0.5602
 8279SOL    HW136299   2.478   2.959   7.353 -0.0945  0.1270  0.7950
 8279SOL    HW236300   2.523   3.088   7.405 -0.5547  1.9239 -0.5401
 8280SOL     OW36301   1.813   3.305   0.838  1.0618  0.1254  0.4248
 8280SOL    HW136302   1.784   3.389   0.803 -3.0039 -0.9315  1.2659
 8280SOL    HW236303   1.904   3.323   0.859  1.6615 -1.8486 -0.4983
 8281SOL     OW36304   1.802   1.793   3.757  0.4440  0.8145  0.1804
 8281SOL    HW136305   1.824   1.718   3.702 -0.2642 -0.8204  2.1387
 8281SOL    HW236306   1.838   1.865   3.706  1.7951  0.8619  1.1911
 8282SOL     OW36307   4.688   0.366   7.978  0.0320 -0.2501  0.4426
 8282SOL    HW136308   0.043   0.328   8.022  0.9579  1.6693  0.5103
 8282SOL    HW236309   0.003   0.407   7.899  0.8111 -1.1661  0.3357
 8283SOL     OW36310   0.963   1.438  12.523 -0.3365 -0.5843  0.1274
 8283SOL    HW136311   0.939   1.493  12.598  0.1692 -1.5534  0.9970
 8283SOL    HW236312   0.999   1.505  12.465 -1.1857  0.4429  0.7794
 8284SOL     OW36313   0.076   1.532   0.038  0.0004 -0.1002  0.2067
 8284SOL    HW136314   4.714   1.550   0.083  0.2287  0.5473  0.3727
 8284SOL    HW236315   0.142   1.538   0.107  0.9140 -0.7707 -0.6030
 8285SOL     OW36316   3.479   2.381   7.082  0.6997  0.1501  0.0148
 8285SOL    HW136317   3.488   2.362   6.989  0.5959  0.2070 -0.0065
 8285SOL    HW236318   3.561   2.428   7.100  0.4678 -0.5770  3.0740
 8286SOL     OW36319   4.205   2.423   6.371  0.8309  0.5928  0.5448
 8286SOL    HW136320   4.217   2.341   6.323  0.6319 -0.4163  2.2174
 8286SOL    HW236321   4.157   2.393   6.449  0.1160 -0.7400 -0.4153
 8287SOL     OW36322   1.917   1.340   2.668  0.5811 -0.2064  0.5393
 8287SOL    HW136323   1.924   1.320   2.761  0.5791  0.8686  0.7620
 8287SOL    HW236324   1.841   1.283   2.653  0.0792  0.2470  1.3816
 8288SOL     OW36325   0.072   2.176   0.820 -0.4566  0.6329 -0.2112
 8288SOL    HW136326   0.048   2.090   0.786  2.0985  0.1123 -0.6968
 8288SOL    HW236327   4.710   2.198   0.863 -1.2670 -2.2420 -0.2322
 8289SOL     OW36328   2.776   0.866  16.379  0.4442  0.1732  0.5151
 8289SOL    HW136329   2.719   0.868  16.302  0.5071 -2.1902  0.4122
 8289SOL    HW236330   2.713   0.835  16.444  0.4398  0.0151  0.4356
 8290SOL     OW36331   3.322   0.344   7.909 -0.3135  0.2724 -0.0282
 8290SOL    HW136332   3.377   0.266   7.902 -1.5881 -0.7891  1.7976
 8290SOL    HW236333   3.338   0.376   7.997 -0.6616  0.6572 -0.1048
 8291SOL     OW36334   0.959   2.676  12.369 -0.3603 -0.0815  0.1521
 8291SOL    HW136335   0.973   2.724  12.450  3.6845  0.2601 -0.7628
 8291SOL    HW236336   1.042   2.683  12.320 -1.5432  1.0326 -1.7171
 8292SOL     OW36337   2.038   2.511   5.265  0.0047  0.0805 -0.2314
 8292SOL    HW136338   1.990   2.451   5.207 -1.3412 -1.4518  2.4767
 8292SOL    HW236339   1.977   2.544   5.331  1.3093  0.9234  0.5320
 8293SOL     OW36340   1.088   0.103   3.945  0.1099 -0.4869 -0.1165
 8293SOL    HW136341   1.028   0.169   3.977  0.3886 -0.7683  0.9971
 8293SOL    HW236342   1.139   0.152   3.881  3.2816  1.1103  3.6642
 8294SOL     OW36343   3.600   3.999   9.277  0.4970 -0.0591  0.0623
 8294SOL    HW136344   3.597   4.050   9.358  1.0243 -0.9922  0.6699
 8294SOL    HW236345   3.693   4.012   9.258  0.1222  1.4786 -0.7368
 8295SOL     OW36346   0.971   0.283   7.325  0.2032 -0.2432  0.0887
 8295SOL    HW136347   1.008   0.304   7.239 -1.0544 -0.2356 -0.4458
 8295SOL    HW236348   0.901   0.220   7.308 -0.6653  0.1597  2.1565
 8296SOL     OW36349   1.234   1.669   6.638 -0.3484 -0.4902 -0.4086
 8296SOL    HW136350   1.173   1.719   6.692 -0.1583  0.6059 -1.2113
 8296SOL    HW236351   1.311   1.724   6.651 -1.6167  1.1431  0.2292
 8297SOL     OW36352   1.738   2.431   1.857  0.2322  0.3189 -0.0978
 8297SOL    HW136353   1.742   2.344   1.817 -1.2482 -0.0510  0.5585
 8297SOL    HW236354   1.644   2.439   1.873  0.0093 -2.2473 -0.0638
 8298SOL     OW36355   2.469   2.231   3.461 -0.1153  0.2255  0.3899
 8298SOL    HW136356   2.382   2.235   3.500 -0.4003 -1.0211 -0.1045
 8298SOL    HW236357   2.531   2.254   3.530  0.2493 -1.4603  0.6265
 8299SOL     OW36358   0.638   4.195  11.587 -0.3415  0.1355 -0.1258
 8299SOL    HW136359   0.617   4.255  11.658 -1.0726  1.0764 -1.1551
 8299SOL    HW236360   0.595   4.111  11.607  0.8895 -0.0751  1.6636
 8300SOL     OW36361   2.182   0.994  15.823 -0.0369  0.2524 -0.4529
 8300SOL    HW136362   2.245   1.040  15.879 -1.0749  1.3607 -0.2064
 8300SOL    HW236363   2.122   0.959  15.889  1.3424  1.4063  1.4343
 8301SOL     OW36364   1.604   1.845   2.730 -0.7267  0.3879  0.0362
 8301SOL    HW136365   1.608   1.819   2.638  1.6858  3.3082 -0.6990
 8301SOL    HW236366   1.687   1.891   2.742 -0.8219  0.5858 -0.0553
 8302SOL     OW36367   0.950   2.968   5.475  0.1842  0.1657 -0.0310
 8302SOL    HW136368   0.936   2.932   5.387 -0.0805  0.7877 -0.2437
 8302SOL    HW236369   0.865   2.953   5.518  1.1627  0.2668  1.9505
 8303SOL     OW36370   3.965   0.837  10.778  0.5475  0.1972  0.2224
 8303SOL    HW136371   3.894   0.812  10.718  1.5157 -1.7029 -0.1434
 8303SOL    HW236372   3.907   0.869  10.847 -1.4082 -2.6575 -0.1206
 8304SOL     OW36373   2.535   1.728  16.618 -0.1894  0.3095 -0.0097
 8304SOL    HW136374   2.581   1.751  16.699  0.3246  2.5820 -0.9224
 8304SOL    HW236375   2.493   1.647  16.643  0.4814 -0.2865 -0.7911
 8305SOL     OW36376   3.615   4.486   3.378 -0.3792 -0.3619 -0.2168
 8305SOL    HW136377   3.527   4.525   3.385 -0.8865 -1.5781  0.3584
 8305SOL    HW236378   3.627   4.476   3.284  0.3491 -0.3675 -0.1225
 8306SOL     OW36379   1.457   0.905   3.494  0.4144 -0.0216  0.1813
 8306SOL    HW136380   1.447   0.856   3.412 -0.5641 -1.3217  1.0720
 8306SOL    HW236381   1.502   0.984   3.463 -2.4750  1.9311  0.9774
 8307SOL     OW36382   0.289   3.561   8.151  0.0699 -0.2470 -0.4015
 8307SOL    HW136383   0.287   3.475   8.193  0.8372 -0.2717 -0.4246
 8307SOL    HW236384   0.194   3.576   8.153 -0.1030 -1.1882 -2.0316
 8308SOL     OW36385   2.768   4.124   6.067  0.3109 -0.2218  0.1573
 8308SOL    HW136386   2.802   4.145   5.980  0.5049 -0.4386  0.1797
 8308SOL    HW236387   2.733   4.037   6.048  2.0379 -1.4835  2.6918
 8309SOL     OW36388   0.225   2.389   2.366 -0.0402  0.3607 -0.2378
 8309SOL    HW136389   0.140   2.417   2.399 -1.1041 -1.2886 -1.6128
 8309SOL    HW236390   0.246   2.324   2.433 -2.0586  0.2437  0.2628
 8310SOL     OW36391   4.533   2.816  15.895  0.2239  0.0657 -0.5866
 8310SOL    HW136392   4.607   2.764  15.864  1.5226  1.8193 -0.4328
 8310SOL    HW236393   4.542   2.905  15.860  3.8182 -0.1174 -0.0997
 8311SOL     OW36394   2.684   1.800   4.138 -0.5808  0.0822 -0.4363
 8311SOL    HW136395   2.748   1.840   4.197 -1.7955  0.3361  0.7096
 8311SOL    HW236396   2.683   1.712   4.175 -1.9938  0.3434  0.1180
 8312SOL     OW36397   2.601   0.336   4.573  0.1925 -0.2610  0.1563
 8312SOL    HW136398   2.560   0.417   4.541  0.7262  0.1621  0.5458
 8312SOL    HW236399   2.610   0.369   4.663  0.1585  1.0922 -0.3242
 8313SOL     OW36400   3.781   4.244  17.450  0.1886  0.2176 -0.2222
 8313SOL    HW136401   3.772   4.272  17.541  0.4529  1.6242 -0.6286
 8313SOL    HW236402   3.749   4.324  17.409  2.2634  0.0034 -2.2706
 8314SOL     OW36403   3.683   3.488   8.032  0.0639 -0.3536  0.1877
 8314SOL    HW136404   3.668   3.427   8.104 -0.5284 -1.0814 -0.5483
 8314SOL    HW236405   3.628   3.563   8.054 -0.6501 -0.7998 -0.0944
 8315SOL     OW36406   0.121   3.409   1.525 -1.2953 -0.2944  0.0508
 8315SOL    HW136407   0.175   3.339   1.564 -1.2482 -0.4014 -0.2101
 8315SOL    HW236408   0.170   3.488   1.505 -0.1728 -1.0835 -0.3234
 8316SOL     OW36409   0.980   1.702  12.394 -0.6179 -0.1728 -0.3298
 8316SOL    HW136410   1.026   1.763  12.451 -0.7614  1.8497 -2.3700
 8316SOL    HW236411   0.994   1.751  12.313 -0.4911  1.2265  0.5446
 8317SOL     OW36412   4.269   4.495  11.494  0.0181 -0.2557 -0.1633
 8317SOL    HW136413   4.261   4.409  11.453 -0.9788  0.5068 -1.5479
 8317SOL    HW236414   4.178   4.524  11.487  0.5725  1.6268  0.6404
 8318SOL     OW36415   2.611   2.868   1.051 -0.1826 -0.2381 -0.3957
 8318SOL    HW136416   2.682   2.900   0.995 -0.4091  0.0905 -0.4954
 8318SOL    HW236417   2.648   2.835   1.132  0.4637 -0.9911 -0.9947
 8319SOL     OW36418   1.282   0.120   7.219 -0.8300  0.2984 -0.5025
 8319SOL    HW136419   1.248   0.209   7.209 -3.5463 -0.5498  1.1696
 8319SOL    HW236420   1.228   0.071   7.157  0.5518  0.0597 -1.5109
 8320SOL     OW36421   3.744   0.578   7.006  0.1157 -0.3750 -0.4370
 8320SOL    HW136422   3.837   0.598   7.002 -0.1982  1.1750 -0.3446
 8320SOL    HW236423   3.742   0.508   6.941  1.5213  0.5473 -1.4817
 8321SOL     OW36424   3.849   3.857   6.396  0.0906  0.5798  0.0567
 8321SOL    HW136425   3.935   3.885   6.428 -0.3467  1.3981  0.4951
 8321SOL    HW236426   3.832   3.926   6.333  1.7729  0.9872  0.0463
 8322SOL     OW36427   3.978   3.779   4.179  0.5640  0.1555 -0.0805
 8322SOL    HW136428   4.041   3.804   4.111 -1.9071  2.7593 -1.4531
 8322SOL    HW236429   3.965   3.863   4.224 -1.3309 -0.7912  1.1307
 8323SOL     OW36430   4.108   1.730   1.733  0.1943  0.2234  0.4162
 8323SOL    HW136431   4.174   1.774   1.679  0.4602 -1.0801 -0.3484
 8323SOL    HW236432   4.037   1.793   1.728  1.3003  1.3983 -0.3623
 8324SOL     OW36433   4.235   3.002   9.253 -0.2168  0.2512  0.1672
 8324SOL    HW136434   4.301   2.942   9.218 -0.5064 -0.9226  1.6737
 8324SOL    HW236435   4.219   2.954   9.333  0.0910 -0.9776 -0.5038
 8325SOL     OW36436   0.734   2.320   4.130  0.0883  0.3433 -0.7217
 8325SOL    HW136437   0.796   2.384   4.094 -0.7063  1.2462 -0.5014
 8325SOL    HW236438   0.788   2.242   4.139 -0.9382 -0.3193 -0.3020
 8326SOL     OW36439   1.233   3.828   2.553  0.2907  0.1796 -0.5855
 8326SOL    HW136440   1.206   3.815   2.644  5.4073 -1.6502  0.6450
 8326SOL    HW236441   1.150   3.841   2.506 -1.8069 -1.8227  2.4940
 8327SOL     OW36442   2.173   4.102   4.528 -0.3995 -0.3773  0.1701
 8327SOL    HW136443   2.239   4.100   4.459 -1.1480  1.6146 -0.5917
 8327SOL    HW236444   2.114   4.032   4.500 -1.1960  0.5041 -0.3572
 8328SOL     OW36445   2.083   3.069   7.339  0.6499 -0.3463  0.0734
 8328SOL    HW136446   2.112   3.153   7.374  1.9949 -0.6805 -0.2121
 8328SOL    HW236447   1.993   3.081   7.369  0.8687  3.4312 -0.8274
 8329SOL     OW36448   3.717   0.855  10.950 -0.0540  0.2651 -0.1848
 8329SOL    HW136449   3.740   0.766  10.976 -1.2678  0.2768  0.9481
 8329SOL    HW236450   3.632   0.862  10.995 -0.6327  1.0798 -1.3949
 8330SOL     OW36451   2.771   3.035   5.559  0.3631  0.7081  0.0678
 8330SOL    HW136452   2.748   2.966   5.497 -1.4518  1.8132 -0.4827
 8330SOL    HW236453   2.847   3.004   5.609 -1.2597 -2.2504  0.7096
 8331SOL     OW36454   4.086   3.843   3.205  0.0706  0.6083 -0.0591
 8331SOL    HW136455   4.105   3.749   3.202  0.0332  0.5741  1.0177
 8331SOL    HW236456   4.175   3.870   3.226 -0.0851  0.7917  0.3698
 8332SOL     OW36457   2.482   4.005   1.018  0.3765  0.0747 -0.0377
 8332SOL    HW136458   2.576   4.013   1.001  0.4575 -1.0470 -0.1233
 8332SOL    HW236459   2.481   3.909   1.017 -0.6118  0.0960 -0.6511
 8333SOL     OW36460   1.267   4.054   5.705  0.0548  0.4642 -0.4975
 8333SOL    HW136461   1.318   4.106   5.768 -1.1793  1.5572 -0.3933
 8333SOL    HW236462   1.190   4.111   5.706  0.2597  0.7762 -2.3934
 8334SOL     OW36463   2.511   0.896   5.106 -0.0573  0.0984 -0.1713
 8334SOL    HW136464   2.499   0.908   5.200  1.2013 -0.7138  0.0840
 8334SOL    HW236465   2.575   0.967   5.097  0.7246 -1.0118 -3.5330
 8335SOL     OW36466   1.531   3.359  14.651 -0.5117  0.2924  0.5145
 8335SOL    HW136467   1.565   3.394  14.569  0.7615  3.8208  2.5552
 8335SOL    HW236468   1.580   3.419  14.708  1.7138 -0.8775 -0.1537
 8336SOL     OW36469   0.111   0.635   0.882  0.0209 -0.3267  0.1617
 8336SOL    HW136470   0.196   0.679   0.875 -1.0365  1.5036 -1.1377
 8336SOL    HW236471   0.115   0.597   0.795 -1.2898  1.0069 -0.4878
 8337SOL     OW36472   1.355   1.990   1.613 -1.2343  0.1911  0.1082
 8337SOL    HW136473   1.383   1.948   1.695 -1.0804  1.1570  0.5437
 8337SOL    HW236474   1.281   1.933   1.590  0.5835 -2.1475 -0.0176
 8338SOL     OW36475   2.180   1.863  12.191  0.5519 -0.3047  0.2389
 8338SOL    HW136476   2.208   1.773  12.207 -0.1011 -0.7467 -1.1150
 8338SOL    HW236477   2.087   1.850  12.174  0.7810  0.7827 -1.7659
 8339SOL     OW36478   2.832   1.903   2.449 -0.3520  0.4113 -0.0911
 8339SOL    HW136479   2.863   1.994   2.447  1.3092 -0.1915 -1.1648
 8339SOL    HW236480   2.843   1.883   2.542 -1.7428  2.5201  0.5418
 8340SOL     OW36481   0.826   3.699  14.510 -0.1450  0.0926 -0.0739
 8340SOL    HW136482   0.862   3.788  14.517  0.2567 -0.0492 -0.4192
 8340SOL    HW236483   0.836   3.672  14.602 -0.9558  0.7238  0.2051
 8341SOL     OW36484   3.689   0.418   0.001 -0.3528 -0.0037 -0.7662
 8341SOL    HW136485   3.773   0.444  17.648 -0.1892  0.6195  0.0043
 8341SOL    HW236486   3.630   0.494  17.679 -0.2998  0.2268  1.2136
 8342SOL     OW36487   3.249   1.599   8.627 -0.2777 -0.2653  0.1362
 8342SOL    HW136488   3.171   1.558   8.590 -0.4420  0.0303  0.1548
 8342SOL    HW236489   3.313   1.570   8.561 -1.8383 -2.6904 -0.3310
 8343SOL     OW36490   1.517   0.321  15.443  0.3208 -0.0511  0.7013
 8343SOL    HW136491   1.590   0.290  15.496  0.1712  0.7887  1.4114
 8343SOL    HW236492   1.439   0.303  15.496  0.6236 -0.7305  0.9136
 8344SOL     OW36493   4.529   2.203   8.433  0.2327  0.4210  0.2067
 8344SOL    HW136494   4.611   2.155   8.425  0.8302  1.6418 -1.0388
 8344SOL    HW236495   4.485   2.168   8.510  0.2773  0.0572  0.0638
 8345SOL     OW36496   3.809   4.349   1.374 -0.1527 -0.3941 -0.1798
 8345SOL    HW136497   3.773   4.263   1.396 -1.2642 -0.8109 -3.5867
 8345SOL    HW236498   3.877   4.350   1.441  0.7724 -0.3208 -1.1043
 8346SOL     OW36499   4.187   2.259   7.150 -0.3738 -0.0965  0.5177
 8346SOL    HW136500   4.252   2.189   7.152  0.6576  0.8671  0.5956
 8346SOL    HW236501   4.208   2.310   7.228 -1.7584  2.1541 -0.5865
 8347SOL     OW36502   1.453   3.360   2.414  0.0087 -0.6751 -0.2367
 8347SOL    HW136503   1.423   3.363   2.323  2.2858 -1.7136 -1.0275
 8347SOL    HW236504   1.409   3.442   2.436  0.0529 -0.0194 -2.5765
 8348SOL     OW36505   3.925   3.651  14.983 -0.1471 -0.9108 -0.4662
 8348SOL    HW136506   3.834   3.677  14.991  0.2455  0.0745  0.8848
 8348SOL    HW236507   3.944   3.697  14.901  1.2422 -1.5654 -0.5167
 8349SOL     OW36508   0.500   1.636   7.644 -0.3925 -0.0559  0.6874
 8349SOL    HW136509   0.545   1.648   7.561 -2.1693  0.5632 -0.1904
 8349SOL    HW236510   0.515   1.721   7.686  0.9680  0.8466 -1.6353
 8350SOL     OW36511   1.003   1.506  13.030  0.0008 -0.2579 -0.2782
 8350SOL    HW136512   1.060   1.553  12.969  0.3227 -0.7519 -0.3588
 8350SOL    HW236513   1.068   1.459  13.083  0.0637  0.1029 -0.0312
 8351SOL     OW36514   3.588   0.659   5.240 -0.1359 -0.0036 -1.0593
 8351SOL    HW136515   3.495   0.637   5.246  0.4140 -2.1188 -0.2215
 8351SOL    HW236516   3.634   0.576   5.251  1.9760  0.9178 -2.8818
 8352SOL     OW36517   4.646   0.789   5.438  0.2206  0.3639  0.3341
 8352SOL    HW136518   4.659   0.696   5.421 -0.1077  0.3015  0.4279
 8352SOL    HW236519   4.556   0.796   5.407  0.0126  0.4341  0.9599
 8353SOL     OW36520   3.159   0.243   8.565 -0.3310  0.6022 -0.2176
 8353SOL    HW136521   3.228   0.269   8.626  0.8941 -2.2789 -0.3768
 8353SOL    HW236522   3.130   0.326   8.527 -2.5428 -0.9201 -1.7856
 8354SOL     OW36523   1.979   1.547  10.207 -0.5933  0.3119  0.0519
 8354SOL    HW136524   1.917   1.476  10.192  2.0794 -1.9706 -0.1767
 8354SOL    HW236525   1.955   1.567  10.298  0.3896  0.9276  0.1866
 8355SOL     OW36526   0.529   3.440   5.035  0.8296  0.0890 -0.1110
 8355SOL    HW136527   0.523   3.345   5.051  0.5486 -0.2380 -2.1303
 8355SOL    HW236528   0.533   3.479   5.122 -0.3262 -1.3486  0.5821
 8356SOL     OW36529   1.105   2.997   9.218 -0.3436 -0.0250 -0.3805
 8356SOL    HW136530   1.182   2.950   9.187  0.7144  1.2975  0.2437
 8356SOL    HW236531   1.108   2.970   9.309  2.5726  0.0747 -0.4389
 8357SOL     OW36532   0.859   1.182   5.360  0.0732  0.1570  0.2352
 8357SOL    HW136533   0.842   1.219   5.273 -0.7864 -0.6075  0.0657
 8357SOL    HW236534   0.854   1.262   5.411 -0.0651 -0.8597  1.8435
 8358SOL     OW36535   2.901   3.187   3.881 -0.3815 -0.2365 -0.2035
 8358SOL    HW136536   2.927   3.095   3.883  1.4819  0.3220  2.3879
 8358SOL    HW236537   2.978   3.234   3.848 -0.4773 -0.0904 -0.2158
 8359SOL     OW36538   1.568   3.122   2.360  0.1383 -0.1319 -0.2988
 8359SOL    HW136539   1.516   3.073   2.424  1.6834  1.4114  2.1397
 8359SOL    HW236540   1.542   3.211   2.384 -1.7861 -0.5282 -0.8954
 8360SOL     OW36541   4.506   0.277  13.946  0.0757  0.1365  0.7418
 8360SOL    HW136542   4.479   0.224  14.021 -1.3658 -1.9774 -1.2885
 8360SOL    HW236543   4.428   0.332  13.935  0.9813  1.1314 -0.7554
 8361SOL     OW36544   0.181   2.201  11.377  0.7267 -0.0272  1.2295
 8361SOL    HW136545   0.118   2.264  11.344  1.3355 -0.1348 -0.1668
 8361SOL    HW236546   0.142   2.126  11.331  1.1140 -0.3102  1.3544
 8362SOL     OW36547   0.593   1.083   6.626  0.0761 -0.3762 -0.2529
 8362SOL    HW136548   0.565   1.060   6.538  0.2512 -1.7411  0.0570
 8362SOL    HW236549   0.660   1.017   6.643  0.8965  0.0874 -1.7124
 8363SOL     OW36550   2.419   3.112   4.311  0.2138 -0.3931 -0.2479
 8363SOL    HW136551   2.478   3.038   4.322 -0.6569 -1.2469 -1.3714
 8363SOL    HW236552   2.341   3.070   4.348  0.0078  1.0238  0.9123
 8364SOL     OW36553   2.823   3.348   0.016  0.5823  1.0927  0.1697
 8364SOL    HW136554   2.904   3.299   0.030 -0.2845 -0.1828  0.7773
 8364SOL    HW236555   2.831   3.421   0.077  0.3079  2.4209 -1.3843
 8365SOL     OW36556   2.336   3.381   8.441 -0.6296 -0.0687  0.0489
 8365SOL    HW136557   2.298   3.467   8.424 -1.2332 -0.0095  1.7364
 8365SOL    HW236558   2.335   3.340   8.354 -2.4082  2.6588 -1.1952
 8366SOL     OW36559   0.890   0.192  16.133 -0.5404  0.1805  0.1009
 8366SOL    HW136560   0.851   0.233  16.210  0.1929 -0.1034  0.6199
 8366SOL    HW236561   0.961   0.148  16.178 -0.1161  1.1014  0.3182
 8367SOL     OW36562   0.665   2.395   8.050 -0.4529  0.1003  0.6330
 8367SOL    HW136563   0.669   2.483   8.011  0.0028 -0.3757 -0.4181
 8367SOL    HW236564   0.573   2.403   8.073 -0.6678  0.9001 -0.4999
 8368SOL     OW36565   4.676   2.192  17.631  0.5060  0.2814 -0.3837
 8368SOL    HW136566   4.669   2.128  17.560 -0.5438  0.7452 -0.6857
 8368SOL    HW236567   4.589   2.189  17.670  0.6133  0.1005 -0.1575
 8369SOL     OW36568   0.866   1.332   5.829 -0.9801 -0.2573 -0.2609
 8369SOL    HW136569   0.928   1.321   5.757  1.4160 -1.9065  2.0745
 8369SOL    HW236570   0.887   1.256   5.883 -0.1717  0.1040 -0.0726
 8370SOL     OW36571   4.187   4.591  14.728  0.0603  0.5453  0.3775
 8370SOL    HW136572   4.250   4.660  14.750  0.8243  0.2172 -0.7623
 8370SOL    HW236573   4.135   4.630  14.658 -2.3125 -0.0223  1.8432
 8371SOL     OW36574   0.017   4.661   6.562 -0.1151  0.8473  0.1450
 8371SOL    HW136575   0.035   4.592   6.499 -2.3955  0.7613 -0.4152
 8371SOL    HW236576   4.669   4.628   6.621 -0.6160  1.2849 -0.1856
 8372SOL     OW36577   4.176   3.439   7.070 -0.2892 -0.1020 -0.5488
 8372SOL    HW136578   4.145   3.407   7.154 -1.4380  2.1998 -0.1006
 8372SOL    HW236579   4.230   3.515   7.087  1.6619 -1.7783  0.7470
 8373SOL     OW36580   3.075   4.429   4.673  0.4054  0.0229  0.4652
 8373SOL    HW136581   3.041   4.495   4.612  1.6690  0.5734  0.3722
 8373SOL    HW236582   3.164   4.413   4.642 -0.5472 -1.3749 -1.5832
 8374SOL     OW36583   1.216   2.401   7.179  0.1681  0.0814  0.1222
 8374SOL    HW136584   1.272   2.422   7.105 -2.9150 -0.0583 -2.2722
 8374SOL    HW236585   1.176   2.489   7.181  0.4488  0.2420 -1.7701
 8375SOL     OW36586   0.986   2.790  14.428  0.1480 -0.0238  0.1649
 8375SOL    HW136587   0.928   2.812  14.500 -1.2923 -0.0644 -0.9995
 8375SOL    HW236588   0.947   2.833  14.352 -1.9413  1.6920  2.2314
 8376SOL     OW36589   1.484   3.584  14.048  0.2485  0.4193  0.5491
 8376SOL    HW136590   1.545   3.545  14.111 -0.6195  0.0597  1.1639
 8376SOL    HW236591   1.403   3.535  14.057 -0.0766  0.8957  0.1977
 8377SOL     OW36592   0.776   3.138  14.883 -0.4611  1.1018  0.0935
 8377SOL    HW136593   0.713   3.210  14.883  1.0289  2.3981  1.6246
 8377SOL    HW236594   0.776   3.122  14.977  1.9009  0.4876 -0.0061
 8378SOL     OW36595   3.038   2.780   8.846  0.1763  0.0727  0.3003
 8378SOL    HW136596   3.015   2.705   8.900  1.6255  2.2016  3.8893
 8378SOL    HW236597   2.950   2.816   8.850  1.3967  3.3536 -2.1418
 8379SOL     OW36598   2.172   3.001   6.721 -0.4703  0.6948 -0.2764
 8379SOL    HW136599   2.160   2.910   6.748  0.3940  0.2416 -1.4200
 8379SOL    HW236600   2.255   3.029   6.761 -0.4524 -0.8527  0.7708
 8380SOL     OW36601   1.512   3.501   7.653 -0.9486  0.1887  0.0995
 8380SOL    HW136602   1.427   3.471   7.685 -2.0039  2.5742 -0.4921
 8380SOL    HW236603   1.574   3.444   7.699 -1.6494 -1.9103 -1.5503
 8381SOL     OW36604   2.968   3.748  12.389 -0.0691  0.6785 -0.2196
 8381SOL    HW136605   3.042   3.779  12.440 -0.2302  1.2069 -0.3131
 8381SOL    HW236606   2.950   3.668  12.439 -0.2484  0.9092  0.0778
 8382SOL     OW36607   3.587   2.450  11.500 -0.4173  0.0405  0.0776
 8382SOL    HW136608   3.592   2.545  11.497 -0.3482  0.0516  0.6659
 8382SOL    HW236609   3.679   2.429  11.482 -0.3107  0.2600  0.3771
 8383SOL     OW36610   3.384   4.206   1.901 -0.4800  0.1462  0.1727
 8383SOL    HW136611   3.366   4.122   1.860  0.4773 -0.5080  1.0845
 8383SOL    HW236612   3.300   4.252   1.899  0.6734  2.0604 -3.0691
 8384SOL     OW36613   4.484   2.841   1.498  0.2182 -0.4753  0.6214
 8384SOL    HW136614   4.389   2.843   1.503  0.2329 -0.6225  0.9263
 8384SOL    HW236615   4.502   2.785   1.423 -0.5064  0.3991 -0.1974
 8385SOL     OW36616   2.499   3.204   5.963 -0.8965  0.2157  0.0635
 8385SOL    HW136617   2.565   3.255   6.011  0.0333 -1.0410  0.1268
 8385SOL    HW236618   2.519   3.222   5.871 -2.1344 -3.1596 -0.8303
 8386SOL     OW36619   2.072   4.684   2.767  0.2867 -0.2382  0.2648
 8386SOL    HW136620   2.096   4.665   2.676  0.5182  1.1305  0.0441
 8386SOL    HW236621   2.017   4.609   2.791 -3.8087  2.6636  0.0753
 8387SOL     OW36622   2.434   3.464   5.712  0.2891 -0.1417 -0.9140
 8387SOL    HW136623   2.466   3.376   5.731  1.6634  0.1431 -1.8555
 8387SOL    HW236624   2.372   3.443   5.643  0.0350 -1.3978 -0.3049
 8388SOL     OW36625   3.785   3.764   9.821  0.0534  0.0296 -0.2085
 8388SOL    HW136626   3.823   3.842   9.781  1.1125  0.6587  1.9946
 8388SOL    HW236627   3.723   3.732   9.756 -0.0760 -2.4727  1.1624
 8389SOL     OW36628   1.778   3.956   5.529  0.3802  0.0086  0.4698
 8389SOL    HW136629   1.852   3.926   5.582  0.5380 -0.6289 -0.1028
 8389SOL    HW236630   1.798   4.049   5.528  2.0851 -0.3509 -0.5056
 8390SOL     OW36631   4.032   1.707   6.791 -0.0296  0.0091  0.3481
 8390SOL    HW136632   4.011   1.737   6.703  0.0452 -2.7884 -0.5913
 8390SOL    HW236633   3.947   1.736   6.825 -0.5025 -1.7401  0.6253
 8391SOL     OW36634   2.754   2.632   5.146  0.0495  0.0110  0.1541
 8391SOL    HW136635   2.816   2.563   5.124 -0.3898 -0.6699  1.0485
 8391SOL    HW236636   2.686   2.612   5.082  0.7034 -1.5546 -0.0351
 8392SOL     OW36637   1.236   1.498   8.729  0.0053 -0.5367  0.2649
 8392SOL    HW136638   1.203   1.587   8.740  0.3080 -0.6833  2.4310
 8392SOL    HW236639   1.304   1.494   8.797  0.8821  1.9834 -0.4632
 8393SOL     OW36640   1.950   2.809   8.707 -0.3737  0.4535  0.2838
 8393SOL    HW136641   1.881   2.744   8.697  0.0355  0.4247 -2.3189
 8393SOL    HW236642   1.933   2.862   8.784  1.7938  0.6954  0.6010
 8394SOL     OW36643   4.141   1.188   7.383  0.6012  0.2187 -0.5938
 8394SOL    HW136644   4.146   1.224   7.472 -1.2981 -1.8447  0.3500
 8394SOL    HW236645   4.237   1.184   7.377  0.7820  0.8829  1.7043
 8395SOL     OW36646   1.897   2.414   7.893  0.0760 -0.5622 -0.6593
 8395SOL    HW136647   1.911   2.321   7.911  0.0861 -0.2919  0.6844
 8395SOL    HW236648   1.984   2.451   7.882 -0.8871  1.4414 -1.4765
 8396SOL     OW36649   1.241   1.916   4.461  0.2793 -0.5205 -0.4491
 8396SOL    HW136650   1.191   1.845   4.421 -1.3786  0.2781  0.2077
 8396SOL    HW236651   1.327   1.916   4.418  1.5437  0.9509  2.0305
 8397SOL     OW36652   1.706   0.623   0.232 -0.3743 -0.2896 -0.2600
 8397SOL    HW136653   1.662   0.667   0.159 -2.6259 -1.2044  0.5381
 8397SOL    HW236654   1.758   0.560   0.183  0.1896  0.1368 -0.2207
 8398SOL     OW36655   4.458   2.485  11.542 -0.1735 -0.0573 -0.0431
 8398SOL    HW136656   4.374   2.523  11.570  1.0799  2.1711  0.7055
 8398SOL    HW236657   4.433   2.474  11.450 -0.8272  0.1782  0.1045
 8399SOL     OW36658   0.721   3.270  17.231  0.5972  0.5920  0.5389
 8399SOL    HW136659   0.731   3.249  17.138  2.6528  1.9199  0.4431
 8399SOL    HW236660   0.806   3.245  17.267  0.7398  0.2031 -0.0583
 8400SOL     OW36661   2.709   4.231   2.109 -0.4128  0.4844  0.1423
 8400SOL    HW136662   2.764   4.160   2.078  0.3982  0.1602  2.3101
 8400SOL    HW236663   2.715   4.291   2.034 -0.2941  0.4068  0.0908
 8401SOL     OW36664   0.233   0.019   4.447 -0.0453 -0.5651  0.7007
 8401SOL    HW136665   0.279   0.083   4.501  0.4691 -0.8934  0.6515
 8401SOL    HW236666   0.213   0.073   4.371  1.9574  2.3043  2.2286
 8402SOL     OW36667   1.307   2.880   4.582  0.3637  0.7573 -0.8532
 8402SOL    HW136668   1.363   2.957   4.592 -0.5051  1.1382  1.0870
 8402SOL    HW236669   1.232   2.925   4.542  0.4257  0.5390 -1.2184
 8403SOL     OW36670   0.321   3.027   4.609  0.2952 -0.0683  0.7655
 8403SOL    HW136671   0.275   3.026   4.694 -1.6306 -1.1728 -0.2807
 8403SOL    HW236672   0.279   2.947   4.579  0.0256  1.1948 -2.2170
 8404SOL     OW36673   3.332   2.519  15.742  0.1942  0.3947 -0.4479
 8404SOL    HW136674   3.426   2.504  15.727  0.1884  0.1925 -0.2857
 8404SOL    HW236675   3.298   2.430  15.749  0.8147  0.4160  3.1164
 8405SOL     OW36676   2.167   0.371   7.436  0.4669 -0.6794  0.5004
 8405SOL    HW136677   2.104   0.443   7.450  1.1685  0.1782 -0.7047
 8405SOL    HW236678   2.228   0.426   7.387 -1.6241  0.8361 -0.4210
 8406SOL     OW36679   3.646   3.928   0.554  0.6944 -0.7783  0.6028
 8406SOL    HW136680   3.645   4.011   0.505 -0.9219 -1.7681 -1.0282
 8406SOL    HW236681   3.740   3.910   0.555  1.2478  1.9192 -3.6960
 8407SOL     OW36682   1.543   3.957   5.013 -0.0039  0.7731 -0.5606
 8407SOL    HW136683   1.500   3.912   5.085 -2.9344 -0.0184 -2.8244
 8407SOL    HW236684   1.593   4.024   5.060  1.6507 -1.0842  0.3198
 8408SOL     OW36685   1.429   2.543  10.314 -0.0051 -0.0843  0.1670
 8408SOL    HW136686   1.480   2.610  10.360 -0.8222  0.6485  0.0080
 8408SOL    HW236687   1.439   2.471  10.376  1.3302 -0.6910 -0.7482
 8409SOL     OW36688   1.348   3.469  11.666  0.0449 -0.1068 -0.0984
 8409SOL    HW136689   1.288   3.405  11.627  0.1929 -1.0897  1.2937
 8409SOL    HW236690   1.377   3.514  11.587 -0.6937  0.5141 -0.0184
 8410SOL     OW36691   0.087   2.707  16.105 -0.5211  0.4412  0.3183
 8410SOL    HW136692   4.720   2.684  16.135 -0.3693  0.5881  0.8825
 8410SOL    HW236693   0.135   2.634  16.143  1.0013  1.1085 -0.3067
 8411SOL     OW36694   0.642   1.228   5.680  0.0874 -0.1374  0.1187
 8411SOL    HW136695   0.588   1.304   5.660 -1.0272 -1.3937 -1.6787
 8411SOL    HW236696   0.718   1.271   5.719  0.5271  0.4509 -1.3717
 8412SOL     OW36697   4.498   2.109   5.457 -0.0035 -1.0229  0.0461
 8412SOL    HW136698   4.472   2.084   5.545 -0.8331  0.3596  0.2064
 8412SOL    HW236699   4.544   2.187   5.487 -1.3737 -0.3250  0.3659
 8413SOL     OW36700   4.497   1.803   3.171  0.0102 -0.0161 -0.0097
 8413SOL    HW136701   4.439   1.875   3.194  1.3303  1.5881 -1.7502
 8413SOL    HW236702   4.432   1.736   3.149  0.8026 -1.1832  1.1939
 8414SOL     OW36703   3.807   1.546   5.666 -0.2683  0.7556 -0.2581
 8414SOL    HW136704   3.746   1.537   5.740  1.2956 -1.9008  0.6829
 8414SOL    HW236705   3.745   1.552   5.594  0.2886  1.6261 -0.6687
 8415SOL     OW36706   3.701   3.007   4.152 -0.1894  0.0813  0.6989
 8415SOL    HW136707   3.785   2.961   4.165  1.2583  2.4399 -0.2513
 8415SOL    HW236708   3.645   2.972   4.222  0.4696 -0.3708  1.0057
 8416SOL     OW36709   2.764   1.349   7.977  0.6719 -0.2744  0.0948
 8416SOL    HW136710   2.813   1.362   7.895  1.8078  0.1822  0.8434
 8416SOL    HW236711   2.681   1.327   7.935  0.2900 -0.0267  0.7384
 8417SOL     OW36712   1.715   3.233  17.669  0.0100  0.0817  0.8968
 8417SOL    HW136713   1.638   3.234   0.041 -1.0403 -2.5688 -0.5159
 8417SOL    HW236714   1.681   3.232  17.580  1.4759 -0.5722  0.3386
 8418SOL     OW36715   3.340   0.086   8.976  0.1161  0.2664  0.0992
 8418SOL    HW136716   3.299   0.139   8.908  1.1958  0.6370 -0.2668
 8418SOL    HW236717   3.293   0.002   8.973  2.1936 -0.9324  0.8186
 8419SOL     OW36718   3.725   0.932   3.790  0.4509  0.3213  0.0970
 8419SOL    HW136719   3.803   0.975   3.756  0.0519 -0.8623 -2.3263
 8419SOL    HW236720   3.739   0.948   3.883 -2.7141  0.4798  0.5541
 8420SOL     OW36721   0.805   4.148   4.227  0.0821 -0.3187 -0.4696
 8420SOL    HW136722   0.714   4.119   4.229 -0.2655  0.7859 -0.3166
 8420SOL    HW236723   0.795   4.206   4.152 -0.5234 -0.1309 -0.2445
 8421SOL     OW36724   3.943   0.002   5.325  0.0049  0.5863  0.3429
 8421SOL    HW136725   3.931   4.701   5.233  0.8245  0.0882  0.3551
 8421SOL    HW236726   3.870   0.063   5.336 -0.4440  0.5775 -2.7889
 8422SOL     OW36727   1.829   1.557   5.156  0.3120  0.3754  0.6160
 8422SOL    HW136728   1.903   1.615   5.140  1.5131 -1.6891 -1.2468
 8422SOL    HW236729   1.839   1.544   5.251 -2.6405 -0.1154  0.8646
 8423SOL     OW36730   3.650   0.548   8.221 -0.0676 -0.5707 -0.7288
 8423SOL    HW136731   3.691   0.462   8.230  3.1094  0.6532 -3.2968
 8423SOL    HW236732   3.576   0.547   8.282  0.5616 -0.5362  0.0373
 8424SOL     OW36733   2.212   1.166   6.337  0.3281  0.1237 -0.2052
 8424SOL    HW136734   2.287   1.197   6.388 -0.1782 -1.8373  1.7174
 8424SOL    HW236735   2.159   1.246   6.326  0.5020  0.3079  0.3253
 8425SOL     OW36736   1.336   0.576   3.164  0.1225  0.5066  0.2808
 8425SOL    HW136737   1.421   0.599   3.125  0.4576  0.4909  1.0060
 8425SOL    HW236738   1.362   0.590   3.255  0.4558  0.4315  0.1999
 8426SOL     OW36739   1.014   2.274  17.465  0.0004 -0.1069 -0.3058
 8426SOL    HW136740   1.087   2.333  17.482  0.0976 -0.5740  0.8851
 8426SOL    HW236741   0.990   2.249  17.554 -2.0218  0.1706 -0.7715
 8427SOL     OW36742   4.457   4.123   7.598 -0.2923 -0.0698  0.4684
 8427SOL    HW136743   4.416   4.042   7.567  1.4713 -0.9341  0.4193
 8427SOL    HW236744   4.433   4.124   7.691  1.9019  1.1771  0.9990
 8428SOL     OW36745   1.116   0.049   6.656  0.8619  0.4826 -0.7854
 8428SOL    HW136746   1.021   0.038   6.649  0.9345 -0.4682 -0.3629
 8428SOL    HW236747   1.118   0.143   6.674 -0.0598  0.1366  1.2099
 8429SOL     OW36748   0.688   4.432   5.354 -0.3228 -0.3591 -0.1621
 8429SOL    HW136749   0.617   4.453   5.415  1.5392  3.2750  0.7473
 8429SOL    HW236750   0.639   4.445   5.273  0.0819 -0.4375 -0.4159
 8430SOL     OW36751   4.209   4.247  11.399 -0.2009  0.7075  0.3909
 8430SOL    HW136752   4.147   4.184  11.435  0.7286 -1.6372 -2.0978
 8430SOL    HW236753   4.264   4.191  11.344  1.0531 -0.7809  3.1789
 8431SOL     OW36754   1.674   2.777   1.617  0.3526  0.7723  0.0615
 8431SOL    HW136755   1.646   2.730   1.538  1.8432  1.1169 -0.6650
 8431SOL    HW236756   1.604   2.840   1.635  0.4004  0.2499  2.0965
 8432SOL     OW36757   2.603   4.164   0.337  0.2490 -0.0982  0.6829
 8432SOL    HW136758   2.581   4.256   0.321  0.1340 -0.1302  0.6549
 8432SOL    HW236759   2.522   4.117   0.318 -0.7167  1.4272  1.0814
 8433SOL     OW36760   3.188   0.345   4.480  0.1151 -0.0125  0.3912
 8433SOL    HW136761   3.226   0.261   4.457 -1.3161 -0.9328  1.3636
 8433SOL    HW236762   3.095   0.321   4.481 -0.1557  0.9341 -1.1039
 8434SOL     OW36763   4.243   1.086   4.601 -0.2173 -0.4985  0.1856
 8434SOL    HW136764   4.188   1.133   4.538  0.7797  2.9119  1.8606
 8434SOL    HW236765   4.281   1.157   4.653 -2.0984  0.7882 -0.1952
 8435SOL     OW36766   2.601   1.373  15.438 -0.6531 -0.3800 -0.1467
 8435SOL    HW136767   2.530   1.422  15.395 -0.7326 -0.4315 -0.0727
 8435SOL    HW236768   2.617   1.429  15.515 -1.4823 -2.2043  1.3365
 8436SOL     OW36769   2.750   2.045  15.763  0.0772 -0.4372 -0.0705
 8436SOL    HW136770   2.789   2.018  15.679 -1.5200 -2.2697 -0.2330
 8436SOL    HW236771   2.659   2.065  15.739  0.2302 -0.9240 -1.0908
 8437SOL     OW36772   0.957   2.398   7.390 -0.0476 -0.0422 -0.4729
 8437SOL    HW136773   0.944   2.309   7.422  0.6422 -0.3080 -0.9558
 8437SOL    HW236774   0.945   2.388   7.296  1.9958 -1.0008 -0.6263
 8438SOL     OW36775   4.425   3.380  16.205 -0.3077  1.0140 -0.4074
 8438SOL    HW136776   4.405   3.333  16.124  0.3300  0.7702 -0.4210
 8438SOL    HW236777   4.353   3.349  16.260 -0.6272  1.5325 -0.5372
 8439SOL     OW36778   1.797   3.389   2.351 -0.5227  0.0041  0.2687
 8439SOL    HW136779   1.850   3.429   2.421 -1.5470  2.6173 -0.4635
 8439SOL    HW236780   1.718   3.443   2.358 -0.2288  0.6918 -1.8805
 8440SOL     OW36781   4.622   0.515  15.356  0.0561 -0.0629  0.0936
 8440SOL    HW136782   4.668   0.591  15.391 -0.1550  0.4841 -0.8166
 8440SOL    HW236783   4.693   0.451  15.360  2.8020  2.8544 -1.5691
 8441SOL     OW36784   0.201   3.922   2.817 -0.3599  0.1766 -0.9164
 8441SOL    HW136785   0.282   3.906   2.769 -0.9189  0.0768 -1.8334
 8441SOL    HW236786   0.200   3.847   2.877 -0.1928 -0.4069 -1.6373
 8442SOL     OW36787   3.058   1.327   4.987  0.5786 -0.0597 -0.2093
 8442SOL    HW136788   3.127   1.267   4.957 -1.8636 -2.4296 -1.1148
 8442SOL    HW236789   3.047   1.384   4.912 -0.1613  0.2861  0.1634
 8443SOL     OW36790   1.155   1.124   6.516  0.0090 -0.0088  0.6557
 8443SOL    HW136791   1.089   1.130   6.447  1.4956  2.3847 -0.5554
 8443SOL    HW236792   1.200   1.204   6.489 -2.6401  1.0812 -0.5926
 8444SOL     OW36793   4.240   2.219  11.382 -0.2324 -0.4692 -0.0301
 8444SOL    HW136794   4.146   2.233  11.369  0.3109  2.2083 -1.2183
 8444SOL    HW236795   4.280   2.305  11.368 -0.2577 -0.2281  1.4423
 8445SOL     OW36796   3.621   1.196   1.788  0.4895 -0.7029  0.3957
 8445SOL    HW136797   3.707   1.232   1.807 -0.1681  2.1159 -1.9564
 8445SOL    HW236798   3.565   1.269   1.815  0.1947 -0.1060 -1.8002
 8446SOL     OW36799   2.001   0.963   9.245 -0.0480  0.3541  0.5760
 8446SOL    HW136800   1.933   1.009   9.293  0.1567 -0.5166  1.6928
 8446SOL    HW236801   1.948   0.892   9.210 -0.6286  0.4362  1.3019
 8447SOL     OW36802   3.740   3.755   1.459 -0.3776 -0.2826 -0.0484
 8447SOL    HW136803   3.668   3.796   1.507 -1.4815 -0.8662 -1.2177
 8447SOL    HW236804   3.817   3.812   1.465  0.8971 -2.0334  0.3624
 8448SOL     OW36805   1.592   4.105   7.480 -0.0368 -0.7885  0.0273
 8448SOL    HW136806   1.615   4.122   7.389  1.2478 -0.1384  0.4818
 8448SOL    HW236807   1.673   4.115   7.529 -0.4243 -1.0736  0.7331
 8449SOL     OW36808   0.512   0.901  10.037 -0.1460 -0.1217  0.1612
 8449SOL    HW136809   0.530   0.809  10.057 -1.6681 -0.5178 -0.2725
 8449SOL    HW236810   0.532   0.940  10.122 -1.2267 -0.6829  0.6729
 8450SOL     OW36811   2.772   3.978  17.483 -0.0603  0.3140 -0.3546
 8450SOL    HW136812   2.708   3.942  17.545  1.7324  0.8569  1.7883
 8450SOL    HW236813   2.832   4.027  17.539  0.7315  3.1021 -3.6949
 8451SOL     OW36814   2.133   3.861   8.753  0.2852 -0.4301  0.4580
 8451SOL    HW136815   2.064   3.861   8.687 -1.5624  0.9251  2.3973
 8451SOL    HW236816   2.106   3.933   8.810 -1.9511 -1.7265  1.0293
 8452SOL     OW36817   3.348   0.372   0.110 -0.7222  0.2931 -0.4402
 8452SOL    HW136818   3.262   0.333   0.127 -0.6744  0.5861  0.4755
 8452SOL    HW236819   3.380   0.318   0.038 -0.0656  1.0755 -0.7429
 8453SOL     OW36820   2.387   0.582   8.121  0.2396  0.6556 -0.3317
 8453SOL    HW136821   2.354   0.524   8.052 -0.0832  1.9419 -1.2621
 8453SOL    HW236822   2.479   0.556   8.126 -0.3039 -1.2271 -0.1695
 8454SOL     OW36823   1.074   0.396   0.908 -0.3221 -0.2783  0.3093
 8454SOL    HW136824   1.127   0.474   0.926  0.9807 -0.9156 -0.7323
 8454SOL    HW236825   0.996   0.419   0.959 -0.1595  0.4286  0.2383
 8455SOL     OW36826   1.625   2.598   6.427 -0.9359  0.1905  0.0705
 8455SOL    HW136827   1.583   2.671   6.472  3.4697  2.7267  0.0594
 8455SOL    HW236828   1.656   2.655   6.357  1.5841 -0.7923  0.3635
 8456SOL     OW36829   2.144   2.286   0.759 -0.1158 -0.3037  0.4354
 8456SOL    HW136830   2.084   2.353   0.794 -2.1443 -0.5987 -2.4541
 8456SOL    HW236831   2.083   2.213   0.769  0.9684 -1.4243 -1.1995
 8457SOL     OW36832   0.660   3.133  15.736  0.0018  0.1222  0.2441
 8457SOL    HW136833   0.593   3.065  15.740  0.2440 -0.0985  0.5236
 8457SOL    HW236834   0.734   3.093  15.782 -0.4445  1.7664  2.4109
 8458SOL     OW36835   3.518   2.687   7.846  0.2011  0.0709 -0.2382
 8458SOL    HW136836   3.613   2.676   7.847  0.0734 -1.1273 -1.2394
 8458SOL    HW236837   3.489   2.661   7.758  0.6190 -1.6403  0.1190
 8459SOL     OW36838   0.557   0.864   8.961  0.3127 -0.0860  0.4991
 8459SOL    HW136839   0.463   0.880   8.951 -0.0014 -0.5153  2.7126
 8459SOL    HW236840   0.575   0.806   8.886 -0.3096  0.0933  0.2150
 8460SOL     OW36841   4.536   2.225  11.481  0.2150  0.3848 -0.0771
 8460SOL    HW136842   4.601   2.244  11.414  1.1646 -0.7037  0.5395
 8460SOL    HW236843   4.510   2.314  11.505 -1.8340  0.4633 -2.6381
 8461SOL     OW36844   1.662   0.964   3.100  0.2841 -0.3798  0.0384
 8461SOL    HW136845   1.715   0.922   3.032  0.1492 -0.8574  0.2284
 8461SOL    HW236846   1.652   1.051   3.062 -2.3777 -0.2918  0.9129
 8462SOL     OW36847   2.253   3.536   0.597  0.1096 -0.2975 -0.5461
 8462SOL    HW136848   2.345   3.562   0.597  0.2689 -0.8452 -1.2106
 8462SOL    HW236849   2.259   3.441   0.604  2.4530  0.0029  1.1157
 8463SOL     OW36850   4.214   1.090   5.312  0.1332 -0.1599  0.5115
 8463SOL    HW136851   4.261   1.155   5.261  1.1082 -2.5799 -1.6884
 8463SOL    HW236852   4.235   1.114   5.402  1.6324 -1.1912  0.4253
 8464SOL     OW36853   3.281   1.326   8.865 -0.1744 -0.2464  0.2739
 8464SOL    HW136854   3.192   1.295   8.882 -0.4687  0.2515 -0.3540
 8464SOL    HW236855   3.286   1.408   8.914  1.0791  0.4313 -0.9744
 8465SOL     OW36856   2.997   2.085  12.946  0.1725  0.8016 -0.2814
 8465SOL    HW136857   3.059   2.066  12.875  0.3641 -0.3010  0.1847
 8465SOL    HW236858   3.029   2.035  13.021  0.9428  1.2572 -0.3056
 8466SOL     OW36859   2.521   3.680  11.494 -0.1920  0.0995  0.2085
 8466SOL    HW136860   2.485   3.707  11.410 -1.4979  0.9064  1.0168
 8466SOL    HW236861   2.502   3.587  11.503  1.2386 -0.0068  2.1182
 8467SOL     OW36862   4.210   3.838   2.414 -0.0977 -0.3082 -0.4241
 8467SOL    HW136863   4.131   3.886   2.390  0.5801  2.0114  2.0612
 8467SOL    HW236864   4.231   3.808   2.325 -0.3293 -1.8893  0.0527
 8468SOL     OW36865   1.858   3.278   5.387 -0.1759 -0.6384  0.0379
 8468SOL    HW136866   1.838   3.288   5.480  0.0565  1.3465 -0.1100
 8468SOL    HW236867   1.839   3.185   5.375  0.5201 -0.9120  1.0628
 8469SOL     OW36868   4.655   2.350   8.718  0.0133 -0.5433 -0.1843
 8469SOL    HW136869   4.629   2.424   8.664  0.0700  0.8403  1.6624
 8469SOL    HW236870   0.020   2.327   8.684  1.3710  1.2532  2.0133
 8470SOL     OW36871   3.189   3.380   7.486 -0.0469 -0.6603 -0.5200
 8470SOL    HW136872   3.225   3.405   7.401  0.6130  0.0696 -0.0222
 8470SOL    HW236873   3.227   3.293   7.499 -0.1287 -0.2549  2.5238
 8471SOL     OW36874   2.001   3.579   4.116  1.1440  0.3095  0.1671
 8471SOL    HW136875   2.022   3.661   4.160 -0.2410  0.5718  0.3449
 8471SOL    HW236876   1.906   3.587   4.105  1.0847 -1.1415 -0.2817
 8472SOL     OW36877   1.706   0.160   3.115 -0.2525 -0.0922  0.3188
 8472SOL    HW136878   1.635   0.171   3.051 -1.4530 -2.0815  1.2853
 8472SOL    HW236879   1.731   0.068   3.120  0.3529  0.0581  0.0383
 8473SOL     OW36880   3.287   2.705   7.973  0.5300 -0.1775  0.4684
 8473SOL    HW136881   3.287   2.673   8.063  0.7817 -1.4510  0.0146
 8473SOL    HW236882   3.377   2.698   7.939  0.8737 -0.1542  1.3760
 8474SOL     OW36883   3.529   4.673   4.801  0.0554 -0.1361  0.1165
 8474SOL    HW136884   3.529   4.719   4.885  1.1759 -0.3750  0.2498
 8474SOL    HW236885   3.604   4.701   4.750 -0.4877  0.0800 -0.5591
 8475SOL     OW36886   4.422   1.030   7.818 -0.7934 -0.2869  0.2997
 8475SOL    HW136887   4.415   1.125   7.814 -2.3894 -0.4346 -0.4854
 8475SOL    HW236888   4.518   1.033   7.817 -0.7528 -1.5753  0.6799
 8476SOL     OW36889   3.684   3.182   9.500  0.4503  0.1164 -0.0023
 8476SOL    HW136890   3.678   3.122   9.425 -1.1868  1.6865 -1.1219
 8476SOL    HW236891   3.758   3.140   9.543 -0.2405 -0.3262  0.7428
 8477SOL     OW36892   0.398   1.997  13.808  0.1894  0.1449 -0.0453
 8477SOL    HW136893   0.318   2.011  13.859 -0.4274 -0.9122 -0.7151
 8477SOL    HW236894   0.450   2.077  13.812 -1.1450  0.8579  3.0271
 8478SOL     OW36895   0.236   0.157   2.542 -0.2305 -0.4765  0.7896
 8478SOL    HW136896   0.165   0.093   2.539 -2.5133  2.0288  1.2000
 8478SOL    HW236897   0.196   0.215   2.606 -0.3733 -0.5716  0.7855
 8479SOL     OW36898   1.601   4.105   0.010 -0.4510  0.1500  0.4987
 8479SOL    HW136899   1.555   4.022   0.025  1.7817 -1.0577  0.6732
 8479SOL    HW236900   1.537   4.144  17.636 -1.3905  1.7014  2.5075
 8480SOL     OW36901   0.538   2.411   9.132 -0.2186 -0.3818 -0.5109
 8480SOL    HW136902   0.451   2.452   9.132  1.1014  2.4363 -1.2139
 8480SOL    HW236903   0.544   2.386   9.040  0.8763  2.1715 -1.1433
 8481SOL     OW36904   0.057   0.471  15.082 -0.7879 -0.0849  0.1971
 8481SOL    HW136905   0.072   0.398  15.141  1.9156  0.3319  0.0344
 8481SOL    HW236906   0.096   0.441  15.000 -0.4287  2.0045 -0.3953
 8482SOL     OW36907   1.213   3.774   1.891  0.0432 -0.7571 -0.2628
 8482SOL    HW136908   1.224   3.832   1.966  0.7058 -0.2398 -0.7629
 8482SOL    HW236909   1.281   3.803   1.831  0.4685  0.5643  0.8523
 8483SOL     OW36910   3.093   2.710   7.161  0.9534 -0.4617 -0.2285
 8483SOL    HW136911   3.086   2.802   7.136  0.0667 -0.3408  0.4342
 8483SOL    HW236912   3.085   2.720   7.256 -1.2107  1.5294 -0.6133
 8484SOL     OW36913   0.932   4.095   1.971 -0.6103  0.4687 -0.5819
 8484SOL    HW136914   1.024   4.071   1.976 -1.6962 -3.0588  2.0450
 8484SOL    HW236915   0.904   4.032   2.037  0.1132  0.3664 -0.3813
 8485SOL     OW36916   1.911   1.218   5.420 -0.3381 -0.1049  0.3847
 8485SOL    HW136917   1.841   1.180   5.367 -0.5400 -0.3990  0.8704
 8485SOL    HW236918   1.954   1.136   5.444 -1.7958 -0.6018  1.2817
 8486SOL     OW36919   0.327   0.706   2.369  0.0368  0.5006  0.3105
 8486SOL    HW136920   0.411   0.702   2.416  1.3508 -0.4523 -2.0923
 8486SOL    HW236921   0.322   0.613   2.345 -3.1300  1.3670 -2.3849
 8487SOL     OW36922   2.479   3.859   6.536  0.4201 -0.0306  0.0185
 8487SOL    HW136923   2.520   3.931   6.489 -0.6251  1.1677  0.9421
 8487SOL    HW236924   2.399   3.850   6.485 -0.1507 -3.9108  1.5541
 8488SOL     OW36925   0.114   0.339   3.999  0.5131 -0.1579 -0.5068
 8488SOL    HW136926   0.044   0.281   3.968 -0.4695  1.5069 -1.4402
 8488SOL    HW236927   0.093   0.426   3.964 -2.5958 -0.5300  0.4365
 8489SOL     OW36928   4.181   1.756   7.053 -0.4490  0.0273 -0.5753
 8489SOL    HW136929   4.133   1.713   6.982  0.1597  0.8292 -1.4725
 8489SOL    HW236930   4.108   1.755   7.115  1.7876  1.0258  2.0946
 8490SOL     OW36931   2.211   1.367   3.991 -0.4512 -0.6977  0.6291
 8490SOL    HW136932   2.207   1.301   3.922 -0.3273 -0.2367  0.1784
 8490SOL    HW236933   2.246   1.316   4.064 -0.1620 -2.5782 -0.8302
 8491SOL     OW36934   4.395   0.257   6.570  0.6925 -0.2791  0.1880
 8491SOL    HW136935   4.381   0.335   6.517 -0.4548  0.1275  1.0998
 8491SOL    HW236936   4.358   0.283   6.654  0.1073 -0.7434  0.0737
 8492SOL     OW36937   0.533   0.012   3.525  0.2419  0.0325 -0.9013
 8492SOL    HW136938   0.556   4.692   3.608 -2.8585  2.7792  1.3021
 8492SOL    HW236939   0.571   0.100   3.527  0.0124  0.0935  0.7932
 8493SOL     OW36940   2.019   1.832  12.921 -0.0902 -0.2491 -0.0937
 8493SOL    HW136941   2.037   1.899  12.856  0.5572 -0.8498 -0.5374
 8493SOL    HW236942   1.930   1.804  12.898 -0.1432  0.2402 -0.4853
 8494SOL     OW36943   1.016   3.199  11.352  0.1844  0.4471  0.8587
 8494SOL    HW136944   0.937   3.211  11.404  0.6571  0.1024  1.6621
 8494SOL    HW236945   1.023   3.280  11.302  0.4372 -0.0512  0.0929
 8495SOL     OW36946   0.963   0.083   2.699 -0.9517 -0.4397  0.7334
 8495SOL    HW136947   0.904   0.152   2.727 -1.5099  0.4954 -2.7316
 8495SOL    HW236948   0.913   0.049   2.625  0.9478 -0.3772 -0.5911
 8496SOL     OW36949   1.125   2.894   6.123  0.1206 -0.3272  0.2362
 8496SOL    HW136950   1.077   2.977   6.124  0.6208  0.0054 -2.9153
 8496SOL    HW236951   1.148   2.891   6.216  0.2428 -0.8650  0.1887
 8497SOL     OW36952   3.777   3.560   8.363 -0.1067 -0.5853 -0.6166
 8497SOL    HW136953   3.860   3.589   8.325  0.7413  0.5279  2.0802
 8497SOL    HW236954   3.715   3.606   8.306 -0.8144 -0.7479  0.0242
 8498SOL     OW36955   3.714   3.052   2.739 -0.0033 -0.2009  0.1066
 8498SOL    HW136956   3.774   2.982   2.764 -0.4926  0.1687  2.3404
 8498SOL    HW236957   3.720   3.056   2.644 -0.5501 -1.3212  0.0383
 8499SOL     OW36958   0.413   4.024   1.190 -0.4173  0.1424  0.4544
 8499SOL    HW136959   0.498   4.024   1.146 -0.5940  0.9899  0.1101
 8499SOL    HW236960   0.380   3.946   1.146  0.4311 -1.5847  2.9212
 8500SOL     OW36961   2.968   3.003   7.503 -0.0011  0.0543 -0.1975
 8500SOL    HW136962   2.897   3.062   7.479 -1.6872 -1.9507 -0.0705
 8500SOL    HW236963   3.031   3.064   7.542 -0.7110  0.7979 -0.2293
 8501SOL     OW36964   2.519   4.366  17.318  0.3821 -0.4036  0.3965
 8501SOL    HW136965   2.582   4.388  17.249  0.3180  1.6813  1.0003
 8501SOL    HW236966   2.437   4.414  17.310  2.0641  2.0015 -2.4285
 8502SOL     OW36967   3.256   3.110   7.558  0.0270  0.1352 -0.1518
 8502SOL    HW136968   3.251   3.063   7.474 -1.3078 -2.6629  1.5030
 8502SOL    HW236969   3.350   3.111   7.573 -0.1086 -1.1966  0.7723
 8503SOL     OW36970   1.208   2.642   6.435  0.0812  0.7404 -0.3516
 8503SOL    HW136971   1.213   2.736   6.416 -1.6551  0.9306  0.1251
 8503SOL    HW236972   1.243   2.642   6.524  0.5225 -1.7685 -0.5313
 8504SOL     OW36973   1.282   2.909   2.189 -0.0580  0.0980  0.0564
 8504SOL    HW136974   1.332   2.875   2.115  0.9167  0.7310  0.4240
 8504SOL    HW236975   1.204   2.940   2.142  0.7604  1.6166 -0.2969
 8505SOL     OW36976   1.467   4.576  15.190 -0.3282 -0.5033  0.0580
 8505SOL    HW136977   1.489   4.484  15.206 -1.3174 -0.5750  1.0512
 8505SOL    HW236978   1.493   4.606  15.277  2.9545 -1.1670 -0.6997
 8506SOL     OW36979   3.984   4.215  14.625  0.1091 -0.3256 -0.0573
 8506SOL    HW136980   3.952   4.128  14.650 -1.6328 -0.1758 -1.7581
 8506SOL    HW236981   3.951   4.272  14.694  0.2770  1.0311 -1.0940
 8507SOL     OW36982   0.550   2.161   9.424 -0.4205  0.5965  0.1740
 8507SOL    HW136983   0.478   2.222   9.408 -0.6966  1.1541  3.4830
 8507SOL    HW236984   0.514   2.086   9.473  1.1702  0.1531  0.6792
 8508SOL     OW36985   4.261   4.408   5.860  0.4927 -0.1761  0.3430
 8508SOL    HW136986   4.354   4.404   5.882  0.4552 -2.9571  0.0643
 8508SOL    HW236987   4.262   4.316   5.833  2.4159  0.0772 -0.4831
 8509SOL     OW36988   1.359   0.615   3.439  0.2485  0.0418  0.0661
 8509SOL    HW136989   1.406   0.613   3.523 -2.2992 -0.3028  1.4839
 8509SOL    HW236990   1.294   0.683   3.456  0.3633  0.0281  0.5689
 8510SOL     OW36991   4.648   1.054   5.341 -0.3655 -0.3313  0.3467
 8510SOL    HW136992   4.644   0.989   5.411 -2.3854  1.2635  1.7080
 8510SOL    HW236993   4.626   0.997   5.268 -0.4696  0.3738 -0.1694
 8511SOL     OW36994   1.062   0.305   5.530  0.1773 -0.1904  0.3635
 8511SOL    HW136995   1.066   0.210   5.536  0.8118 -0.1193  1.0239
 8511SOL    HW236996   0.970   0.307   5.505  0.0614 -0.1811  0.7915
 8512SOL     OW36997   2.186   2.761   5.331  0.1774 -0.1567 -0.1323
 8512SOL    HW136998   2.172   2.807   5.249  0.1991 -0.9043 -0.5532
 8512SOL    HW236999   2.138   2.680   5.313 -1.2693  1.1330 -2.0108
 8513SOL     OW37000   0.934   4.278   6.666  0.3228 -0.3799  0.2429
 8513SOL    HW137001   0.969   4.192   6.642  1.5406  0.1338  0.2252
 8513SOL    HW237002   1.013   4.321   6.698 -0.1624 -0.3305  1.3549
 8514SOL     OW37003   1.314   1.948   9.373  0.0039 -0.3869  0.0856
 8514SOL    HW137004   1.382   1.920   9.313 -0.1402  2.3121 -1.3166
 8514SOL    HW237005   1.315   2.043   9.366  0.5580 -0.4519 -0.6753
 8515SOL     OW37006   2.887   4.006  13.366 -0.1627 -0.4919  0.1375
 8515SOL    HW137007   2.973   4.032  13.398  0.1835 -0.5945 -0.7016
 8515SOL    HW237008   2.824   4.042  13.429  0.6658 -0.3147  0.8593
 8516SOL     OW37009   2.755   0.813  15.921 -0.5061  0.3079 -0.0939
 8516SOL    HW137010   2.704   0.811  16.003 -0.1700 -1.6196  0.0766
 8516SOL    HW237011   2.696   0.864  15.866  0.2010  1.0398 -0.1614
 8517SOL     OW37012   3.719   3.217  10.723  0.1618 -0.0321  0.2734
 8517SOL    HW137013   3.701   3.182  10.636 -0.2152 -3.2514  1.6267
 8517SOL    HW237014   3.634   3.210  10.765  0.3915  0.3619  0.8056
 8518SOL     OW37015   0.220   1.239   7.924 -0.1773 -0.0856 -0.5532
 8518SOL    HW137016   0.134   1.278   7.905  0.0861  1.3254  1.1718
 8518SOL    HW237017   0.269   1.317   7.950  1.7503 -1.5989  0.3546
 8519SOL     OW37018   1.334   0.207   5.248  0.0364 -0.3506  0.3278
 8519SOL    HW137019   1.292   0.269   5.188  0.1111  0.4838  1.1342
 8519SOL    HW237020   1.262   0.149   5.275  1.3587 -2.3710 -0.4818
 8520SOL     OW37021   1.224   3.264  11.532 -0.0396  0.3621 -0.1925
 8520SOL    HW137022   1.149   3.237  11.479 -0.0160 -0.6223  0.2853
 8520SOL    HW237023   1.207   3.230  11.619 -0.2051 -2.0573 -1.1805
 8521SOL     OW37024   2.834   3.237   6.596 -0.1011 -0.1601  0.5520
 8521SOL    HW137025   2.762   3.187   6.634 -1.5906  0.8086 -0.9857
 8521SOL    HW237026   2.807   3.328   6.612  0.2520  0.4360 -2.2295
 8522SOL     OW37027   2.578   4.429   5.080  0.5555  0.0190 -0.2663
 8522SOL    HW137028   2.577   4.359   5.014  0.8973 -0.0886 -0.1622
 8522SOL    HW237029   2.620   4.494   5.023  2.2546 -0.5390  0.3519
 8523SOL     OW37030   0.382   2.747  12.471 -0.5318  0.0487 -0.2427
 8523SOL    HW137031   0.353   2.656  12.463 -1.0911  0.3002 -1.0856
 8523SOL    HW237032   0.391   2.759  12.565  0.3515  2.1883 -0.5861
 8524SOL     OW37033   0.377   0.384   9.022 -0.1616  0.2147  0.0213
 8524SOL    HW137034   0.335   0.466   8.994 -0.5861  0.1773  0.5528
 8524SOL    HW237035   0.307   0.320   9.012 -0.1460  0.3714 -1.1192
 8525SOL     OW37036   1.759   0.508   6.976  0.3583  0.0952 -0.5252
 8525SOL    HW137037   1.705   0.576   7.014 -0.3757 -0.7526 -0.0374
 8525SOL    HW237038   1.683   0.459   6.945  1.3684 -2.4047  0.8930
 8526SOL     OW37039   0.416   3.745   4.794 -0.5025  0.0905 -0.6548
 8526SOL    HW137040   0.425   3.651   4.811 -1.3612  0.5553  2.4428
 8526SOL    HW237041   0.347   3.741   4.728  0.3863 -0.1647 -1.5628
 8527SOL     OW37042   3.450   2.546  15.387  0.1231  0.5116  0.2665
 8527SOL    HW137043   3.421   2.458  15.363 -0.9654  0.2334  2.5811
 8527SOL    HW237044   3.368   2.587  15.417 -1.4532 -0.1671 -3.1394
 8528SOL     OW37045   3.016   1.846   3.786  0.3481 -0.3842  0.0762
 8528SOL    HW137046   2.996   1.881   3.700 -0.1508 -0.4143  0.1800
 8528SOL    HW237047   2.950   1.777   3.792  0.8057 -0.9555 -1.5331
 8529SOL     OW37048   2.006   1.699  17.436  0.0696 -0.1479 -0.2177
 8529SOL    HW137049   1.968   1.688  17.348 -1.2220 -0.3753  0.3699
 8529SOL    HW237050   2.047   1.613  17.441 -2.0290 -1.0887  0.7178
 8530SOL     OW37051   0.251   3.955  16.503 -0.2752  0.0765  0.4369
 8530SOL    HW137052   0.216   4.016  16.568  1.1282  0.0785  1.1626
 8530SOL    HW237053   0.340   3.945  16.535 -0.4279  0.2195  0.8963
 8531SOL     OW37054   1.736   0.185   1.696 -0.2009 -0.0248  0.3735
 8531SOL    HW137055   1.743   0.197   1.791  0.7085 -2.3026  0.6118
 8531SOL    HW237056   1.830   0.178   1.684  0.0525  1.3486  1.6212
 8532SOL     OW37057   3.670   2.669   6.375 -0.0383 -0.0139  0.7180
 8532SOL    HW137058   3.669   2.725   6.453  0.2940  0.4871  0.3695
 8532SOL    HW237059   3.578   2.660   6.353  0.2806  0.8344 -1.0472
 8533SOL     OW37060   1.328   1.422   8.066 -0.0118 -0.1380 -0.4103
 8533SOL    HW137061   1.386   1.460   8.000 -0.3101 -0.8577 -1.0922
 8533SOL    HW237062   1.322   1.336   8.022  0.8270  1.5563 -3.8641
 8534SOL     OW37063   0.384   2.610  16.337 -0.2414  0.3039  0.2782
 8534SOL    HW137064   0.338   2.689  16.366  0.8808  1.4533 -1.0871
 8534SOL    HW237065   0.467   2.626  16.382 -0.3021  1.3015  0.0400
 8535SOL     OW37066   4.309   3.490   6.503  0.1137 -1.0271 -0.2458
 8535SOL    HW137067   4.354   3.434   6.441  0.0247 -1.8329  0.4128
 8535SOL    HW237068   4.285   3.562   6.446  0.4820 -0.2356  0.5975
 8536SOL     OW37069   0.869   0.554  11.223  0.2547 -0.0630 -0.3254
 8536SOL    HW137070   0.948   0.520  11.182  0.8638 -0.3657  1.1007
 8536SOL    HW237071   0.809   0.540  11.150 -0.5147  1.5538 -0.0113
 8537SOL     OW37072   4.698   0.605   8.508  0.2279 -0.2552  0.1965
 8537SOL    HW137073   4.652   0.672   8.458  1.2375 -0.0891 -0.5038
 8537SOL    HW237074   4.637   0.593   8.581 -1.9339 -0.9680 -1.7200
 8538SOL     OW37075   1.049   2.427   4.534 -0.1846 -0.5920 -0.5391
 8538SOL    HW137076   1.115   2.496   4.534  0.3546 -1.1213  0.8905
 8538SOL    HW237077   1.010   2.449   4.449 -0.5742 -1.3613 -0.5568
 8539SOL     OW37078   2.605   1.318   0.249  0.2366  0.0995 -0.4115
 8539SOL    HW137079   2.681   1.312   0.307  0.5261 -2.5128 -1.0758
 8539SOL    HW237080   2.564   1.395   0.288  0.6357 -0.3368  0.8739
 8540SOL     OW37081   2.987   1.857   6.056  0.1544  0.5335 -0.3708
 8540SOL    HW137082   3.042   1.795   6.102 -1.5618 -0.6572  0.0688
 8540SOL    HW237083   3.049   1.903   5.999  0.7243  0.1679 -0.0413
 8541SOL     OW37084   2.537   2.561   5.003  0.7534 -0.5866  0.1774
 8541SOL    HW137085   2.480   2.539   5.076  1.6880 -1.1604  0.7381
 8541SOL    HW237086   2.526   2.485   4.945  0.8438 -0.6119  0.1929
 8542SOL     OW37087   0.920   3.000   4.979  0.4764 -0.1261 -0.1987
 8542SOL    HW137088   0.930   2.909   4.950  0.0825 -0.2951  0.1834
 8542SOL    HW237089   0.937   3.059   4.906 -0.3543  1.5783  0.9921
 8543SOL     OW37090   1.649   0.327   8.322 -0.3957  0.1209 -0.0927
 8543SOL    HW137091   1.739   0.295   8.327 -0.7131 -0.4391  2.1608
 8543SOL    HW237092   1.628   0.307   8.414 -2.5296 -0.6100 -0.7553
 8544SOL     OW37093   3.920   1.705   3.900 -0.4546  0.0564 -0.0593
 8544SOL    HW137094   3.934   1.741   3.988 -2.6810  0.2909  0.1901
 8544SOL    HW237095   3.862   1.630   3.906  0.2127 -0.4367  0.3032
 8545SOL     OW37096   3.812   1.637   8.778 -0.1571  0.2290 -0.4079
 8545SOL    HW137097   3.740   1.644   8.841  0.0230  0.2270 -0.1996
 8545SOL    HW237098   3.863   1.562   8.811  0.4384 -0.0610 -1.9960
 8546SOL     OW37099   1.084   4.215   6.313  0.2672 -0.2021  0.3141
 8546SOL    HW137100   1.081   4.310   6.307 -0.9342 -0.2489  0.1733
 8546SOL    HW237101   1.134   4.185   6.237  0.4351 -0.7027  0.6197
 8547SOL     OW37102   0.117   2.404   5.317 -0.1008 -0.3534 -0.0192
 8547SOL    HW137103   0.090   2.454   5.394  0.1207 -0.8558  0.3840
 8547SOL    HW237104   0.035   2.371   5.281 -0.3763  0.9825 -0.6292
 8548SOL     OW37105   3.627   3.856   5.490  0.2437  0.0922  0.2122
 8548SOL    HW137106   3.593   3.903   5.566 -1.1268  1.6618 -1.3833
 8548SOL    HW237107   3.561   3.882   5.426 -0.5701 -1.2653  0.5070
 8549SOL     OW37108   2.805   0.925   7.143  0.0331 -0.3013  0.4882
 8549SOL    HW137109   2.716   0.933   7.111  0.4750  0.8067 -0.4327
 8549SOL    HW237110   2.855   0.984   7.087  0.8693  0.9757  2.5792
 8550SOL     OW37111   4.041   2.047  16.652 -0.3808 -0.4432  0.2591
 8550SOL    HW137112   3.956   2.015  16.680  0.2021 -1.8075  0.4534
 8550SOL    HW237113   4.079   1.968  16.614 -0.8604  0.3599 -1.8612
 8551SOL     OW37114   2.687   3.565  16.404  0.1717  0.2716 -0.7999
 8551SOL    HW137115   2.608   3.528  16.443 -0.7499 -0.7112 -3.5800
 8551SOL    HW237116   2.650   3.645  16.366  2.5204  0.9317 -1.6557
 8552SOL     OW37117   4.298   1.063   3.456  0.2718  0.0129  0.1580
 8552SOL    HW137118   4.250   1.136   3.495  1.7610  1.7578 -1.2479
 8552SOL    HW237119   4.359   1.113   3.401  1.1616 -1.2813 -0.0310
 8553SOL     OW37120   4.349   0.257   7.818  0.1715  0.3763 -0.4039
 8553SOL    HW137121   4.297   0.210   7.754  1.1236  0.7357 -1.4437
 8553SOL    HW237122   4.285   0.325   7.841 -0.0143  0.6745 -1.7944
 8554SOL     OW37123   1.163   2.340   9.065  0.3248  0.3718  0.0885
 8554SOL    HW137124   1.115   2.276   9.118  1.5220  1.1033  2.0661
 8554SOL    HW237125   1.149   2.309   8.975  2.7498 -1.5954  0.4029
 8555SOL     OW37126   0.780   4.617   2.659 -0.3483 -0.0824  0.3564
 8555SOL    HW137127   0.719   4.594   2.729 -1.2911  0.8062 -0.1751
 8555SOL    HW237128   0.729   4.602   2.579  1.9890 -0.7694 -1.0155
 8556SOL     OW37129   3.886   2.938   8.871  0.6752  0.0052  0.2924
 8556SOL    HW137130   3.872   2.843   8.869 -0.8983  0.2599 -0.2550
 8556SOL    HW237131   3.820   2.962   8.936  0.6815  4.7462 -1.4777
 8557SOL     OW37132   2.904   0.657  13.694 -0.1978  0.2534  0.4052
 8557SOL    HW137133   2.927   0.710  13.770  0.0968  1.7537 -0.7410
 8557SOL    HW237134   2.889   0.575  13.742  0.4485 -0.3258 -0.3760
 8558SOL     OW37135   4.097   3.454   1.441  0.2819  0.1413  0.1015
 8558SOL    HW137136   4.124   3.407   1.363 -1.5808  1.3901 -1.2874
 8558SOL    HW237137   4.187   3.473   1.467  1.0690 -1.4263 -1.5388
 8559SOL     OW37138   2.942   4.266   5.054  0.3229  0.0098 -0.5026
 8559SOL    HW137139   2.928   4.265   4.959 -0.4618  2.8173 -0.4095
 8559SOL    HW237140   2.894   4.348   5.069 -3.1280 -2.2258  0.7796
 8560SOL     OW37141   4.568   0.648   7.873  0.0202  0.7510 -0.9279
 8560SOL    HW137142   4.646   0.693   7.905 -1.1202  1.3421  1.0442
 8560SOL    HW237143   4.577   0.570   7.928  0.7500  0.8051 -0.9698
 8561SOL     OW37144   0.217   0.602   9.943 -0.0397  0.1891 -0.2369
 8561SOL    HW137145   0.276   0.652   9.886  2.5908 -3.4826 -0.7541
 8561SOL    HW237146   0.145   0.665   9.946 -0.7278 -0.6127  0.3051
 8562SOL     OW37147   0.733   3.898   6.554  0.1179  0.3711 -0.4531
 8562SOL    HW137148   0.803   3.922   6.493  1.3389 -3.4891 -0.5394
 8562SOL    HW237149   0.655   3.938   6.516  0.1546 -1.1563 -2.1529
 8563SOL     OW37150   4.342   4.384   8.521 -0.2661 -0.2175  0.2127
 8563SOL    HW137151   4.290   4.435   8.457 -1.5781  0.7608  2.0405
 8563SOL    HW237152   4.270   4.348   8.572  0.8652 -1.0097  1.2325
 8564SOL     OW37153   3.442   1.496   8.472 -0.3386 -0.4250 -0.6468
 8564SOL    HW137154   3.529   1.526   8.446  0.3042 -1.6342  0.0787
 8564SOL    HW237155   3.468   1.423   8.529  3.0444  0.1750 -1.4218
 8565SOL     OW37156   2.812   3.516  15.990  0.8336 -0.6550 -0.6529
 8565SOL    HW137157   2.728   3.530  16.032 -0.3998 -2.8532 -2.3641
 8565SOL    HW237158   2.827   3.590  15.932  3.4116 -2.2125 -1.9854
 8566SOL     OW37159   2.382   3.891   8.877  0.2239  0.3522  0.2410
 8566SOL    HW137160   2.351   3.808   8.840  0.8031  0.5945 -0.8090
 8566SOL    HW237161   2.337   3.950   8.818  0.6419 -0.5130 -0.9573
 8567SOL     OW37162   0.497   3.556  16.695 -0.3648 -0.1861 -0.1213
 8567SOL    HW137163   0.406   3.578  16.677 -0.0562 -0.0922 -1.5356
 8567SOL    HW237164   0.530   3.643  16.675 -0.1224 -0.4097 -0.6746
 8568SOL     OW37165   3.778   2.345  17.098  0.4174  0.2774 -0.3003
 8568SOL    HW137166   3.799   2.271  17.156 -0.2603  0.8516  0.6827
 8568SOL    HW237167   3.812   2.315  17.014 -1.5883 -0.0449 -0.9909
 8569SOL     OW37168   4.419   3.298   3.970  0.2298 -0.1080  0.4076
 8569SOL    HW137169   4.374   3.314   3.888 -1.0069 -1.5648  0.7982
 8569SOL    HW237170   4.366   3.223   3.997 -1.4426 -0.1497 -2.9629
 8570SOL     OW37171   3.985   1.376   2.353  0.4627  0.4039  0.4895
 8570SOL    HW137172   3.892   1.383   2.373  0.5639  0.8928  0.7659
 8570SOL    HW237173   4.027   1.370   2.438  0.2366  0.3330  0.5965
 8571SOL     OW37174   2.910   2.653  15.415  1.1794  0.5501  0.6162
 8571SOL    HW137175   3.001   2.680  15.421  1.9564 -1.6718 -1.3246
 8571SOL    HW237176   2.904   2.563  15.446  3.5683  0.2632  0.1943
 8572SOL     OW37177   1.132   2.659  13.079  0.3135 -0.2556 -0.6039
 8572SOL    HW137178   1.209   2.604  13.062  2.6690  2.2096  1.9300
 8572SOL    HW237179   1.159   2.695  13.164 -1.2867 -2.0944  0.6829
 8573SOL     OW37180   3.115   4.088   6.165 -0.7515  0.0764 -0.0077
 8573SOL    HW137181   3.063   4.131   6.234  2.6127  2.0131  1.2949
 8573SOL    HW237182   3.193   4.142   6.154 -0.6819  0.1569  0.8599
 8574SOL     OW37183   1.870   3.177  11.482 -0.0857 -0.4260 -0.1811
 8574SOL    HW137184   1.920   3.145  11.557 -0.8518 -1.6111 -0.1851
 8574SOL    HW237185   1.936   3.237  11.446  0.6166 -0.6493  0.7306
 8575SOL     OW37186   3.297   3.101   3.743 -0.6147 -0.1311 -0.4144
 8575SOL    HW137187   3.315   3.141   3.828 -0.8332 -1.1598  0.1178
 8575SOL    HW237188   3.368   3.125   3.684  0.1232 -1.3025  0.0036
 8576SOL     OW37189   0.954   1.788   3.340  0.0206  0.5134 -0.0970
 8576SOL    HW137190   0.944   1.715   3.279  0.8975 -0.1711  0.5774
 8576SOL    HW237191   0.884   1.847   3.312 -0.8783 -0.7551 -0.5332
 8577SOL     OW37192   1.230   2.929   6.368  0.3173  0.1297 -0.1550
 8577SOL    HW137193   1.196   2.962   6.451  1.9447  0.8919  0.2110
 8577SOL    HW237194   1.305   2.987   6.357  0.2608  0.1878 -0.2327
 8578SOL     OW37195   1.248   3.394  12.807 -0.2427 -0.1962  0.1222
 8578SOL    HW137196   1.247   3.468  12.867 -0.1484 -1.3082  1.5108
 8578SOL    HW237197   1.178   3.409  12.744  1.3739  2.4747 -1.0226
 8579SOL     OW37198   2.242   0.075   5.370 -0.3429 -0.1663  0.3938
 8579SOL    HW137199   2.256   0.055   5.277 -0.9054  0.5245  0.1508
 8579SOL    HW237200   2.149   0.054   5.376 -0.6919  1.0107 -0.7469
 8580SOL     OW37201   0.212   2.213  17.385 -1.0003  0.1241 -0.5636
 8580SOL    HW137202   0.118   2.231  17.378 -1.0648  0.3506  0.8379
 8580SOL    HW237203   0.235   2.245  17.472 -2.8565 -0.4999  0.1575
 8581SOL     OW37204   2.982   3.523   7.615 -0.1854  0.1762 -0.4184
 8581SOL    HW137205   3.025   3.464   7.552 -3.5933 -1.1733 -1.4710
 8581SOL    HW237206   2.934   3.458   7.667 -0.5014  0.5941 -0.1920
 8582SOL     OW37207   3.410   0.378   7.478 -0.0296  0.5264 -0.0112
 8582SOL    HW137208   3.433   0.285   7.472  0.7399  0.6962  0.3762
 8582SOL    HW237209   3.427   0.402   7.568  0.0727 -1.3024  0.4634
 8583SOL     OW37210   4.405   0.476  11.545 -0.4734 -0.1830  0.1373
 8583SOL    HW137211   4.419   0.570  11.547  3.5024 -0.6731 -3.2977
 8583SOL    HW237212   4.367   0.469  11.458 -1.5782 -0.0011  0.6094
 8584SOL     OW37213   0.932   0.499   6.843  0.0091 -0.0949 -0.0163
 8584SOL    HW137214   0.940   0.404   6.835  2.4500  0.0432  0.8046
 8584SOL    HW237215   1.009   0.524   6.791 -0.2114 -0.9060 -0.7311
 8585SOL     OW37216   1.423   0.277   7.793  0.3040  0.5888  0.1677
 8585SOL    HW137217   1.347   0.333   7.809  1.4153  1.5712  2.0176
 8585SOL    HW237218   1.446   0.328   7.715 -0.6914  0.1963 -0.3857
 8586SOL     OW37219   1.189   1.160   4.123 -0.1597  0.1428 -0.6110
 8586SOL    HW137220   1.187   1.255   4.112  0.1742  0.0319 -1.6410
 8586SOL    HW237221   1.097   1.136   4.136  0.5152 -2.1069 -0.0666
 8587SOL     OW37222   0.377   3.062   1.829 -0.0117 -0.3686  0.3092
 8587SOL    HW137223   0.318   3.084   1.900 -0.7093  1.0197 -0.7054
 8587SOL    HW237224   0.363   2.967   1.831  1.2603 -0.5260  1.3543
 8588SOL     OW37225   3.570   3.867   6.354 -0.2232  0.2312  0.3251
 8588SOL    HW137226   3.519   3.789   6.378 -0.0754  0.1964  0.5260
 8588SOL    HW237227   3.661   3.844   6.372  0.4888  1.9201 -1.1817
 8589SOL     OW37228   0.435   1.487   4.080  0.2733  0.2156 -0.3141
 8589SOL    HW137229   0.394   1.402   4.062 -0.9214  0.4919  1.1202
 8589SOL    HW237230   0.356   1.541   4.076  1.0798  1.4641  0.8786
 8590SOL     OW37231   1.739   4.635   1.906  0.3196  0.2468 -0.0040
 8590SOL    HW137232   1.827   4.662   1.877 -1.2492  3.3955 -1.8293
 8590SOL    HW237233   1.743   4.610   1.998 -0.3378  1.6614  0.4120
 8591SOL     OW37234   0.891   3.508   0.994  0.9258  0.0530  0.1828
 8591SOL    HW137235   0.938   3.476   0.917 -0.1532  0.9149 -0.8311
 8591SOL    HW237236   0.957   3.515   1.062  2.5087 -0.9256 -1.2634
 8592SOL     OW37237   4.195   3.334   7.430 -0.5024  0.0091  0.7431
 8592SOL    HW137238   4.288   3.317   7.417 -0.2606  1.5258  0.5925
 8592SOL    HW237239   4.189   3.327   7.525 -1.6781 -0.2344  0.6586
 8593SOL     OW37240   3.866   2.548   2.085  0.3882  0.1119 -0.2461
 8593SOL    HW137241   3.934   2.514   2.142  1.0282 -0.3161 -1.2583
 8593SOL    HW237242   3.785   2.508   2.116 -0.6636  0.9439 -1.8572
 8594SOL     OW37243   4.277   3.245  15.973 -0.0226 -0.0554  0.3469
 8594SOL    HW137244   4.337   3.254  15.898 -0.2125 -1.5599  0.0200
 8594SOL    HW237245   4.203   3.289  15.932  0.4624 -1.1189 -1.6686
 8595SOL     OW37246   2.442   1.135   3.880  0.0763  0.1831 -0.7352
 8595SOL    HW137247   2.359   1.132   3.928  0.3101  0.3212 -0.3255
 8595SOL    HW237248   2.419   1.119   3.788 -2.4657  0.4590 -0.1489
 8596SOL     OW37249   0.649   0.095  11.408 -0.5531  0.0831 -0.2118
 8596SOL    HW137250   0.601   0.016  11.435  0.2664 -0.5804 -0.7042
 8596SOL    HW237251   0.698   0.106  11.490  1.0162 -0.1633 -1.1278
 8597SOL     OW37252   0.414   2.865   8.250 -1.1182 -0.6655  0.4841
 8597SOL    HW137253   0.391   2.873   8.158 -0.3912  2.7867  0.6094
 8597SOL    HW237254   0.462   2.783   8.243 -0.8646 -0.3857 -1.1369
 8598SOL     OW37255   1.896   4.267   3.344  0.3562  0.0578  0.1393
 8598SOL    HW137256   1.929   4.225   3.424 -0.2775 -0.6792  0.0077
 8598SOL    HW237257   1.971   4.323   3.323  0.6027  0.0942  1.0952
 8599SOL     OW37258   3.556   2.784   8.347  0.6180  0.0148  0.6057
 8599SOL    HW137259   3.530   2.728   8.421 -1.4123 -1.9434 -1.5991
 8599SOL    HW237260   3.474   2.773   8.299  1.9556 -2.7754 -1.0257
 8600SOL     OW37261   3.081   1.470   3.882 -0.5017  0.6013 -0.6064
 8600SOL    HW137262   3.002   1.522   3.890 -0.3998  0.7272 -0.4022
 8600SOL    HW237263   3.093   1.426   3.967 -0.7820 -0.9505 -1.3705
 8601SOL     OW37264   3.015   2.738  12.946 -0.1105  0.2253  0.6791
 8601SOL    HW137265   3.074   2.758  12.873 -1.3936 -0.2855 -0.5145
 8601SOL    HW237266   2.944   2.795  12.916  1.2245  1.8542  0.6250
 8602SOL     OW37267   4.315   2.810   1.187  0.1649 -0.0431  0.0075
 8602SOL    HW137268   4.375   2.767   1.125 -0.2598 -2.3396  1.1941
 8602SOL    HW237269   4.320   2.900   1.157  4.0556  0.3035  1.7110
 8603SOL     OW37270   3.454   1.328   7.856 -0.6045  0.0073  0.0940
 8603SOL    HW137271   3.458   1.327   7.760 -0.5627  2.0964  0.0920
 8603SOL    HW237272   3.472   1.235   7.874 -2.7517 -0.0518  1.8770
 8604SOL     OW37273   2.818   3.630   0.124  0.7913  0.2762 -0.3017
 8604SOL    HW137274   2.894   3.607   0.178  1.5098  1.0301 -0.9755
 8604SOL    HW237275   2.801   3.711   0.171 -0.2282  0.1277 -0.4177
 8605SOL     OW37276   2.424   1.976   3.529 -0.0604 -0.0174  0.3180
 8605SOL    HW137277   2.437   2.066   3.499 -1.2581  0.0169 -0.1016
 8605SOL    HW237278   2.500   1.985   3.586  1.7712 -0.7608 -2.0174
 8606SOL     OW37279   3.623   0.735   6.272 -0.3020  0.2626 -0.0859
 8606SOL    HW137280   3.529   0.730   6.292 -0.2768  1.4117  0.3373
 8606SOL    HW237281   3.646   0.651   6.233 -1.2095  1.1113 -2.4779
 8607SOL     OW37282   3.646   2.683   4.141 -0.0756 -0.3664 -0.3603
 8607SOL    HW137283   3.621   2.621   4.210 -0.1754 -0.6136 -0.6179
 8607SOL    HW237284   3.640   2.625   4.065  1.1477 -1.3271  0.2588
 8608SOL     OW37285   1.975   1.225   3.239 -0.4403  0.0293  0.3585
 8608SOL    HW137286   1.898   1.282   3.247 -0.6588 -0.2036 -0.0511
 8608SOL    HW237287   1.939   1.144   3.275 -2.8686  0.7961 -0.3447
 8609SOL     OW37288   4.088   1.329   2.097 -0.1160 -0.1014 -0.0266
 8609SOL    HW137289   4.169   1.376   2.081  1.3952 -3.3934 -2.0696
 8609SOL    HW237290   4.062   1.353   2.186  0.8723  0.7507  0.0161
 8610SOL     OW37291   2.383   4.212  17.024  0.0954 -0.1619 -0.5302
 8610SOL    HW137292   2.434   4.139  17.060  1.3736  1.2417  0.5138
 8610SOL    HW237293   2.438   4.288  17.006  0.5603 -1.0127 -2.6642
 8611SOL     OW37294   1.772   4.583   7.426  0.0718  0.1568 -0.7923
 8611SOL    HW137295   1.682   4.550   7.423  0.0038  0.3534 -0.9381
 8611SOL    HW237296   1.790   4.589   7.520  0.3236  0.3295 -0.8538
 8612SOL     OW37297   0.698   1.024   4.022 -0.2350  0.4152 -0.1880
 8612SOL    HW137298   0.676   1.082   3.949  0.9606  2.0498  0.7549
 8612SOL    HW237299   0.762   0.968   3.980 -1.9146  0.3821 -2.6891
 8613SOL     OW37300   1.976   1.911  10.721  0.1927  0.1496  0.3601
 8613SOL    HW137301   1.948   1.943  10.636 -0.9000  1.7252  1.3081
 8613SOL    HW237302   1.916   1.838  10.735  1.4246 -1.0582 -0.7618
 8614SOL     OW37303   1.996   2.386   1.321  0.9653  0.3617 -0.1253
 8614SOL    HW137304   1.954   2.431   1.394 -0.8447 -1.5957  0.0572
 8614SOL    HW237305   1.913   2.372   1.275  0.3256  0.7524  0.9153
 8615SOL     OW37306   1.827   2.975  10.771  0.5344 -0.3891  0.0361
 8615SOL    HW137307   1.884   2.941  10.840  0.5780 -2.8261 -1.2259
 8615SOL    HW237308   1.743   2.988  10.815  0.0091  1.9479 -1.6448
 8616SOL     OW37309   4.464   0.482   5.237 -0.2483 -0.6506  0.0075
 8616SOL    HW137310   4.416   0.432   5.303 -2.5467 -0.8214 -1.7749
 8616SOL    HW237311   4.490   0.411   5.179 -1.5783 -0.4502 -0.8404
 8617SOL     OW37312   3.732   4.431   5.297  0.6593 -0.1522  0.4449
 8617SOL    HW137313   3.639   4.436   5.273  0.9005 -1.1739 -0.7186
 8617SOL    HW237314   3.759   4.344   5.267  0.4706  0.5099 -1.6456
 8618SOL     OW37315   1.479   2.983   2.586  0.4111  0.2710  0.0328
 8618SOL    HW137316   1.493   2.899   2.630  0.5014  0.4524  0.3521
 8618SOL    HW237317   1.512   3.036   2.659  1.5202  0.8041 -0.8653
 8619SOL     OW37318   1.803   1.567   9.519 -0.1717 -0.0010 -0.1576
 8619SOL    HW137319   1.716   1.528   9.508 -1.0233  1.2846  1.9823
 8619SOL    HW237320   1.782   1.657   9.494 -0.9116 -0.0695  0.1856
 8620SOL     OW37321   1.023   2.467   1.593 -0.3563 -0.1625 -0.3233
 8620SOL    HW137322   1.060   2.518   1.665  1.3620 -0.7003 -0.8385
 8620SOL    HW237323   1.102   2.422   1.562  0.3411  0.0722  1.1166
 8621SOL     OW37324   0.355   0.609   3.691  0.0791 -0.4746  0.0039
 8621SOL    HW137325   0.339   0.651   3.607 -0.3687 -0.9157 -0.1329
 8621SOL    HW237326   0.408   0.682   3.725  0.3225 -0.3990 -0.5504
 8622SOL     OW37327   4.224   4.131   3.395 -0.3825  0.2939  0.1455
 8622SOL    HW137328   4.153   4.097   3.449 -0.8078 -0.3502 -0.8134
 8622SOL    HW237329   4.207   4.099   3.307 -2.2429  1.4489  0.0820
 8623SOL     OW37330   0.503   4.598  11.537  0.3418 -0.0546  0.5372
 8623SOL    HW137331   0.513   4.537  11.610  0.6837 -1.9310 -1.0824
 8623SOL    HW237332   0.412   4.626  11.547  0.6079  0.1928  2.2664
 8624SOL     OW37333   0.968   4.588   7.525  0.9262  0.0925  0.2605
 8624SOL    HW137334   0.986   4.587   7.431  1.0825  2.2619  0.2762
 8624SOL    HW237335   1.024   4.657   7.560  0.2745  0.8551 -0.2031
 8625SOL     OW37336   2.724   3.800   1.223  1.1007 -0.1334  0.0831
 8625SOL    HW137337   2.784   3.843   1.162  0.0738  1.3069  0.0831
 8625SOL    HW237338   2.694   3.734   1.161  2.0142  0.3092 -0.8331
 8626SOL     OW37339   1.837   0.579   9.212  0.0468 -0.2894  0.2521
 8626SOL    HW137340   1.901   0.515   9.245  0.8373 -1.3741 -3.2949
 8626SOL    HW237341   1.806   0.630   9.286 -0.1189 -1.4518  0.9833
 8627SOL     OW37342   2.978   3.569  15.188 -0.5430  0.1677  0.3772
 8627SOL    HW137343   2.942   3.492  15.233 -1.9184  0.7893  0.3521
 8627SOL    HW237344   2.942   3.550  15.102  0.3276 -0.0836  0.0691
 8628SOL     OW37345   2.632   1.545   9.318 -0.6927 -0.0249 -0.4142
 8628SOL    HW137346   2.578   1.601   9.374  0.0205  0.2217  0.0228
 8628SOL    HW237347   2.575   1.468   9.315  0.5477 -0.9879  0.7344
 8629SOL     OW37348   2.719   3.966   7.850  0.2146 -0.4750 -0.1407
 8629SOL    HW137349   2.767   4.049   7.840  0.1852 -0.2931  1.1903
 8629SOL    HW237350   2.790   3.909   7.878 -1.0381 -1.6455  0.6434
 8630SOL     OW37351   3.930   1.497   1.803 -0.7774  0.2971  0.1149
 8630SOL    HW137352   3.991   1.461   1.738 -1.2222  1.1775 -0.7892
 8630SOL    HW237353   3.970   1.584   1.812 -0.3846 -0.1923  3.2995
 8631SOL     OW37354   3.623   4.575   2.889 -0.4870 -0.0786 -0.3064
 8631SOL    HW137355   3.652   4.627   2.964  1.9314 -0.0213 -1.2690
 8631SOL    HW237356   3.700   4.591   2.834 -0.4975  0.9562 -0.0202
 8632SOL     OW37357   3.065   3.863  12.162 -0.5945  0.5026  0.5257
 8632SOL    HW137358   3.015   3.814  12.227 -0.3087 -0.5063 -0.0197
 8632SOL    HW237359   3.018   3.947  12.162 -0.7318  0.4255  0.0246
 8633SOL     OW37360   3.222   3.722   4.307  0.0654 -0.6640 -0.4089
 8633SOL    HW137361   3.234   3.639   4.354 -0.9984 -2.0238 -2.5640
 8633SOL    HW237362   3.128   3.734   4.318  0.3878  1.5303 -0.0911
 8634SOL     OW37363   1.817   1.454   8.241 -0.0623 -0.4883  0.0033
 8634SOL    HW137364   1.821   1.499   8.326  2.0847  1.4641 -1.1420
 8634SOL    HW237365   1.831   1.527   8.181  0.0637  1.5106  2.4389
 8635SOL     OW37366   3.663   1.364   8.388  0.3525  0.1263 -0.3547
 8635SOL    HW137367   3.704   1.394   8.307  0.0786 -0.1939 -0.6128
 8635SOL    HW237368   3.607   1.292   8.358  2.3875 -0.1138 -3.6061
 8636SOL     OW37369   3.533   4.282  13.541  0.1632  0.0401 -0.3676
 8636SOL    HW137370   3.513   4.313  13.630 -2.8345 -0.3494 -0.9040
 8636SOL    HW237371   3.489   4.349  13.488  0.4483  0.5548  0.0400
 8637SOL     OW37372   3.657   0.739   4.400 -0.0052  0.1373 -0.2953
 8637SOL    HW137373   3.565   0.723   4.380 -0.5383 -1.6467  3.5725
 8637SOL    HW237374   3.696   0.719   4.315  3.0964 -0.5012  1.2820
 8638SOL     OW37375   4.253   0.340   9.399  0.5711 -0.0618  0.6173
 8638SOL    HW137376   4.239   0.359   9.492  0.0797  1.6954  0.1800
 8638SOL    HW237377   4.161   0.326   9.378  0.5573  0.1153  0.5584
 8639SOL     OW37378   4.404   2.074   5.712  0.0349  0.0510 -0.0657
 8639SOL    HW137379   4.360   2.074   5.797 -1.5649 -0.5776 -0.8854
 8639SOL    HW237380   4.435   1.984   5.725 -0.3390 -0.1418 -0.4934
 8640SOL     OW37381   2.796   0.634   7.141 -0.0832 -0.4408 -0.1538
 8640SOL    HW137382   2.713   0.642   7.189  0.7856  1.0395  1.1194
 8640SOL    HW237383   2.817   0.728   7.144 -0.0776 -0.5266  2.5193
 8641SOL     OW37384   1.988   0.271  17.610 -0.2023  0.2799  0.5901
 8641SOL    HW137385   2.044   0.340  17.573  0.6059 -1.0191 -0.5899
 8641SOL    HW237386   2.022   0.197  17.560 -0.7864  0.4466 -0.0613
 8642SOL     OW37387   2.275   1.121   6.031 -0.2839  0.1059  0.4961
 8642SOL    HW137388   2.333   1.191   6.063  1.7656 -1.1580 -0.4396
 8642SOL    HW237389   2.190   1.163   6.044 -0.7225 -1.0013  1.1915
 8643SOL     OW37390   1.351   3.878  15.802  0.2092  0.3522  0.7234
 8643SOL    HW137391   1.260   3.894  15.777  0.1817 -1.2295 -0.1873
 8643SOL    HW237392   1.344   3.792  15.842  0.0044  0.8369  1.7248
 8644SOL     OW37393   1.862   2.928  16.159 -0.1166  0.1476 -0.4686
 8644SOL    HW137394   1.867   3.004  16.101  0.1396  0.9536  0.6231
 8644SOL    HW237395   1.930   2.868  16.126 -0.2941 -0.1985 -0.2071
 8645SOL     OW37396   4.390   0.834   4.086  0.0938  0.4340 -1.0010
 8645SOL    HW137397   4.298   0.809   4.096  0.1590  0.7923  0.5133
 8645SOL    HW237398   4.405   0.787   4.004 -0.4832  0.3990 -1.0890
 8646SOL     OW37399   2.832   0.269  16.970 -0.1082 -0.1384  0.0118
 8646SOL    HW137400   2.833   0.329  17.045  1.0013 -1.0126  0.7131
 8646SOL    HW237401   2.789   0.324  16.905 -0.9249 -0.1982  0.5108
 8647SOL     OW37402   2.877   0.829   6.843  0.1521 -0.9401 -0.3283
 8647SOL    HW137403   2.870   0.909   6.895  0.6959 -0.5612 -0.8303
 8647SOL    HW237404   2.847   0.873   6.763 -3.1896 -2.6272 -0.0159
 8648SOL     OW37405   1.224   4.241   2.703 -0.4219 -0.4082  0.3938
 8648SOL    HW137406   1.314   4.264   2.727 -0.2800 -1.1561  0.5683
 8648SOL    HW237407   1.225   4.275   2.613 -1.4629  1.6631  1.1556
 8649SOL     OW37408   1.416   1.449  12.970 -0.1844 -0.1184  0.0557
 8649SOL    HW137409   1.449   1.359  12.974  0.4845  0.1434  0.4719
 8649SOL    HW237410   1.480   1.489  13.029 -0.4999 -0.7762  0.8563
 8650SOL     OW37411   2.072   3.251  13.703 -0.1536 -0.1831 -0.2406
 8650SOL    HW137412   2.148   3.207  13.741  0.4360  0.4986 -0.6177
 8650SOL    HW237413   2.025   3.178  13.664 -0.5516  0.3292 -0.7278
 8651SOL     OW37414   4.343   2.671   6.319 -0.5721 -0.3016 -0.0338
 8651SOL    HW137415   4.350   2.585   6.360 -2.0310  0.7528  2.4879
 8651SOL    HW237416   4.249   2.691   6.318 -0.1201  1.7082 -2.1150
 8652SOL     OW37417   1.863   0.747   2.492 -0.1755 -0.6664 -0.0988
 8652SOL    HW137418   1.777   0.788   2.499 -0.3081 -0.7593 -1.2108
 8652SOL    HW237419   1.917   0.826   2.497 -1.3012  0.1287 -0.5829
 8653SOL     OW37420   3.899   3.932   7.523  0.3530  0.0119 -0.4352
 8653SOL    HW137421   3.804   3.930   7.527  0.2698  2.2390 -1.2312
 8653SOL    HW237422   3.912   3.952   7.616 -1.5522 -2.0674  0.2531
 8654SOL     OW37423   0.494   1.390   3.237  0.5007  0.6222 -0.1525
 8654SOL    HW137424   0.500   1.386   3.142 -1.4061  0.6416 -0.2854
 8654SOL    HW237425   0.428   1.460   3.240 -1.8567 -1.5220 -1.5949
 8655SOL     OW37426   3.501   1.873   1.200  0.2733  0.0172 -0.0007
 8655SOL    HW137427   3.512   1.913   1.286  0.5304  1.3178 -0.6445
 8655SOL    HW237428   3.406   1.878   1.197  0.2591 -0.0804  0.3828
 8656SOL     OW37429   1.345   3.244   0.409  0.4760  0.3017 -0.3901
 8656SOL    HW137430   1.362   3.150   0.410 -0.5780  0.1093 -0.4687
 8656SOL    HW237431   1.281   3.251   0.479 -2.1837 -0.7529 -2.7240
 8657SOL     OW37432   1.711   4.149   6.373  0.0577 -0.7221  0.1468
 8657SOL    HW137433   1.769   4.085   6.332  1.2124  0.3944  0.0701
 8657SOL    HW237434   1.683   4.089   6.442 -1.8495 -0.4351 -0.3662
 8658SOL     OW37435   0.994   4.536  13.862  0.7321  0.4894  0.0905
 8658SOL    HW137436   1.022   4.626  13.876 -2.4403  2.1955 -4.6140
 8658SOL    HW237437   0.954   4.539  13.775 -1.9109  2.2793  1.3452
 8659SOL     OW37438   0.051   0.067  12.359 -0.0672  0.2027 -0.1444
 8659SOL    HW137439   0.118   0.092  12.422 -0.1190  1.7598 -0.7271
 8659SOL    HW237440   4.715   0.024  12.424 -0.3868  1.2563  0.2614
 8660SOL     OW37441   2.713   2.680   8.365  0.6783 -0.5058  0.0430
 8660SOL    HW137442   2.633   2.628   8.364 -0.2402  0.9030  0.7401
 8660SOL    HW237443   2.767   2.611   8.325 -0.4928 -1.7415  0.6182
 8661SOL     OW37444   1.592   2.071   9.504  0.1596  0.5353  0.3003
 8661SOL    HW137445   1.516   2.116   9.542 -0.1607  1.3879 -1.3725
 8661SOL    HW237446   1.638   2.052   9.586  0.3885  0.3841  0.1359
 8662SOL     OW37447   3.344   0.555   4.738 -0.6796 -0.2281 -0.3842
 8662SOL    HW137448   3.285   0.491   4.776  1.0346 -1.7021 -0.2468
 8662SOL    HW237449   3.429   0.523   4.767  0.4326  0.0910 -3.2707
 8663SOL     OW37450   0.890   1.531   9.391  0.5128 -0.4355 -0.2835
 8663SOL    HW137451   0.830   1.525   9.317  0.5607  0.6111 -0.4192
 8663SOL    HW237452   0.912   1.440   9.409 -1.5036 -0.8513  0.0143
 8664SOL     OW37453   2.111   4.081   5.064  0.2512  0.0408  0.1045
 8664SOL    HW137454   2.185   4.022   5.046  0.5354  0.2134  0.6923
 8664SOL    HW237455   2.173   4.150   5.090  0.4394 -0.8519  2.0144
 8665SOL     OW37456   2.148   1.528   8.417 -0.4310 -0.0174 -0.3457
 8665SOL    HW137457   2.057   1.510   8.442  0.5070 -1.1983  2.1293
 8665SOL    HW237458   2.199   1.452   8.445 -0.6239 -0.3786 -0.9734
 8666SOL     OW37459   0.495   0.486   5.779 -0.0036  0.0783  0.6932
 8666SOL    HW137460   0.563   0.419   5.782  0.8347  0.9332  0.5843
 8666SOL    HW237461   0.452   0.463   5.862 -2.8755 -0.2733 -0.8748
 8667SOL     OW37462   2.885   2.899  15.586  0.0186 -0.4850  0.2607
 8667SOL    HW137463   2.875   2.836  15.515  0.9629  0.5119 -0.7643
 8667SOL    HW237464   2.973   2.935  15.573  0.6879 -2.2176  0.0262
 8668SOL     OW37465   1.488   2.751   2.394  0.0081  0.2649 -0.4256
 8668SOL    HW137466   1.489   2.664   2.434 -0.1692 -0.9008 -2.9875
 8668SOL    HW237467   1.426   2.800   2.449  1.5758  0.5441  1.0678
 8669SOL     OW37468   3.172   1.991   4.921  0.0523  0.2121  0.3550
 8669SOL    HW137469   3.102   2.030   4.869 -0.4383  2.3544  2.6677
 8669SOL    HW237470   3.251   2.036   4.888 -0.4404  2.0871  1.7370
 8670SOL     OW37471   1.388   1.686  15.904 -0.2436 -0.1326 -0.5743
 8670SOL    HW137472   1.376   1.604  15.952  0.9638 -0.4036 -0.7594
 8670SOL    HW237473   1.319   1.740  15.944 -0.5449 -2.8076  2.4760
 8671SOL     OW37474   1.643   0.863   5.959 -0.4866  0.1195 -0.1233
 8671SOL    HW137475   1.584   0.938   5.950  1.0509  1.4735  1.2357
 8671SOL    HW237476   1.585   0.790   5.938 -1.3049  0.2426  1.6791
 8672SOL     OW37477   1.616   1.328   2.092  1.0584  0.6283  0.2727
 8672SOL    HW137478   1.596   1.276   2.014  0.7262 -0.1880  0.9078
 8672SOL    HW237479   1.530   1.347   2.128  1.0613 -0.7012  0.9683
 8673SOL     OW37480   1.612   3.109   8.662  0.1442  0.0998  0.1522
 8673SOL    HW137481   1.675   3.081   8.728 -1.2989 -1.9281  0.6391
 8673SOL    HW237482   1.654   3.059   8.591 -1.6709  2.0095 -2.2689
 8674SOL     OW37483   3.412   0.709   7.687 -0.2778 -0.1505  0.9893
 8674SOL    HW137484   3.420   0.616   7.665 -0.1733  0.0052  0.3708
 8674SOL    HW237485   3.443   0.703   7.778 -1.3323 -1.8006  1.2258
 8675SOL     OW37486   1.890   2.961   9.291  0.0174 -0.3064  0.3620
 8675SOL    HW137487   1.962   3.017   9.318  0.6095 -0.0089 -1.7909
 8675SOL    HW237488   1.832   2.947   9.366  0.2603 -1.8298  0.2694
 8676SOL     OW37489   1.570   0.574  11.666 -0.2243 -0.3360  0.3983
 8676SOL    HW137490   1.484   0.534  11.680 -0.1473 -1.7072 -3.0002
 8676SOL    HW237491   1.607   0.561  11.753  0.1677  0.4399  0.3412
 8677SOL     OW37492   4.321   4.383  14.626  0.3752  0.5179 -0.0329
 8677SOL    HW137493   4.324   4.459  14.567  0.3618 -0.0903 -0.8160
 8677SOL    HW237494   4.243   4.408  14.676  0.4674  1.5075 -0.3661
 8678SOL     OW37495   4.637   1.558  17.131  0.0850  0.1988 -0.2265
 8678SOL    HW137496   4.717   1.609  17.136  0.4467 -0.3068 -0.8837
 8678SOL    HW237497   4.563   1.618  17.120 -1.5493 -1.5187  1.3014
 8679SOL     OW37498   2.767   1.440   7.053 -0.6051 -0.1542 -0.3429
 8679SOL    HW137499   2.791   1.522   7.009  0.7845  0.5682  1.7961
 8679SOL    HW237500   2.755   1.473   7.142  2.3226 -0.0216 -0.0143
 8680SOL     OW37501   0.275   4.508   8.063  0.4444 -0.3755  0.2234
 8680SOL    HW137502   0.271   4.552   7.979  1.3153 -2.1548 -0.7509
 8680SOL    HW237503   0.216   4.559   8.119  0.6326 -0.2999  0.3518
 8681SOL     OW37504   4.000   0.595   9.189  0.3871  0.5853  0.0010
 8681SOL    HW137505   3.916   0.613   9.148  0.9280  0.3941 -1.1837
 8681SOL    HW237506   3.980   0.570   9.280 -1.1869 -0.5852 -0.6741
 8682SOL     OW37507   3.238   2.357   5.497 -0.6388 -0.1892 -0.1604
 8682SOL    HW137508   3.272   2.372   5.585  0.6433 -4.0307 -0.0211
 8682SOL    HW237509   3.249   2.447   5.465  0.1038  0.8697  3.0029
 8683SOL     OW37510   4.474   2.097   6.893 -0.3086 -0.1254 -0.3640
 8683SOL    HW137511   4.412   2.075   6.963  1.6220  2.3680  2.1261
 8683SOL    HW237512   4.521   2.014   6.894 -0.3317 -0.1378 -0.2350
 8684SOL     OW37513   3.829   0.501   2.142  0.3119  0.0685 -0.2234
 8684SOL    HW137514   3.736   0.480   2.140  0.2676  0.0949  1.2677
 8684SOL    HW237515   3.821   0.575   2.202  0.3014 -0.1365  0.0254
 8685SOL     OW37516   4.462   1.162   0.474 -0.2955 -0.3618  0.1870
 8685SOL    HW137517   4.421   1.146   0.388  0.7396  0.0293 -0.3756
 8685SOL    HW237518   4.406   1.233   0.504 -1.5449  0.0216 -3.0641
 8686SOL     OW37519   2.881   3.888   4.900 -0.0807  0.9136  0.1762
 8686SOL    HW137520   2.893   3.933   4.984  0.3072  0.4323  0.3807
 8686SOL    HW237521   2.793   3.855   4.919  0.1952  0.1040  0.0435
 8687SOL     OW37522   2.410   0.001   1.326  0.0316 -0.5305  0.6410
 8687SOL    HW137523   2.349   4.653   1.298 -1.3898  1.2235 -0.5186
 8687SOL    HW237524   2.367   0.083   1.304  1.4376 -0.6074 -2.3312
 8688SOL     OW37525   2.557   2.646   8.679  0.1121  0.2288 -0.0050
 8688SOL    HW137526   2.610   2.569   8.658  1.2704  1.3636 -1.2342
 8688SOL    HW237527   2.569   2.655   8.774 -0.1450  2.5279 -0.1912
 8689SOL     OW37528   3.165   4.358   5.386  0.1963 -0.0713 -0.1272
 8689SOL    HW137529   3.187   4.352   5.293  1.2407  1.7069  0.0085
 8689SOL    HW237530   3.250   4.324   5.413  0.1580  0.2899  0.4342
 8690SOL     OW37531   0.616   2.750   7.438 -0.4128 -0.2512 -0.2977
 8690SOL    HW137532   0.624   2.658   7.465 -0.0428  0.7928  3.0983
 8690SOL    HW237533   0.533   2.780   7.476  0.3723  2.8106 -1.0725
 8691SOL     OW37534   1.580   0.070   7.093 -0.1796 -0.0098 -0.4104
 8691SOL    HW137535   1.505   0.031   7.137  0.9615 -1.1432  0.5295
 8691SOL    HW237536   1.557   0.079   7.000  1.4625  1.0157 -0.7170
 8692SOL     OW37537   0.842   0.567   4.887 -0.2824  0.0244 -0.6110
 8692SOL    HW137538   0.897   0.541   4.813  3.0797 -2.3955  2.7580
 8692SOL    HW237539   0.886   0.652   4.900  1.8906 -1.2518  0.3614
 8693SOL     OW37540   0.450   1.272   1.955  0.1605  0.0699  0.1486
 8693SOL    HW137541   0.457   1.367   1.952 -0.2656 -0.0404 -3.6075
 8693SOL    HW237542   0.357   1.263   1.976  0.0302 -0.0213 -0.4605
 8694SOL     OW37543   3.339   2.174   7.230 -0.3552 -0.2202 -0.8626
 8694SOL    HW137544   3.314   2.107   7.167 -0.1592 -0.7802 -0.3382
 8694SOL    HW237545   3.404   2.222   7.178  1.2285 -3.0214 -1.4339
 8695SOL     OW37546   3.689   4.001   1.909  0.3193 -0.1041  0.1929
 8695SOL    HW137547   3.778   4.036   1.907  0.4859 -0.4638  1.3837
 8695SOL    HW237548   3.643   4.068   1.858  0.2568 -0.5009 -0.2756
 8696SOL     OW37549   3.743   1.277   5.665  0.3635 -0.3521 -0.1544
 8696SOL    HW137550   3.789   1.354   5.632 -0.4057  0.9385  1.7716
 8696SOL    HW237551   3.674   1.269   5.600  2.1918  0.4604 -2.1922
 8697SOL     OW37552   4.177   3.370  13.529 -0.6935  0.0734 -0.3311
 8697SOL    HW137553   4.261   3.406  13.558  0.5498 -3.2032  0.1965
 8697SOL    HW237554   4.199   3.326  13.447 -0.0405 -2.6879  1.3167
 8698SOL     OW37555   2.028   3.378   3.735  0.5478 -0.7770 -0.8075
 8698SOL    HW137556   2.053   3.464   3.702  0.3658  0.2738  1.7886
 8698SOL    HW237557   1.980   3.340   3.661  0.7402  1.1450 -1.9113
 8699SOL     OW37558   3.581   3.034   5.477 -0.1094  0.5174  0.3136
 8699SOL    HW137559   3.635   2.957   5.496  2.2531  2.5728  1.8724
 8699SOL    HW237560   3.547   3.018   5.389  0.7634  1.2197 -0.1554
 8700SOL     OW37561   3.091   3.323   3.702 -0.0279 -0.5456  0.0759
 8700SOL    HW137562   3.139   3.247   3.735  0.8418  1.1011  2.5919
 8700SOL    HW237563   3.163   3.360   3.651  0.3365  1.7700  2.2855
 8701SOL     OW37564   2.497   2.666   6.247 -0.0838 -0.5464 -0.1745
 8701SOL    HW137565   2.426   2.611   6.215 -1.0318  0.3473  0.3820
 8701SOL    HW237566   2.546   2.591   6.279 -0.7572 -0.5338  0.8884
 8702SOL     OW37567   1.269   1.671   7.834  0.2892 -0.1035 -0.1465
 8702SOL    HW137568   1.197   1.637   7.780  1.0844  0.3551 -1.4609
 8702SOL    HW237569   1.333   1.600   7.835 -0.1533 -0.4877  2.0951
 8703SOL     OW37570   3.568   0.711   0.271  0.1655 -0.5636 -0.3925
 8703SOL    HW137571   3.549   0.731   0.363 -0.1868  0.1278 -0.6142
 8703SOL    HW237572   3.492   0.659   0.246 -1.6831  0.2730  3.4462
 8704SOL     OW37573   1.982   2.440  17.404  0.1858  0.3107  0.3604
 8704SOL    HW137574   1.979   2.394  17.487 -2.2677 -1.4876 -0.7354
 8704SOL    HW237575   1.914   2.506  17.414  1.6313  1.9381 -0.4236
 8705SOL     OW37576   4.201   2.629  11.571 -0.5306  0.4165  0.5243
 8705SOL    HW137577   4.162   2.699  11.622  0.2194  0.0949  1.5262
 8705SOL    HW237578   4.187   2.648  11.478  0.2318 -0.7083  0.1693
 8706SOL     OW37579   1.357   0.662   5.551 -0.2267  0.4230  0.7998
 8706SOL    HW137580   1.305   0.598   5.503  0.5248 -0.1663  0.7863
 8706SOL    HW237581   1.372   0.718   5.475 -1.1370  0.0681  0.3679
 8707SOL     OW37582   3.767   4.506   6.272  0.0792 -0.2960 -0.3427
 8707SOL    HW137583   3.761   4.422   6.317 -0.7173 -0.0109  0.0977
 8707SOL    HW237584   3.861   4.517   6.256  0.0774 -1.4403 -1.1005
 8708SOL     OW37585   0.472   1.754   4.648 -0.2829 -1.2505 -0.2056
 8708SOL    HW137586   0.551   1.703   4.664  0.1401 -0.6249 -0.2725
 8708SOL    HW237587   0.465   1.745   4.553  3.2247  1.0589 -0.6798
 8709SOL     OW37588   4.316   2.741   6.014  0.3322  0.4206 -0.6657
 8709SOL    HW137589   4.311   2.646   6.006 -1.9534  0.3007  2.1241
 8709SOL    HW237590   4.318   2.743   6.110 -0.6431 -0.9451 -0.6121
 8710SOL     OW37591   4.214   2.433   2.373  0.3938 -0.5953  0.2888
 8710SOL    HW137592   4.296   2.478   2.353 -0.4018  0.9585  0.5143
 8710SOL    HW237593   4.203   2.390   2.288  1.3560 -3.1001  1.4488
 8711SOL     OW37594   2.095   0.166   6.325 -0.3914 -0.5373 -0.0883
 8711SOL    HW137595   2.128   0.079   6.347 -1.9087 -1.2192 -0.4670
 8711SOL    HW237596   2.025   0.187   6.387  1.0708  1.1467  0.9782
 8712SOL     OW37597   1.208   2.053   7.294 -0.0352 -0.1659  0.3580
 8712SOL    HW137598   1.134   2.069   7.352 -0.8088 -0.2213 -0.6226
 8712SOL    HW237599   1.243   2.142   7.289 -2.0523  0.5389 -0.9632
 8713SOL     OW37600   2.181   1.486   5.426 -0.0782  0.8567 -0.8591
 8713SOL    HW137601   2.196   1.506   5.519  2.0933 -0.6167 -0.8838
 8713SOL    HW237602   2.124   1.409   5.423  0.2164  0.5716  0.7143
 8714SOL     OW37603   3.850   2.791   8.067 -0.1847 -0.0601  0.3361
 8714SOL    HW137604   3.775   2.839   8.101  0.5296  2.4641 -1.6861
 8714SOL    HW237605   3.850   2.707   8.113  0.7469 -0.0652  0.3340
 8715SOL     OW37606   4.415   2.337   5.165  0.1813 -0.9418 -0.0605
 8715SOL    HW137607   4.463   2.414   5.195  2.6729 -1.8766 -1.6134
 8715SOL    HW237608   4.383   2.305   5.250 -2.0146  1.0930 -0.1206
 8716SOL     OW37609   3.341   0.772   1.510  0.1516 -0.9242 -0.1753
 8716SOL    HW137610   3.401   0.704   1.539  0.0599 -1.1118 -0.4300
 8716SOL    HW237611   3.381   0.851   1.548 -1.0961  0.1103 -0.9986
 8717SOL     OW37612   3.875   0.936   2.776 -0.0008  0.0094  0.1099
 8717SOL    HW137613   3.951   0.911   2.829  0.6274  2.2183  0.2233
 8717SOL    HW237614   3.830   0.854   2.755 -0.3361 -0.0802  1.1394
 8718SOL     OW37615   4.615   3.214  17.164  0.2817 -0.1651  0.1482
 8718SOL    HW137616   4.703   3.177  17.173 -0.2136 -1.9024 -2.2851
 8718SOL    HW237617   4.582   3.146  17.106 -0.9873 -0.9553  1.7884
 8719SOL     OW37618   1.312   0.386  16.598  0.4192  0.5274 -0.3505
 8719SOL    HW137619   1.327   0.312  16.657 -1.0634  2.1376  2.0288
 8719SOL    HW237620   1.379   0.355  16.536  0.1935 -2.5436  0.9299
 8720SOL     OW37621   2.105   4.269   5.435  0.2431  0.8284  0.4135
 8720SOL    HW137622   2.049   4.234   5.365 -1.0011  2.0512  0.7948
 8720SOL    HW237623   2.161   4.329   5.385 -1.4541  1.3485 -0.8588
 8721SOL     OW37624   0.842   3.152   2.284  0.1929  0.5292  0.1915
 8721SOL    HW137625   0.848   3.163   2.189 -1.9200 -0.4945 -0.0670
 8721SOL    HW237626   0.799   3.066   2.284  0.0128  0.6145 -0.6338
 8722SOL     OW37627   4.359   3.825  10.492  0.4042  0.2090  0.0760
 8722SOL    HW137628   4.403   3.752  10.536  0.7485  0.8327  0.7482
 8722SOL    HW237629   4.323   3.774  10.419  2.4614 -0.3625 -0.5486
 8723SOL     OW37630   0.146   0.325   1.910  0.2539 -0.1600 -0.7202
 8723SOL    HW137631   0.085   0.261   1.872 -0.8004  0.3954  0.0617
 8723SOL    HW237632   0.227   0.274   1.917  0.8706  1.0566  0.9928
 8724SOL     OW37633   1.909   2.197   9.259  0.2203 -0.2838 -0.0123
 8724SOL    HW137634   1.891   2.284   9.293  1.4150 -0.6191  1.4764
 8724SOL    HW237635   1.816   2.180   9.249  0.3395 -0.3542 -1.0640
 8725SOL     OW37636   0.131   4.326   3.156  0.4190 -0.3443  0.0604
 8725SOL    HW137637   0.073   4.275   3.213  1.1494 -1.4443 -0.1897
 8725SOL    HW237638   0.155   4.263   3.089 -0.8499  0.9460 -1.6185
 8726SOL     OW37639   4.162   2.868   8.122 -0.9835  0.5282 -0.1539
 8726SOL    HW137640   4.104   2.942   8.139 -0.5166  0.6884  0.7539
 8726SOL    HW237641   4.148   2.810   8.196  0.0243  0.4506 -0.0154
 8727SOL     OW37642   3.388   3.676   5.734  0.3554  0.1384 -0.7654
 8727SOL    HW137643   3.416   3.723   5.812 -1.1367 -0.0213 -0.1257
 8727SOL    HW237644   3.474   3.667   5.694  0.0117  2.9705 -2.1112
 8728SOL     OW37645   0.432   2.359  14.584 -0.1305 -0.4304  0.7783
 8728SOL    HW137646   0.512   2.322  14.546 -0.9144 -2.3551  0.9696
 8728SOL    HW237647   0.467   2.407  14.659  1.4000  0.0254 -0.2259
 8729SOL     OW37648   3.747   1.243   2.804  0.3175  0.2195 -0.3370
 8729SOL    HW137649   3.689   1.316   2.783 -1.1526 -1.0810 -0.7768
 8729SOL    HW237650   3.696   1.184   2.861 -1.6960  2.4166  0.1506
 8730SOL     OW37651   4.001   0.372   7.806 -0.2653  0.4615  0.0783
 8730SOL    HW137652   3.971   0.318   7.879 -1.3955  1.3084  0.2362
 8730SOL    HW237653   4.055   0.434   7.854  0.4789 -0.9374  1.0537
 8731SOL     OW37654   4.414   3.956   3.765 -0.0651  0.4282  0.0112
 8731SOL    HW137655   4.464   4.007   3.828 -0.4545 -0.9894  1.4866
 8731SOL    HW237656   4.478   3.888   3.745 -0.4423 -0.8780  3.3301
 8732SOL     OW37657   1.176   3.813   4.042 -0.3020  0.0091 -0.4042
 8732SOL    HW137658   1.086   3.790   4.065 -0.4670 -1.4790 -2.5761
 8732SOL    HW237659   1.167   3.907   4.058  0.7327 -0.4199  2.6899
 8733SOL     OW37660   3.554   1.489   2.195  0.8232 -1.0568 -0.7731
 8733SOL    HW137661   3.485   1.538   2.150 -0.8482  0.0957  3.0051
 8733SOL    HW237662   3.605   1.456   2.121  1.7415 -1.0077 -0.1587
 8734SOL     OW37663   4.527   2.087   9.981 -0.3236  0.7435  0.6010
 8734SOL    HW137664   4.512   2.166  10.032  1.2005  1.5402 -0.1999
 8734SOL    HW237665   4.441   2.045   9.989  1.7942 -3.5860  0.7054
 8735SOL     OW37666   1.904   3.307   0.257  0.0788  0.1340 -0.3793
 8735SOL    HW137667   1.977   3.355   0.297  0.6382 -0.4948 -0.6432
 8735SOL    HW237668   1.910   3.352   0.173 -2.5861  2.8043  0.8554
 8736SOL     OW37669   3.714   1.960  11.510  0.3178 -0.2858 -0.4398
 8736SOL    HW137670   3.711   1.884  11.451  0.5874 -0.7713  0.1757
 8736SOL    HW237671   3.629   1.999  11.491  0.5548  1.2625  1.7334
 8737SOL     OW37672   3.643   3.292  13.614 -0.1692  0.4359 -1.0161
 8737SOL    HW137673   3.656   3.202  13.642  1.6495  0.2445 -2.5071
 8737SOL    HW237674   3.728   3.333  13.629 -0.3226  0.4212 -0.1241
 8738SOL     OW37675   3.520   3.490   7.399  0.2175  0.4937 -0.2308
 8738SOL    HW137676   3.588   3.426   7.376 -0.0142  0.0429  0.3398
 8738SOL    HW237677   3.457   3.457   7.336 -0.2696  0.2744  0.3828
 8739SOL     OW37678   1.689   0.287   4.669  0.6727  0.1668  0.3561
 8739SOL    HW137679   1.753   0.239   4.721  0.1010 -0.5030  0.4401
 8739SOL    HW237680   1.745   0.298   4.592  1.8933 -1.4142  1.0229
 8740SOL     OW37681   4.156   2.691  10.679 -0.0947  0.2828  0.0186
 8740SOL    HW137682   4.192   2.621  10.735  1.3057  1.1071  0.1462
 8740SOL    HW237683   4.216   2.672  10.607 -0.5595  1.6913 -0.7357
 8741SOL     OW37684   0.749   4.256  12.100 -0.4326  0.2201 -0.0868
 8741SOL    HW137685   0.659   4.286  12.114 -1.0510 -0.9392 -1.5721
 8741SOL    HW237686   0.780   4.273  12.189  0.0967 -1.1125 -0.0219
 8742SOL     OW37687   2.638   4.031   6.378  0.0483  0.9420 -0.1566
 8742SOL    HW137688   2.591   4.109   6.348  0.8297  0.5880 -2.2597
 8742SOL    HW237689   2.724   4.046   6.340  0.2146  0.0338 -0.1397
 8743SOL     OW37690   2.061   1.523   9.575  0.3034  0.3187 -0.7809
 8743SOL    HW137691   1.967   1.539   9.582  0.5787  1.4382  0.3773
 8743SOL    HW237692   2.069   1.490   9.485  0.2685  0.0696 -0.6940
 8744SOL     OW37693   0.109   3.809   1.693 -0.8654 -0.2798  0.6587
 8744SOL    HW137694   0.057   3.881   1.728 -1.0907 -0.5929  0.9684
 8744SOL    HW237695   0.149   3.862   1.625 -0.9202  0.5929  1.3137
 8745SOL     OW37696   4.254   3.841   4.107 -0.1344  0.5512 -0.0153
 8745SOL    HW137697   4.325   3.821   4.168 -1.0740 -0.2235  0.8319
 8745SOL    HW237698   4.265   3.776   4.038  3.5882  1.0881  0.0721
 8746SOL     OW37699   2.931   4.540   9.020 -0.4750 -0.5040 -0.0465
 8746SOL    HW137700   3.020   4.505   9.025  0.0964  0.9691  0.0426
 8746SOL    HW237701   2.895   4.474   9.079 -1.6233  0.0978 -0.0691
 8747SOL     OW37702   3.410   4.535   6.924  0.0488  0.3528  0.0204
 8747SOL    HW137703   3.415   4.578   7.010  0.5784  0.4451 -0.0534
 8747SOL    HW237704   3.356   4.460   6.948 -1.1520  1.0526 -0.5540
 8748SOL     OW37705   0.590   3.758   0.037  0.0738  0.3157  0.2321
 8748SOL    HW137706   0.543   3.840   0.047  0.0709  0.3617 -0.1860
 8748SOL    HW237707   0.575   3.749  17.628  0.3348  0.5503  0.1709
 8749SOL     OW37708   2.879   4.591   8.610 -0.2132 -0.6612  0.0657
 8749SOL    HW137709   2.831   4.571   8.690  2.5544 -1.2076  1.5954
 8749SOL    HW237710   2.810   4.576   8.545 -0.9654  0.2061  0.6692
 8750SOL     OW37711   2.812   4.403  16.711  0.4354  0.1816  0.1686
 8750SOL    HW137712   2.893   4.417  16.661  0.0740 -0.5197 -0.6158
 8750SOL    HW237713   2.828   4.458  16.787  0.9939  0.6951 -0.3176
 8751SOL     OW37714   0.619   0.057   5.379 -0.1635 -0.4517 -0.2236
 8751SOL    HW137715   0.529   0.025   5.389 -0.3142 -0.0813 -0.4135
 8751SOL    HW237716   0.600   0.140   5.335  4.2934  0.0776 -1.1085
 8752SOL     OW37717   2.249   3.135   2.129 -0.1845  0.3438 -0.8119
 8752SOL    HW137718   2.279   3.050   2.097  0.7937  0.5153 -0.3554
 8752SOL    HW237719   2.166   3.122   2.175 -0.2007 -3.3120 -1.8312
 8753SOL     OW37720   3.326   0.970  16.241 -0.2276 -0.6421 -0.0624
 8753SOL    HW137721   3.293   1.003  16.157  0.9040  1.0362  0.1436
 8753SOL    HW237722   3.407   0.924  16.217 -0.4591 -0.1700 -1.7883
 8754SOL     OW37723   0.842   2.813  13.153 -0.0384  0.2181  0.1541
 8754SOL    HW137724   0.791   2.813  13.234  1.4296  0.8368  1.0864
 8754SOL    HW237725   0.914   2.756  13.181  0.7264  0.0730 -2.1791
 8755SOL     OW37726   3.262   3.936   1.401 -0.1445 -0.2298 -0.0144
 8755SOL    HW137727   3.255   3.963   1.310  1.9198 -0.9510 -0.3955
 8755SOL    HW237728   3.238   3.844   1.392 -2.4680  0.6037 -2.1019
 8756SOL     OW37729   1.413   3.939   2.966 -0.1412 -0.4712  0.8234
 8756SOL    HW137730   1.407   3.900   3.053  0.5484 -0.9691  0.6468
 8756SOL    HW237731   1.390   4.029   2.988  4.1230  0.4561  1.4715
 8757SOL     OW37732   0.047   2.954   5.442 -0.2942  0.4951  0.4878
 8757SOL    HW137733   0.143   2.953   5.445 -0.3409 -0.3768  1.7900
 8757SOL    HW237734   0.019   3.021   5.504  1.3591 -0.6649  2.5070
 8758SOL     OW37735   4.676   3.482  16.170  0.0486  0.0079 -0.1765
 8758SOL    HW137736   4.583   3.462  16.179 -0.2110  1.1555 -0.2615
 8758SOL    HW237737   4.720   3.398  16.183 -0.4644 -0.3561 -0.8160
 8759SOL     OW37738   1.771   1.211   5.728  0.0415  0.3471  0.4153
 8759SOL    HW137739   1.725   1.138   5.688  0.4927  0.4289 -0.2546
 8759SOL    HW237740   1.793   1.264   5.651 -0.4343 -0.6096 -0.3720
 8760SOL     OW37741   0.765   1.191   9.054 -0.3448 -0.6312  0.1234
 8760SOL    HW137742   0.753   1.158   8.965 -0.2963  0.9582 -0.4760
 8760SOL    HW237743   0.725   1.278   9.046 -0.3171 -0.7289 -1.0416
 8761SOL     OW37744   0.384   3.699   7.518 -0.4126 -0.2249 -0.4141
 8761SOL    HW137745   0.325   3.674   7.447 -2.4210  2.0338  0.4500
 8761SOL    HW237746   0.362   3.790   7.538  1.7028 -0.3194  2.4021
 8762SOL     OW37747   2.022   2.993  12.193  0.2782 -0.2639 -0.1274
 8762SOL    HW137748   2.073   3.022  12.269  1.3102 -0.7633 -0.6229
 8762SOL    HW237749   2.047   3.053  12.123  0.0585 -0.9544 -0.7959
 8763SOL     OW37750   3.677   2.085  15.949 -0.0883  0.4137 -0.3018
 8763SOL    HW137751   3.599   2.067  15.896 -0.4124 -1.1383  0.6945
 8763SOL    HW237752   3.735   2.017  15.916  0.7117  0.6054  0.7398
 8764SOL     OW37753   2.440   3.829   8.180  0.4210 -1.1284 -0.6047
 8764SOL    HW137754   2.497   3.856   8.252 -1.0941 -1.8152  0.8497
 8764SOL    HW237755   2.355   3.827   8.223  0.6535  1.0122 -0.0323
 8765SOL     OW37756   0.043   2.405   5.858 -0.1401  0.3303 -0.1071
 8765SOL    HW137757   4.705   2.332   5.875 -1.4738  1.1426 -1.2026
 8765SOL    HW237758   4.713   2.471   5.906 -0.3529 -0.7194  1.0984
 8766SOL     OW37759   3.367   1.665   4.282  0.5368 -0.5876  0.2547
 8766SOL    HW137760   3.404   1.730   4.222 -4.3137  1.8825 -0.0961
 8766SOL    HW237761   3.430   1.597   4.259  1.7948  1.0179 -1.0600
 8767SOL     OW37762   2.500   2.240   8.448  0.4780  0.6418  0.2444
 8767SOL    HW137763   2.592   2.214   8.446 -0.2469 -1.6704 -2.0515
 8767SOL    HW237764   2.492   2.283   8.533 -0.0040  0.8980  0.0644
 8768SOL     OW37765   1.597   0.485   1.698 -0.0422  0.0429 -0.4459
 8768SOL    HW137766   1.586   0.579   1.685 -1.9327  0.0738  1.3192
 8768SOL    HW237767   1.680   0.464   1.655  0.3363  0.2911  0.1535
 8769SOL     OW37768   1.216   3.867   7.777  0.3468 -0.3243  0.7446
 8769SOL    HW137769   1.171   3.893   7.857  1.2946  0.1208  1.1369
 8769SOL    HW237770   1.294   3.921   7.787  0.9074 -0.8432 -0.8131
 8770SOL     OW37771   0.337   1.840   6.738  0.1994 -0.2761 -0.0373
 8770SOL    HW137772   0.322   1.866   6.829  0.2530 -2.6425  0.6571
 8770SOL    HW237773   0.269   1.887   6.691  1.6995  1.6413 -0.3160
 8771SOL     OW37774   3.026   0.684  13.094  0.3218 -0.0603  0.5235
 8771SOL    HW137775   3.019   0.614  13.158 -0.8908 -0.3811  0.0327
 8771SOL    HW237776   2.987   0.637  13.021 -0.7851  1.1738  0.3257
 8772SOL     OW37777   0.355   0.701  12.062  0.4635 -0.3498 -0.0083
 8772SOL    HW137778   0.324   0.759  11.993  0.9838  1.8853  1.6703
 8772SOL    HW237779   0.419   0.643  12.021 -1.0256 -1.5244 -0.7220
 8773SOL     OW37780   1.295   0.471   1.491  0.0736 -0.1395 -0.1492
 8773SOL    HW137781   1.294   0.556   1.446  0.5262 -0.5573 -0.9572
 8773SOL    HW237782   1.384   0.441   1.474  0.2282  1.8307 -2.8572
 8774SOL     OW37783   0.084   1.955  11.289  0.8588  0.3807  0.0199
 8774SOL    HW137784   0.068   1.883  11.351 -0.7500 -0.8072 -1.7621
 8774SOL    HW237785   0.077   1.916  11.202 -0.3000  0.2076  0.1921
 8775SOL     OW37786   0.454   2.293   2.147  0.2025 -0.0195 -0.3420
 8775SOL    HW137787   0.454   2.388   2.140 -2.6210  0.0571  0.7478
 8775SOL    HW237788   0.386   2.284   2.213  1.5828 -1.3356  0.9128
 8776SOL     OW37789   3.516   2.537   4.773  0.0846  0.6373  0.5186
 8776SOL    HW137790   3.515   2.467   4.838  0.4682  0.2252  0.0789
 8776SOL    HW237791   3.560   2.492   4.701  0.3405  2.5104 -0.5004
 8777SOL     OW37792   1.593   1.158   1.334 -0.0999 -0.1668  0.0042
 8777SOL    HW137793   1.500   1.143   1.316 -0.5865  1.9401  0.8011
 8777SOL    HW237794   1.603   1.151   1.429  1.1217 -0.7016 -0.1550
 8778SOL     OW37795   2.128   2.475   1.868  0.1744 -0.3472 -0.2420
 8778SOL    HW137796   2.120   2.424   1.788  0.2629  0.1106 -0.5459
 8778SOL    HW237797   2.217   2.448   1.893 -0.4480 -1.9820  0.1551
 8779SOL     OW37798   2.217   1.810   2.037 -0.4700 -0.0341  0.1443
 8779SOL    HW137799   2.210   1.769   1.951 -0.1165  0.0045  0.0938
 8779SOL    HW237800   2.207   1.732   2.090 -3.3409  0.1190 -0.2097
 8780SOL     OW37801   0.178   0.252   6.716  0.0283  0.3064 -0.0176
 8780SOL    HW137802   0.248   0.313   6.738  1.2585 -1.7305  1.7921
 8780SOL    HW237803   0.133   0.305   6.651 -1.0207  0.8017  1.1077
 8781SOL     OW37804   3.248   3.068  12.061 -0.1576  0.2974  0.5893
 8781SOL    HW137805   3.192   3.145  12.053  1.8772  1.6736 -0.0891
 8781SOL    HW237806   3.321   3.092  12.005  1.2831 -4.1204  0.5800
 8782SOL     OW37807   2.349   2.276   6.271  0.0869  0.1680 -0.6202
 8782SOL    HW137808   2.362   2.208   6.205 -3.1055 -0.8913 -0.1346
 8782SOL    HW237809   2.328   2.360   6.229  1.8384  0.7285 -0.4046
 8783SOL     OW37810   0.616   2.829  12.340  0.6983 -0.1012 -0.6018
 8783SOL    HW137811   0.590   2.919  12.318  0.3525 -0.0582 -0.0285
 8783SOL    HW237812   0.544   2.795  12.393  1.2843  0.5514  0.6372
 8784SOL     OW37813   2.506   2.544  17.521  0.1757 -0.7774 -0.4203
 8784SOL    HW137814   2.536   2.634  17.530  0.7035 -1.1860  2.0060
 8784SOL    HW237815   2.587   2.492  17.520  0.9944  0.5324 -3.7307
 8785SOL     OW37816   3.199   1.526   2.471  0.0916 -0.2811  0.4970
 8785SOL    HW137817   3.236   1.614   2.467 -0.3108 -0.1915 -1.4632
 8785SOL    HW237818   3.152   1.521   2.387  0.7295 -2.5527  0.2874
 8786SOL     OW37819   4.333   1.658  14.748 -0.0469  0.0780 -0.2002
 8786SOL    HW137820   4.301   1.692  14.832 -2.5444  2.2489 -2.0086
 8786SOL    HW237821   4.260   1.602  14.722  1.1993 -1.4276 -0.4167
 8787SOL     OW37822   3.435   0.048   5.722  0.1131 -0.3539  0.5256
 8787SOL    HW137823   3.365   0.036   5.786 -3.2732  0.5588 -2.9782
 8787SOL    HW237824   3.511   0.051   5.780 -0.0936 -0.0458  0.7810
 8788SOL     OW37825   1.250   3.063   8.937  0.2996 -0.1645  0.2660
 8788SOL    HW137826   1.168   3.016   8.954  0.1720  0.0356  0.2036
 8788SOL    HW237827   1.300   3.020   9.006  1.4527 -0.2855 -0.6488
 8789SOL     OW37828   2.137   3.892  12.485 -0.2903  0.5425  0.1512
 8789SOL    HW137829   2.213   3.920  12.536  0.4129 -1.7305  0.3466
 8789SOL    HW237830   2.106   3.815  12.533 -0.7491  1.5237  1.4412
 8790SOL     OW37831   1.764   0.821   4.702 -0.1654  0.4757  0.1816
 8790SOL    HW137832   1.761   0.794   4.610 -0.6650  0.4900  0.1919
 8790SOL    HW237833   1.749   0.733   4.737 -2.9580  0.3771 -1.1963
 8791SOL     OW37834   0.360   3.541  10.673  0.6305  0.2294 -0.3183
 8791SOL    HW137835   0.432   3.557  10.735  1.3775 -1.3974 -0.7556
 8791SOL    HW237836   0.290   3.534  10.738 -0.3014 -0.2771 -1.3966
 8792SOL     OW37837   1.618   1.813  17.430  0.6419 -0.4428  0.1033
 8792SOL    HW137838   1.605   1.824  17.336 -0.7941 -1.2224  0.2152
 8792SOL    HW237839   1.699   1.863  17.434 -0.0266  0.6042  0.2774
 8793SOL     OW37840   2.883   2.147   1.024  0.3892 -0.3653 -0.4305
 8793SOL    HW137841   2.949   2.131   0.956 -0.2244  0.2998 -1.1833
 8793SOL    HW237842   2.802   2.154   0.974  0.5794  0.5132 -0.6107
 8794SOL     OW37843   3.225   4.082   2.983 -0.3211  0.6455  0.6324
 8794SOL    HW137844   3.250   4.030   3.059  0.2896 -1.5668 -1.0811
 8794SOL    HW237845   3.294   4.077   2.917 -0.3515 -2.0305  0.7973
 8795SOL     OW37846   0.216   2.399   7.654  0.1065  0.2886 -0.0002
 8795SOL    HW137847   0.132   2.394   7.700 -0.7626 -1.6180 -1.7490
 8795SOL    HW237848   0.194   2.452   7.577  3.1931 -0.1758 -1.1730
 8796SOL     OW37849   3.574   3.950   5.737 -0.2442 -0.1860 -0.1671
 8796SOL    HW137850   3.530   3.907   5.809  2.9006  1.2776  2.6257
 8796SOL    HW237851   3.511   4.017   5.712  0.1339 -0.0783 -0.8636
 8797SOL     OW37852   1.922   2.084   0.664 -0.6831 -0.3108  0.4004
 8797SOL    HW137853   2.002   2.063   0.616  0.2162  0.2548  1.6547
 8797SOL    HW237854   1.954   2.058   0.750  1.8825 -1.2994 -0.8508
 8798SOL     OW37855   0.821   2.867   7.598  0.0447  0.0518  0.1014
 8798SOL    HW137856   0.773   2.805   7.543 -0.3896 -0.8647  1.5224
 8798SOL    HW237857   0.889   2.896   7.537 -1.3356  1.7966 -0.6059
 8799SOL     OW37858   3.999   3.505   5.296  0.3927  0.4915 -0.0254
 8799SOL    HW137859   3.965   3.466   5.216 -1.6018 -0.2448  1.1673
 8799SOL    HW237860   3.966   3.594   5.296 -0.6542  0.0975  0.3298
 8800SOL     OW37861   0.334   1.239   3.992 -0.3132  0.4012  0.0723
 8800SOL    HW137862   0.378   1.183   4.056  0.1239 -0.6303 -1.1284
 8800SOL    HW237863   0.297   1.180   3.926  1.5392 -0.7155  0.0203
 8801SOL     OW37864   4.648   1.961   2.614 -0.1466  0.0004 -0.9559
 8801SOL    HW137865   0.002   1.915   2.577  0.8015  2.1502 -1.7024
 8801SOL    HW237866   4.568   1.913   2.593 -1.5163  2.4125 -1.2719
 8802SOL     OW37867   3.198   1.811   2.439 -0.3086  0.1122 -0.5851
 8802SOL    HW137868   3.161   1.795   2.352  0.7946 -0.6414 -0.9168
 8802SOL    HW237869   3.292   1.806   2.426 -0.5963 -1.1033 -2.2696
 8803SOL     OW37870   3.531   3.540  12.988 -0.2231 -0.3031  0.0271
 8803SOL    HW137871   3.615   3.584  12.997  0.6121 -1.9804  0.3677
 8803SOL    HW237872   3.509   3.567  12.899  0.3065 -0.8270 -0.2601
 8804SOL     OW37873   3.470   4.208   6.318 -0.2109 -0.0698  0.7282
 8804SOL    HW137874   3.433   4.241   6.236  2.5440 -0.8913 -0.8217
 8804SOL    HW237875   3.403   4.238   6.379 -0.5730  0.3579  0.1281
 8805SOL     OW37876   3.704   3.672  13.799 -0.6506  0.2581 -0.3476
 8805SOL    HW137877   3.621   3.719  13.808 -0.5863  0.3646 -0.3116
 8805SOL    HW237878   3.738   3.714  13.720 -0.5690 -0.5150 -0.7201
 8806SOL     OW37879   1.080   1.174  11.291  0.3000  0.6402 -0.0635
 8806SOL    HW137880   1.156   1.171  11.349 -0.3196  1.5998  0.7925
 8806SOL    HW237881   1.030   1.095  11.313  0.1922  0.7212 -0.0152
 8807SOL     OW37882   2.472   2.077   7.527  0.2856 -0.2150 -0.1160
 8807SOL    HW137883   2.425   2.138   7.584  2.1955  0.5930  0.5870
 8807SOL    HW237884   2.561   2.096   7.557  0.9818  1.0083 -2.9699
 8808SOL     OW37885   1.719   4.493   1.160 -0.7765  0.1423 -0.4082
 8808SOL    HW137886   1.795   4.445   1.190 -1.8312 -2.4712 -1.9272
 8808SOL    HW237887   1.754   4.573   1.121  0.8391 -0.3098  0.1497
 8809SOL     OW37888   1.197   3.103   8.124  0.3423 -0.1247 -0.1038
 8809SOL    HW137889   1.134   3.085   8.194  0.4359 -1.1183 -0.2659
 8809SOL    HW237890   1.241   3.175   8.168  1.2152 -0.3127 -0.6648
 8810SOL     OW37891   2.983   4.542   5.093  0.1406  0.4942  0.6032
 8810SOL    HW137892   3.067   4.503   5.115 -0.4831 -0.4299  1.3343
 8810SOL    HW237893   2.998   4.637   5.084  1.4101  0.2217 -0.1065
 8811SOL     OW37894   0.678   4.587   6.666  0.0992  0.1679  0.2089
 8811SOL    HW137895   0.677   4.679   6.693 -3.1819 -0.2171  1.3807
 8811SOL    HW237896   0.692   4.543   6.750 -2.3151  2.9403  2.0569
 8812SOL     OW37897   1.747   3.278  16.311 -0.2292  0.6886 -0.0829
 8812SOL    HW137898   1.718   3.340  16.379  1.3397  1.5727 -0.1968
 8812SOL    HW237899   1.665   3.232  16.294 -0.2955  0.5893  0.5048
 8813SOL     OW37900   1.699   0.997  10.820 -0.5852 -0.1583 -0.2057
 8813SOL    HW137901   1.607   0.980  10.841 -1.0377 -0.5439 -2.4879
 8813SOL    HW237902   1.691   1.092  10.830  2.5795  0.1394 -0.5270
 8814SOL     OW37903   1.853   1.401  11.865  0.0383  0.0910  0.0352
 8814SOL    HW137904   1.943   1.433  11.859 -0.0711  0.5641  0.8363
 8814SOL    HW237905   1.841   1.389  11.959 -2.3228 -0.0997 -0.2788
 8815SOL     OW37906   3.164   4.598  11.902 -0.0010 -0.1771 -0.0980
 8815SOL    HW137907   3.166   4.509  11.868 -3.5512  0.2038 -1.2873
 8815SOL    HW237908   3.075   4.621  11.876 -0.6196 -2.4999 -0.0084
 8816SOL     OW37909   0.589   0.461   0.896  0.1261 -0.1344  0.2130
 8816SOL    HW137910   0.557   0.388   0.949 -0.3628 -0.1252 -0.0725
 8816SOL    HW237911   0.513   0.487   0.844 -0.2103  0.8696  1.2245
 8817SOL     OW37912   3.273   3.518   8.202  0.0403  0.5001 -0.0751
 8817SOL    HW137913   3.183   3.528   8.233 -0.0026 -1.3343  0.3464
 8817SOL    HW237914   3.314   3.587   8.255  2.2173 -0.2252 -0.8164
 8818SOL     OW37915   0.597   2.440   7.178 -0.6445 -0.2413 -0.6417
 8818SOL    HW137916   0.606   2.481   7.264  0.4928 -1.6884 -0.0818
 8818SOL    HW237917   0.575   2.513   7.120 -3.4639 -1.6853 -1.4458
 8819SOL     OW37918   2.613   4.409   5.715  0.5927 -0.1122  0.3277
 8819SOL    HW137919   2.581   4.495   5.688  0.4960 -0.0016  0.7931
 8819SOL    HW237920   2.600   4.401   5.809 -0.4004  1.7976  0.3490
 8820SOL     OW37921   3.971   3.716   4.507 -0.3723  0.1135  0.1070
 8820SOL    HW137922   4.018   3.759   4.436  0.6274  2.5910  2.2992
 8820SOL    HW237923   3.931   3.788   4.555  1.2816  0.2965  1.2362
 8821SOL     OW37924   0.226   2.759   0.848 -0.1737 -0.0805  0.7612
 8821SOL    HW137925   0.188   2.673   0.866 -2.7139  0.4432 -2.1573
 8821SOL    HW237926   0.151   2.818   0.836 -0.7205 -1.2733 -1.7348
 8822SOL     OW37927   3.924   3.351  13.964 -0.0814  0.4500  0.2076
 8822SOL    HW137928   4.015   3.371  13.985  0.1856 -0.1024 -0.4146
 8822SOL    HW237929   3.923   3.257  13.977  2.4289  0.5788  1.3892
 8823SOL     OW37930   2.896   3.172   2.932 -0.1543 -0.6634  0.2079
 8823SOL    HW137931   2.838   3.108   2.893  0.2124 -0.2646 -0.9775
 8823SOL    HW237932   2.976   3.151   2.884  0.9930 -0.8383  2.1705
 8824SOL     OW37933   4.483   0.289   5.655  0.1475  0.4343  0.3876
 8824SOL    HW137934   4.443   0.268   5.740 -2.3717  2.3103 -0.3287
 8824SOL    HW237935   4.553   0.347   5.684 -0.5576  1.2679  0.4106
 8825SOL     OW37936   1.131   4.163  13.145  0.1828 -0.3271 -0.3343
 8825SOL    HW137937   1.056   4.153  13.204  1.9495 -1.5641  1.6998
 8825SOL    HW237938   1.211   4.132  13.188 -0.0485  0.0414  0.3464
 8826SOL     OW37939   0.659   0.199   2.365 -0.8386 -0.4192  0.3314
 8826SOL    HW137940   0.643   0.169   2.276 -2.6185  2.9889 -0.4836
 8826SOL    HW237941   0.753   0.218   2.369 -1.3546  1.9232  1.1399
 8827SOL     OW37942   3.064   3.472   9.454  0.8579  0.0535 -0.0349
 8827SOL    HW137943   3.113   3.554   9.443  2.6141 -1.1469 -1.1385
 8827SOL    HW237944   3.015   3.491   9.534  1.7399  1.1951  0.2376
 8828SOL     OW37945   3.261   2.735   8.259  0.1039 -0.5553  0.1248
 8828SOL    HW137946   3.201   2.807   8.236  2.2764  1.2168 -0.0106
 8828SOL    HW237947   3.199   2.684   8.311 -2.2182  0.5575 -1.4827
 8829SOL     OW37948   0.748   1.729  12.494  0.8218  0.5577  0.0017
 8829SOL    HW137949   0.834   1.711  12.454  0.7827 -3.5169  1.7318
 8829SOL    HW237950   0.694   1.662  12.452 -0.6164  0.9197  1.2571
 8830SOL     OW37951   4.048   1.337   2.618 -0.1853  0.6052  0.1252
 8830SOL    HW137952   4.060   1.303   2.707 -0.5973  0.8677  0.2807
 8830SOL    HW237953   4.105   1.413   2.622 -0.3448  0.6340  1.9387
 8831SOL     OW37954   1.031   0.883   9.225 -0.3546 -0.2471 -0.2632
 8831SOL    HW137955   1.101   0.832   9.266 -1.2540 -1.4512 -0.2047
 8831SOL    HW237956   0.968   0.886   9.297  2.0025 -0.6728  1.8423
 8832SOL     OW37957   1.729   2.871   2.300  0.1773  0.1318 -0.5886
 8832SOL    HW137958   1.673   2.802   2.336  1.0941 -1.0633 -1.4432
 8832SOL    HW237959   1.696   2.956   2.328  0.3751  0.5870 -1.7253
 8833SOL     OW37960   0.828   3.900   5.850  0.3270 -0.4435 -0.3097
 8833SOL    HW137961   0.865   3.828   5.901  0.7650 -1.7220 -2.4228
 8833SOL    HW237962   0.746   3.912   5.897  1.1897  0.5364  0.9454
 8834SOL     OW37963   1.374   3.750   9.277  0.3429  0.3582 -0.2117
 8834SOL    HW137964   1.320   3.687   9.229 -0.6675  1.5829 -0.6866
 8834SOL    HW237965   1.335   3.731   9.362 -1.5115  0.7065 -0.9885
 8835SOL     OW37966   4.055   4.364   4.139 -0.3222  0.1563 -0.7178
 8835SOL    HW137967   3.986   4.325   4.086 -0.7311 -1.7300  1.2061
 8835SOL    HW237968   4.131   4.355   4.081  1.4065  2.1974  1.2661
 8836SOL     OW37969   1.302   4.307   8.187  0.2114 -0.3110 -1.4641
 8836SOL    HW137970   1.271   4.303   8.097 -1.4596  1.4325 -0.9700
 8836SOL    HW237971   1.223   4.339   8.231  0.4139 -2.3115  0.3699
 8837SOL     OW37972   0.299   0.199   1.565  0.7042 -0.7012  0.5446
 8837SOL    HW137973   0.315   0.117   1.612 -1.9625 -0.1714  2.3988
 8837SOL    HW237974   0.210   0.177   1.541  1.2793 -1.5636 -0.7650
 8838SOL     OW37975   1.762   0.878   7.592 -0.5277 -0.0665 -0.0234
 8838SOL    HW137976   1.764   0.875   7.688 -0.4348 -0.7126 -0.0406
 8838SOL    HW237977   1.852   0.905   7.574 -0.4293  1.2196  2.3504
 8839SOL     OW37978   3.756   3.102  15.381  0.3268  0.5567 -0.2972
 8839SOL    HW137979   3.794   3.148  15.456  1.8487  0.8186 -1.2283
 8839SOL    HW237980   3.802   3.144  15.308 -2.1088  2.7785 -0.5725
 8840SOL     OW37981   3.148   3.762   2.490 -0.2632 -0.1921 -0.2284
 8840SOL    HW137982   3.206   3.835   2.511 -0.0302 -0.7077  0.9720
 8840SOL    HW237983   3.181   3.728   2.407  1.7973 -0.5332  0.7143
 8841SOL     OW37984   1.575   1.158   3.464 -0.5544  0.2162 -0.1658
 8841SOL    HW137985   1.644   1.153   3.530 -0.1634  0.3263 -0.5644
 8841SOL    HW237986   1.632   1.164   3.387 -0.0918 -0.9522  0.0859
 8842SOL     OW37987   1.483   2.685  13.857  0.9981 -0.0411  0.6396
 8842SOL    HW137988   1.425   2.658  13.928  0.6656 -1.7983 -0.2996
 8842SOL    HW237989   1.550   2.617  13.863  1.2175 -0.0637 -2.1533
 8843SOL     OW37990   0.216   2.310   8.651 -0.1017 -0.0554 -0.2214
 8843SOL    HW137991   0.209   2.284   8.560  2.1003  2.6297 -1.1778
 8843SOL    HW237992   0.271   2.242   8.690 -0.1526 -0.9474 -1.7261
 8844SOL     OW37993   1.540   4.444  10.517  0.5927 -0.0424 -0.6674
 8844SOL    HW137994   1.541   4.349  10.525  0.4426  0.1093  1.2358
 8844SOL    HW237995   1.465   4.470  10.571  0.7461 -0.3356 -0.3118
 8845SOL     OW37996   0.953   0.664  11.475  0.2595 -0.0448  0.0148
 8845SOL    HW137997   0.918   0.612  11.402 -0.6970  0.2438  0.2741
 8845SOL    HW237998   0.946   0.750  11.434 -2.3827 -0.3180 -0.1263
 8846SOL     OW37999   4.363   0.647  17.515 -0.1555  0.0699 -0.7967
 8846SOL    HW138000   4.298   0.698  17.468 -0.9325 -0.1953 -0.0197
 8846SOL    HW238001   4.405   0.708  17.576 -0.3697 -1.1230  0.5595
 8847SOL     OW38002   1.546   2.871   6.741 -0.0039  0.1108  0.2083
 8847SOL    HW138003   1.472   2.819   6.708  0.3061  0.6900 -1.4069
 8847SOL    HW238004   1.609   2.855   6.670  0.4915 -0.5109  0.7945
 8848SOL     OW38005   1.015   3.784   2.424 -0.2070  0.5901  0.1230
 8848SOL    HW138006   0.935   3.827   2.391  0.0488  1.5657  0.7581
 8848SOL    HW238007   1.017   3.696   2.386  0.2447 -0.3033  2.2465
 8849SOL     OW38008   2.483   2.086   5.903  0.2184 -0.0241 -0.6184
 8849SOL    HW138009   2.519   2.006   5.865  2.1900  0.1813  0.8302
 8849SOL    HW238010   2.493   2.153   5.836  2.0587  0.3245  0.0171
 8850SOL     OW38011   2.874   2.389   7.578  0.0934  0.6567 -0.6627
 8850SOL    HW138012   2.872   2.484   7.588 -1.4884  0.9784 -4.2518
 8850SOL    HW238013   2.967   2.370   7.565 -0.1280 -0.8138 -0.1908
 8851SOL     OW38014   4.082   0.889   7.433  0.3420 -0.1431 -0.3554
 8851SOL    HW138015   4.072   0.836   7.512  0.4555  0.6833  0.2117
 8851SOL    HW238016   4.084   0.980   7.463  2.9992 -0.3035 -0.0525
 8852SOL     OW38017   0.104   3.133   8.053 -0.3035  0.4325 -0.2530
 8852SOL    HW138018   0.153   3.208   8.087  1.3710 -0.1008 -1.5076
 8852SOL    HW238019   0.159   3.117   7.976  0.3788  1.4061  0.0219
 8853SOL     OW38020   3.953   2.058   8.815  0.1423  0.6336  0.1696
 8853SOL    HW138021   4.005   2.088   8.889  1.2186  0.8967 -0.6956
 8853SOL    HW238022   3.973   2.119   8.743  0.5706 -0.0855 -0.3268
 8854SOL     OW38023   3.491   2.963   5.244 -0.3949  0.2205  0.0482
 8854SOL    HW138024   3.473   3.018   5.168 -0.8676  0.9050  0.6519
 8854SOL    HW238025   3.413   2.910   5.260  0.6996 -1.4439 -0.1522
 8855SOL     OW38026   1.893   2.124   4.631  0.2531  0.0815  0.0704
 8855SOL    HW138027   1.841   2.195   4.593 -1.1854  0.1765  2.1989
 8855SOL    HW238028   1.826   2.057   4.616  1.6379 -1.2580 -0.1165
 8856SOL     OW38029   4.628   3.723   7.231  0.0064 -0.3813  0.7848
 8856SOL    HW138030   4.649   3.692   7.143 -1.1056 -2.9339  1.4241
 8856SOL    HW238031   4.639   3.817   7.221 -2.7296 -0.4322 -2.5846
 8857SOL     OW38032   2.600   0.220   2.702 -0.1244  0.0923  0.5936
 8857SOL    HW138033   2.564   0.173   2.777 -0.9747 -2.8931 -1.6737
 8857SOL    HW238034   2.675   0.162   2.688  1.4033  2.0302  0.6309
 8858SOL     OW38035   4.452   0.609   2.623 -0.1931  0.5143 -0.7379
 8858SOL    HW138036   4.412   0.574   2.543  0.6989 -0.8271 -0.6064
 8858SOL    HW238037   4.387   0.678   2.635 -1.2210 -0.1015 -2.6340
 8859SOL     OW38038   3.102   3.287   1.230  0.0440 -0.0442  0.3687
 8859SOL    HW138039   3.121   3.222   1.298 -0.8076  0.8844  1.5120
 8859SOL    HW238040   3.007   3.280   1.219  0.5269 -2.0040 -2.2242
 8860SOL     OW38041   1.834   1.092   1.932 -0.2975  0.6623  0.1492
 8860SOL    HW138042   1.901   1.133   1.985  1.6829 -1.4368 -0.7080
 8860SOL    HW238043   1.791   1.175   1.912  0.2133  0.2873 -2.5211
 8861SOL     OW38044   0.450   3.230   2.546 -0.4294  0.0291 -0.1473
 8861SOL    HW138045   0.524   3.178   2.514  1.9056  3.0273  0.3341
 8861SOL    HW238046   0.450   3.208   2.640 -1.3049  0.2754 -0.0907
 8862SOL     OW38047   2.693   2.255   3.301  0.2193  0.5786 -0.5249
 8862SOL    HW138048   2.734   2.341   3.313 -0.6675  0.8331  0.6810
 8862SOL    HW238049   2.616   2.264   3.357 -0.3236  1.4346 -1.4116
 8863SOL     OW38050   3.022   1.538   2.676 -0.3307 -0.1487 -0.0075
 8863SOL    HW138051   3.011   1.630   2.650  0.1955  0.2632  1.2580
 8863SOL    HW238052   3.075   1.508   2.602 -1.7061 -0.9579 -0.6672
 8864SOL     OW38053   1.657   0.143   4.264 -0.6496  0.4523  0.0325
 8864SOL    HW138054   1.751   0.142   4.282 -0.8071  0.9800  0.8989
 8864SOL    HW238055   1.610   0.080   4.319 -0.0493 -0.6637 -0.7217
 8865SOL     OW38056   3.964   4.720   1.160  0.0994 -0.0455 -0.2846
 8865SOL    HW138057   3.893   0.042   1.112 -0.7858  0.2529  1.2582
 8865SOL    HW238058   4.041   0.051   1.138 -0.4242  1.4172  1.2658
 8866SOL     OW38059   0.014   0.672   3.522 -0.2651 -0.3429 -0.2817
 8866SOL    HW138060   0.064   0.593   3.537  3.4160  1.9399 -0.5812
 8866SOL    HW238061   0.065   0.712   3.451 -1.4992  0.4254 -0.7425
 8867SOL     OW38062   1.344   1.853   8.419 -0.1935 -0.0764  0.4109
 8867SOL    HW138063   1.324   1.908   8.343  0.3386  0.7067  0.8343
 8867SOL    HW238064   1.330   1.772   8.371  1.9269  0.2891 -0.8223
 8868SOL     OW38065   1.223   3.175   4.764  0.3683  0.6351  0.1944
 8868SOL    HW138066   1.282   3.100   4.776  2.1186  1.5878 -2.6722
 8868SOL    HW238067   1.225   3.200   4.672  0.2444 -0.6059 -0.1422
 8869SOL     OW38068   0.426   1.959   8.654  0.1963  0.1586 -0.0643
 8869SOL    HW138069   0.444   1.885   8.711 -0.4148  0.4820  0.5567
 8869SOL    HW238070   0.386   2.024   8.712 -1.0016 -1.3787  0.8495
 8870SOL     OW38071   0.663   0.052   6.398  0.5018  0.0077  0.0163
 8870SOL    HW138072   0.573   0.076   6.373 -0.2589 -0.8649  1.9613
 8870SOL    HW238073   0.646   4.680   6.418 -1.5334  0.3262 -0.2793
 8871SOL     OW38074   2.464   3.184   2.415  0.1257 -0.4062 -0.1522
 8871SOL    HW138075   2.423   3.142   2.491 -0.9740 -0.3391 -0.7028
 8871SOL    HW238076   2.414   3.266   2.415 -2.4920 -1.9897  1.4853
 8872SOL     OW38077   1.828   3.786  12.329  0.5108  0.8038  0.4781
 8872SOL    HW138078   1.833   3.878  12.306  1.3352  1.8333  4.7542
 8872SOL    HW238079   1.843   3.783  12.423 -1.1065  2.0748  0.7705
 8873SOL     OW38080   4.314   0.794   3.542  0.7530  0.6453  0.1988
 8873SOL    HW138081   4.332   0.872   3.488 -2.8603  1.4479  0.1173
 8873SOL    HW238082   4.220   0.786   3.529  0.9994  1.1523 -1.9913
 8874SOL     OW38083   1.055   0.139  12.934 -0.5914  0.0681 -0.0921
 8874SOL    HW138084   1.094   0.164  12.850 -1.5875  1.9893  0.0230
 8874SOL    HW238085   0.972   0.186  12.925 -0.4464  0.3288 -0.0716
 8875SOL     OW38086   1.093   0.319   8.688 -0.4572  0.1779  0.0995
 8875SOL    HW138087   1.141   0.247   8.729 -0.4410 -0.0493 -0.3214
 8875SOL    HW238088   1.022   0.319   8.752 -1.0364 -0.2905 -0.5352
 8876SOL     OW38089   3.387   2.508  11.704 -0.3233  0.3938  0.1154
 8876SOL    HW138090   3.441   2.587  11.702  2.0908 -1.2938 -1.2806
 8876SOL    HW238091   3.405   2.475  11.616  1.3587 -0.4534  0.7991
 8877SOL     OW38092   1.607   3.743   7.606  0.5029 -0.4306 -1.0158
 8877SOL    HW138093   1.569   3.656   7.621  0.9254 -0.1790  1.6081
 8877SOL    HW238094   1.689   3.716   7.564 -0.1705 -1.8032 -1.4243
 8878SOL     OW38095   0.211   1.258  10.180  0.4402 -0.0805 -0.9512
 8878SOL    HW138096   0.116   1.254  10.183  0.4988 -0.7302  0.1124
 8878SOL    HW238097   0.227   1.352  10.191 -1.4663  0.0674  0.5154
 8879SOL     OW38098   3.993   3.065  15.993  0.5546  0.1872 -0.6018
 8879SOL    HW138099   3.970   3.118  16.069 -0.2221  0.0102 -0.7175
 8879SOL    HW238100   3.964   3.112  15.915  1.0898 -1.7380 -1.9695
 8880SOL     OW38101   3.000   1.655  14.087 -0.0895 -0.9815 -0.3219
 8880SOL    HW138102   2.935   1.721  14.113  2.5588  2.6653 -2.9162
 8880SOL    HW238103   2.941   1.585  14.061  1.7677 -2.6073 -0.1538
 8881SOL     OW38104   2.052   3.645  12.629 -0.8294  0.2164  0.4366
 8881SOL    HW138105   2.020   3.611  12.713  4.0717 -2.4712  1.2274
 8881SOL    HW238106   2.017   3.571  12.580  1.6704 -0.0983 -0.8970
 8882SOL     OW38107   1.639   3.208   9.081  0.3865 -0.2477 -0.0519
 8882SOL    HW138108   1.697   3.245   9.147  0.9996  0.5385 -1.0453
 8882SOL    HW238109   1.565   3.260   9.111 -0.6900 -2.7279  1.5820
 8883SOL     OW38110   0.302   3.438   2.441 -0.0364  0.0437 -0.0322
 8883SOL    HW138111   0.351   3.489   2.376  0.2315 -1.1537 -0.7788
 8883SOL    HW238112   0.373   3.392   2.487 -0.1849 -0.3491 -0.1938
 8884SOL     OW38113   2.491   1.528  17.092  0.0011  0.2898 -0.0496
 8884SOL    HW138114   2.463   1.467  17.024  1.9644 -0.8123  0.1180
 8884SOL    HW238115   2.429   1.517  17.164  0.9806  0.9265  0.8880
 8885SOL     OW38116   0.749   1.745   3.977  0.1012 -0.4416  0.2329
 8885SOL    HW138117   0.770   1.748   4.070 -0.9803 -0.3367  0.4705
 8885SOL    HW238118   0.835   1.731   3.937 -1.0889 -1.2099 -2.0695
 8886SOL     OW38119   3.544   4.312   3.602  0.5291 -0.4620 -0.3322
 8886SOL    HW138120   3.607   4.243   3.582 -0.5872 -1.5626 -0.0363
 8886SOL    HW238121   3.567   4.385   3.545  1.1327  1.3512  2.2550
 8887SOL     OW38122   2.738   3.171   1.109 -0.1217 -0.3300  0.3311
 8887SOL    HW138123   2.685   3.170   1.189 -0.2886  0.1753  0.2232
 8887SOL    HW238124   2.813   3.118   1.137 -0.5090 -0.1472  1.7395
 8888SOL     OW38125   1.200   1.752   2.949  0.4252 -0.1736  0.1671
 8888SOL    HW138126   1.129   1.764   2.886  0.0944  1.4641  0.8804
 8888SOL    HW238127   1.264   1.739   2.879  0.2018 -0.8114  0.0800
 8889SOL     OW38128   3.350   1.625   6.517 -0.0274 -0.3577 -0.6180
 8889SOL    HW138129   3.259   1.620   6.545  0.6535 -0.8836  1.5768
 8889SOL    HW238130   3.348   1.575   6.436 -0.8897 -1.3000 -0.0168
 8890SOL     OW38131   1.805   3.221  10.608 -0.0383 -0.4216 -0.0853
 8890SOL    HW138132   1.807   3.154  10.677 -0.1162 -0.5595 -0.2163
 8890SOL    HW238133   1.897   3.217  10.580  0.3720 -0.9343  1.3030
 8891SOL     OW38134   3.067   2.319   3.393  0.3205 -0.5279  0.1298
 8891SOL    HW138135   3.129   2.363   3.335  0.3032  0.1798  0.6509
 8891SOL    HW238136   3.067   2.225   3.373 -1.0028 -0.7286  1.0204
 8892SOL     OW38137   1.026   0.420  15.989  0.4408  0.8294 -0.0147
 8892SOL    HW138138   0.983   0.361  16.050  1.7325  0.8057  0.8534
 8892SOL    HW238139   1.112   0.394  16.020  0.8396  0.5621 -1.3555
 8893SOL     OW38140   0.363   3.450   6.621  0.2493 -0.2462  0.0855
 8893SOL    HW138141   0.412   3.529   6.599 -0.8293  0.5485  0.5233
 8893SOL    HW238142   0.276   3.485   6.599  0.1732  1.0206  2.4083
 8894SOL     OW38143   1.042   0.077  13.945 -0.2513 -0.3949  0.2534
 8894SOL    HW138144   1.086   0.154  13.910  0.1743  0.1478  1.9755
 8894SOL    HW238145   1.049   0.092  14.040  0.2108 -2.1566  0.4912
 8895SOL     OW38146   4.279   1.526   2.180 -0.6640  0.7449  0.0208
 8895SOL    HW138147   4.366   1.536   2.220 -0.8866  1.3177  0.3627
 8895SOL    HW238148   4.294   1.552   2.089 -1.3708 -2.1476 -0.9231
 8896SOL     OW38149   0.791   1.439   0.336  0.1560  0.0284 -0.0574
 8896SOL    HW138150   0.757   1.426   0.247  0.6241 -0.4807 -0.1621
 8896SOL    HW238151   0.771   1.355   0.375  0.2176 -0.2713 -0.6656
 8897SOL     OW38152   3.167   3.557  12.522  0.2687 -0.6978  0.3678
 8897SOL    HW138153   3.194   3.474  12.483 -0.3323  0.1210 -1.7705
 8897SOL    HW238154   3.077   3.557  12.490  1.1070 -1.5524 -1.9155
 8898SOL     OW38155   3.319   1.987   5.938 -0.0000  0.9321 -0.1916
 8898SOL    HW138156   3.349   2.022   6.022  0.1260 -0.3484  0.3089
 8898SOL    HW238157   3.238   2.034   5.922 -1.0832 -0.6612  0.5273
 8899SOL     OW38158   2.210   1.771  10.563 -0.4357  0.0606 -0.5071
 8899SOL    HW138159   2.151   1.764  10.638 -0.3007  0.5326 -0.3578
 8899SOL    HW238160   2.185   1.855  10.525  1.7921  1.6705  1.5285
 8900SOL     OW38161   4.368   0.233   4.141  0.3272  0.5685 -0.1169
 8900SOL    HW138162   4.368   0.179   4.220  1.1306  1.5230  0.5332
 8900SOL    HW238163   4.408   0.310   4.181 -0.0137  1.4348 -1.4277
 8901SOL     OW38164   4.569   1.749   4.129 -0.4067 -0.4616  0.8012
 8901SOL    HW138165   4.600   1.788   4.047 -0.9257 -0.6378  0.5230
 8901SOL    HW238166   4.603   1.659   4.138 -1.7882 -1.0281  0.3537
 8902SOL     OW38167   1.137   4.042   3.675 -0.1420 -0.4505 -0.0578
 8902SOL    HW138168   1.062   3.985   3.692  1.4559 -2.0989  1.4113
 8902SOL    HW238169   1.210   3.983   3.660  1.7760  2.2594 -1.4090
 8903SOL     OW38170   3.798   0.679   0.131  0.1901 -0.5708 -0.4381
 8903SOL    HW138171   3.836   0.628   0.202 -0.6393 -0.1722  0.2893
 8903SOL    HW238172   3.706   0.684   0.156 -0.3374 -2.1490 -2.0695
 8904SOL     OW38173   2.582   3.385   8.636  0.3303  0.3375 -0.2633
 8904SOL    HW138174   2.512   3.385   8.571  1.2916  1.0051 -1.2948
 8904SOL    HW238175   2.617   3.474   8.629 -0.8562  0.7006 -1.5404
 8905SOL     OW38176   3.257   3.815   4.984  0.1487 -0.0695  0.1680
 8905SOL    HW138177   3.187   3.768   4.938 -1.2925  1.3291  0.9206
 8905SOL    HW238178   3.201   3.859   5.048 -0.4702  0.2570 -0.5840
 8906SOL     OW38179   3.710   1.063  13.141  0.1605  0.0950  0.1553
 8906SOL    HW138180   3.724   0.974  13.175 -0.4092 -0.1860 -0.3606
 8906SOL    HW238181   3.783   1.064  13.078  0.7896  1.4669  0.9061
 8907SOL     OW38182   0.825   1.813   7.060  0.1531 -0.3358  0.3089
 8907SOL    HW138183   0.752   1.875   7.054  0.2735 -0.2216  0.0361
 8907SOL    HW238184   0.882   1.854   6.996  0.7719  0.7388  1.5406
 8908SOL     OW38185   0.879   3.953  14.486 -0.2397  0.8716 -0.0771
 8908SOL    HW138186   0.817   4.017  14.450  0.6832  2.1743  0.6303
 8908SOL    HW238187   0.912   3.999  14.564  3.5961 -1.3466 -0.3768
 8909SOL     OW38188   3.053   3.214   0.805 -0.1076  0.2903  0.7196
 8909SOL    HW138189   2.965   3.193   0.836  0.1659  0.9466  1.9277
 8909SOL    HW238190   3.108   3.187   0.878  1.0722 -1.5238 -0.8407
 8910SOL     OW38191   2.980   3.210   2.583  0.0910 -0.2156 -0.2558
 8910SOL    HW138192   3.043   3.256   2.639  1.0041 -0.9933 -0.6425
 8910SOL    HW238193   3.046   3.164   2.531  1.2377  1.0112  0.0926
 8911SOL     OW38194   2.423   0.042   6.969  0.0645 -0.7190 -0.0726
 8911SOL    HW138195   2.445   0.121   6.920 -2.1824 -0.5731 -0.8601
 8911SOL    HW238196   2.488   4.702   6.934  0.0787 -0.1527 -1.0443
 8912SOL     OW38197   1.982   0.615   5.376 -0.2167 -0.3344  0.0653
 8912SOL    HW138198   1.915   0.594   5.311 -0.9428  0.3500  0.5941
 8912SOL    HW238199   2.008   0.703   5.348 -1.1848  0.4251  1.5259
 8913SOL     OW38200   3.293   1.868   8.108 -0.0238  0.3793  0.6948
 8913SOL    HW138201   3.261   1.926   8.178 -1.0702  0.3293  0.2562
 8913SOL    HW238202   3.379   1.898   8.081  0.0007 -0.3382 -0.0272
 8914SOL     OW38203   2.808   3.030  14.328 -0.4843  0.0254 -0.3048
 8914SOL    HW138204   2.728   2.994  14.366  0.9499 -1.3229  1.4079
 8914SOL    HW238205   2.873   2.988  14.384 -0.1162  0.5101 -0.3707
 8915SOL     OW38206   1.778   3.610  15.115  0.1730  0.6698  0.2020
 8915SOL    HW138207   1.854   3.668  15.112  1.2768 -0.7689  0.6770
 8915SOL    HW238208   1.701   3.665  15.099 -0.1450 -0.0394 -0.6970
 8916SOL     OW38209   4.414   0.389   8.495  0.3428  0.0773  0.5073
 8916SOL    HW138210   4.325   0.371   8.465 -0.1314  1.1797  1.2361
 8916SOL    HW238211   4.459   0.400   8.412 -0.9938  0.8926 -0.1158
 8917SOL     OW38212   2.902   0.475   7.605  0.1469 -0.0789 -0.1118
 8917SOL    HW138213   2.838   0.514   7.663  1.5200  2.6021 -0.3919
 8917SOL    HW238214   2.852   0.432   7.535  1.1956  0.9311 -1.4845
 8918SOL     OW38215   1.570   3.662  13.541  0.0245  0.9856 -0.3396
 8918SOL    HW138216   1.593   3.621  13.625  1.5679  1.9929 -0.2554
 8918SOL    HW238217   1.591   3.589  13.483 -0.9192 -0.0538  0.6339
 8919SOL     OW38218   4.616   3.254  12.275 -0.4430 -0.3763  0.3388
 8919SOL    HW138219   4.668   3.333  12.289 -0.7233  0.1133 -1.3756
 8919SOL    HW238220   4.645   3.196  12.345 -0.7338 -0.7695  0.1331
 8920SOL     OW38221   0.816   4.016  17.672  0.1853  0.1169  0.3556
 8920SOL    HW138222   0.786   4.029   0.077  1.4101  3.2964  0.2944
 8920SOL    HW238223   0.853   3.928  17.677  1.8420  0.8798  1.4631
 8921SOL     OW38224   0.588   1.776  14.984 -0.3729 -0.1887  0.0087
 8921SOL    HW138225   0.624   1.730  15.060 -0.5383 -1.2450 -0.5557
 8921SOL    HW238226   0.540   1.701  14.948  0.4704 -0.4243 -0.6153
 8922SOL     OW38227   4.398   4.254  11.686 -0.4928  0.0903 -0.2113
 8922SOL    HW138228   4.409   4.348  11.692 -1.0751  0.1748 -0.5008
 8922SOL    HW238229   4.438   4.225  11.604 -0.9846  1.5482 -0.9501
 8923SOL     OW38230   4.315   0.336   1.393 -0.3269 -0.4898 -0.3149
 8923SOL    HW138231   4.322   0.339   1.489  0.7642 -0.1792 -0.3996
 8923SOL    HW238232   4.333   0.245   1.370  0.3407 -1.0155  2.2718
 8924SOL     OW38233   3.062   2.774   0.997 -0.0420  0.8048  0.0667
 8924SOL    HW138234   3.089   2.715   1.067 -1.1136 -0.2313 -0.4000
 8924SOL    HW238235   3.074   2.726   0.915 -3.5738 -1.0985  0.6802
 8925SOL     OW38236   0.234   1.864   4.355 -0.7786  0.2607 -0.2256
 8925SOL    HW138237   0.323   1.900   4.350 -1.6907  2.4873 -0.4229
 8925SOL    HW238238   0.190   1.949   4.355 -1.4548 -0.0931 -0.5484
 8926SOL     OW38239   3.114   2.583  13.710  0.5093 -0.0766  0.2688
 8926SOL    HW138240   3.150   2.604  13.624  0.3084 -2.5424 -0.4261
 8926SOL    HW238241   3.144   2.495  13.731 -0.1678 -0.8149 -1.7794
 8927SOL     OW38242   4.352   4.277   6.087 -0.3615  0.7252  0.3261
 8927SOL    HW138243   4.309   4.352   6.129 -1.2353  1.9002 -2.6061
 8927SOL    HW238244   4.295   4.261   6.011  0.3545 -2.8021  0.5741
 8928SOL     OW38245   3.986   3.019  12.593  0.3796  0.1620 -0.0872
 8928SOL    HW138246   3.938   3.089  12.638 -1.2249 -2.1092  1.7623
 8928SOL    HW238247   3.913   2.960  12.571 -0.4563  0.7365  1.1088
 8929SOL     OW38248   1.452   3.203  11.358 -0.0668 -0.1391 -0.1442
 8929SOL    HW138249   1.370   3.230  11.399 -0.0871 -1.0315  0.4024
 8929SOL    HW238250   1.423   3.158  11.278  2.2938  0.3918 -1.3005
 8930SOL     OW38251   4.095   0.987  13.617 -0.2860 -0.2028 -0.2359
 8930SOL    HW138252   4.125   0.965  13.528 -0.0140  0.5190 -0.3214
 8930SOL    HW238253   4.002   1.000  13.602 -0.3136 -0.4562 -0.2872
 8931SOL     OW38254   3.155   3.520   4.059  0.4035 -0.5174  0.2674
 8931SOL    HW138255   3.248   3.503   4.040  0.0225  0.3083 -2.3628
 8931SOL    HW238256   3.139   3.582   3.988 -1.9769 -0.9416  0.4528
 8932SOL     OW38257   2.073   3.408  11.717  0.2803 -0.9626  0.1479
 8932SOL    HW138258   2.028   3.384  11.799 -1.2817  0.1595 -0.3657
 8932SOL    HW238259   2.150   3.455  11.749 -0.3326  1.5790 -2.1163
 8933SOL     OW38260   1.424   0.884   3.201  0.2170 -0.0366 -0.0753
 8933SOL    HW138261   1.395   0.894   3.110  1.5579 -2.3198 -0.7801
 8933SOL    HW238262   1.512   0.914   3.177 -0.3077  0.6626 -1.1316
 8934SOL     OW38263   1.265   2.271   9.388 -0.4504 -0.4530  0.2041
 8934SOL    HW138264   1.281   2.343   9.327 -0.3118 -1.0787 -0.4798
 8934SOL    HW238265   1.187   2.231   9.350 -1.0768  0.4039  0.5594
 8935SOL     OW38266   2.345   0.139   7.596 -0.7794 -0.1676  0.1773
 8935SOL    HW138267   2.439   0.147   7.611 -0.8401  0.9132 -0.0430
 8935SOL    HW238268   2.322   0.080   7.668  2.1004 -1.4533  0.0661
 8936SOL     OW38269   1.486   2.673   7.883 -0.8600  0.0223  0.4739
 8936SOL    HW138270   1.400   2.692   7.844 -2.4143 -1.1684  3.3027
 8936SOL    HW238271   1.531   2.757   7.873 -1.2035 -0.0330 -1.5114
 8937SOL     OW38272   0.348   3.194   3.843 -0.7037 -0.3926  0.0825
 8937SOL    HW138273   0.400   3.153   3.912 -0.6117 -2.1373 -1.0092
 8937SOL    HW238274   0.343   3.280   3.884  1.4794  0.9461 -2.5316
 8938SOL     OW38275   1.109   1.637  11.263  0.3159  0.3020 -0.1994
 8938SOL    HW138276   1.036   1.695  11.243  0.1790 -0.5681 -2.2360
 8938SOL    HW238277   1.162   1.643  11.183 -0.5085 -0.7793 -0.8216
 8939SOL     OW38278   1.598   0.561   2.423 -0.5201 -0.1901 -0.1287
 8939SOL    HW138279   1.597   0.469   2.449 -1.1008 -0.4919 -1.2068
 8939SOL    HW238280   1.536   0.564   2.351  1.2124  2.5662 -1.5227
 8940SOL     OW38281   1.060   0.967   3.134  0.0612 -0.0161 -0.3651
 8940SOL    HW138282   1.035   1.011   3.053  0.9395  2.9172  0.9472
 8940SOL    HW238283   1.089   1.040   3.189 -1.8799  0.7094 -0.3235
 8941SOL     OW38284   0.021   1.643   3.216  0.0367 -0.0771 -0.3320
 8941SOL    HW138285   4.683   1.573   3.188  1.9132 -2.9320  2.8748
 8941SOL    HW238286   4.691   1.686   3.284 -1.2154  0.4664 -1.6077
 8942SOL     OW38287   0.362   1.982   1.664 -0.0803 -0.4864 -0.4257
 8942SOL    HW138288   0.378   2.060   1.610  1.0745 -0.9965 -0.8341
 8942SOL    HW238289   0.428   1.998   1.732 -3.2578  1.8608  2.0918
 8943SOL     OW38290   4.703   0.308   9.914 -0.1727  0.0460  0.2255
 8943SOL    HW138291   4.644   0.236   9.893 -0.5867 -0.1309  2.0586
 8943SOL    HW238292   4.673   0.340   9.999  2.2824  1.5347  0.5509
 8944SOL     OW38293   3.812   0.788   0.436  0.3425 -0.0538  0.2404
 8944SOL    HW138294   3.773   0.835   0.362  2.6398 -0.9265 -1.5165
 8944SOL    HW238295   3.748   0.789   0.507 -1.3922 -0.6034 -1.2939
 8945SOL     OW38296   1.932   4.500   5.318  0.2069 -0.3912 -0.0065
 8945SOL    HW138297   2.021   4.494   5.283  0.1189 -0.3544 -0.2326
 8945SOL    HW238298   1.930   4.594   5.338 -2.7699 -0.3774 -0.4611
 8946SOL     OW38299   1.984   2.146   7.985 -0.2494 -0.1655  0.2806
 8946SOL    HW138300   2.015   2.220   8.036  1.9844 -0.3564 -0.7804
 8946SOL    HW238301   1.990   2.077   8.051  0.0739  0.8109  1.2705
 8947SOL     OW38302   0.430   0.793   4.179  0.3189  0.4372  0.2004
 8947SOL    HW138303   0.352   0.779   4.125  0.7201 -1.3975  0.0916
 8947SOL    HW238304   0.417   0.733   4.252  0.2570 -1.4507 -1.3602
 8948SOL     OW38305   3.640   1.918   1.698 -0.1502  0.1468  0.2978
 8948SOL    HW138306   3.583   1.844   1.718 -2.3785  1.7769  0.0196
 8948SOL    HW238307   3.609   1.944   1.612  0.5640 -4.1814 -1.2305
 8949SOL     OW38308   2.960   3.398   5.688  0.3459  0.2014  0.2089
 8949SOL    HW138309   2.961   3.352   5.604 -4.5314 -0.5529  0.5745
 8949SOL    HW238310   3.033   3.458   5.676  0.3529 -0.9795 -5.6196
 8950SOL     OW38311   1.016   2.869  12.576 -0.3153 -0.2308 -0.4868
 8950SOL    HW138312   1.074   2.859  12.651 -0.4975  2.8446  0.0767
 8950SOL    HW238313   1.001   2.963  12.579  1.2730 -0.0219  0.7490
 8951SOL     OW38314   4.479   3.624   5.032  0.6521 -0.2446 -0.4176
 8951SOL    HW138315   4.467   3.619   4.937 -1.3039 -0.2263 -0.1658
 8951SOL    HW238316   4.394   3.663   5.050 -0.5217 -2.8297 -0.2826
 8952SOL     OW38317   3.705   0.678   0.846  0.1187  0.1860 -0.0734
 8952SOL    HW138318   3.620   0.635   0.846  0.6752 -0.8344  3.6328
 8952SOL    HW238319   3.700   0.716   0.758 -1.5031 -0.0796 -0.1009
 8953SOL     OW38320   2.480   0.902   2.771  0.0522  0.0501 -0.4934
 8953SOL    HW138321   2.558   0.889   2.824 -0.3069 -0.3496 -0.0587
 8953SOL    HW238322   2.419   0.864   2.835  0.2589  0.0670 -0.2879
 8954SOL     OW38323   2.567   3.078   7.589  0.2786 -0.2017  0.2453
 8954SOL    HW138324   2.655   3.043   7.608 -0.0153 -1.3025 -0.4343
 8954SOL    HW238325   2.547   3.085   7.683 -0.5034 -2.0881  0.2282
 8955SOL     OW38326   3.427   1.012   3.943 -0.5456 -0.2101  0.1326
 8955SOL    HW138327   3.451   0.999   4.035  1.4026  0.4569 -0.2769
 8955SOL    HW238328   3.333   1.019   3.957  0.1004  2.1738  3.2260
 8956SOL     OW38329   3.716   0.898   7.985 -0.5762 -0.1828 -0.0714
 8956SOL    HW138330   3.666   0.978   7.999  0.9791  0.6194  0.8962
 8956SOL    HW238331   3.647   0.834   7.971 -0.3890 -0.1462 -1.1202
 8957SOL     OW38332   2.137   4.411   3.341 -0.1772  0.0477 -0.4331
 8957SOL    HW138333   2.119   4.425   3.248 -0.9475  1.6139 -0.0577
 8957SOL    HW238334   2.100   4.494   3.371  2.5765  1.0111  0.2777
 8958SOL     OW38335   1.327   0.244  14.193  0.5468  0.0439 -0.0288
 8958SOL    HW138336   1.390   0.241  14.121  0.7929  4.2884  0.0522
 8958SOL    HW238337   1.347   0.329  14.232 -0.4298 -0.0331  0.6361
 8959SOL     OW38338   2.628   0.425   7.982 -0.3190 -0.3277  0.3644
 8959SOL    HW138339   2.672   0.363   7.925  2.5489  1.0569  1.0862
 8959SOL    HW238340   2.606   0.494   7.919  1.4570  1.5999  1.8503
 8960SOL     OW38341   4.253   2.562  13.786  0.5319  0.5656  0.2881
 8960SOL    HW138342   4.286   2.566  13.875 -2.5198  0.1600  1.4266
 8960SOL    HW238343   4.334   2.566  13.735 -0.6696  7.6773 -1.1186
 8961SOL     OW38344   1.153   0.680   1.034 -0.4366 -0.2270  0.1660
 8961SOL    HW138345   1.097   0.738   0.983  1.0798  0.6415 -0.5259
 8961SOL    HW238346   1.234   0.682   0.983 -0.4588 -0.7031  0.1110
 8962SOL     OW38347   2.320   3.703   9.501  0.1076 -0.6053  0.1072
 8962SOL    HW138348   2.366   3.644   9.561 -1.4949 -1.4616  0.5010
 8962SOL    HW238349   2.281   3.766   9.561 -1.0894  0.2453 -1.5862
 8963SOL     OW38350   4.256   3.500  12.588 -0.4668 -0.3140 -0.2886
 8963SOL    HW138351   4.261   3.573  12.649  0.8693 -0.5392 -0.1420
 8963SOL    HW238352   4.224   3.426  12.640 -1.5318  0.3003 -0.0592
 8964SOL     OW38353   0.865   1.313   3.915 -0.7732 -0.0198  0.0390
 8964SOL    HW138354   0.808   1.367   3.969 -0.9040 -2.5690  2.4217
 8964SOL    HW238355   0.951   1.349   3.934 -0.3405 -1.5270  0.8989
 8965SOL     OW38356   0.644   0.382   8.930 -0.4914 -0.1203  0.5761
 8965SOL    HW138357   0.566   0.360   8.981 -0.1039 -1.8444  0.4018
 8965SOL    HW238358   0.594   0.397   8.849 -0.8373 -0.3828  0.7422
 8966SOL     OW38359   3.090   3.815  12.662 -0.0301  0.4824 -0.0507
 8966SOL    HW138360   3.179   3.851  12.672  0.6729 -1.1504 -0.4426
 8966SOL    HW238361   3.046   3.899  12.674 -1.5942 -0.5647  1.4726
 8967SOL     OW38362   0.035   2.587   4.575 -0.4479 -0.6254  0.7628
 8967SOL    HW138363   0.016   2.558   4.664  2.4250 -0.5469  1.4132
 8967SOL    HW238364   4.674   2.613   4.532  0.0165  0.5660  0.6180
 8968SOL     OW38365   0.688   2.231   3.769 -0.2106 -0.1461 -0.2466
 8968SOL    HW138366   0.621   2.255   3.834 -0.0014  0.6026 -0.3013
 8968SOL    HW238367   0.715   2.320   3.744 -0.1533 -0.8545 -2.6703
 8969SOL     OW38368   2.539   3.829   3.346 -0.3919 -0.2068  0.0526
 8969SOL    HW138369   2.523   3.840   3.253  0.1328  1.0130  0.1030
 8969SOL    HW238370   2.611   3.890   3.364 -0.7392  0.2146  0.0146
 8970SOL     OW38371   0.399   3.203   6.721 -0.3550  0.3544  0.0369
 8970SOL    HW138372   0.372   3.282   6.674 -2.6062  0.2447  1.1165
 8970SOL    HW238373   0.433   3.161   6.642  1.0210  1.1235  0.2138
 8971SOL     OW38374   2.332   0.140  16.144 -0.1747  0.0899  0.2360
 8971SOL    HW138375   2.362   0.170  16.058 -2.3516  1.5357 -0.0107
 8971SOL    HW238376   2.306   0.221  16.187 -0.3899  0.1996 -0.1010
 8972SOL     OW38377   1.730   3.154   4.089  0.0460 -0.2513  0.0643
 8972SOL    HW138378   1.716   3.065   4.056 -0.4724 -0.0044 -0.3807
 8972SOL    HW238379   1.798   3.195   4.036 -0.0950  0.1780  0.2219
 8973SOL     OW38380   1.762   4.389   4.399  0.0619  0.0135 -0.7661
 8973SOL    HW138381   1.673   4.375   4.431 -0.0461 -0.3448 -1.2423
 8973SOL    HW238382   1.776   4.300   4.368  0.6825  0.1830 -0.9905
 8974SOL     OW38383   3.984   1.696   5.958 -0.2630  0.3002  0.1829
 8974SOL    HW138384   4.011   1.709   6.049 -0.4087 -0.5037  0.3401
 8974SOL    HW238385   3.962   1.604   5.945 -0.6129  0.5009 -0.6272
 8975SOL     OW38386   3.527   2.177   3.764 -0.5007 -0.0285 -0.2905
 8975SOL    HW138387   3.472   2.251   3.737 -2.7289 -1.4925  0.2085
 8975SOL    HW238388   3.598   2.225   3.807 -0.3971  0.5270 -1.0749
 8976SOL     OW38389   2.052   1.880   3.991 -0.2409 -0.2820  1.1044
 8976SOL    HW138390   2.128   1.927   3.957  0.3316 -2.5649 -0.7774
 8976SOL    HW238391   2.080   1.792   3.968  2.2246  0.1889  2.2681
 8977SOL     OW38392   2.804   2.858   5.311  0.1883  0.2496  0.3530
 8977SOL    HW138393   2.861   2.794   5.355 -1.7397 -0.2324  2.1580
 8977SOL    HW238394   2.794   2.813   5.227  0.9280 -0.8589  0.8563
 8978SOL     OW38395   1.010   1.477   2.032  0.7738  0.0447  0.2741
 8978SOL    HW138396   0.918   1.463   2.052  0.4440 -0.1405 -1.3398
 8978SOL    HW238397   1.005   1.496   1.938  1.0867  1.7766  0.5981
 8979SOL     OW38398   1.955   3.713  15.363  0.1598  0.3592 -0.5362
 8979SOL    HW138399   1.969   3.700  15.457  0.1867  0.5137 -0.5188
 8979SOL    HW238400   2.002   3.633  15.336 -0.2350 -0.6971  1.9267
 8980SOL     OW38401   3.907   0.448  16.528  0.3296 -0.2671 -0.7090
 8980SOL    HW138402   3.855   0.409  16.457 -1.8984 -1.1363  1.4047
 8980SOL    HW238403   3.981   0.387  16.523 -0.5472 -1.3787 -0.0930
 8981SOL     OW38404   2.537   3.478   0.090  0.4379  0.0200  0.5276
 8981SOL    HW138405   2.597   3.524   0.031 -0.9647  1.5304  0.2515
 8981SOL    HW238406   2.582   3.395   0.104  1.8504  1.0320  1.8741
 8982SOL     OW38407   1.001   0.543   5.257  0.2426  0.5724  0.6001
 8982SOL    HW138408   0.937   0.613   5.244  0.0855  0.0767 -1.2870
 8982SOL    HW238409   0.945   0.467   5.245 -0.6007  1.2557  0.2495
 8983SOL     OW38410   0.960   3.112  12.694 -0.5667 -0.2619 -0.2601
 8983SOL    HW138411   0.868   3.132  12.712 -0.2639 -1.2374  2.4323
 8983SOL    HW238412   0.995   3.130  12.781  1.2775 -4.4446 -0.1322
 8984SOL     OW38413   0.560   3.112   4.725  0.4406  0.3045  0.1039
 8984SOL    HW138414   0.473   3.095   4.688  0.5882  0.2518 -0.2266
 8984SOL    HW238415   0.568   3.071   4.811  0.3203 -2.1692 -1.0639
 8985SOL     OW38416   0.920   0.217   3.627  0.3400 -0.3658  1.0169
 8985SOL    HW138417   0.996   0.272   3.613  1.1404 -2.1008 -1.3921
 8985SOL    HW238418   0.934   0.153   3.558  1.7679  2.6881 -1.5057
 8986SOL     OW38419   4.701   0.837   5.718  0.7584 -0.0107 -0.4496
 8986SOL    HW138420   4.708   0.821   5.624  2.1484  2.8462 -0.8364
 8986SOL    HW238421   0.006   0.751   5.753  1.6916  1.2741  1.9835
 8987SOL     OW38422   1.565   1.404   4.301  0.3578 -0.3326  0.4468
 8987SOL    HW138423   1.627   1.476   4.312 -0.9242  1.1389 -1.9386
 8987SOL    HW238424   1.559   1.395   4.206  2.8741 -2.5736  0.5103
 8988SOL     OW38425   2.331   2.577   6.940 -0.4066  0.0413 -0.4595
 8988SOL    HW138426   2.345   2.500   6.996  0.1724 -0.2072 -0.9391
 8988SOL    HW238427   2.256   2.542   6.893 -1.1143  1.4062 -0.3180
 8989SOL     OW38428   4.363   1.469   5.234 -0.5540 -0.2087  0.0685
 8989SOL    HW138429   4.425   1.510   5.295  0.9183 -0.2730 -1.3954
 8989SOL    HW238430   4.283   1.506   5.271 -0.9212 -1.0420  0.1016
 8990SOL     OW38431   0.725   0.794  10.353 -0.1473 -0.3892 -0.2253
 8990SOL    HW138432   0.807   0.798  10.304 -1.2161  0.0842 -1.9976
 8990SOL    HW238433   0.691   0.883  10.339  0.0749 -0.8351 -3.6056
 8991SOL     OW38434   1.851   3.729   6.076 -0.2748  0.2241  0.1166
 8991SOL    HW138435   1.825   3.670   6.147  2.7135 -0.1073  0.9618
 8991SOL    HW238436   1.772   3.725   6.024  0.0305  1.6534 -0.4631
 8992SOL     OW38437   3.572   1.291   6.350 -0.4391  0.6070  0.5144
 8992SOL    HW138438   3.586   1.196   6.341 -0.9104  0.7028 -1.2391
 8992SOL    HW238439   3.543   1.300   6.441  0.7758  3.6505  0.5733
 8993SOL     OW38440   0.932   0.224  17.216 -0.2150  0.0388  0.2071
 8993SOL    HW138441   0.868   0.295  17.217  1.1961  1.3116 -0.4426
 8993SOL    HW238442   0.985   0.254  17.143  1.3715  2.5722  2.3859
 8994SOL     OW38443   2.514   2.383   2.570  0.3164 -0.3489  0.0993
 8994SOL    HW138444   2.528   2.478   2.579 -1.1669  0.1206 -2.5362
 8994SOL    HW238445   2.421   2.368   2.590 -0.2495  0.7852 -1.6241
 8995SOL     OW38446   1.789   4.149   4.261 -0.2242 -0.5748  0.6713
 8995SOL    HW138447   1.790   4.100   4.178 -1.5108  0.7320 -0.1026
 8995SOL    HW238448   1.751   4.083   4.319 -0.1210 -0.7189  0.5776
 8996SOL     OW38449   0.909   0.624  10.908 -0.1148 -0.3761  0.4789
 8996SOL    HW138450   0.931   0.608  10.816  1.4792 -0.2848  0.8391
 8996SOL    HW238451   0.826   0.576  10.914 -0.7934  0.6210 -0.8247
 8997SOL     OW38452   0.138   3.187  12.708  0.3796  0.1193 -0.0108
 8997SOL    HW138453   0.052   3.184  12.667  0.4991 -1.7864 -0.0997
 8997SOL    HW238454   0.152   3.282  12.711 -1.2439  0.3155  0.9601
 8998SOL     OW38455   2.602   4.595   3.619 -0.3726  0.5239 -0.2663
 8998SOL    HW138456   2.558   4.574   3.538  1.8290 -0.5448 -1.1865
 8998SOL    HW238457   2.527   4.593   3.679 -2.1620 -1.5028 -2.6097
 8999SOL     OW38458   0.036   3.956  15.889 -0.7007  0.4617  0.6565
 8999SOL    HW138459   0.005   3.961  15.799  1.8609 -1.4296 -0.3312
 8999SOL    HW238460   0.075   4.044  15.893  0.7673 -0.2343  1.7597
 9000SOL     OW38461   0.396   3.373   7.943 -0.6318 -0.6598  0.0315
 9000SOL    HW138462   0.379   3.417   8.026  1.6396 -0.1519  0.2195
 9000SOL    HW238463   0.389   3.445   7.880  1.2759  1.4544  2.2276
 9001SOL     OW38464   4.267   2.261   2.772  0.1185  0.1312 -0.3295
 9001SOL    HW138465   4.239   2.215   2.693 -0.1013 -0.4973  0.1152
 9001SOL    HW238466   4.198   2.327   2.773 -0.0176 -0.0054 -0.6210
 9002SOL     OW38467   4.334   0.244  17.010  0.1990  0.4339  0.4168
 9002SOL    HW138468   4.339   0.175  16.944 -1.5410  0.1825  0.5556
 9002SOL    HW238469   4.419   0.289  17.005  2.2458 -3.4372  0.4009
 9003SOL     OW38470   0.204   1.231   9.769  0.1278  0.0121 -0.4255
 9003SOL    HW138471   0.262   1.168   9.811  1.1513  1.4385  0.2835
 9003SOL    HW238472   0.117   1.207   9.802  0.8888 -0.4646  1.1854
 9004SOL     OW38473   1.664   2.463  13.832  0.1491  0.3518  0.2446
 9004SOL    HW138474   1.708   2.493  13.911 -0.3082 -0.0290  0.6418
 9004SOL    HW238475   1.728   2.494  13.768  0.6439 -0.7389  0.2172
 9005SOL     OW38476   3.277   3.308   8.664 -0.2233  0.4110  0.1362
 9005SOL    HW138477   3.209   3.368   8.635  2.2503  1.8687 -2.6203
 9005SOL    HW238478   3.272   3.335   8.756  1.5973 -0.3460  0.4641
 9006SOL     OW38479   2.940   3.322  15.761  0.0771 -0.7886 -0.9587
 9006SOL    HW138480   2.951   3.345  15.854 -0.6616  1.4196 -1.4128
 9006SOL    HW238481   2.866   3.381  15.745 -0.7636 -2.1440 -2.0109
 9007SOL     OW38482   0.242   1.303   4.310  0.2712 -0.3511  0.3292
 9007SOL    HW138483   0.253   1.237   4.241  1.0436  1.9899 -1.7685
 9007SOL    HW238484   0.270   1.253   4.387 -1.9550 -1.3173  0.5012
 9008SOL     OW38485   1.305   2.899   9.445 -0.4051  0.3729  0.3375
 9008SOL    HW138486   1.371   2.856   9.391 -1.5745 -1.1949  0.1521
 9008SOL    HW238487   1.250   2.822   9.461 -0.7695  0.6398  0.3638
 9009SOL     OW38488   4.423   1.751  17.067 -0.0346 -0.7375  0.4047
 9009SOL    HW138489   4.427   1.847  17.068  0.8185 -0.7904  1.6761
 9009SOL    HW238490   4.401   1.736  16.976  0.1211  1.7547 -0.0395
 9010SOL     OW38491   1.764   2.389  16.567  0.0625  0.0812 -0.0720
 9010SOL    HW138492   1.764   2.412  16.660  1.4105  0.4226 -0.1639
 9010SOL    HW238493   1.671   2.410  16.553 -0.4610 -2.7728 -0.9396
 9011SOL     OW38494   3.927   4.304  10.332 -0.4883  0.0938  0.2379
 9011SOL    HW138495   4.005   4.303  10.278 -0.3160  0.9539  0.4755
 9011SOL    HW238496   3.897   4.213  10.323  1.5616 -0.4208 -1.1963
 9012SOL     OW38497   3.687   4.102   4.387  0.1010  0.6830  0.1943
 9012SOL    HW138498   3.623   4.046   4.430  0.9932 -0.0646  0.5522
 9012SOL    HW238499   3.693   4.178   4.445 -2.4680 -1.0405  2.7271
 9013SOL     OW38500   3.966   0.416   4.781 -0.1622 -0.4394  0.6273
 9013SOL    HW138501   4.042   0.377   4.739 -1.1129 -0.0913 -1.4695
 9013SOL    HW238502   3.932   0.341   4.830  1.0976  0.0943  2.2797
 9014SOL     OW38503   1.671   0.637   7.954 -0.1317  0.3728 -0.0955
 9014SOL    HW138504   1.649   0.624   7.862  0.7420 -1.7307  0.0023
 9014SOL    HW238505   1.608   0.585   8.004 -0.5307  0.9033 -0.0523
 9015SOL     OW38506   4.645   2.718   5.451  0.3173  0.1761 -0.1396
 9015SOL    HW138507   4.705   2.791   5.435 -1.5748  1.6470 -0.4019
 9015SOL    HW238508   4.702   2.668   5.511 -0.1784  1.0559  1.0569
 9016SOL     OW38509   2.572   0.324   4.851 -0.2819  0.5457 -0.7190
 9016SOL    HW138510   2.495   0.344   4.904  0.0320 -2.5634  0.8789
 9016SOL    HW238511   2.630   0.378   4.905 -0.8113  1.4529 -1.0553
 9017SOL     OW38512   0.073   2.869   1.957  0.1044 -0.0264  0.0314
 9017SOL    HW138513   4.712   2.850   2.003  0.6724  0.0948  1.0965
 9017SOL    HW238514   0.115   2.937   2.009  1.4101 -1.1375  0.4511
 9018SOL     OW38515   1.336   1.120  17.648 -0.0625 -0.0948 -0.4201
 9018SOL    HW138516   1.319   1.192   0.024 -1.4752  0.5019 -1.5107
 9018SOL    HW238517   1.293   1.158  17.571  0.9143  0.3238 -0.7518
 9019SOL     OW38518   3.024   3.097   8.958  0.2992 -0.3541  0.2306
 9019SOL    HW138519   3.102   3.120   9.009 -0.5683  1.1980  0.8545
 9019SOL    HW238520   3.063   3.045   8.887 -0.1520 -1.2622  0.6489
 9020SOL     OW38521   2.743   2.026   6.203 -0.2634 -0.2368  0.3772
 9020SOL    HW138522   2.785   1.982   6.129  0.0758 -1.4623  1.3173
 9020SOL    HW238523   2.678   2.088   6.168  0.4130  0.4085  0.2713
 9021SOL     OW38524   0.766   2.656   5.195 -0.5098 -0.2257 -0.1371
 9021SOL    HW138525   0.716   2.692   5.121 -1.1640 -1.3227 -0.2251
 9021SOL    HW238526   0.769   2.567   5.159  2.0119  0.1844 -0.9177
 9022SOL     OW38527   2.680   2.252   6.952 -0.3807 -0.5294  0.1643
 9022SOL    HW138528   2.730   2.203   7.017 -1.5475 -1.0513  0.6803
 9022SOL    HW238529   2.599   2.265   7.003  0.2100  0.4882  0.8333
 9023SOL     OW38530   1.937   0.658   7.907 -0.3239 -0.0056 -0.1103
 9023SOL    HW138531   1.950   0.726   7.973  0.1774  0.2285 -0.4473
 9023SOL    HW238532   1.845   0.635   7.916 -0.9662  2.4118 -0.3061
 9024SOL     OW38533   2.090   2.698   9.606  0.7194 -0.0362  0.2207
 9024SOL    HW138534   2.175   2.723   9.641  1.5455 -1.7634 -0.5474
 9024SOL    HW238535   2.109   2.703   9.513 -3.8336 -1.6054 -0.8058
 9025SOL     OW38536   2.312   1.101  12.943 -0.2012  0.9872  0.0907
 9025SOL    HW138537   2.269   1.170  12.994 -2.0387 -0.5018  0.5518
 9025SOL    HW238538   2.400   1.136  12.926 -0.6471  1.4887 -1.1455
 9026SOL     OW38539   1.872   2.650   7.483 -0.2128  0.6266 -0.4408
 9026SOL    HW138540   1.882   2.677   7.574  0.8598 -0.3257 -0.2746
 9026SOL    HW238541   1.846   2.559   7.498 -1.0499  0.8715 -0.4237
 9027SOL     OW38542   3.116   4.293   3.454 -0.5202  0.5428 -0.1698
 9027SOL    HW138543   3.036   4.341   3.434 -0.7770 -1.0987 -3.0697
 9027SOL    HW238544   3.146   4.283   3.363  1.3160  1.5523  0.3169
 9028SOL     OW38545   4.667   3.654   4.381 -0.3415 -0.3643 -0.2483
 9028SOL    HW138546   4.674   3.565   4.416 -0.7651  0.0315  0.8444
 9028SOL    HW238547   4.642   3.711   4.453 -4.7935 -1.1802 -1.1974
 9029SOL     OW38548   2.473   0.646  15.252  0.0004 -0.6645  0.2965
 9029SOL    HW138549   2.528   0.587  15.199  1.0589 -1.1074  1.8897
 9029SOL    HW238550   2.538   0.715  15.263 -1.0987  0.4428 -0.1685
 9030SOL     OW38551   3.853   2.295   9.832 -0.0950  0.1860 -0.0924
 9030SOL    HW138552   3.868   2.265   9.922  1.0944 -1.4011 -0.8307
 9030SOL    HW238553   3.766   2.262   9.809 -0.2609  0.2847  0.3963
 9031SOL     OW38554   1.658   0.708   2.003 -0.2788 -0.6648  0.1053
 9031SOL    HW138555   1.581   0.651   2.001 -0.6748 -0.1305  0.2507
 9031SOL    HW238556   1.696   0.679   2.086  0.2631 -0.1570  0.0333
 9032SOL     OW38557   2.358   4.585   3.746  0.4745 -0.2669 -0.5924
 9032SOL    HW138558   2.275   4.610   3.705  0.1101 -1.5876 -0.6480
 9032SOL    HW238559   2.353   4.627   3.832  1.1283 -0.4077 -0.4865
 9033SOL     OW38560   1.068   4.444   7.009 -0.3369 -0.4109 -0.1520
 9033SOL    HW138561   1.091   4.435   6.916  2.9458  2.3730  0.3872
 9033SOL    HW238562   1.035   4.359   7.038  0.6253 -1.1694 -1.2600
 9034SOL     OW38563   1.432   1.086   3.960  0.4558 -0.2714  0.6481
 9034SOL    HW138564   1.350   1.116   3.999 -0.4470 -0.5240 -1.0433
 9034SOL    HW238565   1.401   1.015   3.903 -0.5035  2.3336 -2.0843
 9035SOL     OW38566   0.164   3.175   4.102  0.1467 -0.6813 -0.4447
 9035SOL    HW138567   0.240   3.199   4.155  0.5616 -1.3107 -0.7596
 9035SOL    HW238568   0.156   3.247   4.039 -0.6090  0.6000  1.1336
 9036SOL     OW38569   2.023   0.412   8.581  0.5477  0.0319  0.3544
 9036SOL    HW138570   2.117   0.410   8.560  0.5681  0.2460  0.4290
 9036SOL    HW238571   1.980   0.340   8.535 -2.0929  1.9609 -0.1550
 9037SOL     OW38572   1.016   3.788   3.483 -0.5789  0.4212  0.0209
 9037SOL    HW138573   1.026   3.757   3.393 -0.6472 -1.9967  0.8524
 9037SOL    HW238574   1.046   3.716   3.538  1.1546  1.3824  0.3422
 9038SOL     OW38575   0.092   0.838   2.320  0.7380 -0.1345  0.0109
 9038SOL    HW138576   0.029   0.787   2.371  1.2779 -0.5024  0.3214
 9038SOL    HW238577   0.176   0.794   2.332  0.2945 -1.7083 -2.5569
 9039SOL     OW38578   2.362   0.957  11.993 -0.1674  0.1453 -0.6451
 9039SOL    HW138579   2.451   0.976  12.024 -1.4059  0.9603  2.3614
 9039SOL    HW238580   2.309   1.027  12.028 -1.0229 -0.6771 -0.3019
 9040SOL     OW38581   2.428   3.595  16.015  0.3869 -0.0195 -0.1387
 9040SOL    HW138582   2.386   3.623  15.934 -1.4733  1.1876  1.2433
 9040SOL    HW238583   2.466   3.515  15.980 -0.4173 -0.2647 -0.4438
 9041SOL     OW38584   0.313   3.408  14.974  0.5925 -0.7601  0.0851
 9041SOL    HW138585   0.316   3.500  15.000 -0.9962 -0.0411 -2.3161
 9041SOL    HW238586   0.370   3.411  14.897 -1.5937  3.7564 -1.3254
 9042SOL     OW38587   4.644   0.796   0.318 -0.1700  0.1260 -0.7975
 9042SOL    HW138588   4.559   0.758   0.338 -0.6811  2.0903  0.8252
 9042SOL    HW238589   4.697   0.766   0.392  1.5207  1.2405 -1.5558
 9043SOL     OW38590   4.510   4.024  12.362  0.0675 -0.4525 -0.0799
 9043SOL    HW138591   4.480   4.062  12.279  0.9370 -3.6975 -1.8621
 9043SOL    HW238592   4.594   4.070  12.367  0.1419 -0.4983 -0.9394
 9044SOL     OW38593   3.028   3.119   9.254 -0.4776 -0.6713  0.8274
 9044SOL    HW138594   3.064   3.031   9.242  0.0418 -0.4799  0.9763
 9044SOL    HW238595   3.043   3.126   9.348  0.9212  1.3924  0.4733
 9045SOL     OW38596   4.287   3.898   4.878 -0.4195 -0.4644  0.0511
 9045SOL    HW138597   4.221   3.956   4.917  1.5588  1.6044  0.2667
 9045SOL    HW238598   4.317   3.949   4.803  0.3956 -0.2877  0.5035
 9046SOL     OW38599   1.106   3.530   4.647 -0.2433 -0.0768 -0.3021
 9046SOL    HW138600   1.165   3.517   4.572  1.5302 -0.8630  1.2425
 9046SOL    HW238601   1.167   3.534   4.720  0.0204  0.5999 -0.5567
 9047SOL     OW38602   3.324   0.546   0.382 -0.1298  0.4239  0.7878
 9047SOL    HW138603   3.246   0.539   0.437 -1.9039 -0.0380 -1.7928
 9047SOL    HW238604   3.378   0.592   0.446  0.7627  1.6273 -0.8371
 9048SOL     OW38605   3.846   2.184   9.104 -0.2988  0.0887  0.3584
 9048SOL    HW138606   3.930   2.162   9.063 -0.1235  3.8670 -1.3099
 9048SOL    HW238607   3.850   2.160   9.197  0.2968 -0.3706  0.2177
 9049SOL     OW38608   0.157   4.267   5.649  0.1272 -0.2556 -0.3876
 9049SOL    HW138609   0.171   4.200   5.582 -3.3601 -1.1268 -0.2204
 9049SOL    HW238610   0.090   4.220   5.698 -0.0892  1.1791  0.6868
 9050SOL     OW38611   1.939   2.894  14.190 -0.2162  0.1446 -0.3536
 9050SOL    HW138612   1.968   2.889  14.281 -0.5137 -2.1157 -0.3816
 9050SOL    HW238613   1.989   2.823  14.149  0.4566  1.8404 -2.4743
 9051SOL     OW38614   2.519   3.796   7.915 -0.2272 -0.1341  0.1225
 9051SOL    HW138615   2.593   3.856   7.918 -1.3947  1.3018  0.1105
 9051SOL    HW238616   2.489   3.799   8.006  2.0370  0.8598  0.8240
 9052SOL     OW38617   2.800   3.107  12.497 -0.1568 -0.3946  0.4738
 9052SOL    HW138618   2.832   3.017  12.491 -0.3717 -0.4052 -0.5407
 9052SOL    HW238619   2.734   3.103  12.427 -2.1213 -0.1275  2.3148
 9053SOL     OW38620   3.572   2.677   5.751  0.0491  0.0973 -0.2199
 9053SOL    HW138621   3.552   2.698   5.843 -0.5117 -3.3609  0.4238
 9053SOL    HW238622   3.656   2.716   5.727  1.1882 -1.0557  1.8847
 9054SOL     OW38623   1.693   3.621   3.450  0.1668 -0.3411 -0.6491
 9054SOL    HW138624   1.667   3.549   3.508  0.4382  0.0089 -0.0918
 9054SOL    HW238625   1.676   3.698   3.504  0.1734  0.6841 -2.1105
 9055SOL     OW38626   1.085   3.025   4.504  0.1481 -0.3118 -0.4222
 9055SOL    HW138627   1.023   2.956   4.480  0.5200 -1.2464  1.3005
 9055SOL    HW238628   1.047   3.109   4.477 -1.2364 -0.4056  1.2663
 9056SOL     OW38629   0.487   2.333   3.964  0.3313  0.2591 -0.7972
 9056SOL    HW138630   0.550   2.308   4.032  1.3396 -1.0058 -2.1960
 9056SOL    HW238631   0.405   2.341   4.013  0.7643 -0.7728  0.1027
 9057SOL     OW38632   0.163   3.753  16.019 -0.0161 -0.0527  0.1289
 9057SOL    HW138633   0.111   3.819  15.973  0.6740  1.5442  1.6341
 9057SOL    HW238634   0.241   3.808  16.030  0.0256  0.8419 -4.7200
 9058SOL     OW38635   1.204   0.913  15.724  1.0456 -0.4851  0.6428
 9058SOL    HW138636   1.214   0.992  15.777 -1.0609  0.0688  0.1786
 9058SOL    HW238637   1.228   0.844  15.787 -0.3466 -1.5473  0.0053
 9059SOL     OW38638   3.743   4.710  14.909 -0.1578 -0.0466  1.0389
 9059SOL    HW138639   3.714   4.688  14.821  2.4314  1.2164 -0.1125
 9059SOL    HW238640   3.688   0.066  14.925  1.4948  1.6908 -1.6422
 9060SOL     OW38641   3.644   4.464  16.069 -0.2343  0.1314 -0.4686
 9060SOL    HW138642   3.718   4.491  16.014  0.6061 -0.7732  0.2373
 9060SOL    HW238643   3.580   4.481  16.000 -0.3342  1.0111 -0.1652
 9061SOL     OW38644   4.407   4.471   7.212  0.0184  0.0427 -0.2665
 9061SOL    HW138645   4.417   4.444   7.303  1.1832  2.4427  0.3041
 9061SOL    HW238646   4.349   4.543   7.235  0.1510  0.0180  0.1496
 9062SOL     OW38647   0.891   2.260   7.721 -0.2252 -0.0973  0.2393
 9062SOL    HW138648   0.926   2.347   7.739 -0.0798 -0.0774 -0.1479
 9062SOL    HW238649   0.924   2.208   7.794  0.9266 -0.4349 -0.5272
 9063SOL     OW38650   2.203   3.866   9.864  0.2715 -0.6172 -0.0886
 9063SOL    HW138651   2.235   3.776   9.863  1.3878 -0.2179 -0.3655
 9063SOL    HW238652   2.281   3.911   9.897 -0.8103  1.4865 -0.4530
 9064SOL     OW38653   0.129   2.903   7.749 -0.0040 -0.2701 -0.0443
 9064SOL    HW138654   0.134   2.812   7.780  0.7147 -0.2054  0.0528
 9064SOL    HW238655   0.210   2.900   7.698  0.9925  1.1934  1.4684
 9065SOL     OW38656   1.666   2.472   5.168 -0.0370 -0.0308  0.1832
 9065SOL    HW138657   1.605   2.532   5.211  0.6889  0.4538  0.5390
 9065SOL    HW238658   1.740   2.508   5.216  0.5037  0.4254 -0.9989
 9066SOL     OW38659   3.891   2.622   3.658 -0.4066 -0.1045 -0.7308
 9066SOL    HW138660   3.874   2.529   3.675  1.2960 -0.1677  0.6238
 9066SOL    HW238661   3.874   2.633   3.564 -3.3816 -1.2507 -0.3224
 9067SOL     OW38662   2.333   0.007   9.128  0.0003 -0.1296 -0.1753
 9067SOL    HW138663   2.386   0.086   9.138 -0.3998 -0.0464  1.4012
 9067SOL    HW238664   2.391   4.663   9.168 -0.2874  0.8819  1.9284
 9068SOL     OW38665   1.202   4.364  15.467  0.6542  0.1108  0.1031
 9068SOL    HW138666   1.214   4.291  15.407  0.6015 -0.7812  1.1807
 9068SOL    HW238667   1.207   4.440  15.409  0.7293  0.3902  0.4673
 9069SOL     OW38668   1.607   2.995  10.924 -0.3627 -0.3249 -0.1617
 9069SOL    HW138669   1.573   2.951  11.002  0.1365 -0.4626 -0.0220
 9069SOL    HW238670   1.564   3.077  10.948 -1.8965 -1.2346  0.2046
 9070SOL     OW38671   3.989   2.079   6.615  0.6188  0.1465  0.2917
 9070SOL    HW138672   3.913   2.055   6.668  0.3503  1.6458  0.5750
 9070SOL    HW238673   4.027   1.991   6.607  0.7446  0.2791 -0.5668
 9071SOL     OW38674   1.700   2.325   4.551  0.0808 -0.1211 -0.3542
 9071SOL    HW138675   1.721   2.287   4.465 -0.8271 -4.3517  1.2718
 9071SOL    HW238676   1.699   2.416   4.521 -2.5400  0.2129  0.7462
 9072SOL     OW38677   4.336   3.732   0.185 -0.0269  0.1356 -0.2892
 9072SOL    HW138678   4.280   3.756   0.259  1.1574  0.7576  0.4024
 9072SOL    HW238679   4.379   3.653   0.217 -0.6602 -0.1944 -0.2689
 9073SOL     OW38680   2.572   1.577   3.187 -0.3158 -0.0697  0.2520
 9073SOL    HW138681   2.553   1.608   3.276  1.6996  1.9123 -0.0081
 9073SOL    HW238682   2.488   1.587   3.142  0.3884  1.9368 -0.5836
 9074SOL     OW38683   3.134   2.827  13.463 -0.0428 -0.0941 -0.1873
 9074SOL    HW138684   3.173   2.740  13.454 -2.3788 -1.2231  0.7254
 9074SOL    HW238685   3.149   2.860  13.374 -1.4722 -2.0298 -1.1571
 9075SOL     OW38686   1.874   1.481   8.521 -0.0779 -0.3538  0.3011
 9075SOL    HW138687   1.778   1.485   8.522 -0.0696 -0.0664 -0.8186
 9075SOL    HW238688   1.893   1.424   8.596 -1.5491 -3.0795 -1.3938
 9076SOL     OW38689   1.993   4.249   0.191  0.0562  0.3114 -0.0099
 9076SOL    HW138690   2.056   4.266   0.261 -0.7984 -2.2721  1.3777
 9076SOL    HW238691   1.985   4.342   0.168  1.4609  0.8016  1.4901
 9077SOL     OW38692   0.666   2.012   6.630 -0.2047  0.4262  0.5740
 9077SOL    HW138693   0.618   2.095   6.625 -2.4191 -0.8143  1.2036
 9077SOL    HW238694   0.644   1.980   6.717  0.0910  2.2230  1.2927
 9078SOL     OW38695   1.247   2.310  17.641  0.0963 -0.7277 -0.5109
 9078SOL    HW138696   1.195   2.250   0.010 -0.0563 -0.7039 -0.6276
 9078SOL    HW238697   1.331   2.266  17.635  0.5670  0.3009 -1.4062
 9079SOL     OW38698   2.409   1.767  10.159 -0.4628 -0.4225 -0.3164
 9079SOL    HW138699   2.343   1.718  10.208  0.0655  1.5651  2.3195
 9079SOL    HW238700   2.458   1.812  10.227 -2.5919 -1.8701  2.1647
 9080SOL     OW38701   2.965   4.402   1.429 -0.7663 -0.0676 -0.2458
 9080SOL    HW138702   2.906   4.391   1.354  0.3760  0.8902 -1.2776
 9080SOL    HW238703   3.047   4.437   1.396 -1.1862  2.1826  1.1456
 9081SOL     OW38704   3.279   3.380   3.509 -0.5618  0.0793  0.1905
 9081SOL    HW138705   3.272   3.472   3.484 -1.2753  0.1666  0.7205
 9081SOL    HW238706   3.371   3.367   3.485 -1.6878 -3.6354 -2.2451
 9082SOL     OW38707   1.677   0.854   5.235  0.2716 -0.2394  0.0628
 9082SOL    HW138708   1.699   0.761   5.227 -0.1792 -0.3000 -0.4686
 9082SOL    HW238709   1.669   0.869   5.141  1.0761 -1.1622 -0.1556
 9083SOL     OW38710   2.797   2.938  15.031  0.0159  0.0221  0.1208
 9083SOL    HW138711   2.747   3.014  15.059 -1.8785 -1.7593  1.5610
 9083SOL    HW238712   2.884   2.977  15.020 -0.7363  2.4342  2.8968
 9084SOL     OW38713   0.023   4.290   1.220  0.4536 -0.5376  0.5705
 9084SOL    HW138714   0.055   4.205   1.249  0.2902 -1.6349 -2.3914
 9084SOL    HW238715   4.677   4.269   1.154  1.5612  0.8758 -1.0095
 9085SOL     OW38716   1.936   3.918   2.158  0.0698 -0.4529 -0.1279
 9085SOL    HW138717   1.927   3.974   2.081  4.0628 -1.4394 -1.2966
 9085SOL    HW238718   2.030   3.903   2.151  0.4248  1.3431  0.8699
 9086SOL     OW38719   3.299   1.106   7.711 -0.0507 -0.3085  0.5955
 9086SOL    HW138720   3.359   1.033   7.726  1.8237  1.0141 -0.4925
 9086SOL    HW238721   3.306   1.109   7.616  0.3825  2.2716  0.7033
 9087SOL     OW38722   0.633   2.400   5.859 -0.1571  0.7359 -0.5584
 9087SOL    HW138723   0.590   2.349   5.790  2.4167 -1.5008 -0.5022
 9087SOL    HW238724   0.557   2.456   5.873  0.3797  1.0945  0.9484
 9088SOL     OW38725   3.373   2.888   1.998  0.2553 -0.0518  0.4645
 9088SOL    HW138726   3.427   2.910   1.922 -0.8741  0.6975 -0.1158
 9088SOL    HW238727   3.300   2.836   1.966 -0.1314  0.8298 -0.0970
 9089SOL     OW38728   0.058   4.578  10.797  0.2077  0.7335  0.4381
 9089SOL    HW138729   0.135   4.581  10.852  1.4238 -1.1649 -1.1232
 9089SOL    HW238730   4.706   4.569  10.859 -0.7704 -0.9289 -0.9324
 9090SOL     OW38731   2.006   1.755   5.157 -0.3153 -0.4370 -0.2759
 9090SOL    HW138732   1.999   1.840   5.115 -0.3806  0.1069  0.8366
 9090SOL    HW238733   2.085   1.755   5.210 -0.5801  0.6949  0.1099
 9091SOL     OW38734   1.365   2.506   9.638 -0.4096  0.2588 -0.3904
 9091SOL    HW138735   1.421   2.583   9.628  0.9151 -0.4416  1.7170
 9091SOL    HW238736   1.294   2.524   9.576 -0.7654  2.2185  0.5689
 9092SOL     OW38737   2.151   4.324  13.781 -0.2064 -0.1679  0.0768
 9092SOL    HW138738   2.232   4.304  13.827 -0.0792 -1.7336 -0.8116
 9092SOL    HW238739   2.122   4.235  13.761  0.2786 -0.6959  1.7404
 9093SOL     OW38740   3.136   3.373   6.118  0.5809 -0.7200  0.3066
 9093SOL    HW138741   3.199   3.445   6.114  0.6886 -0.8360 -0.0544
 9093SOL    HW238742   3.149   3.320   6.039 -1.4733  1.7737 -1.7222
 9094SOL     OW38743   4.232   1.859   7.355  0.7925 -0.4429  0.3497
 9094SOL    HW138744   4.155   1.855   7.297  1.3188 -1.9764 -0.2450
 9094SOL    HW238745   4.248   1.765   7.368  1.3988  0.2724  4.7507
 9095SOL     OW38746   2.276   2.069   6.067 -0.7079  0.2532 -0.2365
 9095SOL    HW138747   2.291   2.012   6.143 -1.1435  0.4543  0.0022
 9095SOL    HW238748   2.354   2.072   6.012  0.9595  1.3923  2.1600
 9096SOL     OW38749   3.158   2.374   2.444 -0.3370 -0.3453 -0.5252
 9096SOL    HW138750   3.253   2.390   2.443 -0.4209  0.1933  0.1910
 9096SOL    HW238751   3.128   2.423   2.368  0.6330  1.8443  0.4910
 9097SOL     OW38752   4.606   3.191   2.516 -0.0922  0.0087 -0.1735
 9097SOL    HW138753   4.648   3.277   2.518  0.5733 -0.2866 -1.1583
 9097SOL    HW238754   4.537   3.206   2.580  0.7026 -0.4580  0.7923
 9098SOL     OW38755   3.806   3.188   7.558  0.5709  0.5981 -0.4333
 9098SOL    HW138756   3.763   3.202   7.643  0.9971 -1.9641  0.2111
 9098SOL    HW238757   3.873   3.128   7.591 -1.9961 -2.8602 -1.6018
 9099SOL     OW38758   4.215   3.840  16.289 -0.3385  0.0761  0.4035
 9099SOL    HW138759   4.291   3.836  16.348  0.4340  0.0862 -0.5931
 9099SOL    HW238760   4.251   3.817  16.204  3.2010  1.0098  1.6499
 9100SOL     OW38761   3.635   1.871   8.724 -0.5053 -0.0471  0.5399
 9100SOL    HW138762   3.562   1.813   8.749  0.7984 -1.6641  0.5817
 9100SOL    HW238763   3.699   1.800   8.721 -0.3103  0.1811 -0.7692
 9101SOL     OW38764   0.826   4.617   4.736 -0.3687 -0.2149  0.5044
 9101SOL    HW138765   0.833   4.599   4.642 -0.8401  1.0522  0.2291
 9101SOL    HW238766   0.758   4.684   4.744  1.4218  1.6830 -0.1788
 9102SOL     OW38767   1.610   4.202   6.114  0.6175 -0.9379  0.6986
 9102SOL    HW138768   1.586   4.293   6.131 -0.8366 -1.2700  0.3891
 9102SOL    HW238769   1.636   4.173   6.202  0.0084  1.4072  1.6695
 9103SOL     OW38770   0.737   4.309  15.726  0.1081 -0.0750 -0.4609
 9103SOL    HW138771   0.740   4.381  15.789 -1.9521 -0.5650  0.1976
 9103SOL    HW238772   0.772   4.346  15.644 -2.5722  1.9932 -0.6763
 9104SOL     OW38773   1.282   0.805   7.840  0.1082  0.1853  0.6306
 9104SOL    HW138774   1.193   0.804   7.807  0.3964  2.1087 -0.1700
 9104SOL    HW238775   1.317   0.884   7.799 -0.9497  0.9860  1.2759
 9105SOL     OW38776   1.103   3.095  17.565  0.2370 -0.1678 -0.5093
 9105SOL    HW138777   1.082   3.143  17.485 -1.4729 -1.3179 -0.7594
 9105SOL    HW238778   1.138   3.160  17.626 -1.0563  0.3048 -0.2872
 9106SOL     OW38779   3.268   3.866   8.092  0.2917  0.1866  0.0754
 9106SOL    HW138780   3.332   3.935   8.109 -0.0848 -0.0027  2.2869
 9106SOL    HW238781   3.271   3.818   8.175  0.7553  2.0247  1.1072
 9107SOL     OW38782   3.783   0.686   6.731 -0.3476 -0.0576  0.1486
 9107SOL    HW138783   3.710   0.631   6.702 -1.8878  2.0646 -0.0463
 9107SOL    HW238784   3.742   0.754   6.786  0.1115 -0.7965  1.3855
 9108SOL     OW38785   2.610   4.465   7.009 -0.4953  0.1898  0.6276
 9108SOL    HW138786   2.616   4.538   7.071  3.0715 -0.1968  0.7404
 9108SOL    HW238787   2.672   4.492   6.941 -1.7826  0.8092 -0.3050
 9109SOL     OW38788   3.132   2.506   7.656 -0.0320  0.3567  0.0362
 9109SOL    HW138789   3.201   2.446   7.683 -1.0279  0.1634  2.1137
 9109SOL    HW238790   3.091   2.518   7.742  0.9354 -2.4854  0.8955
 9110SOL     OW38791   2.214   1.432   9.893  0.1569  0.0866  0.0869
 9110SOL    HW138792   2.181   1.521   9.891  2.1667  0.8542  1.1456
 9110SOL    HW238793   2.300   1.447   9.933 -0.1557 -2.3736  1.7278
 9111SOL     OW38794   1.535   2.176   6.798  0.6824 -0.2800  0.4792
 9111SOL    HW138795   1.514   2.259   6.756 -1.5510 -1.0388  0.0838
 9111SOL    HW238796   1.549   2.123   6.720  1.2463  1.2598 -0.4647
 9112SOL     OW38797   4.306   1.205  17.655  0.1745  0.0747  0.1287
 9112SOL    HW138798   4.345   1.263   0.035  1.2829 -1.4583  0.8448
 9112SOL    HW238799   4.358   1.240  17.583 -2.0651  0.7875 -1.1337
 9113SOL     OW38800   0.913   4.612   3.423  0.1214 -0.1168  0.0351
 9113SOL    HW138801   0.873   4.526   3.432  2.1193 -1.1600 -1.0296
 9113SOL    HW238802   0.887   4.630   3.333 -0.0794  0.2239  0.1632
 9114SOL     OW38803   4.000   3.329   8.376 -0.2593 -0.1864  0.0258
 9114SOL    HW138804   3.986   3.372   8.292  0.0955 -1.9441 -0.9472
 9114SOL    HW238805   3.919   3.280   8.387  0.3364 -1.0275  0.6666
 9115SOL     OW38806   1.729   4.394   5.143  0.0733  0.2768 -0.2896
 9115SOL    HW138807   1.708   4.465   5.083 -1.2579 -0.1547 -0.3353
 9115SOL    HW238808   1.808   4.426   5.186 -0.2201 -1.5715  1.6273
 9116SOL     OW38809   1.361   0.665   6.053  0.5196  0.0081  0.1666
 9116SOL    HW138810   1.307   0.698   5.981 -1.1508 -1.5531  0.7040
 9116SOL    HW238811   1.377   0.576   6.023 -2.3170 -0.6098  0.4407
 9117SOL     OW38812   4.157   3.327   6.822  0.3316 -0.3959 -0.0146
 9117SOL    HW138813   4.160   3.365   6.910 -1.3446 -0.8470  0.2351
 9117SOL    HW238814   4.063   3.332   6.808 -0.0989 -0.9602  2.6538
 9118SOL     OW38815   3.586   4.715   5.083  0.3318 -0.1401  0.2888
 9118SOL    HW138816   3.555   0.046   5.157 -1.8470  1.6213 -1.8349
 9118SOL    HW238817   3.573   4.629   5.122 -1.9339  0.8662  1.7263
 9119SOL     OW38818   3.006   3.858  14.747 -0.3928 -0.2711 -0.5043
 9119SOL    HW138819   2.967   3.785  14.795 -1.0349  0.4790  0.1267
 9119SOL    HW238820   2.952   3.854  14.668 -3.8972 -1.6100  1.9503
 9120SOL     OW38821   1.559   4.660   4.557  1.1759 -0.2233 -0.1375
 9120SOL    HW138822   1.609   4.594   4.605 -1.9218 -0.3786  2.9044
 9120SOL    HW238823   1.507   4.621   4.487  0.1584  0.1082  0.4182
 9121SOL     OW38824   3.331   2.704   6.003 -0.0678 -0.2782 -0.3525
 9121SOL    HW138825   3.288   2.619   5.994  1.4180 -1.0324 -0.3030
 9121SOL    HW238826   3.279   2.745   6.072  0.1224 -0.2173 -0.2428
 9122SOL     OW38827   3.164   0.127   5.632  0.1470  0.0139  0.1326
 9122SOL    HW138828   3.184   0.036   5.654  1.2880  0.0195 -0.8849
 9122SOL    HW238829   3.116   0.157   5.709 -2.1531 -0.7514 -0.9936
 9123SOL     OW38830   4.013   4.310   0.416  0.2139 -0.5628  0.1887
 9123SOL    HW138831   4.104   4.298   0.444 -0.3865  0.2548  2.4977
 9123SOL    HW238832   4.007   4.402   0.392  1.5462 -0.0036  1.9751
 9124SOL     OW38833   2.718   0.457   2.916 -0.5147  0.0955 -0.5899
 9124SOL    HW138834   2.732   0.550   2.901  1.8996 -0.1611 -0.0106
 9124SOL    HW238835   2.793   0.438   2.973 -0.4199 -0.4258 -0.8870
 9125SOL     OW38836   4.473   1.313   5.957 -0.0245 -0.6881 -0.1896
 9125SOL    HW138837   4.549   1.256   5.957  0.2683 -0.3241  1.4676
 9125SOL    HW238838   4.400   1.252   5.966  0.0626 -0.6673  0.7383
 9126SOL     OW38839   2.652   2.907  15.748 -0.3816  0.0837  0.4473
 9126SOL    HW138840   2.736   2.930  15.708 -0.5837  0.5202  0.2697
 9126SOL    HW238841   2.650   2.816  15.718  1.2324 -0.7347  2.8427
 9127SOL     OW38842   3.396   3.165   0.615 -0.1635 -0.1628 -0.5117
 9127SOL    HW138843   3.459   3.102   0.581 -1.1578 -0.7225 -1.3341
 9127SOL    HW238844   3.417   3.247   0.569 -1.2268 -0.3208 -1.2909
 9128SOL     OW38845   2.215   2.250   7.683  0.3396  0.0979  0.3768
 9128SOL    HW138846   2.204   2.172   7.627 -2.0520  1.3410 -0.9177
 9128SOL    HW238847   2.270   2.211   7.750 -2.8921 -0.5882  2.6586
 9129SOL     OW38848   4.201   2.687   3.661  0.2778  0.1448  0.4247
 9129SOL    HW138849   4.169   2.602   3.631 -1.1970  1.2383 -1.0540
 9129SOL    HW238850   4.127   2.742   3.637 -0.7000 -1.3973 -0.1121
 9130SOL     OW38851   0.160   3.702   3.685  0.2063  0.1017  0.1885
 9130SOL    HW138852   0.201   3.725   3.602  1.3021 -0.8511  0.4731
 9130SOL    HW238853   0.238   3.665   3.727  0.5415 -0.5024 -0.9642
 9131SOL     OW38854   2.267   4.308   8.439  0.5008 -0.2102 -0.0901
 9131SOL    HW138855   2.335   4.309   8.371 -1.0761 -2.7347 -1.7145
 9131SOL    HW238856   2.303   4.339   8.522 -0.5263  0.8074 -0.0336
 9132SOL     OW38857   4.692   0.147  15.595 -0.5776  0.0663 -0.0764
 9132SOL    HW138858   4.612   0.152  15.544 -0.1369 -2.5873 -1.0096
 9132SOL    HW238859   0.027   0.120  15.522 -1.3211 -1.4002 -0.0917
 9133SOL     OW38860   3.798   1.610   3.442 -0.4949  0.6715  0.1297
 9133SOL    HW138861   3.836   1.682   3.491  1.6486 -1.6402  1.8508
 9133SOL    HW238862   3.880   1.571   3.409  1.7295  3.3641  2.4949
 9134SOL     OW38863   2.603   1.315  17.623  0.0378 -0.2071  0.3620
 9134SOL    HW138864   2.593   1.224  17.652 -1.9086  0.1461  0.8075
 9134SOL    HW238865   2.538   1.318  17.553 -0.0262  0.2177  0.4416
 9135SOL     OW38866   3.845   3.056  10.919  0.4162 -0.0254  0.3300
 9135SOL    HW138867   3.819   3.116  10.849 -1.1006 -0.5658  0.4505
 9135SOL    HW238868   3.899   2.997  10.866 -1.2476 -0.3316 -1.0130
 9136SOL     OW38869   0.107   2.892   7.426  0.3300  0.1775  0.0515
 9136SOL    HW138870   0.023   2.873   7.384 -0.3370  1.3483  0.8448
 9136SOL    HW238871   0.093   2.974   7.474  0.3358  0.4079 -0.3441
 9137SOL     OW38872   1.139   0.482   9.281  0.0270  0.2594 -0.6241
 9137SOL    HW138873   1.163   0.572   9.303 -1.3508  0.6999 -0.8940
 9137SOL    HW238874   1.098   0.492   9.195 -1.0598  2.2431  0.1229
 9138SOL     OW38875   0.094   0.364   0.650 -0.2747  0.1229 -0.2889
 9138SOL    HW138876   0.079   0.290   0.709 -2.6879 -0.2461 -1.3968
 9138SOL    HW238877   0.104   0.316   0.568 -0.7249  0.7998 -0.7317
 9139SOL     OW38878   3.224   4.275   9.033 -0.0456 -0.3363 -0.1381
 9139SOL    HW138879   3.202   4.354   9.082  1.3195 -0.0090 -0.0631
 9139SOL    HW238880   3.265   4.218   9.098 -1.9395 -0.0673  1.3245
 9140SOL     OW38881   2.344   0.787   3.355 -0.3348  0.1743 -0.1543
 9140SOL    HW138882   2.401   0.710   3.350 -0.3940  0.2973 -2.6763
 9140SOL    HW238883   2.277   0.782   3.287  0.5892  0.2967 -1.0777
 9141SOL     OW38884   2.255   1.764   4.985 -0.0895  0.0462 -0.3537
 9141SOL    HW138885   2.292   1.741   5.070 -1.6152 -2.9203 -0.5036
 9141SOL    HW238886   2.178   1.707   4.989  0.8042 -1.1534 -0.5522
 9142SOL     OW38887   3.789   0.712   7.686 -0.0296  0.2944  0.6657
 9142SOL    HW138888   3.758   0.675   7.769  0.4643 -0.3152  0.5788
 9142SOL    HW238889   3.884   0.715   7.697  0.1472  1.0502 -1.0873
 9143SOL     OW38890   0.021   4.569   5.279 -0.4131  0.1399  0.2674
 9143SOL    HW138891   0.021   4.517   5.359 -0.2050  0.3008  0.3742
 9143SOL    HW238892   4.687   4.645   5.299  0.8315  1.6172 -2.0206
 9144SOL     OW38893   3.284   1.903   0.652 -0.2869 -0.0687  0.0864
 9144SOL    HW138894   3.198   1.870   0.623  0.0273 -1.2277  0.4557
 9144SOL    HW238895   3.259   1.994   0.636  1.9502  0.1149 -2.4344
 9145SOL     OW38896   2.803   0.310  12.623  0.1047 -0.6161 -0.3977
 9145SOL    HW138897   2.739   0.265  12.679  0.6053  0.8743  1.4078
 9145SOL    HW238898   2.880   0.278  12.669  0.3238  0.9558  0.3395
 9146SOL     OW38899   0.071   0.868  13.748  0.4236  0.0189  0.4354
 9146SOL    HW138900   0.028   0.782  13.753  0.0609 -0.0525 -3.4350
 9146SOL    HW238901   0.003   0.922  13.708 -0.0830  0.5872  2.1021
 9147SOL     OW38902   0.160   4.272  13.723 -0.0458 -0.5417  0.6567
 9147SOL    HW138903   0.070   4.272  13.756 -0.4123  0.7916 -0.3704
 9147SOL    HW238904   0.154   4.331  13.648 -1.7000  0.2392  1.4084
 9148SOL     OW38905   0.329   3.567   7.756  0.1605 -0.3821 -0.3736
 9148SOL    HW138906   0.370   3.614   7.684  0.0901 -2.5518 -1.8211
 9148SOL    HW238907   0.237   3.571   7.730 -0.4591  1.2163  2.0662
 9149SOL     OW38908   2.563   1.854   3.087 -0.3168 -0.4438 -0.5840
 9149SOL    HW138909   2.601   1.866   3.000  0.4501  1.2405 -0.0160
 9149SOL    HW238910   2.564   1.758   3.095 -1.7238 -0.4151 -0.0605
 9150SOL     OW38911   0.229   3.483  16.014 -0.0837  0.3945  0.2473
 9150SOL    HW138912   0.194   3.571  16.030  0.5194  0.7770 -0.5206
 9150SOL    HW238913   0.191   3.459  15.929 -2.2166 -0.5718  1.4774
 9151SOL     OW38914   2.217   1.532   5.688  0.4263 -0.2998 -0.0961
 9151SOL    HW138915   2.205   1.445   5.727 -2.2961 -0.4605 -1.3285
 9151SOL    HW238916   2.170   1.593   5.745 -0.4772  1.1924 -2.4355
 9152SOL     OW38917   2.558   2.373   3.961 -0.4288 -0.0522 -0.5398
 9152SOL    HW138918   2.525   2.291   3.997  0.7492 -1.1060 -1.8290
 9152SOL    HW238919   2.644   2.349   3.925 -0.2570  0.1755 -0.2858
 9153SOL     OW38920   4.060   1.100   9.004  0.0513  0.1426  0.1834
 9153SOL    HW138921   3.976   1.099   9.049 -0.6047  1.0239 -1.0192
 9153SOL    HW238922   4.095   1.022   9.047  0.5560  0.0664 -0.3766
 9154SOL     OW38923   3.052   1.492  12.482 -0.0261  0.9395  0.2469
 9154SOL    HW138924   3.118   1.503  12.550 -2.0799  3.2519  1.8764
 9154SOL    HW238925   3.050   1.579  12.441 -2.7771  0.7433 -0.0634
 9155SOL     OW38926   1.394   3.165   4.504 -0.2604 -0.0998  0.2833
 9155SOL    HW138927   1.487   3.161   4.482 -0.4912  0.4392 -0.7610
 9155SOL    HW238928   1.351   3.186   4.422 -0.2472  2.6079  0.9681
 9156SOL     OW38929   3.392   2.096  12.253  0.1328 -0.1374  0.2536
 9156SOL    HW138930   3.322   2.157  12.275  0.1023 -0.1532  0.2011
 9156SOL    HW238931   3.378   2.019  12.309 -3.2389  0.7492  0.6119
 9157SOL     OW38932   2.571   2.579   3.499  0.7763  0.0899 -0.0192
 9157SOL    HW138933   2.537   2.657   3.456 -2.3513 -1.7342 -0.9043
 9157SOL    HW238934   2.656   2.580   3.455 -0.5021 -0.9391 -2.5517
 9158SOL     OW38935   1.580   4.675   3.510 -0.3139 -0.1662 -0.0088
 9158SOL    HW138936   1.516   4.614   3.475  0.6165 -1.7948  1.1245
 9158SOL    HW238937   1.631   4.608   3.556 -1.7707 -2.8619 -2.3185
 9159SOL     OW38938   1.183   3.789   8.388  0.0629  0.2505  0.4732
 9159SOL    HW138939   1.228   3.833   8.316  0.3746 -0.6903  0.0968
 9159SOL    HW238940   1.246   3.720   8.407 -0.4721 -1.1106 -2.8695
 9160SOL     OW38941   0.602   0.023   7.533 -0.6045 -0.3639  0.0411
 9160SOL    HW138942   0.589   0.100   7.587  0.2122  0.8749 -1.5328
 9160SOL    HW238943   0.633   4.687   7.604  0.2805 -0.9661 -0.8138
 9161SOL     OW38944   3.567   1.069   0.432 -0.9264 -0.0404 -0.2407
 9161SOL    HW138945   3.609   1.008   0.371 -2.9644  0.1271 -1.8046
 9161SOL    HW238946   3.484   1.061   0.386 -1.3844  0.6281  0.4667
 9162SOL     OW38947   3.214   0.500  16.317  0.3510 -0.1540  0.1871
 9162SOL    HW138948   3.271   0.548  16.376  0.2763 -0.5844  0.6119
 9162SOL    HW238949   3.143   0.561  16.298 -1.2798 -1.2957  2.6018
 9163SOL     OW38950   2.671   3.492   2.613 -0.2390 -0.0954 -0.0486
 9163SOL    HW138951   2.746   3.491   2.673  1.5042 -1.0104 -2.2504
 9163SOL    HW238952   2.708   3.540   2.539 -0.3350 -1.8008 -1.1976
 9164SOL     OW38953   2.901   2.769   9.871 -0.1337  0.6304  0.2376
 9164SOL    HW138954   2.898   2.691   9.926 -0.5340  2.5585  2.9064
 9164SOL    HW238955   2.808   2.788   9.861 -0.0510  0.4684 -0.8686
 9165SOL     OW38956   3.650   4.678   8.351 -0.0550  0.6194 -0.1150
 9165SOL    HW138957   3.674   4.618   8.422  0.9096  0.8803 -0.2218
 9165SOL    HW238958   3.560   4.653   8.329 -0.0960  2.3602 -1.8543
 9166SOL     OW38959   3.084   3.892   7.876 -0.5964  0.4745 -0.0460
 9166SOL    HW138960   3.029   3.905   7.953  1.4385  1.9724  1.1784
 9166SOL    HW238961   3.166   3.870   7.921  0.3266 -0.6217 -2.2944
 9167SOL     OW38962   1.381   2.059   4.827 -0.0901  0.1188  0.3375
 9167SOL    HW138963   1.469   2.026   4.845  0.1799  1.2256  1.0429
 9167SOL    HW238964   1.397   2.125   4.759 -0.1421 -0.5884 -0.3613
 9168SOL     OW38965   0.197   2.157   3.623  0.0849 -0.3050 -0.0770
 9168SOL    HW138966   0.239   2.243   3.633 -1.0583 -0.0445  2.5550
 9168SOL    HW238967   0.159   2.138   3.709  0.9141 -0.8580  0.1732
 9169SOL     OW38968   4.498   4.099   7.124 -0.2513 -0.3742  0.0016
 9169SOL    HW138969   4.455   4.017   7.100  1.5439 -1.2403 -0.1674
 9169SOL    HW238970   4.432   4.148   7.173 -0.3048 -0.9329  0.4837
 9170SOL     OW38971   1.102   1.893   1.383  0.7614  0.2262 -0.2843
 9170SOL    HW138972   1.152   1.970   1.355  1.1281 -0.1133 -0.5684
 9170SOL    HW238973   1.044   1.877   1.309  1.2862  0.1954 -0.6943
 9171SOL     OW38974   1.944   3.081   7.011  0.3624 -0.4452 -0.6798
 9171SOL    HW138975   1.925   3.085   6.917  1.2086  0.6362 -0.8000
 9171SOL    HW238976   2.028   3.037   7.018  0.3882 -0.5609 -1.5955
 9172SOL     OW38977   3.873   3.875   4.874  0.3224  0.4363  0.2587
 9172SOL    HW138978   3.910   3.907   4.792 -0.2928 -0.5770 -0.4086
 9172SOL    HW238979   3.857   3.784   4.851  2.4121  0.4448 -1.2256
 9173SOL     OW38980   1.548   3.777   0.952  0.1968  1.0327 -0.4876
 9173SOL    HW138981   1.561   3.872   0.947 -1.3427  1.2832  0.2204
 9173SOL    HW238982   1.634   3.741   0.974  0.4121  0.8475 -1.6393
 9174SOL     OW38983   2.760   2.497   2.387  0.2548 -0.6715 -0.2216
 9174SOL    HW138984   2.714   2.556   2.446  1.0152 -0.1799 -0.1149
 9174SOL    HW238985   2.833   2.549   2.354 -0.6205 -0.1962 -1.4335
 9175SOL     OW38986   0.631   3.110  15.483  0.0846 -0.2235 -0.2417
 9175SOL    HW138987   0.637   3.196  15.442 -1.0881  0.5608  1.2200
 9175SOL    HW238988   0.625   3.128  15.577  1.1776 -0.2264 -0.1708
 9176SOL     OW38989   1.315   3.736   6.402  0.2254  0.0950 -0.1591
 9176SOL    HW138990   1.241   3.710   6.457  0.1382  0.4406 -0.1140
 9176SOL    HW238991   1.269   3.759   6.322 -3.8716  0.7334  2.3761
 9177SOL     OW38992   1.099   4.444   8.279  0.2809 -0.4166  0.0660
 9177SOL    HW138993   1.120   4.524   8.328  1.9408 -1.5843  1.2451
 9177SOL    HW238994   1.004   4.442   8.289 -0.0228 -0.3861 -2.9314
 9178SOL     OW38995   4.106   2.816   5.255  0.2074 -0.2478  0.0741
 9178SOL    HW138996   4.032   2.876   5.264 -1.3271 -1.9314 -1.0491
 9178SOL    HW238997   4.123   2.798   5.347  1.1304  0.7315  0.0852
 9179SOL     OW38998   1.431   1.764  10.697 -0.4571  0.2827 -0.0713
 9179SOL    HW138999   1.498   1.784  10.632  0.7680  0.4124  1.2430
 9179SOL    HW239000   1.413   1.675  10.665 -4.1511  1.3548 -0.9522
 9180SOL     OW39001   3.677   0.170   9.829 -0.1751 -0.5743  0.0552
 9180SOL    HW139002   3.702   0.084   9.860 -1.0486 -0.0209  2.3051
 9180SOL    HW239003   3.584   0.169   9.852  0.4746 -0.5982  2.5796
 9181SOL     OW39004   1.696   2.225   5.295 -0.9227 -0.1066  0.3075
 9181SOL    HW139005   1.648   2.143   5.279 -0.7658  0.0487 -0.9886
 9181SOL    HW239006   1.623   2.285   5.279  0.1366  0.7741 -1.2772
 9182SOL     OW39007   3.620   1.981   1.441 -0.1364 -0.0252  0.1825
 9182SOL    HW139008   3.707   1.952   1.413  0.6020  1.2256  1.2243
 9182SOL    HW239009   3.602   2.051   1.378 -0.1118  0.0370  0.2443
 9183SOL     OW39010   2.251   1.133   7.775  0.6443  0.1301 -0.1371
 9183SOL    HW139011   2.329   1.169   7.732  0.4717 -0.9659 -1.3455
 9183SOL    HW239012   2.268   1.176   7.859  1.6208 -1.3253  0.4002
 9184SOL     OW39013   3.168   0.726   9.812 -0.0716  0.3602 -0.3033
 9184SOL    HW139014   3.199   0.644   9.775  0.0610 -0.5547  1.8129
 9184SOL    HW239015   3.088   0.733   9.761 -1.9594 -1.0662  2.4218
 9185SOL     OW39016   0.135   2.555   5.536  0.2629 -0.6953 -0.2309
 9185SOL    HW139017   0.098   2.542   5.623  0.7062 -2.6580 -0.3473
 9185SOL    HW239018   0.229   2.538   5.541  0.1937 -0.9715  0.1714
 9186SOL     OW39019   2.069   0.141  14.137 -0.3271  1.1221 -0.2094
 9186SOL    HW139020   1.979   0.142  14.105  0.1334  1.4172 -1.4952
 9186SOL    HW239021   2.058   0.178  14.224 -1.0477 -1.3860  0.7666
 9187SOL     OW39022   3.632   2.371   6.190  0.4130  0.1886  0.8082
 9187SOL    HW139023   3.708   2.363   6.247  0.9312 -1.8185 -0.1557
 9187SOL    HW239024   3.573   2.382   6.264 -0.8564  1.6103 -0.4164
 9188SOL     OW39025   4.228   0.372   1.662 -0.2563  0.1122  0.0746
 9188SOL    HW139026   4.229   0.321   1.743  2.7759  1.8033  1.1193
 9188SOL    HW239027   4.272   0.454   1.686 -2.4561  0.7220  2.0050
 9189SOL     OW39028   2.430   0.471   3.703 -0.5648  0.1481  0.7351
 9189SOL    HW139029   2.499   0.406   3.691 -1.8280 -1.0119 -0.1228
 9189SOL    HW239030   2.365   0.416   3.746 -0.1491 -0.8902  0.0338
 9190SOL     OW39031   1.247   1.186   8.950  0.1522 -0.0693 -0.1066
 9190SOL    HW139032   1.175   1.249   8.959 -0.9127 -1.5489  1.7295
 9190SOL    HW239033   1.249   1.184   8.854  0.9702  0.3339 -0.0945
 9191SOL     OW39034   0.405   2.186  12.572  0.2885 -0.0107 -0.6268
 9191SOL    HW139035   0.483   2.141  12.604  0.9240 -0.5664 -2.9109
 9191SOL    HW239036   0.353   2.114  12.534  0.4728 -1.0946  1.1496
 9192SOL     OW39037   0.217   3.635   1.399  0.5002  0.1290 -0.4170
 9192SOL    HW139038   0.261   3.621   1.315  0.8561  0.3913 -0.2757
 9192SOL    HW239039   0.286   3.692   1.433 -1.1043  2.2606 -0.7080
 9193SOL     OW39040   4.393   2.887   2.952 -0.1413  0.3527 -0.0434
 9193SOL    HW139041   4.334   2.823   2.913  1.3243 -1.3901  0.5713
 9193SOL    HW239042   4.477   2.852   2.920 -0.3219 -0.9494  0.8586
 9194SOL     OW39043   0.706   1.942  14.796  0.6338  0.3720  0.2517
 9194SOL    HW139044   0.677   1.886  14.723 -1.0906  0.0842  1.1426
 9194SOL    HW239045   0.687   1.883  14.869  0.9272 -1.2148 -0.9469
 9195SOL     OW39046   3.888   1.068   5.560  0.0060 -0.1675 -0.2484
 9195SOL    HW139047   3.981   1.066   5.583 -0.8917  1.3497  3.5248
 9195SOL    HW239048   3.858   1.133   5.625  0.5443 -1.0449  0.8680
 9196SOL     OW39049   2.799   0.915   6.267  0.5281  0.8308  0.4391
 9196SOL    HW139050   2.759   0.860   6.335  0.7009 -0.4355 -0.4752
 9196SOL    HW239051   2.889   0.917   6.299 -0.3020  0.8162  2.7860
 9197SOL     OW39052   3.537   4.013  15.250 -0.7245 -0.8172 -0.0505
 9197SOL    HW139053   3.485   3.948  15.298 -0.4619 -1.2291 -0.3336
 9197SOL    HW239054   3.467   4.037  15.190  0.0703  1.4007 -0.0785
 9198SOL     OW39055   2.544   3.144   5.695 -0.3406  0.4421 -0.2020
 9198SOL    HW139056   2.634   3.114   5.683  0.0602  1.5445  0.0383
 9198SOL    HW239057   2.508   3.134   5.607  1.1438 -2.1832 -0.5102
 9199SOL     OW39058   0.275   3.802   0.224  0.1397  0.3530  0.3534
 9199SOL    HW139059   0.331   3.858   0.170 -0.6540  2.0932  1.3537
 9199SOL    HW239060   0.256   3.730   0.163  0.1039  1.0088 -0.4109
 9200SOL     OW39061   1.275   0.561   2.545  0.0371  0.3147 -0.2247
 9200SOL    HW139062   1.361   0.586   2.513  0.3820 -0.9751 -0.3010
 9200SOL    HW239063   1.259   0.480   2.498 -0.8527 -0.4653  1.4283
 9201SOL     OW39064   3.611   1.433   3.483  0.3248  0.5199  0.6936
 9201SOL    HW139065   3.561   1.485   3.420  1.8278  1.3606  0.2051
 9201SOL    HW239066   3.689   1.488   3.491  1.2801 -0.8340  0.6914
 9202SOL     OW39067   3.561   4.109  17.251 -0.0771 -0.4160  0.4786
 9202SOL    HW139068   3.609   4.062  17.319 -0.6374 -2.6179 -0.6277
 9202SOL    HW239069   3.619   4.184  17.240 -0.9329  0.0133 -1.1473
 9203SOL     OW39070   1.187   4.108   6.081 -0.6598  0.3126  0.4778
 9203SOL    HW139071   1.128   4.119   6.007 -0.6479  3.3311  0.9306
 9203SOL    HW239072   1.274   4.110   6.041 -1.8247  1.6799 -2.0031
 9204SOL     OW39073   0.175   0.254   8.139  0.0184  0.5551 -0.0676
 9204SOL    HW139074   0.128   0.171   8.151  0.3914  0.5407  1.3920
 9204SOL    HW239075   0.264   0.224   8.160 -0.4184 -0.7930 -0.1433
 9205SOL     OW39076   4.653   4.260   7.995 -0.8354 -0.3368 -0.0604
 9205SOL    HW139077   4.681   4.343   7.957  0.5914 -0.1209  1.4508
 9205SOL    HW239078   4.707   4.261   8.074 -0.3689  0.1950 -0.3865
 9206SOL     OW39079   0.878   0.976  13.924 -0.0333  0.1190  0.7293
 9206SOL    HW139080   0.789   0.945  13.933  0.5472 -0.8526  3.1990
 9206SOL    HW239081   0.896   0.939  13.838 -0.8121  0.7819  0.2823
 9207SOL     OW39082   1.303   2.419  11.106 -0.3815  0.0980 -0.6591
 9207SOL    HW139083   1.348   2.411  11.190 -0.9583  0.8236 -0.2817
 9207SOL    HW239084   1.322   2.512  11.095  1.4499 -0.0743  0.9446
 9208SOL     OW39085   0.405   3.670  15.028  0.0968 -0.3253 -0.5039
 9208SOL    HW139086   0.431   3.660  15.120 -2.3159 -1.7932  0.0307
 9208SOL    HW239087   0.468   3.732  14.991 -0.4783  0.2520 -0.5307
 9209SOL     OW39088   3.755   4.105   1.495 -0.0782 -1.3388  0.3452
 9209SOL    HW139089   3.673   4.078   1.536 -1.2437  0.9904 -0.4254
 9209SOL    HW239090   3.822   4.039   1.511  1.4915  0.1331 -0.1275
 9210SOL     OW39091   3.624   0.197   3.814 -0.1943 -0.4083 -0.1060
 9210SOL    HW139092   3.553   0.164   3.869 -2.6519  1.2970 -2.2491
 9210SOL    HW239093   3.653   0.278   3.857 -1.0751  0.0531 -0.3653
 9211SOL     OW39094   3.547   3.169  13.941  0.0769  0.5031  0.2831
 9211SOL    HW139095   3.560   3.172  14.036 -1.8645  0.6568  0.5421
 9211SOL    HW239096   3.518   3.258  13.921  1.0320  0.6460 -0.4438
 9212SOL     OW39097   3.126   1.745   4.014  0.9860  0.3783  0.2191
 9212SOL    HW139098   3.092   1.770   3.928  0.0982 -2.0277 -0.1158
 9212SOL    HW239099   3.195   1.682   3.994  1.1528  0.5052  0.3943
 9213SOL     OW39100   2.589   1.957   3.887  0.5168 -0.1757 -0.2620
 9213SOL    HW139101   2.564   2.031   3.942  0.7783 -1.2106  1.2304
 9213SOL    HW239102   2.632   1.905   3.955 -1.1931 -2.0313 -0.5887
 9214SOL     OW39103   3.014   2.354   8.039  0.2736 -0.0036  0.1459
 9214SOL    HW139104   3.073   2.285   8.009  0.1091  0.3897 -1.0970
 9214SOL    HW239105   3.026   2.426   7.977 -1.0715 -0.3451 -0.4964
 9215SOL     OW39106   3.628   0.355   4.703 -0.0757 -0.2020  0.0453
 9215SOL    HW139107   3.688   0.430   4.708  1.8027 -1.6350 -1.0818
 9215SOL    HW239108   3.590   0.339   4.790 -1.7634 -0.5679 -0.7654
 9216SOL     OW39109   1.976   0.927   0.010 -0.0884 -0.0020  0.9219
 9216SOL    HW139110   1.957   0.860  17.630 -0.0401 -0.1065  1.0162
 9216SOL    HW239111   1.886   0.929   0.044 -1.8046  3.8959 -3.9025
 9217SOL     OW39112   0.412   2.518   5.134  0.1603  0.8055 -0.1184
 9217SOL    HW139113   0.389   2.465   5.057 -1.9780  0.7608  0.5575
 9217SOL    HW239114   0.461   2.448   5.178  0.2244  0.4356 -0.7781
 9218SOL     OW39115   3.395   3.149  14.868 -0.5913  0.3367  0.2869
 9218SOL    HW139116   3.424   3.239  14.881 -2.3931  0.7155  1.7827
 9218SOL    HW239117   3.351   3.129  14.951  0.9869  1.3024  1.3610
 9219SOL     OW39118   2.324   3.080   3.075  0.1430  0.7095 -0.4997
 9219SOL    HW139119   2.246   3.045   3.118 -0.7759  1.7394 -1.3494
 9219SOL    HW239120   2.294   3.081   2.984  0.2196  0.7213 -0.5246
 9220SOL     OW39121   2.815   3.854   8.822  0.3359  0.5621  0.1546
 9220SOL    HW139122   2.774   3.786   8.875  0.8844 -0.9244 -1.3245
 9220SOL    HW239123   2.904   3.856   8.858  0.3147  2.6083  0.0822
 9221SOL     OW39124   0.054   3.943  17.007 -0.0862 -0.3998  0.3450
 9221SOL    HW139125   0.025   4.030  17.034 -1.9442 -0.9737  0.2348
 9221SOL    HW239126   4.701   3.886  17.031 -0.9613  1.0145  1.0277
 9222SOL     OW39127   3.804   2.893   2.272 -0.4857  0.2047 -0.0597
 9222SOL    HW139128   3.836   2.927   2.188 -0.6605 -1.1223 -0.6503
 9222SOL    HW239129   3.710   2.891   2.252 -0.6562 -0.5570  0.7905
 9223SOL     OW39130   1.017   2.673   0.036 -0.4528 -0.0758 -0.0308
 9223SOL    HW139131   0.981   2.762   0.030 -0.6268 -0.1762 -0.4857
 9223SOL    HW239132   0.946   2.631   0.084  1.2722  0.4053  2.8883
 9224SOL     OW39133   1.892   0.295  14.627 -0.7330  0.3730 -0.2805
 9224SOL    HW139134   1.908   0.372  14.681 -2.9378  0.4579  0.2190
 9224SOL    HW239135   1.830   0.246  14.680 -0.7896 -1.1954 -1.7984
 9225SOL     OW39136   3.709   3.612   3.849 -0.2604 -0.4727 -0.1389
 9225SOL    HW139137   3.648   3.541   3.828 -0.5513 -0.5839  1.0853
 9225SOL    HW239138   3.737   3.589   3.938 -0.7668  1.1993  0.4553
 9226SOL     OW39139   2.059   3.597   7.038  0.2131 -0.0454  0.5812
 9226SOL    HW139140   2.119   3.551   6.980 -1.3391  0.3424 -1.3431
 9226SOL    HW239141   2.117   3.671   7.055 -0.7660 -0.0744  4.0870
 9227SOL     OW39142   0.921   4.227   3.883 -0.3918  0.1737 -0.3509
 9227SOL    HW139143   0.912   4.284   3.807 -0.2360  0.6978  0.0263
 9227SOL    HW239144   0.868   4.280   3.943 -1.6961 -0.9463 -0.5150
 9228SOL     OW39145   1.059   1.691   1.154 -0.7003  0.1885 -0.8454
 9228SOL    HW139146   1.091   1.774   1.119  0.0380  1.6488  3.3624
 9228SOL    HW239147   1.136   1.638   1.130  0.9420  1.5690  1.3326
 9229SOL     OW39148   0.180   1.592   2.609  0.4496  0.0925 -0.0299
 9229SOL    HW139149   0.087   1.591   2.632  0.5092  1.0843  0.2070
 9229SOL    HW239150   0.177   1.610   2.515 -0.3699 -1.4754 -0.3220
 9230SOL     OW39151   3.435   1.568  14.615  0.3818 -0.4202  0.2390
 9230SOL    HW139152   3.393   1.483  14.612 -1.0511  0.3332 -1.3770
 9230SOL    HW239153   3.386   1.598  14.539 -1.8733  0.1780  1.9357
 9231SOL     OW39154   1.287   3.930   8.677 -0.7401  0.8723 -0.8627
 9231SOL    HW139155   1.356   3.948   8.612  0.9809  0.6257  0.8799
 9231SOL    HW239156   1.341   3.932   8.756  0.9297  0.8100 -2.0035
 9232SOL     OW39157   1.301   4.266   7.916  0.4808 -0.0339  0.0154
 9232SOL    HW139158   1.391   4.294   7.901  0.4289  0.6774  1.0469
 9232SOL    HW239159   1.289   4.204   7.845  3.6574 -1.1632  0.4475
 9233SOL     OW39160   2.762   2.808   6.753  0.4227 -0.0600 -0.4568
 9233SOL    HW139161   2.717   2.838   6.674 -0.6589 -0.1484  0.1280
 9233SOL    HW239162   2.794   2.728   6.712  1.0222 -0.3305  0.5440
 9234SOL     OW39163   1.684   1.277  11.208 -0.0633 -0.1403  0.2735
 9234SOL    HW139164   1.749   1.250  11.274 -1.3147  0.7702  1.8875
 9234SOL    HW239165   1.630   1.198  11.209 -1.5246  0.8696 -0.1686
 9235SOL     OW39166   2.090   4.271   7.732 -0.1854  1.0728 -0.6911
 9235SOL    HW139167   2.086   4.311   7.645 -3.1421  3.0611  0.3682
 9235SOL    HW239168   2.062   4.182   7.713  2.1915  0.6395 -2.1861
 9236SOL     OW39169   0.044   0.334  17.549 -0.4925 -0.2549  0.0259
 9236SOL    HW139170   0.140   0.330  17.556 -0.3407  0.5944 -1.5168
 9236SOL    HW239171   0.028   0.416  17.502  0.8548  0.0765  0.1477
 9237SOL     OW39172   0.234   0.737   2.019  0.4619 -0.0854  0.1042
 9237SOL    HW139173   0.263   0.823   2.049  0.9390 -0.7925  1.6999
 9237SOL    HW239174   0.308   0.730   1.959  0.0506  1.2908 -0.5551
 9238SOL     OW39175   3.583   3.982  16.944  0.2701 -0.0246  0.6529
 9238SOL    HW139176   3.562   4.045  16.875  2.3461  1.5226  1.4197
 9238SOL    HW239177   3.570   4.038  17.021  1.1956 -1.3363  1.7714
 9239SOL     OW39178   4.482   2.461  16.309 -0.1443 -0.4003  0.2457
 9239SOL    HW139179   4.387   2.462  16.317 -0.2465 -0.6230 -0.8759
 9239SOL    HW239180   4.503   2.535  16.252  2.1303 -0.5243  0.9167
 9240SOL     OW39181   2.722   0.743   6.456 -0.2474 -0.8546 -0.0886
 9240SOL    HW139182   2.675   0.680   6.510 -1.6427  1.2743  1.1812
 9240SOL    HW239183   2.814   0.716   6.464  0.6096  2.0399 -0.0580
 9241SOL     OW39184   1.993   0.599   6.045 -0.0505  0.5007  0.0790
 9241SOL    HW139185   1.948   0.516   6.031  1.1674 -0.0476 -0.6702
 9241SOL    HW239186   1.986   0.635   5.956 -2.0808  1.1270  0.4877
 9242SOL     OW39187   0.698   0.491   1.629  0.3898 -0.3603 -0.0010
 9242SOL    HW139188   0.790   0.518   1.627  0.6873 -1.3193  1.3604
 9242SOL    HW239189   0.676   0.443   1.708 -0.4490  0.5034  0.2879
 9243SOL     OW39190   0.597   1.291   4.356 -0.1474  0.3477  0.0771
 9243SOL    HW139191   0.604   1.238   4.277  0.1944 -0.7268  0.8224
 9243SOL    HW239192   0.512   1.264   4.391  0.2067 -0.3673  0.3908
 9244SOL     OW39193   3.588   2.531   3.858  0.2972  0.1378  0.4247
 9244SOL    HW139194   3.585   2.468   3.786  2.3222  1.8578 -1.1400
 9244SOL    HW239195   3.549   2.610   3.821  1.4321  0.1632 -0.7243
 9245SOL     OW39196   2.357   2.762  11.217  0.2918 -1.0936  0.3172
 9245SOL    HW139197   2.408   2.729  11.292 -0.2954  0.8962  1.6006
 9245SOL    HW239198   2.339   2.677  11.177  1.4026 -1.4501  0.5643
 9246SOL     OW39199   0.505   3.382   3.139  0.1721 -0.4635 -0.4076
 9246SOL    HW139200   0.467   3.410   3.222 -0.6224  1.8901 -1.5702
 9246SOL    HW239201   0.496   3.459   3.083  0.0013 -0.5330 -0.4760
 9247SOL     OW39202   3.971   0.687  13.089 -0.3465  0.0998 -0.1558
 9247SOL    HW139203   4.065   0.692  13.072 -0.0478 -1.5703  0.9352
 9247SOL    HW239204   3.933   0.675  13.002  1.1843 -1.7746 -0.5786
 9248SOL     OW39205   0.862   0.088   6.205 -0.1660  0.1820  0.3230
 9248SOL    HW139206   0.942   0.042   6.230 -0.5088  0.3891  1.8256
 9248SOL    HW239207   0.809   0.086   6.284 -1.9306  0.3167 -0.8630
 9249SOL     OW39208   0.324   2.908   1.505  0.4956 -0.0427 -0.7478
 9249SOL    HW139209   0.250   2.922   1.564  2.0265  1.2576  0.8725
 9249SOL    HW239210   0.335   2.813   1.505  1.8399  0.1161  0.2819
 9250SOL     OW39211   3.678   1.332   9.511  0.0452 -0.5349 -0.4555
 9250SOL    HW139212   3.720   1.265   9.565 -0.3707 -1.0832 -0.8049
 9250SOL    HW239213   3.617   1.278   9.460 -2.2592  0.2983  1.4465
 9251SOL     OW39214   2.888   0.019  11.758 -0.0966 -0.0550 -0.1297
 9251SOL    HW139215   2.935   0.063  11.687 -0.3643  0.7101  0.1621
 9251SOL    HW239216   2.817   4.700  11.708 -0.0270 -1.2373  0.7310
 9252SOL     OW39217   4.309   4.607  11.952  0.7758  0.0519  0.2466
 9252SOL    HW139218   4.321   4.685  12.006 -0.0385 -0.2441  0.8490
 9252SOL    HW239219   4.336   4.646  11.869  0.5537  0.7429  0.5022
 9253SOL     OW39220   0.954   0.222   0.613  0.0521 -0.1199 -0.3710
 9253SOL    HW139221   0.929   0.234   0.705  0.4869 -0.4169 -0.2176
 9253SOL    HW239222   0.925   0.307   0.579  0.1664 -0.4740 -1.3563
 9254SOL     OW39223   3.764   3.505   8.616  0.4507  0.4911 -0.0955
 9254SOL    HW139224   3.689   3.451   8.590 -0.3467  0.0820  3.0781
 9254SOL    HW239225   3.759   3.547   8.530  0.9821 -1.3794 -1.0402
 9255SOL     OW39226   4.042   3.064   6.705 -0.0367  0.3788 -0.5972
 9255SOL    HW139227   4.056   3.154   6.735 -1.5382  0.4220  0.0074
 9255SOL    HW239228   3.947   3.069   6.689 -0.2179 -2.6351 -0.4010
 9256SOL     OW39229   0.910   3.678   6.025  0.0986 -0.4594  0.0206
 9256SOL    HW139230   0.857   3.612   5.980 -1.3686 -0.2498  1.4542
 9256SOL    HW239231   0.986   3.629   6.056 -0.0566 -0.5565  0.2425
 9257SOL     OW39232   0.288   3.115   2.296  0.3424  0.1096  0.3132
 9257SOL    HW139233   0.325   3.036   2.336 -1.9577 -1.1719 -0.0684
 9257SOL    HW239234   0.313   3.182   2.359  0.0184  1.6584 -1.2219
 9258SOL     OW39235   4.610   1.660   7.653 -0.3779  0.5495 -0.1416
 9258SOL    HW139236   4.635   1.663   7.745  0.4227  3.4660 -0.4494
 9258SOL    HW239237   4.536   1.600   7.661 -0.2147  0.4072  0.2921
 9259SOL     OW39238   2.837   0.765  14.572  0.3087  0.1806  0.0476
 9259SOL    HW139239   2.828   0.831  14.504  1.5628  1.8751  1.5218
 9259SOL    HW239240   2.838   0.818  14.652 -0.4946  1.5185 -0.8389
 9260SOL     OW39241   4.097   2.761   5.520 -0.2988  0.0819  0.2949
 9260SOL    HW139242   4.021   2.704   5.532 -0.1716 -0.3589 -0.9774
 9260SOL    HW239243   4.117   2.772   5.613  0.0605 -0.8512  0.3345
 9261SOL     OW39244   3.473   3.431  13.896 -0.2675 -0.2817 -0.4139
 9261SOL    HW139245   3.426   3.513  13.915 -0.4984 -0.5255  0.0654
 9261SOL    HW239246   3.554   3.468  13.861 -1.6029  0.3396 -2.8163
 9262SOL     OW39247   3.780   0.694   4.170  0.2723  0.2057  0.3155
 9262SOL    HW139248   3.755   0.703   4.078  2.7314  0.2106 -0.3670
 9262SOL    HW239249   3.828   0.611   4.176  3.2091  1.8058 -1.0360
 9263SOL     OW39250   2.036   0.124   2.489 -0.3617  0.0297 -0.3531
 9263SOL    HW139251   2.086   0.201   2.517 -1.6535  0.3596  0.9855
 9263SOL    HW239252   2.103   0.056   2.490  0.5802  0.9558  0.5377
 9264SOL     OW39253   2.645   3.510  16.717  0.0431 -0.3170 -0.0180
 9264SOL    HW139254   2.700   3.568  16.665 -2.5915  2.2708  0.0799
 9264SOL    HW239255   2.594   3.463  16.650 -1.5789  1.6833 -0.1928
 9265SOL     OW39256   1.140   4.477   4.649  0.2644  0.6345 -0.9943
 9265SOL    HW139257   1.119   4.389   4.681 -2.6561  1.9243  0.6285
 9265SOL    HW239258   1.180   4.451   4.566  2.0302  2.7462 -0.8115
 9266SOL     OW39259   2.579   1.545  15.641  0.1418 -0.1443  0.1324
 9266SOL    HW139260   2.551   1.501  15.721 -1.8861  0.2824 -0.3495
 9266SOL    HW239261   2.543   1.633  15.657 -2.1309 -1.0385 -0.1043
 9267SOL     OW39262   1.476   1.764   1.789 -0.0366  0.2952  0.0834
 9267SOL    HW139263   1.497   1.741   1.880  0.1657 -3.1125 -0.8262
 9267SOL    HW239264   1.403   1.705   1.770 -0.1938  1.0662 -1.7202
 9268SOL     OW39265   3.926   0.504  16.912 -0.4413  0.6906  0.1733
 9268SOL    HW139266   4.016   0.473  16.906 -0.8194 -0.0422 -1.4619
 9268SOL    HW239267   3.937   0.598  16.895 -0.1316  0.7341  0.6148
 9269SOL     OW39268   0.611   1.589   0.481 -0.8096 -0.2116 -0.3720
 9269SOL    HW139269   0.691   1.545   0.452  1.0577  2.0924  1.2581
 9269SOL    HW239270   0.574   1.605   0.394  2.8632  0.1506 -1.8354
 9270SOL     OW39271   0.769   2.004   9.367  0.5836 -0.3638 -0.0425
 9270SOL    HW139272   0.828   2.056   9.421 -1.8088  1.0447  1.2346
 9270SOL    HW239273   0.686   2.053   9.368  1.0413  0.3629  1.4284
 9271SOL     OW39274   1.214   1.897   2.015 -0.2233 -0.0640  0.1112
 9271SOL    HW139275   1.231   1.806   1.991 -0.0225 -0.3801  1.4554
 9271SOL    HW239276   1.132   1.919   1.971  0.0794  0.5881 -0.1323
 9272SOL     OW39277   1.470   0.249   1.740 -0.1257  0.4285 -0.0278
 9272SOL    HW139278   1.542   0.202   1.700 -0.2900  0.6621 -0.6039
 9272SOL    HW239279   1.500   0.340   1.743 -0.0125  0.4068 -0.4794
 9273SOL     OW39280   2.325   3.699  17.583 -0.5226  0.1196  0.8486
 9273SOL    HW139281   2.418   3.701  17.563 -0.7755 -0.9907 -0.5141
 9273SOL    HW239282   2.293   3.789  17.583  0.7729  0.5910 -0.5023
 9274SOL     OW39283   3.599   1.331   5.447 -0.4011 -0.1048  1.0615
 9274SOL    HW139284   3.670   1.353   5.387 -1.9703 -0.0453 -0.7684
 9274SOL    HW239285   3.534   1.294   5.386 -0.9991  0.6091  1.2629
 9275SOL     OW39286   0.141   3.975   6.967 -0.0346  0.0432  0.1402
 9275SOL    HW139287   0.190   3.940   6.892  1.5668 -1.7924  2.0698
 9275SOL    HW239288   0.098   4.048   6.922  0.8526  1.2098  1.1953
 9276SOL     OW39289   3.041   2.065   6.635 -0.1350 -1.0593 -0.4187
 9276SOL    HW139290   2.967   2.025   6.681 -0.8308  0.3395 -0.3203
 9276SOL    HW239291   3.013   2.052   6.544  1.6555 -1.9830 -0.8426
 9277SOL     OW39292   1.835   0.936   8.794  0.3276 -0.0528  0.3568
 9277SOL    HW139293   1.767   0.994   8.828  0.1149 -1.1562  1.8461
 9277SOL    HW239294   1.879   0.896   8.870  0.4179  1.8485  1.2924
 9278SOL     OW39295   3.679   1.133  13.523  0.5749  0.4125  0.0502
 9278SOL    HW139296   3.635   1.216  13.537 -2.5314 -1.1512 -0.3830
 9278SOL    HW239297   3.636   1.084  13.593  2.6991 -1.7724 -0.1554
 9279SOL     OW39298   2.205   1.987  12.433 -0.0216 -0.4742  0.3190
 9279SOL    HW139299   2.246   2.073  12.443  0.5634 -0.8373  1.0395
 9279SOL    HW239300   2.189   1.984  12.339 -1.7627  0.6133  0.5881
 9280SOL     OW39301   3.999   0.240   3.955  0.0457 -0.0664 -0.1187
 9280SOL    HW139302   4.084   0.228   3.913 -0.4289 -0.2946 -1.0082
 9280SOL    HW239303   3.931   0.234   3.888 -0.0904  1.0173 -0.0656
 9281SOL     OW39304   2.112   0.483  11.004 -0.2614  0.1954  0.0579
 9281SOL    HW139305   2.026   0.510  10.971  0.1772  3.0657  1.2650
 9281SOL    HW239306   2.087   0.452  11.091 -1.5478 -1.1043 -0.7781
 9282SOL     OW39307   0.130   3.094   2.647 -0.7336 -0.0548 -0.1746
 9282SOL    HW139308   0.184   3.173   2.643 -0.8462  0.0655  0.6432
 9282SOL    HW239309   0.040   3.111   2.619 -0.1557 -0.5079 -2.3060
 9283SOL     OW39310   2.065   3.314   4.544  0.1699  0.2244 -0.3355
 9283SOL    HW139311   2.059   3.388   4.484  2.8845  1.2665  0.6579
 9283SOL    HW239312   2.084   3.248   4.477 -1.2765 -0.7027  0.1769
 9284SOL     OW39313   3.806   3.216   7.113  0.8235  0.1294 -0.6181
 9284SOL    HW139314   3.781   3.150   7.048 -1.4349  1.1225 -0.7617
 9284SOL    HW239315   3.845   3.281   7.054  3.4832  1.7410  2.8890
 9285SOL     OW39316   0.343   2.929   5.454 -0.1386 -0.1684  0.2471
 9285SOL    HW139317   0.347   2.873   5.377  1.7337  0.7522 -0.3396
 9285SOL    HW239318   0.384   2.869   5.516 -1.3839 -0.2479  0.9967
 9286SOL     OW39319   2.461   3.608   2.744  0.4569 -1.1550  0.4962
 9286SOL    HW139320   2.516   3.574   2.673  2.4030  2.4497  0.2559
 9286SOL    HW239321   2.529   3.627   2.809  0.5661  2.1668 -0.5592
 9287SOL     OW39322   1.519   3.696   7.952 -0.3675 -0.1531 -0.0528
 9287SOL    HW139323   1.437   3.746   7.954 -0.1034  0.3249 -1.0659
 9287SOL    HW239324   1.581   3.768   7.939  0.3826 -0.8466 -0.2657
 9288SOL     OW39325   1.757   0.830  14.768  0.3822  0.2147 -0.4509
 9288SOL    HW139326   1.759   0.782  14.850 -0.3295 -1.4079 -1.3767
 9288SOL    HW239327   1.675   0.804  14.725  0.3040  0.3082 -0.3570
 9289SOL     OW39328   0.784   1.416   7.198  0.6897  0.1373 -0.3520
 9289SOL    HW139329   0.758   1.452   7.114  0.2623 -0.8958 -0.6662
 9289SOL    HW239330   0.830   1.484   7.248 -1.2207  0.1137  1.4485
 9290SOL     OW39331   4.349   1.539   3.360  0.6568  0.2870 -0.0164
 9290SOL    HW139332   4.353   1.459   3.413  1.4320 -0.2104 -0.8288
 9290SOL    HW239333   4.421   1.588   3.399 -0.5654  1.5732  0.6675
 9291SOL     OW39334   2.577   4.362   4.062 -0.1676 -0.6768  0.3252
 9291SOL    HW139335   2.484   4.338   4.068 -1.0366  2.1366 -1.9378
 9291SOL    HW239336   2.615   4.337   4.146  1.3932  0.2191 -0.1143
 9292SOL     OW39337   2.821   0.259   7.872 -0.4130 -0.1536  0.0168
 9292SOL    HW139338   2.858   0.171   7.877  1.6949  0.7509  0.2249
 9292SOL    HW239339   2.890   0.320   7.898 -0.1455 -1.1118  1.5980
 9293SOL     OW39340   3.891   3.741   9.408  0.1498  0.0142  0.1086
 9293SOL    HW139341   3.959   3.726   9.342 -0.0169  3.0679 -0.7772
 9293SOL    HW239342   3.897   3.655   9.449  0.6854  0.3080  0.6584
 9294SOL     OW39343   1.738   2.633  14.014  0.2178  0.4313  0.0988
 9294SOL    HW139344   1.697   2.717  14.036 -2.6433  0.0828 -3.8219
 9294SOL    HW239345   1.826   2.637  14.051  0.0926  1.1394  0.3237
 9295SOL     OW39346   0.675   0.362  12.058  0.4925 -1.1859 -0.0705
 9295SOL    HW139347   0.650   0.279  12.097 -2.1863 -1.2565 -1.9464
 9295SOL    HW239348   0.759   0.379  12.101  2.0419 -0.6127 -3.2773
 9296SOL     OW39349   0.057   1.163   6.521  0.4733  0.5679  0.4693
 9296SOL    HW139350   0.114   1.092   6.495 -0.2959  0.0122  0.2942
 9296SOL    HW239351   0.123   1.196   6.582 -0.8350 -0.3307  2.3898
 9297SOL     OW39352   2.082   0.622   8.996 -0.2241 -0.4432 -0.0130
 9297SOL    HW139353   2.080   0.596   8.904 -1.9824 -0.1375 -0.0449
 9297SOL    HW239354   2.094   0.534   9.031  2.4353 -0.4633 -0.9546
 9298SOL     OW39355   1.199   0.476  10.430 -0.2519 -0.2447 -0.1819
 9298SOL    HW139356   1.200   0.419  10.353 -2.8963 -2.6137  1.5417
 9298SOL    HW239357   1.246   0.551  10.394  1.7388 -1.1601  0.5103
 9299SOL     OW39358   4.493   1.963   4.302 -0.1761  0.1856  0.2299
 9299SOL    HW139359   4.530   1.891   4.251  0.5217  0.9739 -0.3876
 9299SOL    HW239360   4.481   2.015   4.222  0.8721  2.4054  1.5080
 9300SOL     OW39361   2.416   0.717  14.083  0.3152  0.0337 -0.3535
 9300SOL    HW139362   2.488   0.658  14.062  2.4627  2.4379  0.2983
 9300SOL    HW239363   2.344   0.659  14.109 -0.8707  0.9220 -1.6488
 9301SOL     OW39364   0.228   3.733   4.608  0.4212 -0.1546 -0.2115
 9301SOL    HW139365   0.149   3.732   4.661  1.9913 -1.3193  2.0955
 9301SOL    HW239366   0.247   3.640   4.594 -1.5178 -0.9001  2.0467
 9302SOL     OW39367   2.425   0.952  11.662 -0.0753 -0.1161 -0.1662
 9302SOL    HW139368   2.370   1.021  11.626  1.3089  0.6812 -0.7479
 9302SOL    HW239369   2.354   0.894  11.690  0.2877 -1.3892 -1.8814
 9303SOL     OW39370   3.326   0.915   3.112  0.7384 -0.2150  0.1879
 9303SOL    HW139371   3.297   0.923   3.203 -1.3546  0.6773 -0.5707
 9303SOL    HW239372   3.321   1.002   3.074  2.8351  0.0669  0.5514
 9304SOL     OW39373   1.800   0.614   4.875 -0.0443  0.2348  0.2960
 9304SOL    HW139374   1.741   0.562   4.930  0.2826 -0.3349  0.1147
 9304SOL    HW239375   1.887   0.592   4.907 -0.3955  0.0616  1.1370
 9305SOL     OW39376   4.475   4.578  11.689  0.2137 -0.3654 -0.4576
 9305SOL    HW139377   4.547   4.597  11.749  0.5685  0.2526 -1.0888
 9305SOL    HW239378   4.528   4.531  11.625  0.3987  0.9137 -1.2334
 9306SOL     OW39379   1.877   1.036   8.539  0.3908  0.2212 -0.0489
 9306SOL    HW139380   1.789   1.064   8.514 -0.3906 -1.2923  1.0332
 9306SOL    HW239381   1.869   1.022   8.633 -0.1884  5.8486  0.7181
 9307SOL     OW39382   3.522   1.329   3.045 -0.3091 -0.0117 -0.7597
 9307SOL    HW139383   3.553   1.240   3.027  1.4731  0.3709  0.4193
 9307SOL    HW239384   3.482   1.355   2.962  1.0814  0.7588 -1.2000
 9308SOL     OW39385   3.553   3.360   8.273  0.5754  0.0851  0.3460
 9308SOL    HW139386   3.544   3.362   8.368  1.4381 -2.2408  0.4819
 9308SOL    HW239387   3.458   3.355   8.265  0.9682 -1.8223 -3.2350
 9309SOL     OW39388   0.095   1.497  16.000  0.0125  0.3628 -0.1792
 9309SOL    HW139389   0.106   1.454  16.085  1.7053  0.3045 -0.4161
 9309SOL    HW239390   0.127   1.439  15.930 -1.8691  0.2970 -0.9674
 9310SOL     OW39391   3.594   2.488   8.182  0.1356  0.2356 -0.1630
 9310SOL    HW139392   3.565   2.567   8.136  0.6551  0.9055  0.6695
 9310SOL    HW239393   3.688   2.481   8.163 -0.2707 -3.7853 -0.6557
 9311SOL     OW39394   0.570   3.006   1.596  0.3871  0.0651  0.4046
 9311SOL    HW139395   0.527   3.073   1.648  0.1584  0.2267  0.0067
 9311SOL    HW239396   0.496   2.962   1.554 -0.0796  0.1743  1.1131
 9312SOL     OW39397   2.491   1.983   6.999 -0.5149  0.2715  0.2335
 9312SOL    HW139398   2.418   1.940   7.042  0.9422 -0.4243  2.0058
 9312SOL    HW239399   2.500   2.064   7.049  1.2530  0.2456 -0.0246
 9313SOL     OW39400   1.352   0.920   0.905  0.3943  0.5354  0.8598
 9313SOL    HW139401   1.278   0.898   0.849 -0.4418  0.8926  1.8194
 9313SOL    HW239402   1.348   1.014   0.888  1.3249 -0.0955 -2.7324
 9314SOL     OW39403   2.143   0.852  17.133  0.0437 -0.3901 -0.4647
 9314SOL    HW139404   2.203   0.807  17.073  1.9279  2.0572 -0.4493
 9314SOL    HW239405   2.078   0.870  17.065  1.5232 -1.0018 -2.0531
 9315SOL     OW39406   1.518   0.805   7.501 -1.0524  0.0708  0.0879
 9315SOL    HW139407   1.472   0.886   7.479  4.7382  3.2656  0.0322
 9315SOL    HW239408   1.591   0.854   7.538 -0.7907  0.7023 -1.2763
 9316SOL     OW39409   1.995   3.933   7.773  0.1252 -0.2364 -0.7088
 9316SOL    HW139410   2.061   3.947   7.841 -1.1350  0.3470  0.4046
 9316SOL    HW239411   1.943   3.866   7.817  2.0716  0.2712  2.3156
 9317SOL     OW39412   3.523   3.070   7.525  0.0123 -0.0403  0.0776
 9317SOL    HW139413   3.611   3.108   7.527  0.1915 -0.5127  1.3453
 9317SOL    HW239414   3.533   3.011   7.600  2.7441 -0.0901 -0.3321
 9318SOL     OW39415   2.692   1.031   3.891  0.3920  0.0333 -0.2604
 9318SOL    HW139416   2.728   1.003   3.807  0.7276 -0.2875 -0.0093
 9318SOL    HW239417   2.605   1.062   3.865  0.3879  0.7357  0.5900
 9319SOL     OW39418   2.120   0.181   6.039  0.1172  0.3700  0.3188
 9319SOL    HW139419   2.036   0.135   6.047  0.5546 -0.2323  1.4747
 9319SOL    HW239420   2.119   0.200   6.133  1.2694  1.9233  0.0143
 9320SOL     OW39421   2.369   0.512   0.772 -0.1581 -0.6318  0.0740
 9320SOL    HW139422   2.387   0.499   0.865 -0.4781  0.5886  0.3106
 9320SOL    HW239423   2.285   0.467   0.767  0.2246 -1.1481 -1.5982
 9321SOL     OW39424   1.821   3.190   5.954  0.3328 -0.5071  0.6868
 9321SOL    HW139425   1.776   3.106   5.968 -1.4992 -0.0430 -2.5510
 9321SOL    HW239426   1.884   3.175   5.884 -1.2476  0.0288 -0.8199
 9322SOL     OW39427   4.468   4.570   2.332  0.2534  1.2843 -0.3995
 9322SOL    HW139428   4.374   4.588   2.336  0.5463  2.7934 -0.3890
 9322SOL    HW239429   4.512   4.647   2.295 -0.0346  1.8661  0.4672
 9323SOL     OW39430   0.097   2.392  10.921 -0.3402  0.0751 -0.0007
 9323SOL    HW139431   0.171   2.420  10.975  1.0390  0.5978 -2.1615
 9323SOL    HW239432   0.096   2.297  10.926 -0.7085  0.2317  3.0186
 9324SOL     OW39433   3.784   3.100   8.308  0.6327  0.4554 -0.4487
 9324SOL    HW139434   3.704   3.136   8.270 -1.6056 -0.8906  3.0092
 9324SOL    HW239435   3.743   3.051   8.379  3.2254 -1.2922 -0.1518
 9325SOL     OW39436   2.442   1.445   5.300  0.1465  0.0489 -0.5010
 9325SOL    HW139437   2.482   1.359   5.315  2.2341  1.4529  2.0200
 9325SOL    HW239438   2.348   1.433   5.313  0.1804 -0.3561 -0.6251
 9326SOL     OW39439   4.381   0.073   4.390 -0.2924 -0.1732 -0.5669
 9326SOL    HW139440   4.355   4.704   4.411  0.0717 -0.2006 -0.2228
 9326SOL    HW239441   4.452   0.072   4.454 -0.4347  1.2636 -0.3876
 9327SOL     OW39442   2.282   4.318   2.894  0.1777  0.4601 -0.1925
 9327SOL    HW139443   2.369   4.346   2.922  0.8614  0.4195 -2.2812
 9327SOL    HW239444   2.293   4.314   2.799 -0.7157  1.2294 -0.3243
 9328SOL     OW39445   0.525   0.194   2.618 -0.5079  0.1191 -0.3341
 9328SOL    HW139446   0.567   0.176   2.534  0.0839  1.7891 -0.3812
 9328SOL    HW239447   0.434   0.187   2.591 -0.4634 -1.8396 -0.0154
 9329SOL     OW39448   4.270   4.575   1.620 -0.2934 -0.2885  0.1491
 9329SOL    HW139449   4.236   4.602   1.535  1.3800 -0.8917 -0.7242
 9329SOL    HW239450   4.232   4.488   1.635  0.9934 -0.2423  3.7589
 9330SOL     OW39451   3.225   2.710  15.170 -0.0156 -0.6195  0.8654
 9330SOL    HW139452   3.264   2.625  15.151 -1.9523 -1.4153  0.5114
 9330SOL    HW239453   3.251   2.710  15.262 -0.4531 -0.6059  0.9911
 9331SOL     OW39454   2.565   0.287   6.879 -0.2035 -0.2998 -0.1753
 9331SOL    HW139455   2.612   0.303   6.797  0.0298 -1.9805 -0.3723
 9331SOL    HW239456   2.490   0.346   6.879 -0.6646 -0.8798  1.2423
 9332SOL     OW39457   2.171   3.001   4.373  0.6089  0.2113 -0.6869
 9332SOL    HW139458   2.085   3.010   4.330  1.2283 -0.5827 -2.0780
 9332SOL    HW239459   2.168   2.918   4.420 -0.7486  1.9877  2.3900
 9333SOL     OW39460   2.152   0.601  15.162 -0.5616 -0.0771  0.1706
 9333SOL    HW139461   2.145   0.658  15.086  0.7481  0.9677  0.8326
 9333SOL    HW239462   2.067   0.602  15.207 -0.1332 -0.6746  0.9880
 9334SOL     OW39463   1.601   2.405   7.848  0.4176  0.2635 -0.4046
 9334SOL    HW139464   1.566   2.492   7.830 -0.1656  0.1935  0.3626
 9334SOL    HW239465   1.661   2.421   7.921  0.9956 -0.5156 -0.7196
 9335SOL     OW39466   0.134   0.577   3.873 -0.4787  0.3758  0.0714
 9335SOL    HW139467   0.187   0.548   3.799  0.7367 -1.6515  1.7316
 9335SOL    HW239468   0.192   0.647   3.901 -0.0935  1.1509 -2.7451
 9336SOL     OW39469   3.345   3.039   3.287 -0.1556 -0.0550  0.4781
 9336SOL    HW139470   3.439   3.021   3.287  0.6327  3.9957 -1.4614
 9336SOL    HW239471   3.329   3.062   3.196 -0.4022  2.4659  1.1477
 9337SOL     OW39472   3.734   2.004   1.931  0.3761  0.4399  0.1197
 9337SOL    HW139473   3.697   2.025   1.846 -0.8678 -2.2153 -0.0039
 9337SOL    HW239474   3.719   1.909   1.930 -1.1781  0.6641  2.2614
 9338SOL     OW39475   1.465   1.458   8.944  0.0717 -0.5114  0.3853
 9338SOL    HW139476   1.382   1.497   8.969  0.6039  0.2887  0.9002
 9338SOL    HW239477   1.451   1.379   8.997 -0.0595 -0.5399  0.3080
 9339SOL     OW39478   1.276   1.073   2.126  0.4639 -0.2829  0.0599
 9339SOL    HW139479   1.257   0.980   2.116 -0.3838  0.0823 -1.6478
 9339SOL    HW239480   1.240   1.095   2.212 -0.0804  1.6502 -0.6586
 9340SOL     OW39481   2.397   2.822   7.435  1.2088 -0.0838 -0.1038
 9340SOL    HW139482   2.395   2.781   7.521  0.7125 -2.9362 -1.4972
 9340SOL    HW239483   2.304   2.818   7.413  1.3512 -1.9044 -0.3378
 9341SOL     OW39484   1.427   2.759   0.573 -0.2226 -0.4712  0.1664
 9341SOL    HW139485   1.464   2.768   0.660  1.0639  3.2658 -0.7780
 9341SOL    HW239486   1.335   2.755   0.601 -0.6686 -1.7102 -1.4278
 9342SOL     OW39487   2.026   3.171   2.421 -0.2503  0.2635  0.0438
 9342SOL    HW139488   1.983   3.215   2.348  0.0848 -2.5025 -1.8072
 9342SOL    HW239489   2.016   3.241   2.486 -0.7896 -1.3391  1.6899
 9343SOL     OW39490   1.271   3.660   7.561  0.1368 -0.0833 -0.3750
 9343SOL    HW139491   1.256   3.727   7.628  1.8782  0.2433 -0.3166
 9343SOL    HW239492   1.284   3.590   7.625 -1.2882  0.8553  0.9484
 9344SOL     OW39493   2.672   2.551   7.947 -0.0116  0.3980  0.4293
 9344SOL    HW139494   2.620   2.589   7.876 -0.2460  1.0139  0.9424
 9344SOL    HW239495   2.679   2.459   7.919 -1.3461  0.7671 -1.1279
 9345SOL     OW39496   2.422   2.276  13.552 -0.7072 -0.4238 -0.0568
 9345SOL    HW139497   2.421   2.369  13.573  0.5917 -0.6862  1.0788
 9345SOL    HW239498   2.327   2.270  13.535 -0.3753 -2.6398 -1.2360
 9346SOL     OW39499   3.573   0.565  17.302 -0.4622 -0.3166 -0.0449
 9346SOL    HW139500   3.596   0.565  17.209  0.9635  0.1297  0.2988
 9346SOL    HW239501   3.479   0.548  17.296 -0.2055 -2.3661  1.6717
 9347SOL     OW39502   3.154   2.156   7.831  0.2856  0.1188 -0.2197
 9347SOL    HW139503   3.108   2.131   7.751 -0.0704 -1.9805  0.6514
 9347SOL    HW239504   3.138   2.083   7.891 -2.5836  1.2282  0.3680
 9348SOL     OW39505   2.830   2.312  14.875  0.0440  0.2857 -0.3344
 9348SOL    HW139506   2.863   2.398  14.850  2.0833 -0.0924  1.1103
 9348SOL    HW239507   2.813   2.325  14.968  0.0059 -0.9896 -0.1686
 9349SOL     OW39508   2.410   4.089  11.416  0.8554  0.1194  0.3558
 9349SOL    HW139509   2.469   4.026  11.456 -0.4925 -1.4616 -0.1162
 9349SOL    HW239510   2.456   4.170  11.436  0.1786  0.2080  1.5282
 9350SOL     OW39511   0.047   1.850   8.994 -0.2618  0.4746 -0.1788
 9350SOL    HW139512   4.677   1.849   9.025 -1.2441 -0.7752 -3.1175
 9350SOL    HW239513   0.082   1.939   9.003  0.6325  0.1943 -1.0274
 9351SOL     OW39514   0.404   0.453   5.460 -0.1359 -0.1881  0.2492
 9351SOL    HW139515   0.360   0.427   5.542  3.1605 -2.2119  1.3780
 9351SOL    HW239516   0.380   0.545   5.454  2.8814  0.5226 -0.7765
 9352SOL     OW39517   2.964   0.024   7.404  0.4672  0.0573  0.4463
 9352SOL    HW139518   3.058   0.043   7.410  0.9466 -2.1275 -0.0151
 9352SOL    HW239519   2.971   4.651   7.386 -1.7503 -0.3152  1.5908
 9353SOL     OW39520   0.920   4.396   4.357 -0.4791  0.3990 -0.3811
 9353SOL    HW139521   0.852   4.364   4.298 -0.9007  3.6421 -1.6739
 9353SOL    HW239522   1.000   4.384   4.306 -1.3366 -0.5446 -1.5117
 9354SOL     OW39523   3.322   3.523   7.925 -0.1999  0.4530  0.1275
 9354SOL    HW139524   3.242   3.571   7.907 -1.3700 -1.9926 -1.2755
 9354SOL    HW239525   3.321   3.512   8.020 -0.8252 -1.3172 -0.0846
 9355SOL     OW39526   0.769   0.829   4.623 -0.3194 -0.0901  0.4402
 9355SOL    HW139527   0.731   0.770   4.558  0.5512 -0.8112  0.5944
 9355SOL    HW239528   0.731   0.911   4.593 -1.2574 -0.7908 -0.2685
 9356SOL     OW39529   2.120   0.584   0.200 -0.0937  0.4195 -0.0356
 9356SOL    HW139530   2.149   0.645   0.132 -0.2869 -0.0033 -0.4967
 9356SOL    HW239531   2.166   0.618   0.278 -0.8914  0.6996  0.3088
 9357SOL     OW39532   1.042   0.661   8.170  0.2869 -0.0482  0.3590
 9357SOL    HW139533   1.125   0.701   8.142 -0.3643  2.6964  2.3592
 9357SOL    HW239534   0.974   0.714   8.127  0.0827 -1.4285 -1.0242
 9358SOL     OW39535   3.101   0.464   5.192 -0.2713 -0.2898 -0.7144
 9358SOL    HW139536   3.126   0.373   5.174 -0.1828 -0.1432 -1.3566
 9358SOL    HW239537   3.130   0.471   5.283  0.8494  1.6012 -1.2191
 9359SOL     OW39538   2.173   2.540   2.767  0.1842  0.1654 -0.9655
 9359SOL    HW139539   2.170   2.571   2.677  4.8256  2.5120 -0.3165
 9359SOL    HW239540   2.258   2.572   2.797 -0.1203 -0.3298  0.4366
 9360SOL     OW39541   0.691   0.280   5.731  0.2205  0.3972  0.0280
 9360SOL    HW139542   0.743   0.277   5.811 -0.1520  0.7381  0.2869
 9360SOL    HW239543   0.686   0.190   5.701 -1.5868  0.1233  1.1393
 9361SOL     OW39544   3.806   3.933  12.082  0.3014  0.3973  0.1186
 9361SOL    HW139545   3.830   3.921  12.174 -1.7534  1.0610  0.7636
 9361SOL    HW239546   3.813   3.844  12.049  3.8585  0.8215 -0.2502
 9362SOL     OW39547   4.435   4.535   1.062 -0.3832  0.8269 -0.3331
 9362SOL    HW139548   4.501   4.498   1.004  0.7203  0.0403  1.4240
 9362SOL    HW239549   4.432   4.479   1.139  0.2678  1.7350  0.3611
 9363SOL     OW39550   2.638   1.985   1.194  0.7054 -0.0542  0.0587
 9363SOL    HW139551   2.634   2.051   1.124  0.4887 -1.1741 -0.9858
 9363SOL    HW239552   2.636   1.901   1.148  0.6522  1.0638 -2.0204
 9364SOL     OW39553   0.017   1.444  14.947  0.4713 -0.0929  0.7904
 9364SOL    HW139554   0.099   1.492  14.959  0.3704  0.6327 -1.4914
 9364SOL    HW239555   0.049   1.353  14.945 -0.5027 -0.4426  1.3197
 9365SOL     OW39556   0.133   0.245   9.080  0.2262  0.0791  0.4911
 9365SOL    HW139557   0.106   0.175   9.020  0.0485 -0.1771  0.8641
 9365SOL    HW239558   0.074   0.222   9.152 -0.0068  0.0843  0.3034
 9366SOL     OW39559   0.481   3.725   3.233 -0.0386 -0.1478  0.1158
 9366SOL    HW139560   0.522   3.737   3.148 -3.3773  1.8250 -1.2166
 9366SOL    HW239561   0.554   3.752   3.288  0.2288 -1.5231  0.4239
 9367SOL     OW39562   1.928   0.550   6.305  0.2070  0.1450 -0.2618
 9367SOL    HW139563   1.947   0.594   6.222  0.9557 -0.0053 -0.1672
 9367SOL    HW239564   1.959   0.469   6.263  0.2752  0.1194 -0.1616
 9368SOL     OW39565   4.421   1.274   2.724 -0.0348 -0.3262  0.1737
 9368SOL    HW139566   4.343   1.247   2.676  1.3285 -2.0791 -1.0834
 9368SOL    HW239567   4.479   1.198   2.713  1.0880  0.5646 -0.0600
 9369SOL     OW39568   1.361   3.579   8.405  0.0075  0.4106 -0.3529
 9369SOL    HW139569   1.447   3.542   8.385 -0.5022 -1.1432  0.3545
 9369SOL    HW239570   1.326   3.506   8.456 -1.1919 -0.5912 -2.6176
 9370SOL     OW39571   4.406   3.360   6.297 -0.0600 -0.3665 -0.0341
 9370SOL    HW139572   4.436   3.415   6.224  0.9150 -1.6075 -0.5625
 9370SOL    HW239573   4.329   3.313   6.266 -0.4789  0.2821  0.0155
 9371SOL     OW39574   4.536   2.274   1.595 -0.8103  0.4789 -0.4963
 9371SOL    HW139575   4.462   2.257   1.653 -0.8301  1.2371 -0.2979
 9371SOL    HW239576   4.554   2.368   1.601 -2.4165  0.7380  0.2100
 9372SOL     OW39577   0.064   2.138   8.894 -0.8668  0.2106 -0.1720
 9372SOL    HW139578   0.013   2.088   8.831 -1.4927 -0.9605  1.2642
 9372SOL    HW239579   0.028   2.225   8.875  0.6945  0.2992 -2.7288
 9373SOL     OW39580   3.297   3.071  15.113 -0.4952 -0.4006  0.5835
 9373SOL    HW139581   3.288   3.154  15.159  0.2435  0.8283 -1.4813
 9373SOL    HW239582   3.376   3.042  15.158 -0.0567 -1.2592 -0.7375
 9374SOL     OW39583   0.417   3.111   4.323 -0.4833 -0.4242 -0.4089
 9374SOL    HW139584   0.402   3.202   4.297  2.0493  0.5370  1.5099
 9374SOL    HW239585   0.403   3.125   4.417  2.3009 -0.6349  0.0459
 9375SOL     OW39586   0.042   2.593   7.465  0.3069 -0.5380  0.0542
 9375SOL    HW139587   0.021   2.541   7.387 -0.0278 -1.6864  0.9029
 9375SOL    HW239588   0.028   2.682   7.434  0.6925 -0.0859  1.1911
 9376SOL     OW39589   1.074   0.463  11.091  0.2190 -0.8373 -0.4090
 9376SOL    HW139590   1.058   0.507  11.008 -1.4185  0.0490  0.3812
 9376SOL    HW239591   1.081   0.373  11.060 -0.6883 -1.3591  0.9181
 9377SOL     OW39592   1.831   3.666   7.497  0.0355 -0.5050  0.5296
 9377SOL    HW139593   1.850   3.573   7.513 -0.6317 -0.6088  0.7210
 9377SOL    HW239594   1.850   3.664   7.404 -1.3109 -0.8888  0.2597
 9378SOL     OW39595   0.817   0.628   5.747  0.7187 -0.0747 -0.4648
 9378SOL    HW139596   0.795   0.571   5.673  1.1217 -2.0227  0.9171
 9378SOL    HW239597   0.880   0.574   5.795 -1.2790 -0.6272  1.5317
 9379SOL     OW39598   0.648   2.302   2.676  0.1130 -0.0563  0.1355
 9379SOL    HW139599   0.604   2.296   2.761  0.1934  0.3038  0.2014
 9379SOL    HW239600   0.608   2.384   2.648  2.9196  1.5652  0.8773
 9380SOL     OW39601   2.187   2.661   2.534  0.3391 -0.1663  0.6818
 9380SOL    HW139602   2.113   2.622   2.487  1.3086 -0.4271 -0.6487
 9380SOL    HW239603   2.159   2.751   2.553  1.5686  0.5466 -0.8268
 9381SOL     OW39604   3.853   0.378   7.355 -0.0151 -0.2260  0.2950
 9381SOL    HW139605   3.884   0.360   7.444  0.3621  0.8780  0.3877
 9381SOL    HW239606   3.803   0.460   7.353  1.2528  0.5470  0.3461
 9382SOL     OW39607   0.784   3.044   6.349 -0.5132  0.2365  0.1170
 9382SOL    HW139608   0.823   2.996   6.276  2.2160  2.8631 -0.1940
 9382SOL    HW239609   0.841   3.120   6.365  1.1920 -1.2490  1.1980
 9383SOL     OW39610   4.563   0.965   3.696  0.0001  0.4941 -0.0009
 9383SOL    HW139611   4.500   0.909   3.650  0.4927  0.5371 -0.7352
 9383SOL    HW239612   4.593   1.020   3.623 -0.4355  1.5886  0.6390
 9384SOL     OW39613   0.821   0.543   8.311 -0.1805  0.2884  0.1247
 9384SOL    HW139614   0.905   0.560   8.267 -0.4318  0.6581 -0.2200
 9384SOL    HW239615   0.847   0.465   8.359 -0.5245 -0.3133 -0.6671
 9385SOL     OW39616   0.332   4.358   5.806 -0.0838  0.3376  0.3954
 9385SOL    HW139617   0.272   4.412   5.856 -0.5114 -0.5329  0.8218
 9385SOL    HW239618   0.275   4.319   5.741 -0.2519  0.4482  0.4781
 9386SOL     OW39619   2.906   4.471   7.231 -0.3570 -0.3888  0.4382
 9386SOL    HW139620   2.816   4.491   7.206 -0.6668 -1.8703  0.3792
 9386SOL    HW239621   2.906   4.382   7.267  2.7560  0.0271  1.4634
 9387SOL     OW39622   3.310   3.524  15.179  0.0132 -0.1453  0.1320
 9387SOL    HW139623   3.391   3.568  15.206  0.0570  0.5221 -1.1285
 9387SOL    HW239624   3.256   3.596  15.213 -0.3913 -0.0584 -0.7000
 9388SOL     OW39625   1.903   0.533  11.265 -0.0203  0.0074 -0.3443
 9388SOL    HW139626   1.876   0.512  11.355  0.2877  1.0028 -0.0235
 9388SOL    HW239627   1.970   0.465  11.256 -0.2879 -0.3082  0.0161
 9389SOL     OW39628   0.303   3.261   6.061  0.1580 -0.0727 -0.2031
 9389SOL    HW139629   0.224   3.216   6.090  0.6179 -0.5419  0.3237
 9389SOL    HW239630   0.338   3.186   6.012 -1.1189 -1.2800  0.7355
 9390SOL     OW39631   2.057   0.577   4.677 -0.1225  0.2400  0.1636
 9390SOL    HW139632   2.039   0.484   4.696  1.9645 -0.7145 -2.5090
 9390SOL    HW239633   2.085   0.615   4.761  2.2978 -2.4795  0.6229
 9391SOL     OW39634   2.326   4.341   2.577  0.1211 -0.3117  0.2081
 9391SOL    HW139635   2.279   4.267   2.540  2.1952 -1.9013  0.7764
 9391SOL    HW239636   2.406   4.295   2.601  0.6956  0.5322 -0.0768
 9392SOL     OW39637   3.357   2.757  15.898  0.6385  0.2356  0.6332
 9392SOL    HW139638   3.334   2.846  15.873 -0.6361 -0.2375  0.1624
 9392SOL    HW239639   3.346   2.708  15.817 -3.3802  0.5157  1.0197
 9393SOL     OW39640   3.804   2.905   5.223  0.0156 -0.6482  0.0859
 9393SOL    HW139641   3.740   2.834   5.231  1.1402 -1.6458  0.3769
 9393SOL    HW239642   3.773   2.956   5.149 -0.2189 -1.0413 -0.0873
 9394SOL     OW39643   2.910   3.889   1.045  0.4430 -0.0618  0.2914
 9394SOL    HW139644   2.998   3.918   1.067  0.2752 -0.1788  1.1215
 9394SOL    HW239645   2.886   3.947   0.972 -2.8244  1.1892  2.3299
 9395SOL     OW39646   4.040   1.470   4.328 -0.4289 -0.5678 -0.1704
 9395SOL    HW139647   3.993   1.430   4.401  0.0209 -0.2399  0.3014
 9395SOL    HW239648   3.980   1.539   4.300  1.6873  1.1304 -0.5001
 9396SOL     OW39649   0.835   3.707   0.192 -0.2707 -0.5023 -0.3719
 9396SOL    HW139650   0.895   3.721   0.119  0.0244 -1.6530 -0.3411
 9396SOL    HW239651   0.749   3.709   0.152 -0.1435 -1.6157 -0.6906
 9397SOL     OW39652   1.279   4.414  10.316  0.0026 -0.6756  0.3588
 9397SOL    HW139653   1.223   4.351  10.362  1.7979 -3.0610 -0.7273
 9397SOL    HW239654   1.248   4.414  10.225  0.3285 -2.4901  0.2440
 9398SOL     OW39655   0.002   1.544  10.244  0.2419 -0.0892  0.1304
 9398SOL    HW139656   4.680   1.459  10.257  0.9084 -0.3439  0.6977
 9398SOL    HW239657   0.094   1.518  10.237  0.4304  0.9627 -1.2332
 9399SOL     OW39658   4.236   2.631   4.227  0.2530  0.0416 -0.6053
 9399SOL    HW139659   4.217   2.724   4.212  0.6098  0.1666 -0.2799
 9399SOL    HW239660   4.329   2.621   4.208  0.3261  2.6400 -1.6473
 9400SOL     OW39661   0.886   0.333   8.446 -0.2179 -0.2616 -0.3098
 9400SOL    HW139662   0.907   0.297   8.533 -1.7709  2.7385  1.2938
 9400SOL    HW239663   0.909   0.255   8.396  2.0787 -0.5115  1.1378
 9401SOL     OW39664   0.223   4.307   4.603 -0.2068  0.2507  0.1455
 9401SOL    HW139665   0.296   4.257   4.638 -1.1317  0.3015  2.1281
 9401SOL    HW239666   0.265   4.390   4.579  1.2803 -0.5330 -0.0073
 9402SOL     OW39667   0.841   3.595  11.514 -0.2912 -0.3918 -0.4104
 9402SOL    HW139668   0.874   3.671  11.561  0.6608  0.1628 -1.9439
 9402SOL    HW239669   0.871   3.525  11.572 -2.5799 -1.1917 -0.1571
 9403SOL     OW39670   1.975   3.445   9.897  0.1716  0.4723  0.2056
 9403SOL    HW139671   1.898   3.466   9.845  0.6723 -0.5262 -0.9595
 9403SOL    HW239672   1.952   3.471   9.986  1.0797 -0.1353  0.6298
 9404SOL     OW39673   2.181   0.875   9.062  0.1314 -0.1417 -0.2144
 9404SOL    HW139674   2.142   0.792   9.036  2.4069 -1.0079 -0.8988
 9404SOL    HW239675   2.128   0.896   9.138 -0.3298 -0.7654 -0.3741
 9405SOL     OW39676   0.960   1.663  12.695 -0.5705 -0.4104 -0.1053
 9405SOL    HW139677   1.050   1.643  12.668 -1.1918 -3.5044  0.2152
 9405SOL    HW239678   0.981   1.750  12.729 -1.8437  0.3640 -1.3123
 9406SOL     OW39679   3.616   1.949  10.824 -0.1193  0.4262  0.3108
 9406SOL    HW139680   3.648   1.874  10.874  0.0586 -0.1751 -0.7095
 9406SOL    HW239681   3.643   1.929  10.735 -2.3918  0.0684 -0.2861
 9407SOL     OW39682   0.156   3.697   0.428  0.0052 -0.1929  0.1928
 9407SOL    HW139683   0.193   3.608   0.429  0.2035 -0.0914  1.5729
 9407SOL    HW239684   0.212   3.743   0.365 -1.5637  2.0105  0.4090
 9408SOL     OW39685   2.579   2.059  13.490 -1.1174 -0.1602  0.1672
 9408SOL    HW139686   2.587   2.024  13.578  2.1124  0.6392  0.2019
 9408SOL    HW239687   2.533   2.139  13.515 -0.0014  0.8779 -1.0749
 9409SOL     OW39688   0.015   2.426  16.650  0.3893 -0.1463 -0.4403
 9409SOL    HW139689   0.034   2.333  16.662  0.4921 -0.1271 -0.4524
 9409SOL    HW239690   4.698   2.433  16.562  1.5575  1.2253 -0.8294
 9410SOL     OW39691   2.223   2.241  16.111 -0.0466 -0.0320  0.1595
 9410SOL    HW139692   2.268   2.197  16.184 -0.9434  0.5123  1.0300
 9410SOL    HW239693   2.205   2.168  16.052 -0.7673  0.1268  0.1886
 9411SOL     OW39694   0.997   0.493  16.588  0.0466  0.0541 -0.2477
 9411SOL    HW139695   1.048   0.413  16.604  0.9084  0.3083 -1.6681
 9411SOL    HW239696   0.915   0.456  16.554  1.9531 -1.4954 -3.2617
 9412SOL     OW39697   2.777   0.015   6.242  0.1238  0.1807 -0.2334
 9412SOL    HW139698   2.797   0.083   6.306  1.8683 -1.7244  1.2702
 9412SOL    HW239699   2.683   0.030   6.237  0.1113  0.3833  0.5925
 9413SOL     OW39700   4.475   1.279   4.211  0.6702 -0.6805 -0.2450
 9413SOL    HW139701   4.490   1.213   4.278  0.5657  0.1997  0.6555
 9413SOL    HW239702   4.385   1.257   4.186  1.1994  0.1383 -2.8899
 9414SOL     OW39703   4.212   3.656   4.978 -0.2979  0.1847  0.2193
 9414SOL    HW139704   4.222   3.744   4.944  2.2358  0.0620  0.6725
 9414SOL    HW239705   4.131   3.657   5.029 -0.9433 -0.6723 -0.7903
 9415SOL     OW39706   0.177   0.301   2.759  0.2945  0.0729 -0.2084
 9415SOL    HW139707   0.133   0.235   2.812 -1.9584  1.3102 -0.5378
 9415SOL    HW239708   0.229   0.339   2.829 -1.0405 -0.7932  1.2569
 9416SOL     OW39709   1.508   0.697   8.446 -0.0892  0.0004 -0.7127
 9416SOL    HW139710   1.560   0.748   8.508  0.7698 -2.4026  0.5532
 9416SOL    HW239711   1.502   0.763   8.377 -1.0585 -0.2133 -0.8381
 9417SOL     OW39712   0.067   3.297   4.971 -0.1349  0.4723  0.0337
 9417SOL    HW139713   4.704   3.298   5.018  0.8311 -0.1216  1.7897
 9417SOL    HW239714   0.040   3.262   4.887  2.1533 -0.4037 -0.3210
 9418SOL     OW39715   1.636   2.896   3.103 -0.3490  0.5904 -0.2273
 9418SOL    HW139716   1.666   2.805   3.105  0.2135  0.8043  1.2550
 9418SOL    HW239717   1.705   2.943   3.151 -1.2875  1.6596  0.0723
 9419SOL     OW39718   1.147   3.632  17.480  0.2443  0.5242  0.2776
 9419SOL    HW139719   1.210   3.562  17.461 -1.1204 -0.6210 -0.0036
 9419SOL    HW239720   1.158   3.690  17.405 -2.2423  2.2462  1.2524
 9420SOL     OW39721   1.291   1.844   1.037 -0.4406 -0.3872 -0.4144
 9420SOL    HW139722   1.345   1.923   1.028 -0.1994 -0.3093  1.7194
 9420SOL    HW239723   1.300   1.807   0.949  1.5566  0.3585 -0.5314
 9421SOL     OW39724   2.875   3.597  12.003 -0.0345  0.3777  0.1032
 9421SOL    HW139725   2.849   3.671  12.058  0.2821 -0.0271  0.7867
 9421SOL    HW239726   2.936   3.553  12.062  0.0188  0.1604 -0.1114
 9422SOL     OW39727   0.988   3.518   3.594 -0.0786 -0.3203 -0.3527
 9422SOL    HW139728   1.034   3.436   3.612  0.0457  0.2401  1.8662
 9422SOL    HW239729   0.984   3.558   3.681 -0.6800 -1.0703 -0.0367
 9423SOL     OW39730   3.311   2.667   9.124  0.6377  0.7548 -0.8620
 9423SOL    HW139731   3.384   2.610   9.102 -0.5496 -1.6235  1.4452
 9423SOL    HW239732   3.296   2.638   9.214 -2.5274  0.9724 -1.3128
 9424SOL     OW39733   3.604   3.965  13.668  0.1319  0.1310 -0.1944
 9424SOL    HW139734   3.539   3.923  13.724 -0.5937  0.0080 -1.1212
 9424SOL    HW239735   3.676   3.980  13.729 -1.3511 -0.3353  1.6584
 9425SOL     OW39736   2.187   3.869   0.245 -0.4519  0.4737 -0.0413
 9425SOL    HW139737   2.134   3.836   0.318  0.9756 -0.0355  0.7707
 9425SOL    HW239738   2.223   3.785   0.218  0.6587  1.0516 -0.3513
 9426SOL     OW39739   0.528   3.184   2.170 -0.2826  0.0898  0.5164
 9426SOL    HW139740   0.437   3.161   2.187 -0.7385  0.6476 -1.1669
 9426SOL    HW239741   0.529   3.276   2.197 -1.1280  0.7115 -1.5744
 9427SOL     OW39742   3.500   2.386  16.580  0.1021 -0.2905  0.2315
 9427SOL    HW139743   3.577   2.419  16.626  1.0315  1.0762 -2.3128
 9427SOL    HW239744   3.439   2.459  16.593 -1.4303 -1.8153  1.6182
 9428SOL     OW39745   3.846   1.830   9.283  0.4973  0.1842  0.3426
 9428SOL    HW139746   3.895   1.911   9.299  0.8897  0.1297 -0.5665
 9428SOL    HW239747   3.772   1.851   9.226  0.1879  3.4858  1.9714
 9429SOL     OW39748   0.454   3.811   5.049 -0.5202  0.5033  0.2413
 9429SOL    HW139749   0.365   3.845   5.041 -0.8505 -0.3529  0.2477
 9429SOL    HW239750   0.471   3.770   4.964 -0.2800 -0.4110  0.7317
 9430SOL     OW39751   0.783   3.328   4.427 -0.0449  0.0076 -0.7789
 9430SOL    HW139752   0.766   3.242   4.466  0.8751 -1.1169 -2.8274
 9430SOL    HW239753   0.704   3.378   4.448  0.1465 -0.3836  0.8368
 9431SOL     OW39754   0.881   2.235  11.535  0.0479 -0.1592 -0.1465
 9431SOL    HW139755   0.966   2.264  11.502  0.0865  1.8276  1.6528
 9431SOL    HW239756   0.846   2.312  11.579 -1.2442 -1.1005  0.4795
 9432SOL     OW39757   3.873   0.315   2.342  0.7339 -0.3893 -0.2759
 9432SOL    HW139758   3.796   0.259   2.354  1.6734 -1.9107 -1.4221
 9432SOL    HW239759   3.835   0.392   2.298 -0.2395 -1.1228 -0.7231
 9433SOL     OW39760   3.625   4.680   4.145 -0.8661  0.1593  0.3347
 9433SOL    HW139761   3.539   4.683   4.104  0.3439  1.0715 -2.1154
 9433SOL    HW239762   3.685   4.681   4.071  0.7843  2.1759  1.6860
 9434SOL     OW39763   2.883   2.887   0.560 -0.0676 -0.0094  0.1784
 9434SOL    HW139764   2.850   2.918   0.475  0.6829  0.5538  0.0989
 9434SOL    HW239765   2.976   2.898   0.543 -0.3173 -0.5088 -1.5872
 9435SOL     OW39766   1.832   4.166   8.935 -0.5066  0.1856  0.7092
 9435SOL    HW139767   1.784   4.249   8.936  0.1477  0.5729 -0.1384
 9435SOL    HW239768   1.810   4.135   8.847  1.2276 -0.6238  0.5643
 9436SOL     OW39769   3.228   2.978   0.151 -0.2178  0.1146 -1.0388
 9436SOL    HW139770   3.206   3.016   0.236 -2.9212 -1.9898 -0.7533
 9436SOL    HW239771   3.296   2.917   0.178 -0.7151 -0.2938 -0.6961
 9437SOL     OW39772   2.932   2.188   8.725 -0.1024  1.0512  0.0752
 9437SOL    HW139773   2.852   2.146   8.757  0.1325  0.3848 -0.2082
 9437SOL    HW239774   2.929   2.274   8.767  0.8889  1.0106  0.2375
 9438SOL     OW39775   3.100   0.798   8.431 -0.3294  0.3661  0.1809
 9438SOL    HW139776   3.143   0.717   8.459 -0.4673 -0.0946 -0.9633
 9438SOL    HW239777   3.113   0.844   8.515  1.1305 -2.0440  1.2599
 9439SOL     OW39778   4.519   0.818   6.176  0.2890  0.2055  0.4466
 9439SOL    HW139779   4.444   0.762   6.191 -0.2668  0.9091  0.3155
 9439SOL    HW239780   4.479   0.890   6.126 -0.4508  1.1951  2.4197
 9440SOL     OW39781   4.484   0.566   3.486 -0.2237  0.2042  0.2673
 9440SOL    HW139782   4.439   0.650   3.480  0.8082  0.7037 -0.4412
 9440SOL    HW239783   4.575   0.594   3.487  0.6250 -2.3713 -3.3696
 9441SOL     OW39784   2.644   1.756   7.589  0.5812  0.1506 -0.3748
 9441SOL    HW139785   2.578   1.747   7.520  0.7279 -0.4558 -0.4276
 9441SOL    HW239786   2.645   1.668   7.625  0.0615  0.3291  0.0870
 9442SOL     OW39787   4.473   0.788   4.376 -0.1626  0.1014 -0.2641
 9442SOL    HW139788   4.391   0.801   4.424 -0.7791 -2.5501 -0.5973
 9442SOL    HW239789   4.443   0.761   4.290 -0.8749  0.4876 -0.1334
 9443SOL     OW39790   2.748   4.043   5.133  0.0487 -0.0618  0.2460
 9443SOL    HW139791   2.760   3.958   5.176 -0.1092 -0.6815 -0.9134
 9443SOL    HW239792   2.753   4.109   5.202  0.7042  0.4225 -0.2717
 9444SOL     OW39793   1.113   3.674  11.986  0.4549  0.4775 -0.3947
 9444SOL    HW139794   1.119   3.588  11.944 -2.4260 -0.4614  1.1250
 9444SOL    HW239795   1.201   3.683  12.024 -0.5374 -0.5004  2.1594
 9445SOL     OW39796   4.618   2.071  16.183  0.1416 -0.2526 -0.3488
 9445SOL    HW139797   4.651   2.154  16.152  2.0067 -1.2028 -0.8834
 9445SOL    HW239798   4.697   2.037  16.224 -1.3059 -0.9826  1.8740
 9446SOL     OW39799   1.051   3.495   0.766  0.1463 -0.0755  0.3351
 9446SOL    HW139800   1.125   3.452   0.808  1.6118  1.4262 -0.7345
 9446SOL    HW239801   1.107   3.560   0.725 -3.2343  2.5257 -0.1947
 9447SOL     OW39802   1.549   3.499   4.886  0.4379  1.1405  1.0343
 9447SOL    HW139803   1.556   3.438   4.813  0.2587  2.1273  0.2035
 9447SOL    HW239804   1.642   3.514   4.900  0.9167 -0.3072 -0.6380
 9448SOL     OW39805   2.106   0.457  17.465  0.2842 -0.4415  0.1336
 9448SOL    HW139806   2.186   0.468  17.415 -1.0559  1.4616 -1.5953
 9448SOL    HW239807   2.056   0.534  17.436 -0.7567 -1.1263  0.1150
 9449SOL     OW39808   3.246   2.478   6.455 -0.0639 -0.6269 -0.4731
 9449SOL    HW139809   3.177   2.425   6.495 -0.8982  0.2119 -0.7874
 9449SOL    HW239810   3.249   2.543   6.525 -0.5010  0.9088 -1.8574
 9450SOL     OW39811   4.575   4.522  10.998  0.1492 -0.1405 -0.3177
 9450SOL    HW139812   4.547   4.504  11.088  1.1092  0.0389  0.0154
 9450SOL    HW239813   4.498   4.550  10.949  1.7171  0.9925 -2.0990
 9451SOL     OW39814   1.409   2.140  10.385 -0.2507  0.0181 -0.2695
 9451SOL    HW139815   1.347   2.162  10.315 -0.0359 -1.2394 -0.8494
 9451SOL    HW239816   1.370   2.203  10.446 -0.3929 -0.6881  0.3745
 9452SOL     OW39817   4.685   0.103   6.362  0.1176  0.0185  0.3327
 9452SOL    HW139818   4.701   0.061   6.446  0.3645 -0.5259  0.0158
 9452SOL    HW239819   0.042   0.076   6.313 -0.4828 -1.5306  0.2230
 9453SOL     OW39820   1.422   2.759  12.878  0.3537  0.0478  0.3101
 9453SOL    HW139821   1.431   2.730  12.969  0.4870  2.0105  0.9327
 9453SOL    HW239822   1.479   2.836  12.885 -0.6055  0.9215 -1.4293
 9454SOL     OW39823   1.737   2.397  10.143  0.2096 -0.1019  0.0091
 9454SOL    HW139824   1.734   2.463  10.074  0.6314 -0.5050 -0.3912
 9454SOL    HW239825   1.662   2.339  10.133  0.2605 -0.2400  0.4090
 9455SOL     OW39826   1.325   1.592   8.307  0.5044 -0.0141  0.5626
 9455SOL    HW139827   1.334   1.539   8.228 -0.0975 -0.1669  0.6004
 9455SOL    HW239828   1.306   1.526   8.373  0.8366  2.4002  3.0550
 9456SOL     OW39829   4.291   1.123   2.986 -0.7733  0.2967  0.4240
 9456SOL    HW139830   4.377   1.101   2.951  0.1477 -0.2652  3.0609
 9456SOL    HW239831   4.267   1.065   3.059  2.5217 -2.8113 -0.9620
 9457SOL     OW39832   0.880   3.757   4.060 -0.0667 -0.2910 -0.3608
 9457SOL    HW139833   0.885   3.717   4.147 -0.8608  1.9149  0.7323
 9457SOL    HW239834   0.819   3.830   4.074 -0.7514 -0.5420 -1.9753
 9458SOL     OW39835   3.400   2.648   6.322 -0.5066 -0.5600  0.1508
 9458SOL    HW139836   3.355   2.581   6.373 -0.2618 -1.3145 -0.6316
 9458SOL    HW239837   3.328   2.705   6.294  0.3125  0.8356  0.8643
 9459SOL     OW39838   0.347   4.528   4.536 -0.0783 -0.3320 -0.1013
 9459SOL    HW139839   0.350   4.587   4.611  0.4732 -1.0954  0.4729
 9459SOL    HW239840   0.295   4.583   4.477  2.8087  2.0668 -0.4416
 9460SOL     OW39841   0.290   0.034   4.789  0.4014  0.5911 -0.3194
 9460SOL    HW139842   0.277   0.086   4.710 -2.5495 -0.6138 -0.6180
 9460SOL    HW239843   0.343   0.096   4.839 -1.4526  0.7394  1.4712
 9461SOL     OW39844   1.221   3.194   6.569  0.1730  0.5116  0.5444
 9461SOL    HW139845   1.248   3.244   6.492 -0.3427 -0.8694 -0.5365
 9461SOL    HW239846   1.309   3.172   6.601  1.1681 -0.4793 -2.8749
 9462SOL     OW39847   4.204   1.456   6.468 -0.2115 -0.4753  0.2236
 9462SOL    HW139848   4.189   1.412   6.385  1.3782  1.4790 -1.0913
 9462SOL    HW239849   4.150   1.416   6.537 -1.5850 -0.7127 -1.0050
 9463SOL     OW39850   2.623   3.769   4.821  0.2566  0.6820  0.0816
 9463SOL    HW139851   2.626   3.807   4.734  0.6083  0.8000  0.1434
 9463SOL    HW239852   2.575   3.841   4.860 -0.4202  1.2936 -1.8965
 9464SOL     OW39853   2.307   0.301  13.842 -0.1738  0.8350 -0.1089
 9464SOL    HW139854   2.357   0.301  13.760  0.7888  1.6226  0.4715
 9464SOL    HW239855   2.307   0.392  13.873  0.6020  0.2482  1.6012
 9465SOL     OW39856   2.524   3.539  11.008 -0.2135  0.0494  0.2819
 9465SOL    HW139857   2.586   3.604  10.975  0.5874 -0.5001  0.7171
 9465SOL    HW239858   2.448   3.598  11.007 -0.3545 -0.0913  2.6896
 9466SOL     OW39859   1.009   3.600   3.876  0.1061  0.6527 -0.1305
 9466SOL    HW139860   1.078   3.655   3.912  2.4764 -2.5124  0.1247
 9466SOL    HW239861   0.932   3.640   3.916  1.4910  0.4513  2.7493
 9467SOL     OW39862   1.761   4.589  12.543  0.6136  0.0216 -0.1885
 9467SOL    HW139863   1.825   4.630  12.485 -0.9062 -0.1986 -2.0460
 9467SOL    HW239864   1.752   4.501  12.504 -0.2337 -0.2937  0.7125
 9468SOL     OW39865   1.825   1.389   8.933 -0.2694  0.3408  0.1766
 9468SOL    HW139866   1.817   1.479   8.900 -1.8281  0.3170  0.5133
 9468SOL    HW239867   1.823   1.399   9.029  2.8757 -0.9090  0.3758
 9469SOL     OW39868   4.249   1.409  15.213 -0.1790  0.1367  0.2172
 9469SOL    HW139869   4.226   1.422  15.121 -0.6721 -1.2707  0.1312
 9469SOL    HW239870   4.340   1.433  15.199 -0.3211 -0.0331 -1.0422
 9470SOL     OW39871   0.729   3.264  15.151  0.3924  0.4959  0.2194
 9470SOL    HW139872   0.767   3.337  15.103 -0.7746 -0.0632 -1.5424
 9470SOL    HW239873   0.797   3.238  15.213 -1.2734  1.2521  2.3550
 9471SOL     OW39874   1.673   2.608   8.061  0.5249  0.0085 -0.5747
 9471SOL    HW139875   1.724   2.633   7.985  1.3631 -0.6257 -0.2215
 9471SOL    HW239876   1.580   2.613   8.036  0.6935  1.8119 -0.7935
 9472SOL     OW39877   4.273   1.851   6.756  0.0711  0.3296  0.5274
 9472SOL    HW139878   4.178   1.836   6.763 -0.1085  0.7442 -1.0452
 9472SOL    HW239879   4.307   1.768   6.724 -0.6942  0.8366 -1.6214
 9473SOL     OW39880   3.162   1.250   8.382  0.0100 -0.8483 -0.0820
 9473SOL    HW139881   3.128   1.262   8.471  0.5915 -1.5118  0.2267
 9473SOL    HW239882   3.198   1.336   8.360  0.1710 -0.5663  1.2752
 9474SOL     OW39883   3.995   0.062  13.770 -0.1125  0.3482 -0.0987
 9474SOL    HW139884   3.928   4.721  13.800  0.3455  0.0091  0.2134
 9474SOL    HW239885   3.970   0.143  13.815  0.7020 -0.0439  1.0476
 9475SOL     OW39886   0.263   3.267   0.699 -0.0128  0.0186  0.3518
 9475SOL    HW139887   0.274   3.353   0.658  1.6365 -0.4370 -0.1635
 9475SOL    HW239888   0.180   3.274   0.745 -2.0852 -1.9499 -3.1576
 9476SOL     OW39889   0.149   4.105  15.649  0.3514 -0.3634 -0.0714
 9476SOL    HW139890   0.113   4.184  15.690 -0.9068 -0.5855 -0.7562
 9476SOL    HW239891   0.111   4.118  15.562 -1.9338  0.5412  1.0439
 9477SOL     OW39892   3.037   1.071   4.804  0.3122 -0.0394  0.3493
 9477SOL    HW139893   3.101   1.059   4.735 -1.4966 -2.4520 -0.9134
 9477SOL    HW239894   2.952   1.089   4.763  0.5585  1.3522  0.4271
 9478SOL     OW39895   3.573   2.905   1.810  0.4314 -0.2174  0.6795
 9478SOL    HW139896   3.562   2.811   1.825 -0.0869 -0.2012  0.3590
 9478SOL    HW239897   3.641   2.902   1.743  0.0281  1.0953  0.2255
 9479SOL     OW39898   2.768   0.184   7.024 -0.1461  0.3075  0.7914
 9479SOL    HW139899   2.833   0.254   7.017  0.7590 -0.6276 -0.1347
 9479SOL    HW239900   2.695   0.211   6.968  0.6339 -1.6948 -1.1815
 9480SOL     OW39901   2.968   3.594   5.081 -0.2222 -0.3359  0.5091
 9480SOL    HW139902   2.892   3.565   5.031  0.1781 -0.2819 -0.1348
 9480SOL    HW239903   3.043   3.553   5.038 -2.5692 -3.3765 -0.6420
 9481SOL     OW39904   2.765   4.629   6.833  0.4543  0.0414 -0.1642
 9481SOL    HW139905   2.786   4.649   6.741 -0.7371 -0.6803 -0.5868
 9481SOL    HW239906   2.852   4.629   6.873  0.8556 -0.3169 -1.0250
 9482SOL     OW39907   1.987   3.626   2.767 -0.3347 -0.5516 -0.0962
 9482SOL    HW139908   1.983   3.612   2.861 -0.8169  0.9672  0.1061
 9482SOL    HW239909   1.928   3.701   2.755  0.6051  0.1334 -0.4532
 9483SOL     OW39910   4.267   3.064   3.985 -0.2554  0.4396  0.3351
 9483SOL    HW139911   4.326   2.992   3.965 -0.6490  0.3370 -0.4522
 9483SOL    HW239912   4.184   3.021   3.963  0.2468 -1.2711  1.8245
 9484SOL     OW39913   2.808   2.306  13.477 -0.0048 -0.1608 -0.1275
 9484SOL    HW139914   2.895   2.345  13.477  0.6204 -1.5466  1.3210
 9484SOL    HW239915   2.761   2.379  13.517 -0.0938 -0.7516  0.8645
 9485SOL     OW39916   1.423   2.334   7.328  0.4847 -0.0758  0.1715
 9485SOL    HW139917   1.355   2.347   7.262  0.6456  2.5004  0.5330
 9485SOL    HW239918   1.477   2.410   7.305  0.5333 -0.4049 -0.8093
 9486SOL     OW39919   0.650   3.689   3.626  0.4335 -0.3457 -0.1770
 9486SOL    HW139920   0.664   3.702   3.532  0.3885  1.7233  0.0906
 9486SOL    HW239921   0.684   3.767   3.669  1.4129  0.2214 -1.9932
 9487SOL     OW39922   1.889   3.250   6.203 -0.2583  0.4198 -0.2365
 9487SOL    HW139923   1.862   3.222   6.116  0.4710 -0.3280 -0.2156
 9487SOL    HW239924   1.984   3.244   6.196 -0.4130 -0.8365 -1.2038
 9488SOL     OW39925   4.550   1.648   1.901 -0.5804 -0.1107 -0.6059
 9488SOL    HW139926   4.510   1.615   1.821 -2.1815 -0.8086  0.4834
 9488SOL    HW239927   4.558   1.560   1.939 -0.9324 -0.1914 -0.7262
 9489SOL     OW39928   0.337   0.856  14.048  0.1013 -0.6319  0.6444
 9489SOL    HW139929   0.303   0.772  14.018  0.0350 -0.6041  0.6423
 9489SOL    HW239930   0.256   0.889  14.087 -0.8702 -2.7605  0.4503
 9490SOL     OW39931   3.082   1.851   5.369  0.1628  0.4500 -0.2225
 9490SOL    HW139932   3.068   1.917   5.438 -1.7539  1.1488 -1.2769
 9490SOL    HW239933   2.995   1.858   5.329 -0.3614 -0.8986  0.6695
 9491SOL     OW39934   1.747   1.187   8.220  0.3410 -0.2747 -0.0766
 9491SOL    HW139935   1.675   1.174   8.281  2.1743 -0.2170  2.0967
 9491SOL    HW239936   1.760   1.282   8.223  0.7409 -0.2425 -2.7682
 9492SOL     OW39937   0.357   0.049   5.733 -0.1296 -0.3722 -0.3187
 9492SOL    HW139938   0.271   0.024   5.767  0.0217 -0.0875  0.2651
 9492SOL    HW239939   0.346   0.043   5.638  1.2727 -3.0628 -0.3110
 9493SOL     OW39940   3.127   3.877   6.629 -0.2703 -0.0049  0.3923
 9493SOL    HW139941   3.194   3.866   6.561 -0.7290  1.4727 -0.2953
 9493SOL    HW239942   3.056   3.908   6.573  1.6883  2.3341 -0.8039
 9494SOL     OW39943   4.313   1.500   9.605 -0.0119  0.3260 -0.0238
 9494SOL    HW139944   4.259   1.563   9.557  0.0506 -0.0370 -0.5751
 9494SOL    HW239945   4.390   1.556   9.605 -0.7545  1.3774 -1.5640
 9495SOL     OW39946   1.465   4.130   5.484  0.3243  0.0126 -0.0443
 9495SOL    HW139947   1.412   4.119   5.405  1.3354  2.7489 -1.1104
 9495SOL    HW239948   1.406   4.082   5.542  0.3068 -0.1379 -0.1907
 9496SOL     OW39949   1.053   0.435   1.953  0.1326 -0.4677  0.3620
 9496SOL    HW139950   1.074   0.415   1.862  2.0072  0.0362  0.6719
 9496SOL    HW239951   1.031   0.526   1.937  2.1223 -0.0890 -0.2788
 9497SOL     OW39952   0.705   4.209   6.339 -0.2030 -0.2269  0.3371
 9497SOL    HW139953   0.719   4.233   6.248  0.5573  3.1829  1.3422
 9497SOL    HW239954   0.689   4.296   6.376  1.1425  0.3981 -0.5428
 9498SOL     OW39955   2.064   2.794   1.913  0.4562  0.6702  0.3598
 9498SOL    HW139956   1.979   2.767   1.880  0.5835 -0.0071  0.5806
 9498SOL    HW239957   2.124   2.721   1.898 -0.1053 -0.3224  2.9878
 9499SOL     OW39958   3.364   1.605   2.037 -0.1718 -0.2814 -0.1561
 9499SOL    HW139959   3.283   1.570   2.000  0.0895 -2.2535  1.1692
 9499SOL    HW239960   3.382   1.681   1.981  2.4079 -0.3888  0.5704
 9500SOL     OW39961   3.653   2.052  16.843  0.0302 -0.3183 -0.9760
 9500SOL    HW139962   3.672   2.009  16.760 -1.3346  1.1959 -2.0423
 9500SOL    HW239963   3.736   2.096  16.862 -0.5068 -0.0073  0.6864
 9501SOL     OW39964   0.360   2.546   3.419  0.2652  0.4635  0.9820
 9501SOL    HW139965   0.391   2.584   3.502 -0.4907  1.7374  0.6921
 9501SOL    HW239966   0.280   2.600   3.416  0.0558  0.1095  0.2849
 9502SOL     OW39967   0.591   2.324   8.817 -0.5285  0.2541  0.1013
 9502SOL    HW139968   0.548   2.385   8.756 -0.5816  0.8938  0.7800
 9502SOL    HW239969   0.524   2.257   8.829  0.1805 -0.4518  0.0990
 9503SOL     OW39970   0.941   0.405   2.202  0.6085  0.5913  0.0513
 9503SOL    HW139971   1.004   0.425   2.133  1.2962 -1.0371  0.2218
 9503SOL    HW239972   0.864   0.457   2.177  0.5199 -0.0698 -1.0460
 9504SOL     OW39973   4.612   2.525  12.709  0.4832 -0.1233 -0.4755
 9504SOL    HW139974   4.664   2.552  12.784 -0.3582  0.9184 -0.2700
 9504SOL    HW239975   4.524   2.519  12.746  0.0901  0.4016 -1.3086
 9505SOL     OW39976   4.418   0.845  10.514 -0.0015  0.2136  0.0058
 9505SOL    HW139977   4.366   0.847  10.595 -0.5730 -2.0811 -0.2986
 9505SOL    HW239978   4.481   0.778  10.540 -1.4415 -0.5936  1.4003
 9506SOL     OW39979   1.498   0.537   4.012 -0.0664  0.0271 -0.1195
 9506SOL    HW139980   1.565   0.497   3.957 -2.0286 -1.1254 -1.6705
 9506SOL    HW239981   1.429   0.470   4.017 -2.3181  2.2862 -0.7258
 9507SOL     OW39982   3.485   0.453   5.824  0.1440  0.2128 -0.7605
 9507SOL    HW139983   3.399   0.438   5.785 -0.5830  1.1948  0.4601
 9507SOL    HW239984   3.490   0.387   5.894  2.2826 -0.1018 -1.1917
 9508SOL     OW39985   4.464   4.355   7.469 -0.1389 -0.0284  0.5540
 9508SOL    HW139986   4.475   4.413   7.544 -0.6836 -0.4447  0.9548
 9508SOL    HW239987   4.467   4.269   7.511 -1.4971 -0.2589  0.1648
 9509SOL     OW39988   0.387   0.482   7.414  0.6351 -0.4436  0.3281
 9509SOL    HW139989   0.381   0.576   7.431  0.9657 -0.1037 -1.4049
 9509SOL    HW239990   0.325   0.483   7.341  0.0061  0.0710  0.8668
 9510SOL     OW39991   2.214   3.931   2.843 -0.2973  0.1660 -0.1209
 9510SOL    HW139992   2.164   3.869   2.897 -0.1011 -0.4383 -0.6295
 9510SOL    HW239993   2.284   3.964   2.900 -0.0193 -0.6709  0.0237
 9511SOL     OW39994   0.737   3.406   7.886 -0.0763 -0.1364  0.3950
 9511SOL    HW139995   0.720   3.473   7.953  0.0883  0.9876 -0.6804
 9511SOL    HW239996   0.717   3.328   7.937  3.1524 -0.5232  1.0753
 9512SOL     OW39997   1.307   4.087   5.275 -0.5432  0.0197  0.1315
 9512SOL    HW139998   1.278   3.996   5.270  2.4070 -0.8531 -1.1067
 9512SOL    HW239999   1.284   4.109   5.185 -2.1776 -1.2340  0.2406
 9513SOL     OW40000   3.941   1.667   8.374  0.3910 -0.1101 -0.1117
 9513SOL    HW140001   3.950   1.709   8.459 -1.1142  1.1220 -0.5659
 9513SOL    HW240002   3.848   1.643   8.374 -0.1923  2.2030 -4.7962
 9514SOL     OW40003   2.336   4.003   4.965  0.1599 -0.4340 -0.3477
 9514SOL    HW140004   2.428   4.031   4.967 -0.2082  0.6317  1.0725
 9514SOL    HW240005   2.337   3.961   4.878  1.4815 -1.1117 -0.0097
 9515SOL     OW40006   2.172   2.435  13.659  0.4910 -0.3024 -0.1124
 9515SOL    HW140007   2.137   2.519  13.629  0.9613 -0.9541 -2.4906
 9515SOL    HW240008   2.140   2.381  13.587 -1.4992 -1.1417  1.4073
 9516SOL     OW40009   2.920   4.103  12.115 -0.4426  0.2948  0.4115
 9516SOL    HW140010   2.908   4.187  12.159 -2.1182  1.7511 -2.8322
 9516SOL    HW240011   2.830   4.095  12.083 -0.9198  1.0728  1.5830
 9517SOL     OW40012   4.346   4.664   3.241 -0.1146 -0.0582  0.2317
 9517SOL    HW140013   4.282   4.625   3.300  0.4383  1.9657  2.1869
 9517SOL    HW240014   4.286   4.709   3.181  3.0858  0.8297 -2.2720
 9518SOL     OW40015   1.089   1.834   5.564  0.3070  0.4825 -0.3368
 9518SOL    HW140016   1.036   1.801   5.492 -1.2845 -0.5037  1.2766
 9518SOL    HW240017   1.021   1.862   5.626  0.1123 -0.9324  0.0974
 9519SOL     OW40018   0.982   2.756   8.249 -0.2550 -0.0285  0.5617
 9519SOL    HW140019   1.024   2.841   8.260  0.9126 -0.4067 -0.9196
 9519SOL    HW240020   0.908   2.774   8.192  1.1518 -0.9732 -1.5607
 9520SOL     OW40021   3.817   3.869   5.824 -0.0794  0.3195  0.3502
 9520SOL    HW140022   3.845   3.848   5.735  3.6462 -0.5410  1.7501
 9520SOL    HW240023   3.737   3.917   5.804 -0.8551 -1.4961 -0.9640
 9521SOL     OW40024   2.736   3.788   2.464 -0.7050  0.1614 -0.2051
 9521SOL    HW140025   2.720   3.866   2.411 -3.5577 -0.1460  0.2446
 9521SOL    HW240026   2.807   3.827   2.516 -0.9254  0.6479 -0.2750
 9522SOL     OW40027   0.008   2.603  12.942  0.3654  0.2798 -0.1795
 9522SOL    HW140028   4.708   2.517  12.978 -0.3403  0.6437  0.2841
 9522SOL    HW240029   0.039   2.641  13.024  1.2546 -1.3023  0.2254
 9523SOL     OW40030   1.987   3.776   6.805 -0.0013 -0.3610  0.0088
 9523SOL    HW140031   2.027   3.704   6.757 -1.6632 -1.7374  0.6996
 9523SOL    HW240032   1.926   3.728   6.861 -3.0970  3.0576 -0.4527
 9524SOL     OW40033   3.139   3.793   6.893 -0.0528 -0.2275  0.2047
 9524SOL    HW140034   3.046   3.792   6.917  0.0882 -0.1774  0.7513
 9524SOL    HW240035   3.140   3.799   6.797  2.2699 -1.8331  0.1330
 9525SOL     OW40036   2.168   3.611   3.677 -0.3808  0.8182 -0.7030
 9525SOL    HW140037   2.115   3.641   3.604 -0.3582 -1.2009 -1.5673
 9525SOL    HW240038   2.251   3.637   3.637  1.1827 -1.5237  0.9739
 9526SOL     OW40039   1.368   0.802   4.568  0.2048 -0.0272  0.6835
 9526SOL    HW140040   1.323   0.855   4.503 -0.5365  1.1497  2.1562
 9526SOL    HW240041   1.410   0.864   4.628 -0.2958  0.9813 -0.0168
 9527SOL     OW40042   3.033   0.963  14.422  0.7195  0.1103 -0.7283
 9527SOL    HW140043   3.116   1.010  14.414  1.1867 -0.1616  2.7089
 9527SOL    HW240044   3.052   0.882  14.470 -1.6007  1.0448  1.7516
 9528SOL     OW40045   2.054   3.695   3.459  0.2998  0.0077  0.2251
 9528SOL    HW140046   2.101   3.694   3.376  1.4732  0.0533  0.8824
 9528SOL    HW240047   2.028   3.786   3.446 -1.6412 -0.3841  1.4429
 9529SOL     OW40048   4.524   1.063   4.383  0.2070  0.4706  0.1015
 9529SOL    HW140049   4.456   1.084   4.446  0.2721  1.4650 -0.1659
 9529SOL    HW240050   4.504   0.969   4.385  1.7157  0.1221 -0.8890
 9530SOL     OW40051   4.069   0.507   8.439  0.6115 -0.3985 -0.1562
 9530SOL    HW140052   4.030   0.593   8.455  0.6072 -0.7905  1.8285
 9530SOL    HW240053   3.991   0.455   8.419  0.6641 -0.3787 -0.4165
 9531SOL     OW40054   4.560   2.860   4.575  0.0502  0.1821 -0.6424
 9531SOL    HW140055   4.517   2.934   4.617 -0.3579 -2.2332  3.2436
 9531SOL    HW240056   4.623   2.844   4.647 -1.2835 -1.7200  0.1157
 9532SOL     OW40057   1.055   3.445   8.106  0.1729 -0.4225 -0.6181
 9532SOL    HW140058   0.984   3.436   8.170 -0.7924  0.6826 -1.5492
 9532SOL    HW240059   1.126   3.422   8.165 -0.6661 -0.1440  0.5064
 9533SOL     OW40060   1.320   3.557   0.347 -0.3282 -0.2151  0.1801
 9533SOL    HW140061   1.319   3.463   0.365  0.6797 -0.1067  0.8245
 9533SOL    HW240062   1.388   3.590   0.406 -0.7563 -0.2455  0.6927
 9534SOL     OW40063   4.205   1.521  12.343 -0.2567 -0.1914 -0.2103
 9534SOL    HW140064   4.157   1.553  12.266 -0.4354 -1.8182 -0.7587
 9534SOL    HW240065   4.293   1.549  12.318 -0.1613 -2.1596 -2.0463
 9535SOL     OW40066   3.335   2.355   2.760 -0.5010  0.4256 -0.1263
 9535SOL    HW140067   3.391   2.401   2.698  0.6077 -2.2165 -1.0857
 9535SOL    HW240068   3.316   2.291   2.692  0.4999 -1.8388  1.7428
 9536SOL     OW40069   1.706   0.251   8.918 -0.1577 -0.2671 -0.4494
 9536SOL    HW140070   1.677   0.341   8.903 -0.0536  0.0336  1.1812
 9536SOL    HW240071   1.783   0.267   8.973 -0.2424  1.1890 -0.7594
 9537SOL     OW40072   1.104   3.411   2.728 -0.2361 -0.1771 -0.0375
 9537SOL    HW140073   1.185   3.400   2.679  0.0030  2.2600 -0.1515
 9537SOL    HW240074   1.058   3.327   2.722 -1.1953  0.3337  0.1867
 9538SOL     OW40075   0.328   4.214   7.600 -0.5579 -0.2112  0.1214
 9538SOL    HW140076   0.385   4.277   7.558 -0.4501  0.7171  1.6325
 9538SOL    HW240077   0.359   4.220   7.691  1.1216  0.2228 -0.4971
 9539SOL     OW40078   0.267   0.900  15.892 -0.3052  0.0019  0.0029
 9539SOL    HW140079   0.324   0.976  15.907  1.3222 -1.2073 -0.0596
 9539SOL    HW240080   0.192   0.938  15.847 -0.4887  1.0730  1.2050
 9540SOL     OW40081   0.985   3.306   5.889 -0.7154 -0.1758  0.5900
 9540SOL    HW140082   0.991   3.247   5.814  0.1080  2.4771 -1.4062
 9540SOL    HW240083   0.996   3.244   5.961 -3.7834 -3.4055 -1.7395
 9541SOL     OW40084   2.255   1.165   8.051  0.4476 -0.4044  0.0915
 9541SOL    HW140085   2.299   1.145   8.134  0.8904 -1.2712 -0.3596
 9541SOL    HW240086   2.169   1.193   8.082 -0.1074  0.6644 -2.3887
 9542SOL     OW40087   2.739   3.188   1.580 -0.1623 -0.1893 -0.0695
 9542SOL    HW140088   2.830   3.166   1.558  0.6438  0.7400  2.2704
 9542SOL    HW240089   2.733   3.117   1.643 -1.2126  0.1430  0.2063
 9543SOL     OW40090   3.230   3.664   7.603  0.5101 -0.0998 -0.2946
 9543SOL    HW140091   3.142   3.632   7.623  0.3472 -0.8760 -2.2166
 9543SOL    HW240092   3.263   3.587   7.557  2.1798  1.2172 -1.3111
 9544SOL     OW40093   1.703   4.196   4.834  0.4209  0.0879  0.3403
 9544SOL    HW140094   1.798   4.183   4.827  0.3132 -0.1207 -0.6313
 9544SOL    HW240095   1.673   4.117   4.879 -1.4406 -0.7595 -2.3953
 9545SOL     OW40096   0.299   4.227  10.179  0.3457  0.1219 -0.5048
 9545SOL    HW140097   0.303   4.132  10.167 -1.9135 -0.0267 -0.0912
 9545SOL    HW240098   0.362   4.237  10.251 -0.7257 -0.1920  0.4719
 9546SOL     OW40099   2.853   3.043   3.506  0.2894 -0.0182 -0.7125
 9546SOL    HW140100   2.946   3.048   3.486 -0.0691  0.5122 -2.2676
 9546SOL    HW240101   2.852   3.124   3.557  0.2013 -1.2583  1.2863
 9547SOL     OW40102   3.571   1.765   0.954  0.2890 -0.1951  0.3325
 9547SOL    HW140103   3.484   1.794   0.983  0.0067 -0.8021  0.0785
 9547SOL    HW240104   3.566   1.753   0.859 -0.5766  3.8856 -0.1496
 9548SOL     OW40105   1.661   1.429   6.933 -0.1662 -0.0487 -0.0812
 9548SOL    HW140106   1.742   1.469   6.902 -0.2654 -0.4521 -0.8602
 9548SOL    HW240107   1.686   1.379   7.010 -2.3274  0.4592  0.9493
 9549SOL     OW40108   0.827   1.288   0.711  0.2735 -0.5041 -0.2985
 9549SOL    HW140109   0.817   1.292   0.806 -1.3074  0.3376 -0.4991
 9549SOL    HW240110   0.880   1.366   0.697 -0.5728 -0.0378 -0.8807
 9550SOL     OW40111   2.790   1.786   0.489 -0.0170  0.1736  0.3172
 9550SOL    HW140112   2.788   1.693   0.511  0.1081  0.2765  0.7522
 9550SOL    HW240113   2.695   1.796   0.489 -0.0107  0.2372 -1.4128
 9551SOL     OW40114   4.397   3.101   7.249  0.2341 -0.3728 -0.1953
 9551SOL    HW140115   4.307   3.068   7.243 -0.5151  1.7539 -0.4953
 9551SOL    HW240116   4.442   3.055   7.178  1.3496 -1.4019  1.1895
 9552SOL     OW40117   2.293   4.209   3.422 -0.4944  0.0646  0.0210
 9552SOL    HW140118   2.275   4.302   3.410 -0.1744  0.2437  0.9592
 9552SOL    HW240119   2.340   4.197   3.340 -0.3389 -0.3956  0.1802
 9553SOL     OW40120   2.008   3.269   2.037 -0.5242  0.6713  0.1331
 9553SOL    HW140121   1.977   3.343   2.090  2.1441 -0.9659  3.9509
 9553SOL    HW240122   2.103   3.277   2.028 -0.0597 -1.0446  3.3264
 9554SOL     OW40123   1.238   3.398   0.922  0.0597  0.8851  0.8452
 9554SOL    HW140124   1.183   3.323   0.948  2.2444 -1.0069  0.0433
 9554SOL    HW240125   1.314   3.386   0.980 -1.0998 -1.4010  1.8908
 9555SOL     OW40126   2.612   0.748  16.594  0.1569  0.1301 -0.3261
 9555SOL    HW140127   2.679   0.696  16.639  1.2288  2.2326  0.5145
 9555SOL    HW240128   2.540   0.685  16.597  0.6920 -0.5504 -1.5783
 9556SOL     OW40129   4.105   0.356   5.853 -0.2607  0.7043  0.4549
 9556SOL    HW140130   4.023   0.366   5.901 -1.1773  3.4442 -1.6768
 9556SOL    HW240131   4.162   0.368   5.929 -0.1563  0.5106  0.4061
 9557SOL     OW40132   0.566   1.349   7.440  0.3807 -0.0030  0.1374
 9557SOL    HW140133   0.539   1.259   7.419 -1.6840  0.8835 -1.0741
 9557SOL    HW240134   0.657   1.335   7.414 -0.3428 -1.8313 -1.3803
 9558SOL     OW40135   2.366   2.586   9.053  0.1360  0.1868  0.4196
 9558SOL    HW140136   2.457   2.592   9.025 -0.2870  0.3854 -0.9201
 9558SOL    HW240137   2.312   2.632   8.988  1.8399  0.9443 -0.4695
 9559SOL     OW40138   1.453   2.038   2.378  0.3581 -0.0146  0.4998
 9559SOL    HW140139   1.395   2.090   2.433  0.3180  1.6262 -1.1098
 9559SOL    HW240140   1.479   2.101   2.311  0.1826 -1.2407 -0.7163
 9560SOL     OW40141   0.512   1.195   9.331  0.0491 -0.1207  0.4425
 9560SOL    HW140142   0.565   1.118   9.308 -0.0069 -0.2005  0.5790
 9560SOL    HW240143   0.443   1.147   9.377 -0.8122 -0.9898 -1.7821
 9561SOL     OW40144   2.887   1.647   2.379 -0.0704 -0.7407  0.0792
 9561SOL    HW140145   2.872   1.742   2.384 -0.0734 -0.7748  0.7106
 9561SOL    HW240146   2.961   1.650   2.318  0.7385  1.6626  1.1891
 9562SOL     OW40147   0.115   4.518  12.267 -0.0038 -0.2350 -0.2049
 9562SOL    HW140148   0.044   4.487  12.212  0.7879 -3.0859  0.3964
 9562SOL    HW240149   0.071   4.591  12.311 -0.8922 -1.2024  0.4993
 9563SOL     OW40150   1.610   2.900  12.139 -0.3674 -0.6516 -0.2868
 9563SOL    HW140151   1.683   2.907  12.078 -0.7174 -3.1704 -0.9943
 9563SOL    HW240152   1.595   2.805  12.142  1.1811 -0.8528  1.6897
 9564SOL     OW40153   1.691   2.901   9.503  0.1945  0.2531  0.2730
 9564SOL    HW140154   1.648   2.966   9.560 -0.0140 -1.1775  1.7422
 9564SOL    HW240155   1.734   2.845   9.567 -0.7585 -1.4823 -0.6000
 9565SOL     OW40156   3.893   3.431   9.181  0.3910  0.3223  0.2746
 9565SOL    HW140157   3.867   3.497   9.116 -1.5113 -1.5270 -0.8344
 9565SOL    HW240158   3.989   3.433   9.180  0.4242 -0.4789  1.7154
 9566SOL     OW40159   0.174   0.820   0.147 -0.1229 -0.6871 -0.4213
 9566SOL    HW140160   0.179   0.802   0.241 -1.1702 -2.7041 -0.7416
 9566SOL    HW240161   0.129   0.741   0.116 -0.8637 -0.7374  0.7926
 9567SOL     OW40162   2.931   1.859  16.397  0.1605  0.4997 -0.1917
 9567SOL    HW140163   2.891   1.772  16.401 -0.9486  0.7552 -4.7308
 9567SOL    HW240164   2.971   1.849  16.310  0.2191 -0.4107 -0.0637
 9568SOL     OW40165   4.023   4.489   0.999  0.6287  0.1438  0.0387
 9568SOL    HW140166   4.016   4.504   0.905  1.8260  0.6098  0.0320
 9568SOL    HW240167   4.068   4.568   1.029  0.0670 -0.5826  2.8010
   4.72072   4.72072  17.68536
