Membrane in water
40167
    1TCq1    O1    1   4.722   4.130  10.705 -0.4141  0.6035 -0.5853
    1TCq1    C1    2   4.602   4.110  10.741  0.1391  0.1883 -0.0321
    1TCq1    O2    3   4.528   4.195  10.790 -0.5659 -0.2674 -0.4584
    1TCq1    C2    4   4.560   3.972  10.692  0.3285  0.0387 -0.9868
    1TCq1    C3    5   4.601   3.937  10.574 -0.6565 -0.1087 -0.2295
    1TCq1    C4    6   4.548   3.824  10.519 -0.0120  0.1355 -1.0312
    1TCq1    C5    7   4.460   3.746  10.581 -0.2371  0.1883 -0.1206
    1TCq1    C6    8   4.419   3.781  10.708 -0.1003  0.2218  0.2192
    1TCq1    C7    9   4.470   3.894  10.763 -0.0953 -0.3757 -0.6730
    1TCq1    C8   10   4.316   3.716  10.785 -0.8975 -0.3532 -0.5881
    1TCq1    O4   11   4.314   3.733  10.905 -0.4448 -0.4183  0.4275
    1TCq1    C9   12   4.588   3.793  10.378  0.2706  0.0676  0.5693
    1TCq1    O5   13   4.509   3.716  10.314 -0.0918 -0.0480  0.0945
    1TCq1    O6   14   4.671   3.878  10.331  0.1886 -0.7824 -0.5990
    1TCq1    H1   15   0.045   4.046  10.681 -1.4044 -0.4734  1.2996
    1TCq1    H2   16   4.665   3.998  10.512 -1.7201 -0.9286 -2.1343
    1TCq1    H3   17   4.422   3.655  10.535 -1.3671 -0.1171  1.3999
    1TCq1    H4   18   4.418   3.939  10.847  1.1270  0.4946 -0.3860
    2MPD2     C   19   3.939   3.377  10.836  0.2897  0.1013  0.6622
    2MPD2    C1   20   4.005   3.450  10.931  0.0566 -0.4923 -0.1263
    2MPD2    C2   21   4.097   3.549  10.886  0.2113 -0.4180  0.6477
    2MPD2    C3   22   4.136   3.554  10.749  0.0422  0.1673 -0.3157
    2MPD2    C4   23   4.068   3.475  10.660 -0.0033  0.1575  0.1149
    2MPD2    C5   24   3.965   3.396  10.702  0.5538 -0.1628  0.3707
    2MPD2     H   25   4.138   3.614  10.961 -0.3810  0.7101 -0.0065
    2MPD2    H1   26   4.097   3.471  10.556  0.3474 -0.8249  0.2509
    2MPD2    H2   27   3.858   3.314  10.869  0.6144 -1.0699 -0.7591
    2MPD2    H3   28   3.914   3.330  10.632  2.1069 -0.8853 -0.0719
    2MPD2     N   29   4.231   3.646  10.696  0.5404  0.0545  0.4479
    2MPD2    H5   30   4.232   3.657  10.595  0.0319 -0.6602  0.3568
    2MPD2    N1   31   3.961   3.445  11.064  0.6287  0.2327 -0.6487
    2MPD2    H7   32   4.009   3.507  11.129 -0.6866  0.8336 -0.2656
    3TCq1    O1   33   3.695   3.984  10.154  0.0995 -0.0226 -0.0228
    3TCq1    C1   34   3.652   3.998  10.287 -0.3514 -0.0354  0.1830
    3TCq1    O2   35   3.676   3.924  10.383  0.3832  0.2967 -0.6000
    3TCq1    C2   36   3.538   4.089  10.290 -1.4543  0.4710 -0.5472
    3TCq1    C3   37   3.533   4.198  10.208 -0.1103 -0.6051  0.2085
    3TCq1    C4   38   3.428   4.281  10.222 -0.3075 -0.3486  0.1206
    3TCq1    C5   39   3.339   4.272  10.326  0.2427  0.0556 -0.7671
    3TCq1    C6   40   3.356   4.162  10.406 -0.8517 -0.0933  0.5012
    3TCq1    C7   41   3.445   4.068  10.389 -0.9057  0.3097  0.5910
    3TCq1    C8   42   3.248   4.135  10.491  0.8612  0.3072  0.9184
    3TCq1    O4   43   3.199   4.024  10.488 -0.6070  0.6240 -0.2469
    3TCq1    C9   44   3.408   4.392  10.134 -0.5734  0.2951 -0.3198
    3TCq1    O5   45   3.291   4.445  10.132  0.2090 -0.2054 -0.5130
    3TCq1    O6   46   3.490   4.397  10.039  0.2630 -0.3431 -0.0039
    3TCq1    H1   47   3.637   4.023  10.085  3.5678  1.6755 -1.9948
    3TCq1    H2   48   3.606   4.206  10.128 -0.9202 -1.6592 -0.6362
    3TCq1    H3   49   3.249   4.332  10.332  0.3196 -0.1641  3.0542
    3TCq1    H4   50   3.442   3.982  10.455  2.7573  0.2935  0.7445
    4MPD2     C   51   3.007   4.249  10.924  0.0916 -0.0736  0.7138
    4MPD2    C1   52   3.070   4.360  10.876 -0.0212 -0.6349  0.1934
    4MPD2    C2   53   3.141   4.350  10.757  0.1906 -0.6926 -0.5605
    4MPD2    C3   54   3.140   4.234  10.684 -0.1169 -0.0970 -0.1932
    4MPD2    C4   55   3.066   4.130  10.727  0.4478 -0.4998  0.2263
    4MPD2    C5   56   3.006   4.134  10.846 -0.2640 -0.9018 -0.3509
    4MPD2     H   57   3.204   4.428  10.716 -1.4445  0.5592 -0.7011
    4MPD2    H1   58   3.050   4.036  10.674 -1.0339 -1.1326  1.8035
    4MPD2    H2   59   2.965   4.225  11.021  0.9442  0.6127  1.2488
    4MPD2    H3   60   2.960   4.046  10.889  0.4537 -0.2734  1.6677
    4MPD2     N   61   3.210   4.248  10.558  0.3587  0.5544  0.3037
    4MPD2    H5   62   3.252   4.337  10.533  0.3630  0.4475 -0.0707
    4MPD2    N1   63   3.062   4.488  10.934  0.2493 -0.0258  0.2614
    4MPD2    H7   64   3.102   4.568  10.887 -1.3884  1.1532  0.8890
    5TCq1    O1   65   3.547   1.152  12.156 -0.1330  0.2173  0.0625
    5TCq1    C1   66   3.507   1.163  12.028  0.5771 -0.4161  0.8141
    5TCq1    O2   67   3.399   1.195  11.983  0.1045  0.0670  0.0578
    5TCq1    C2   68   3.615   1.118  11.944 -0.0371 -0.3545  0.2731
    5TCq1    C3   69   3.744   1.123  11.989 -0.1554 -0.2193 -0.0748
    5TCq1    C4   70   3.842   1.059  11.911 -0.2937 -0.0168 -0.2289
    5TCq1    C5   71   3.805   1.008  11.787  0.1893 -0.1586  0.1532
    5TCq1    C6   72   3.675   1.024  11.739  0.1446 -0.4242  0.3203
    5TCq1    C7   73   3.579   1.072  11.823  0.4924  0.0762 -0.8051
    5TCq1    C8   74   3.631   0.967  11.616  0.3942  0.0531 -0.2612
    5TCq1    O4   75   3.706   0.883  11.561 -0.1162  0.1001  0.4668
    5TCq1    C9   76   3.976   1.041  11.964 -0.1195 -0.0904  0.0064
    5TCq1    O5   77   3.992   1.085  12.077 -0.0146 -0.0832 -0.0423
    5TCq1    O6   78   4.066   0.983  11.894 -0.3677 -0.0186  0.1203
    5TCq1    H1   79   3.632   1.104  12.165 -1.0826 -1.3544  0.4720
    5TCq1    H2   80   3.773   1.170  12.081 -1.8429 -0.8009  0.7620
    5TCq1    H3   81   3.879   0.954  11.729 -0.7095  0.6164 -1.7238
    5TCq1    H4   82   3.472   1.065  11.806  0.5675 -0.2937 -1.1024
    6MPD2     C   83   3.412   1.148  11.371 -0.3010  0.4192  0.1132
    6MPD2    C1   84   3.501   1.057  11.426  0.0610  0.2774  0.4158
    6MPD2    C2   85   3.541   0.957  11.337 -0.5209 -1.0738 -0.0922
    6MPD2    C3   86   3.500   0.956  11.197 -0.0969  0.4682 -0.1698
    6MPD2    C4   87   3.415   1.057  11.158  0.1068 -0.1520  0.5156
    6MPD2    C5   88   3.367   1.143  11.247 -0.0694  0.0849 -0.7812
    6MPD2     H   89   3.601   0.875  11.374 -0.9661 -1.9051 -1.1881
    6MPD2    H1   90   3.393   1.077  11.054  0.7755  0.9192  0.5830
    6MPD2    H2   91   3.380   1.224  11.440 -0.3882 -1.8508  2.5755
    6MPD2    H3   92   3.299   1.220  11.215  0.6311  0.4469 -1.3790
    6MPD2     N   93   3.562   0.855  11.114 -0.1886 -0.2948 -0.2158
    6MPD2    H5   94   3.643   0.807  11.150 -0.8571 -0.1686  1.4376
    6MPD2    N1   95   3.536   1.057  11.562 -0.2482  0.2941 -0.3279
    6MPD2    H7   96   3.511   1.138  11.617 -2.8746 -0.6579 -0.1104
    7TCq1    O1   97   1.452   1.139  13.667  0.6395 -0.0156 -0.0531
    7TCq1    C1   98   1.527   1.227  13.592 -0.1527 -0.6831 -0.4344
    7TCq1    O2   99   1.559   1.342  13.619 -0.3294  0.4925  0.7899
    7TCq1    C2  100   1.530   1.188  13.453  0.8493  0.3789 -0.7582
    7TCq1    C3  101   1.515   1.280  13.358 -0.0468  0.3145 -0.3029
    7TCq1    C4  102   1.521   1.239  13.226  0.0661 -0.5645 -0.1873
    7TCq1    C5  103   1.546   1.114  13.195 -0.1785  0.9499  0.0978
    7TCq1    C6  104   1.547   1.022  13.291 -0.1568 -0.4781 -0.3503
    7TCq1    C7  105   1.537   1.053  13.420 -0.1549 -0.5506 -0.0752
    7TCq1    C8  106   1.536   0.887  13.261  0.3174  0.1128  0.2037
    7TCq1    O4  107   1.524   0.804  13.350  0.2952 -0.3736 -0.3656
    7TCq1    C9  108   1.508   1.332  13.121 -0.0128 -0.0068  0.1781
    7TCq1    O5  109   1.485   1.455  13.150  0.1270  0.8042 -0.1161
    7TCq1    O6  110   1.526   1.295  13.003  0.0331 -0.2086 -0.3435
    7TCq1    H1  111   1.425   1.073  13.599  0.7447  1.3118 -1.4076
    7TCq1    H2  112   1.514   1.385  13.384  2.7058  0.0873  0.7537
    7TCq1    H3  113   1.544   1.088  13.089 -0.4419  1.4321 -0.0138
    7TCq1    H4  114   1.538   0.976  13.496 -0.1945  0.5159  1.0029
    8MPD2     C  115   1.606   0.471  12.981 -0.1172  0.6133  0.1481
    8MPD2    C1  116   1.524   0.497  13.098 -0.6864 -0.6897 -0.1714
    8MPD2    C2  117   1.504   0.632  13.126 -0.0215  0.0650 -0.5089
    8MPD2    C3  118   1.576   0.732  13.074  0.3608 -0.2699  0.3585
    8MPD2    C4  119   1.646   0.707  12.955  0.0419  0.9573  0.3566
    8MPD2    C5  120   1.664   0.577  12.913  0.0975  0.1387  0.0826
    8MPD2     H  121   1.436   0.654  13.208  0.7674  2.3078 -0.4798
    8MPD2    H1  122   1.687   0.787  12.895 -0.0168  0.2432 -0.6320
    8MPD2    H2  123   1.624   0.374  12.937 -0.0648  0.7313 -0.0890
    8MPD2    H3  124   1.712   0.564  12.817 -1.3808  1.7328 -0.8786
    8MPD2     N  125   1.569   0.859  13.130 -0.2417  0.3873 -0.5112
    8MPD2    H5  126   1.632   0.922  13.082  1.8925  0.1821  2.0161
    8MPD2    N1  127   1.457   0.389  13.168  0.1150 -0.2965 -0.5540
    8MPD2    H7  128   1.493   0.303  13.129  2.7792  0.4963  0.1507
    9TCq1    O1  129   3.595   3.739  10.584  0.4393 -0.1327  0.0482
    9TCq1    C1  130   3.659   3.708  10.700 -0.1155 -0.4773  0.4864
    9TCq1    O2  131   3.603   3.706  10.807  0.8113  0.2068 -0.0236
    9TCq1    C2  132   3.794   3.747  10.672  0.5665 -0.0416  0.1412
    9TCq1    C3  133   3.847   3.736  10.541 -0.8026 -0.3641  0.6359
    9TCq1    C4  134   3.974   3.785  10.522  0.1786 -0.3124  0.5187
    9TCq1    C5  135   4.035   3.869  10.607 -0.9251  0.1204  0.6753
    9TCq1    C6  136   3.968   3.899  10.724 -0.0205  0.6544 -0.2591
    9TCq1    C7  137   3.853   3.829  10.760  0.1855  0.3512 -0.4429
    9TCq1    C8  138   4.011   4.019  10.791 -0.1981  0.2032 -0.4935
    9TCq1    O4  139   4.121   4.063  10.759  0.4525  0.0553 -0.0745
    9TCq1    C9  140   4.039   3.764  10.398  0.4817  0.1591  0.1730
    9TCq1    O5  141   4.164   3.755  10.399 -0.3097 -0.1578  0.4153
    9TCq1    O6  142   3.964   3.707  10.311  0.1175  0.9126 -0.7278
    9TCq1    H1  143   3.661   3.770  10.519  1.6921 -1.9518  0.4495
    9TCq1    H2  144   3.804   3.672  10.465 -0.6918 -0.5626  0.7416
    9TCq1    H3  145   4.134   3.908  10.583 -0.7237 -0.0862  1.1662
    9TCq1    H4  146   3.803   3.853  10.853 -0.8177  1.5230 -1.2843
   10MPD2     C  147   4.052   4.257  10.974 -0.2985  0.5951 -0.1261
   10MPD2    C1  148   3.945   4.171  10.975 -0.5256 -0.3536  0.6752
   10MPD2    C2  149   3.840   4.198  11.064 -0.1383 -0.1079 -0.2026
   10MPD2    C3  150   3.850   4.312  11.142 -0.3275 -0.3654  0.4793
   10MPD2    C4  151   3.970   4.391  11.148  0.3567 -0.0564 -0.1659
   10MPD2    C5  152   4.062   4.360  11.060  0.7906  0.2764  0.7428
   10MPD2     H  153   3.748   4.143  11.054  0.3860 -1.3349  1.6885
   10MPD2    H1  154   3.972   4.471  11.220  0.2264 -0.4013  0.2199
   10MPD2    H2  155   4.135   4.238  10.906 -1.3213 -0.6441 -1.0293
   10MPD2    H3  156   4.146   4.427  11.047  0.4199  1.0855  2.5855
   10MPD2     N  157   3.746   4.353  11.228 -0.0744  0.1923  0.1324
   10MPD2    H5  158   3.760   4.447  11.265 -0.6362 -0.0705  1.0200
   10MPD2    N1  159   3.922   4.063  10.885 -0.3727 -0.2364  0.5346
   10MPD2    H7  160   3.839   4.006  10.896 -1.5338  1.1261 -1.0619
   11TCq1    O1  161   0.215   4.527  13.745  0.0523 -0.5409 -0.6237
   11TCq1    C1  162   0.321   4.491  13.815 -0.3558  0.4851  0.0358
   11TCq1    O2  163   0.441   4.484  13.774  0.4930 -0.0108  0.1732
   11TCq1    C2  164   0.294   4.477  13.957 -0.3374 -0.8155  0.5862
   11TCq1    C3  165   0.399   4.466  14.039  0.3364 -0.1366 -0.3505
   11TCq1    C4  166   0.379   4.485  14.170  0.1539  0.0473  0.3914
   11TCq1    C5  167   0.250   4.513  14.213 -0.2108  0.3626  0.2276
   11TCq1    C6  168   0.145   4.512  14.130  0.5001 -0.7287 -0.3133
   11TCq1    C7  169   0.166   4.498  13.998  0.1201  0.0809  0.6569
   11TCq1    C8  170   0.022   4.475  14.196 -0.0357  0.0134 -0.5721
   11TCq1    O4  171   0.008   4.499  14.318  0.2445  0.2509 -1.1078
   11TCq1    C9  172   0.493   4.491  14.260  0.8594  0.3360 -0.2138
   11TCq1    O5  173   0.483   4.532  14.378 -0.1139 -0.4526  0.2448
   11TCq1    O6  174   0.607   4.467  14.207  0.3656 -0.1800 -0.4015
   11TCq1    H1  175   0.135   4.544  13.798  1.4557  1.3284  0.9402
   11TCq1    H2  176   0.500   4.468  14.001  0.3994 -0.4917 -0.2049
   11TCq1    H3  177   0.232   4.529  14.319  0.2088  1.8316  0.0717
   11TCq1    H4  178   0.081   4.484  13.933  1.7486  0.9618 -1.6767
   12MPD2     C  179   4.464   4.381  14.267  0.5873 -0.5676 -0.0746
   12MPD2    C1  180   4.531   4.351  14.152  0.1932 -0.3672  0.0513
   12MPD2    C2  181   4.464   4.280  14.056  0.6745  0.3186 -0.3680
   12MPD2    C3  182   4.336   4.238  14.072 -0.1393 -0.1139 -0.2053
   12MPD2    C4  183   4.268   4.270  14.190  0.9294  0.3545  0.0791
   12MPD2    C5  184   4.336   4.350  14.281 -0.5913  0.4056 -0.4815
   12MPD2     H  185   4.519   4.254  13.966 -2.1044 -2.4641 -1.2472
   12MPD2    H1  186   4.164   4.244  14.206  1.8230 -2.5265  1.2675
   12MPD2    H2  187   4.508   4.434  14.351 -1.5309  0.1948  0.5637
   12MPD2    H3  188   4.278   4.380  14.367  0.7346 -0.1097  0.6010
   12MPD2     N  189   4.287   4.143  13.984  0.0857  0.8745  0.2111
   12MPD2    H5  190   4.349   4.126  13.906  0.2911  0.9466  0.3601
   12MPD2    N1  191   4.659   4.401  14.114 -0.0293  0.5378 -0.1506
   12MPD2    H7  192   4.690   4.382  14.019  0.6173 -2.5834  0.6837
   13TCq1    O1  193   3.581   3.343   9.866  0.2571 -0.0086  0.2240
   13TCq1    C1  194   3.630   3.412   9.966  0.1986  0.8786  0.4503
   13TCq1    O2  195   3.649   3.530   9.970 -0.3173 -0.2583 -0.0884
   13TCq1    C2  196   3.670   3.316  10.074  0.2069  0.1412  0.2322
   13TCq1    C3  197   3.721   3.191  10.052 -0.2420  0.2037 -0.4548
   13TCq1    C4  198   3.748   3.116  10.161 -0.6205 -0.4717  0.3962
   13TCq1    C5  199   3.705   3.138  10.287 -0.0849 -0.1231  0.4076
   13TCq1    C6  200   3.670   3.271  10.302 -0.1786  0.2661  0.0184
   13TCq1    C7  201   3.653   3.361  10.201  0.5947 -0.1802 -0.1541
   13TCq1    C8  202   3.635   3.322  10.437  0.6119 -0.1655  0.1257
   13TCq1    O4  203   3.593   3.438  10.444 -0.6437  0.4492  0.3903
   13TCq1    C9  204   3.788   2.983  10.129  0.1509  0.1179  0.5734
   13TCq1    O5  205   3.761   2.887  10.201  0.3188  0.2757 -0.1616
   13TCq1    O6  206   3.841   2.968  10.016  0.1047  0.4242 -0.2451
   13TCq1    H1  207   3.566   3.246   9.873  0.6861 -0.0387  0.7293
   13TCq1    H2  208   3.734   3.154   9.951 -0.9413 -1.1718 -0.0297
   13TCq1    H3  209   3.721   3.062  10.362 -0.7581  0.5833  1.2633
   13TCq1    H4  210   3.617   3.461  10.220  0.0813 -0.7074  1.6010
   14MPD2     C  211   3.577   3.099  10.727  0.2847 -0.7887  0.0448
   14MPD2    C1  212   3.597   3.222  10.664  0.0682  0.2786 -0.5722
   14MPD2    C2  213   3.579   3.340  10.731 -1.1373 -0.6527  1.0125
   14MPD2    C3  214   3.546   3.343  10.869 -0.1338 -0.4916  0.4156
   14MPD2    C4  215   3.519   3.220  10.929  0.2138 -0.0749  0.5573
   14MPD2    C5  216   3.539   3.099  10.858 -0.6153 -0.4403  0.3285
   14MPD2     H  217   3.586   3.432  10.674 -0.8508 -1.1530  0.2317
   14MPD2    H1  218   3.484   3.208  11.031 -0.4361  2.1919  0.5986
   14MPD2    H2  219   3.593   3.006  10.675  1.3889  0.3886 -1.7532
   14MPD2    H3  220   3.514   3.010  10.916  1.9602  0.2355  2.4598
   14MPD2     N  221   3.523   3.461  10.939 -0.2036 -0.5681 -0.6656
   14MPD2    H5  222   3.525   3.546  10.884 -0.0067 -0.0425  0.1469
   14MPD2    N1  223   3.631   3.218  10.527 -0.0763  0.3087 -0.4328
   14MPD2    H7  224   3.653   3.126  10.491 -0.0815  0.4540 -0.7996
   15TCq1    O1  225   4.637   2.616   1.920 -0.1969  0.0783  0.2011
   15TCq1    C1  226   0.017   2.566   1.853  0.3663  0.5066  0.2911
   15TCq1    O2  227   0.046   2.443   1.858  0.2159  0.1326 -0.3530
   15TCq1    C2  228   0.035   2.642   1.735  0.0534  0.1758  0.2649
   15TCq1    C3  229   0.040   2.782   1.743  0.2877 -0.3791 -0.1300
   15TCq1    C4  230   0.055   2.851   1.627  0.2417 -0.0857  0.3539
   15TCq1    C5  231   0.068   2.784   1.504 -0.0840 -0.2951 -0.5210
   15TCq1    C6  232   0.061   2.642   1.503 -0.0044  0.2196  0.3498
   15TCq1    C7  233   0.045   2.575   1.620  0.5151  0.7256  0.0696
   15TCq1    C8  234   0.083   2.555   1.388 -0.1107  0.1619 -0.1990
   15TCq1    O4  235   0.092   2.435   1.399  0.3082  0.2429  0.0256
   15TCq1    C9  236   0.052   3.002   1.626 -0.0307 -0.2907 -0.1018
   15TCq1    O5  237   0.056   3.055   1.739  0.2435 -0.1039 -0.3663
   15TCq1    O6  238   0.033   3.061   1.516 -0.4426  0.2020  0.3384
   15TCq1    H1  239   4.620   2.713   1.911  0.1452  0.1235  0.0504
   15TCq1    H2  240   0.040   2.827   1.842  0.9350  0.1847 -0.3871
   15TCq1    H3  241   0.051   2.847   1.418  0.3608 -0.0453 -0.4239
   15TCq1    H4  242   0.045   2.467   1.624 -0.8319  0.7108 -0.4518
   16MPD2     C  243   0.115   2.668   1.042 -0.2969  0.0985  0.0952
   16MPD2    C1  244   0.126   2.578   1.148  0.0551 -0.3275  0.0370
   16MPD2    C2  245   0.190   2.457   1.132  0.7831 -0.6732  0.4846
   16MPD2    C3  246   0.210   2.410   0.999 -0.1664  0.0073  0.4081
   16MPD2    C4  247   0.190   2.497   0.894  0.3875  0.3085 -0.3036
   16MPD2    C5  248   0.154   2.626   0.914  0.5309  0.2571 -0.1544
   16MPD2     H  249   0.200   2.378   1.206 -3.1128 -0.2567  1.4627
   16MPD2    H1  250   0.227   2.477   0.794 -1.0024 -0.3733 -0.6685
   16MPD2    H2  251   0.082   2.770   1.058  2.5694  0.8820  1.1789
   16MPD2    H3  252   0.159   2.705   0.841 -2.5853 -0.6313 -1.3553
   16MPD2     N  253   0.277   2.286   0.992  0.1879  0.2414 -0.5208
   16MPD2    H5  254   0.315   2.250   1.079  0.1413 -0.1535 -0.6682
   16MPD2    N1  255   0.092   2.628   1.270 -0.3260  0.1863 -0.6421
   16MPD2    H7  256   0.072   2.728   1.278  0.3263  0.1184  2.0311
   17TCq1    O1  257   3.258   2.604  10.474 -0.0131 -0.3224  0.3975
   17TCq1    C1  258   3.341   2.510  10.423 -0.4885 -0.0196 -0.0203
   17TCq1    O2  259   3.303   2.412  10.362  0.0439 -0.2287 -0.0168
   17TCq1    C2  260   3.469   2.565  10.400 -0.7801 -0.1038  0.3609
   17TCq1    C3  261   3.545   2.496  10.312 -0.0230 -0.7301  0.2891
   17TCq1    C4  262   3.679   2.521  10.302 -0.4686 -0.0203  0.4283
   17TCq1    C5  263   3.737   2.604  10.389  0.6655 -0.1950 -0.1360
   17TCq1    C6  264   3.661   2.668  10.482 -0.0501  0.2260  0.8716
   17TCq1    C7  265   3.527   2.657  10.488  0.4611 -0.4736  0.9310
   17TCq1    C8  266   3.718   2.783  10.544  0.0813 -0.0747  0.2402
   17TCq1    O4  267   3.694   2.798  10.663  0.2436 -0.0651 -0.1421
   17TCq1    C9  268   3.756   2.434  10.209 -0.2130 -0.2547 -0.3404
   17TCq1    O5  269   3.877   2.475  10.205  0.7042 -0.0259  0.5239
   17TCq1    O6  270   3.699   2.347  10.142  0.4988 -0.3031  0.2631
   17TCq1    H1  271   3.293   2.687  10.512 -3.9412  0.8844  1.4228
   17TCq1    H2  272   3.506   2.409  10.261  0.7781 -1.0173  0.1826
   17TCq1    H3  273   3.845   2.605  10.397  0.7211  1.4425 -1.1214
   17TCq1    H4  274   3.466   2.719  10.553  1.7065  0.7834  0.8995
   18MPD2     C  275   3.926   2.971  10.656  0.3961 -0.5767  0.5538
   18MPD2    C1  276   3.918   2.937  10.522 -0.1342  0.8042 -0.3871
   18MPD2    C2  277   4.012   2.994  10.436  0.1512  0.3933 -0.8076
   18MPD2    C3  278   4.113   3.077  10.479  0.3295  0.1047 -0.1552
   18MPD2    C4  279   4.111   3.114  10.612 -0.3773 -0.5635  0.0865
   18MPD2    C5  280   4.030   3.053  10.697  0.9663 -0.7170 -0.2569
   18MPD2     H  281   4.002   2.969  10.331  0.0299  2.3696 -1.2547
   18MPD2    H1  282   4.192   3.176  10.649 -0.8884 -0.5698  1.2283
   18MPD2    H2  283   3.859   2.922  10.725  1.8928 -2.4301  0.6961
   18MPD2    H3  284   4.039   3.077  10.802 -0.3931 -0.5165 -0.1833
   18MPD2     N  285   4.199   3.155  10.388 -0.2402 -0.4743 -0.2658
   18MPD2    H5  286   4.256   3.230  10.427  1.4996 -0.4879 -2.8298
   18MPD2    N1  287   3.826   2.840  10.476  0.2713 -0.2558  0.7130
   18MPD2    H7  288   3.844   2.807  10.382  0.0085 -0.9566  0.9044
   19TMC2    C1  289   0.844   3.948  13.626 -0.3734 -0.5298 -0.3152
   19TMC2    C2  290   0.798   4.020  13.523  0.3339  0.3198 -0.1866
   19TMC2    C3  291   0.680   3.985  13.458 -0.1139 -0.2087 -0.7634
   19TMC2    C4  292   0.761   3.867  13.694  0.4163  0.0949  0.6002
   19TMC2    C5  293   0.636   3.843  13.639  0.2575  0.4021  0.1484
   19TMC2    C6  294   0.597   3.898  13.519 -0.3476 -0.8287 -0.0821
   19TMC2     C  295   0.983   3.981  13.669 -0.0450  0.3076  0.1078
   19TMC2     O  296   1.052   4.053  13.595  0.1532 -0.1050 -0.2943
   19TMC2     H  297   0.868   4.088  13.475 -0.2026  1.5451  0.7637
   19TMC2    H1  298   0.788   3.804  13.778 -2.0885 -1.2492  0.3936
   19TMC2    H2  299   0.492   3.885  13.493 -0.5168  1.6477 -0.6291
   19TMC2    C7  300   0.541   3.752  13.708 -0.6385 -0.2441 -0.0796
   19TMC2    C8  301   0.622   4.092  13.382  0.2377 -0.8863 -0.6425
   19TMC2    O1  302   0.529   3.777  13.827  0.3565 -0.3613 -0.2332
   19TMC2    O2  303   0.501   4.125  13.383  0.3108  0.4017  0.8826
   19TMC2    O5  304   0.707   4.115  13.283 -0.4826 -0.7881 -0.9041
   19TMC2    H5  305   0.781   4.052  13.295  0.4154  0.2748 -0.8524
   20MPD2     C  306   1.218   4.059  13.847 -0.2100  0.1319  0.7446
   20MPD2    C1  307   1.124   3.963  13.876  0.7198 -0.1228  0.0854
   20MPD2    C2  308   1.131   3.884  13.991  0.1176 -0.3248 -0.3624
   20MPD2    C3  309   1.230   3.917  14.083 -0.4027  0.1446  0.0780
   20MPD2    C4  310   1.321   4.023  14.066  0.0244  0.0071  0.8512
   20MPD2    C5  311   1.311   4.085  13.947  0.1005  1.1567  0.0693
   20MPD2     H  312   1.066   3.799  14.010 -1.8713  0.1473 -5.0883
   20MPD2    H1  313   1.398   4.046  14.138 -0.1955  0.5379  0.9211
   20MPD2    H2  314   1.221   4.117  13.755  1.0282  0.4497  0.9834
   20MPD2    H3  315   1.384   4.164  13.935  1.3598 -0.0213  0.0842
   20MPD2     N  316   1.222   3.874  14.220 -0.2684  0.7797 -0.3441
   20MPD2    H5  317   1.279   3.922  14.290 -0.4035 -0.4191  0.5805
   20MPD2    N1  318   1.017   3.922  13.788 -0.8843  0.7066  0.0652
   20MPD2    H7  319   0.949   3.861  13.833  0.4744 -1.0409 -0.2574
   21MPD2     C  320   3.397   0.070  14.217 -0.3990 -0.1315 -0.5533
   21MPD2    C1  321   3.386   4.654  14.207 -0.0121 -0.6334  0.1690
   21MPD2    C2  322   3.263   4.595  14.233 -0.7080  0.0536 -0.2154
   21MPD2    C3  323   3.167   4.679  14.286  0.3032 -0.4857  0.1999
   21MPD2    C4  324   3.180   0.093  14.279 -0.8969 -0.0010  0.9325
   21MPD2    C5  325   3.291   0.151  14.252  0.0616  0.4851  0.4441
   21MPD2     H  326   3.252   4.490  14.212  1.2920 -0.1734 -0.1604
   21MPD2    H1  327   3.094   0.152  14.308 -2.4584 -2.2470  0.7893
   21MPD2    H2  328   3.490   0.126  14.211  1.1827 -2.5404  1.2801
   21MPD2    H3  329   3.301   0.259  14.246  3.8660  0.0031 -2.3083
   21MPD2     N  330   3.048   4.630  14.341 -0.2974  0.1841  0.5154
   21MPD2    H5  331   2.983   4.701  14.374 -1.4431 -1.6254  2.1317
   21MPD2    N1  332   3.489   4.566  14.177  0.1591 -0.1668  0.3534
   21MPD2    H7  333   3.466   4.468  14.188 -0.9686  0.1238  0.5239
   22TCq2    C1  334   3.014   4.497  14.356 -0.1062  0.0980 -0.3376
   22TCq2    O2  335   3.090   4.402  14.343  0.1450 -0.7182 -0.2528
   22TCq2    C2  336   2.882   4.473  14.404  0.2109 -0.6179  0.1824
   22TCq2    C3  337   2.870   4.392  14.515 -0.6671 -0.0412 -0.6795
   22TCq2    C4  338   2.744   4.369  14.558  0.3553 -0.3166 -0.1396
   22TCq2    C5  339   2.634   4.434  14.514 -0.0647  0.1997 -0.1844
   22TCq2    C6  340   2.653   4.516  14.405 -0.3041  0.3391  0.5124
   22TCq2    C7  341   2.775   4.537  14.353 -0.8857  0.3465  0.6308
   22TCq2    C8  342   2.552   4.620  14.378 -0.2434 -0.4019 -1.0514
   22TCq2    O4  343   2.435   4.593  14.393  0.3623 -0.7688 -0.1481
   22TCq2    C9  344   2.733   4.276  14.673  0.2007 -0.0707 -0.8482
   22TCq2    O5  345   2.845   4.224  14.711  0.4982  0.5258 -0.2363
   22TCq2    O6  346   2.630   4.282  14.740 -0.6858 -0.4950 -0.1595
   22TCq2    H2  347   2.964   4.348  14.549 -1.6225  0.7064  2.9595
   22TCq2    H3  348   2.536   4.415  14.555 -0.9040  3.2455 -0.7335
   22TCq2    H4  349   2.801   4.596  14.266 -1.1200 -0.1983  0.1824
   23MPD2     C  350   4.407   0.777  14.613 -0.5968 -0.3218  0.6888
   23MPD2    C1  351   4.300   0.715  14.683 -0.7478 -0.2021 -1.2894
   23MPD2    C2  352   4.175   0.773  14.680 -0.7254  0.1601 -0.3536
   23MPD2    C3  353   4.150   0.884  14.600 -0.1139  0.0392 -0.3398
   23MPD2    C4  354   4.257   0.956  14.532 -0.3542 -0.0651 -0.1644
   23MPD2    C5  355   4.382   0.890  14.535  0.1152 -0.8697  0.4013
   23MPD2     H  356   4.092   0.732  14.736 -0.6452  0.9408  0.3378
   23MPD2    H1  357   4.247   1.035  14.459  1.2128  0.5161  0.2375
   23MPD2    H2  358   4.506   0.735  14.621 -0.8009 -1.2177 -1.4770
   23MPD2    H3  359   4.465   0.947  14.495 -0.2060  0.8358  2.2004
   23MPD2     N  360   4.019   0.923  14.572  0.1020 -0.3251  0.1310
   23MPD2    H5  361   4.006   1.015  14.533  0.5423  0.5147  1.9748
   23MPD2    N1  362   4.318   0.602  14.761 -0.1777 -0.7577 -0.2151
   23MPD2    H7  363   4.235   0.576  14.813  1.0038 -0.4477  1.8214
   24TCq2    C1  364   3.911   0.841  14.581  0.1885 -0.3184 -0.3913
   24TCq2    O2  365   3.920   0.719  14.576  0.0636  0.0568  0.2515
   24TCq2    C2  366   3.789   0.910  14.537 -0.1456  0.9069 -0.4007
   24TCq2    C3  367   3.773   1.046  14.555 -0.3190 -0.8339  0.5560
   24TCq2    C4  368   3.667   1.105  14.494 -0.5129 -0.3909 -0.2259
   24TCq2    C5  369   3.584   1.040  14.415  0.0994  0.0709  1.1523
   24TCq2    C6  370   3.599   0.905  14.396  0.7376 -0.2938  0.3606
   24TCq2    C7  371   3.698   0.838  14.467 -0.2030 -0.3015 -0.0665
   24TCq2    C8  372   3.522   0.831  14.295  0.1484 -0.2863  0.3306
   24TCq2    O4  373   3.568   0.726  14.257  0.2767  0.3028  0.6780
   24TCq2    C9  374   3.628   1.242  14.517  0.4235  0.1473  0.6764
   24TCq2    O5  375   3.508   1.275  14.494  0.2866 -0.0097 -0.3839
   24TCq2    O6  376   3.716   1.319  14.552  0.1011 -0.0556  0.0084
   24TCq2    H2  377   3.841   1.100  14.620 -0.8754 -0.1079  0.5312
   24TCq2    H3  378   3.507   1.093  14.359  2.1047  1.4611 -0.2853
   24TCq2    H4  379   3.694   0.730  14.473  0.6864 -0.2665  1.2404
   25TMC2    C1  380   3.320   3.049  11.772  0.0043 -0.4457  0.3234
   25TMC2    C2  381   3.435   3.125  11.781  0.3497  0.4041 -0.4280
   25TMC2    C3  382   3.449   3.214  11.884  0.1941 -0.7357  0.5254
   25TMC2    C4  383   3.221   3.052  11.870 -0.0378  0.0818  0.1453
   25TMC2    C5  384   3.248   3.132  11.980  0.9830  1.1216  0.0500
   25TMC2    C6  385   3.361   3.210  11.989 -0.5589  0.6725 -0.5637
   25TMC2     C  386   3.316   2.935  11.667 -0.0744 -0.3656  0.1339
   25TMC2     O  387   3.386   2.943  11.568 -0.3510 -0.0732 -0.2907
   25TMC2     H  388   3.512   3.118  11.705  0.2121  1.5116 -0.6693
   25TMC2    H1  389   3.139   2.981  11.864 -1.3633  1.4847  1.8557
   25TMC2    H2  390   3.368   3.289  12.063 -1.5591  1.2616 -1.0884
   25TMC2    C7  391   3.158   3.135  12.094 -0.0097  0.5108  0.0134
   25TMC2    C8  392   3.558   3.308  11.897  0.0602  0.1963 -0.1153
   25TMC2    O1  393   3.193   3.174  12.203  0.0108 -0.0134  0.1037
   25TMC2    O2  394   3.621   3.327  11.999 -0.7526 -0.7799  0.0337
   25TMC2    O5  395   3.587   3.344  11.770 -0.6595  0.6272 -0.7516
   25TMC2    H5  396   3.529   3.297  11.706 -0.1610  0.3847 -1.0264
   26MPD2     C  397   3.082   2.518  11.494 -0.4391 -0.0842  0.6064
   26MPD2    C1  398   3.064   2.518  11.635  0.7690  0.3618 -0.1374
   26MPD2    C2  399   3.129   2.621  11.702  0.8103  0.4176 -0.5350
   26MPD2    C3  400   3.214   2.706  11.638 -0.2778 -0.7867 -0.3493
   26MPD2    C4  401   3.245   2.683  11.509 -0.3106 -0.2138  0.2025
   26MPD2    C5  402   3.185   2.595  11.434  0.0259  0.5375  0.1107
   26MPD2     H  403   3.104   2.636  11.807  2.1479 -1.4622  0.0455
   26MPD2    H1  404   3.323   2.741  11.460  1.0573 -2.9703 -0.9231
   26MPD2    H2  405   3.029   2.451  11.427 -0.2293 -1.1190  1.4834
   26MPD2    H3  406   3.199   2.574  11.329 -1.7267 -1.4899  0.2811
   26MPD2     N  407   3.241   2.829  11.710 -0.0034  0.5421 -0.0473
   26MPD2    H5  408   3.214   2.844  11.806  0.0705  0.8767 -0.0768
   26MPD2    N1  409   2.955   2.435  11.691 -0.2665  0.0140  0.5443
   26MPD2    H7  410   2.900   2.383  11.622  0.2443 -1.4557  1.2404
   27TMC2    C1  411   2.059   4.594  11.970 -0.2443 -0.2344  0.1531
   27TMC2    C2  412   1.968   4.690  11.930  0.2060 -0.2487  0.1525
   27TMC2    C3  413   2.019   0.082  11.869 -0.0310 -0.0055  0.6524
   27TMC2    C4  414   2.193   4.618  11.948 -0.6671  0.1621  0.8143
   27TMC2    C5  415   2.239   0.012  11.887  0.7697 -0.3648  0.3196
   27TMC2    C6  416   2.149   0.107  11.844 -0.6685 -0.2146  0.0015
   27TMC2     C  417   2.021   4.490  12.057  0.1767 -0.0928  0.1904
   27TMC2     O  418   2.086   4.389  12.052  0.1054  0.3260 -0.4356
   27TMC2     H  419   1.864   4.685  11.960 -0.1639  2.4400 -0.6532
   27TMC2    H1  420   2.273   4.555  11.985  0.7046  1.8590  0.7813
   27TMC2    H2  421   2.175   0.205  11.803  1.0914 -0.0535  1.5171
   27TMC2    C7  422   2.359   0.066  11.945  0.6024  0.3265 -0.2677
   27TMC2    C8  423   1.930   0.196  11.845 -0.2875  0.1296 -0.7691
   27TMC2    O1  424   2.425   4.706  12.009  0.0564 -0.1309 -0.2131
   27TMC2    O2  425   1.970   0.313  11.842  0.6383 -0.0095 -0.6602
   27TMC2    O5  426   1.806   0.160  11.809 -0.3744 -0.2757 -0.7544
   27TMC2    H5  427   1.798   0.063  11.801 -2.1609 -0.0565 -1.6718
   28MPD2     C  428   1.785   4.316  12.469 -0.3400  0.3539  0.3382
   28MPD2    C1  429   1.752   4.448  12.452  0.2907 -0.3008 -0.4730
   28MPD2    C2  430   1.817   4.520  12.347  0.5603 -0.9102  0.1824
   28MPD2    C3  431   1.901   4.460  12.260  0.1614  0.1526  0.2743
   28MPD2    C4  432   1.936   4.327  12.287  0.3587  0.5307 -0.0479
   28MPD2    C5  433   1.887   4.263  12.400  0.5815 -0.2245  0.0560
   28MPD2     H  434   1.802   4.627  12.339  1.0698 -0.7329  1.5966
   28MPD2    H1  435   2.001   4.266  12.225 -3.4400 -2.1788 -1.3339
   28MPD2    H2  436   1.731   4.252  12.537  1.6832 -2.5517 -0.7772
   28MPD2    H3  437   1.920   4.163  12.425 -0.4947 -0.1123  1.9258
   28MPD2     N  438   1.950   4.539  12.160  0.0176 -0.1107  0.2330
   28MPD2    H5  439   1.924   4.637  12.160  1.0000  0.1511 -2.4081
   28MPD2    N1  440   1.654   4.501  12.545 -0.5675 -0.9148  0.2553
   28MPD2    H7  441   1.611   4.423  12.594  0.7159 -1.6159  0.2686
   29MPD2     C  442   1.264   2.399  14.052 -0.2280  0.3015 -0.3523
   29MPD2    C1  443   1.395   2.374  14.090 -0.1588  0.2057 -0.4386
   29MPD2    C2  444   1.485   2.483  14.104  0.0908 -0.1311  0.7204
   29MPD2    C3  445   1.446   2.609  14.071 -0.0942  1.2522  0.1263
   29MPD2    C4  446   1.314   2.629  14.031  0.7293  0.4108  0.1308
   29MPD2    C5  447   1.222   2.527  14.020  0.5214  0.4863  0.7269
   29MPD2     H  448   1.585   2.461  14.140  1.0464 -1.5136 -2.7864
   29MPD2    H1  449   1.279   2.729  14.008  3.2626  2.6696  5.9120
   29MPD2    H2  450   1.190   2.321  14.040 -0.0460  0.0122  0.4157
   29MPD2    H3  451   1.120   2.558  14.002  0.4286 -0.7513 -0.8885
   29MPD2     N  452   1.526   2.729  14.075 -0.2457  0.1679 -0.4174
   29MPD2    H5  453   1.480   2.820  14.069 -1.2872 -0.3511 -0.2446
   29MPD2    N1  454   1.437   2.247  14.133 -0.7045  0.2960  0.5397
   29MPD2    H7  455   1.531   2.229  14.165 -0.4638 -0.0255 -0.3443
   30TCq2    C1  456   1.664   2.719  14.080 -0.3179 -1.1579 -1.1072
   30TCq2    O2  457   1.746   2.631  14.047 -0.0461 -0.0325  0.3191
   30TCq2    C2  458   1.717   2.851  14.123  0.2847  0.6210 -0.1738
   30TCq2    C3  459   1.643   2.919  14.214 -0.5574 -0.0451 -0.1709
   30TCq2    C4  460   1.678   3.051  14.246  0.5343  0.5335  0.0549
   30TCq2    C5  461   1.770   3.122  14.174 -0.1092 -0.4240  0.3873
   30TCq2    C6  462   1.847   3.050  14.077 -0.0244  0.9987  0.1059
   30TCq2    C7  463   1.819   2.916  14.060  0.0688  0.2079  0.0366
   30TCq2    C8  464   1.986   3.089  14.036  0.4412 -0.2018  0.5936
   30TCq2    O4  465   2.036   3.042  13.932  0.1022 -0.1927  0.1972
   30TCq2    C9  466   1.609   3.105  14.354  0.5485  0.5774  0.8500
   30TCq2    O5  467   1.655   3.197  14.424 -0.6694  0.0666 -0.7177
   30TCq2    O6  468   1.486   3.062  14.358  0.0199 -0.9143  0.1023
   30TCq2    H2  469   1.570   2.865  14.273 -1.2580  1.2898  0.1818
   30TCq2    H3  470   1.789   3.227  14.192 -2.3418 -0.5987  3.7816
   30TCq2    H4  471   1.879   2.872  13.981 -0.0516  0.4136 -0.1679
   31MPD2     C  472   4.386   1.463  14.924 -0.2884  0.4981  0.0189
   31MPD2    C1  473   4.263   1.524  14.919  0.0774 -0.2139  0.4114
   31MPD2    C2  474   4.159   1.476  14.999 -0.3792 -0.3403 -0.1155
   31MPD2    C3  475   4.183   1.363  15.080 -0.2200  0.8186 -0.7357
   31MPD2    C4  476   4.299   1.295  15.064  0.4662 -0.7201 -0.5756
   31MPD2    C5  477   4.402   1.351  14.997 -0.4783  0.0358 -0.7095
   31MPD2     H  478   4.065   1.529  15.000 -0.7204 -0.9533 -0.3176
   31MPD2    H1  479   4.315   1.201  15.115  0.5433  0.0765  0.8657
   31MPD2    H2  480   4.471   1.491  14.862  0.8103 -1.8993  0.4557
   31MPD2    H3  481   4.494   1.294  14.993  0.8161  1.9944  0.8615
   31MPD2     N  482   4.081   1.300  15.160  0.3313 -0.4855 -0.6165
   31MPD2    H5  483   4.110   1.219  15.214  2.8213  1.8469  1.5385
   31MPD2    N1  484   4.248   1.620  14.815  0.3151 -0.3094  0.2270
   31MPD2    H7  485   4.332   1.653  14.768  0.9764 -2.3816 -0.0210
   32TCq2    C1  486   3.954   1.357  15.186  0.1678 -0.3179 -0.2387
   32TCq2    O2  487   3.895   1.445  15.121 -0.1717  0.1470 -0.2307
   32TCq2    C2  488   3.884   1.294  15.296 -0.5887  0.2717 -0.5667
   32TCq2    C3  489   3.750   1.306  15.298 -0.2712  0.0167  0.3490
   32TCq2    C4  490   3.679   1.306  15.417 -0.3013 -0.5753 -0.7221
   32TCq2    C5  491   3.749   1.287  15.537  0.0564  0.2102 -0.6168
   32TCq2    C6  492   3.884   1.261  15.529 -0.2249 -0.5462  0.2929
   32TCq2    C7  493   3.952   1.267  15.413  0.3155 -0.5243 -0.3554
   32TCq2    C8  494   3.967   1.243  15.645  0.4503  0.4207 -0.5644
   32TCq2    O4  495   4.082   1.229  15.626  0.6775  0.8850  0.4940
   32TCq2    C9  496   3.538   1.351  15.419  0.2528  0.6227  0.8986
   32TCq2    O5  497   3.497   1.391  15.534  0.1187  0.5504 -0.4621
   32TCq2    O6  498   3.467   1.373  15.314 -0.2356 -0.2317 -0.3150
   32TCq2    H2  499   3.689   1.333  15.212 -3.1734 -0.6803  2.1840
   32TCq2    H3  500   3.692   1.285  15.630  0.0350 -1.1631 -0.6700
   32TCq2    H4  501   4.060   1.263  15.420  0.0977 -3.1911  1.4105
   33MPD2     C  502   4.118   3.306   9.613 -0.2129 -0.2768  0.6411
   33MPD2    C1  503   4.239   3.349   9.664  0.9238  0.1556  0.4797
   33MPD2    C2  504   4.319   3.420   9.578  0.3747  0.9723  0.2481
   33MPD2    C3  505   4.284   3.453   9.449 -0.3054  0.1529  0.4661
   33MPD2    C4  506   4.167   3.410   9.399  0.2491 -0.2764  0.2675
   33MPD2    C5  507   4.089   3.334   9.480 -0.2199  0.4999 -0.0359
   33MPD2     H  508   4.410   3.469   9.612  1.0483 -0.9981  1.2294
   33MPD2    H1  509   4.130   3.420   9.298  0.4338 -0.2965  0.1980
   33MPD2    H2  510   4.043   3.255   9.672 -1.7822  0.8337 -0.3893
   33MPD2    H3  511   3.991   3.305   9.444  0.2273  0.7162 -1.4250
   33MPD2     N  512   4.364   3.525   9.358 -0.3434 -0.4667  0.8680
   33MPD2    H5  513   4.325   3.526   9.264 -1.0530  1.7315  1.1702
   33MPD2    N1  514   4.273   3.323   9.802  0.2364 -0.3000 -0.2356
   33MPD2    H7  515   4.216   3.264   9.862 -0.5858 -1.5740 -2.2796
   34TCq2    C1  516   4.483   3.594   9.368  0.4598  1.2405 -0.1927
   34TCq2    O2  517   4.544   3.619   9.469 -0.4798  0.2638 -0.7859
   34TCq2    C2  518   4.513   3.663   9.250  0.3015  0.2034 -0.2424
   34TCq2    C3  519   4.464   3.627   9.128  0.3177 -0.1865  1.0192
   34TCq2    C4  520   4.497   3.711   9.026  0.1121 -0.0911 -0.1154
   34TCq2    C5  521   4.550   3.837   9.044  0.0148 -0.2451 -0.3453
   34TCq2    C6  522   4.591   3.871   9.168 -0.3519  0.4699  0.6306
   34TCq2    C7  523   4.580   3.784   9.275  0.2067  0.3396  0.2868
   34TCq2    C8  524   4.649   3.993   9.206  0.4749 -0.0261  0.2753
   34TCq2    O4  525   4.675   4.017   9.324  0.4514  0.5822 -0.1063
   34TCq2    C9  526   4.434   3.696   8.899  0.6879  0.6814  0.0258
   34TCq2    O5  527   4.398   3.582   8.872 -0.5158  0.3610  0.2404
   34TCq2    O6  528   4.411   3.798   8.832 -0.1160 -0.7326  0.5170
   34TCq2    H2  529   4.421   3.529   9.115  0.1158  0.0327  0.0138
   34TCq2    H3  530   4.555   3.904   8.959  2.0473 -1.6780 -1.3417
   34TCq2    H4  531   4.618   3.812   9.372  2.5405  0.0308 -0.5288
   35MPD2     C  532   1.264   0.657  11.907 -0.0434 -0.5536 -0.1736
   35MPD2    C1  533   1.240   0.527  11.878 -0.7468  0.0858 -0.0181
   35MPD2    C2  534   1.167   0.489  11.767  0.9899 -0.6803 -0.0858
   35MPD2    C3  535   1.115   0.592  11.680 -0.4840  0.4367 -0.2888
   35MPD2    C4  536   1.138   0.719  11.721 -0.0498  0.2718  0.3276
   35MPD2    C5  537   1.210   0.753  11.833  0.6808  0.2653 -1.3470
   35MPD2     H  538   1.151   0.385  11.743  0.0466 -0.6865  0.5790
   35MPD2    H1  539   1.096   0.801  11.664 -1.1259 -1.8435 -1.9476
   35MPD2    H2  540   1.330   0.692  11.985 -2.0787  1.2816  0.7130
   35MPD2    H3  541   1.227   0.855  11.862  0.7394 -0.3491  0.7455
   35MPD2     N  542   1.037   0.550  11.570  0.3584 -0.2414 -0.2520
   35MPD2    H5  543   1.012   0.452  11.561  2.9379 -0.8130 -1.3251
   35MPD2    N1  544   1.281   0.441  11.981 -0.6738 -0.1127  1.0415
   35MPD2    H7  545   1.353   0.477  12.043 -2.7900 -0.4499  3.6644
   36TCq2    C1  546   1.021   0.634  11.458 -0.6856  0.1620  0.0337
   36TCq2    O2  547   1.077   0.738  11.440  0.2844  0.0792  0.1166
   36TCq2    C2  548   0.943   0.582  11.347  0.4158 -0.2537 -0.2455
   36TCq2    C3  549   0.951   0.652  11.231 -0.2502  0.0594  0.2514
   36TCq2    C4  550   0.899   0.601  11.110 -1.2876 -0.2635  0.2026
   36TCq2    C5  551   0.817   0.487  11.113  0.5120  1.0443 -0.9918
   36TCq2    C6  552   0.798   0.434  11.242  0.2250  0.1548 -0.0135
   36TCq2    C7  553   0.863   0.472  11.356 -0.8907 -0.1579 -0.7617
   36TCq2    C8  554   0.719   0.322  11.239 -0.2514  0.0528 -0.0596
   36TCq2    O4  555   0.709   0.246  11.144  0.4730 -0.5045  0.1367
   36TCq2    C9  556   0.921   0.664  10.987  0.1039  0.4157 -0.0757
   36TCq2    O5  557   0.884   0.605  10.882 -0.0421  0.2430  0.1382
   36TCq2    O6  558   1.025   0.739  10.988 -0.1354  0.2388  0.2269
   36TCq2    H2  559   0.996   0.750  11.232 -0.4222  0.1325  0.9369
   36TCq2    H3  560   0.771   0.447  11.024  1.4203  1.0755 -1.4753
   36TCq2    H4  561   0.862   0.409  11.444 -1.6026  1.9699  0.7658
   37TMC2    C1  562   2.927   0.715  11.240 -0.0739  0.4470 -0.1577
   37TMC2    C2  563   2.882   0.640  11.137  0.2539  0.5779  0.5027
   37TMC2    C3  564   2.974   0.598  11.050 -0.0221 -0.3215 -0.1239
   37TMC2    C4  565   3.059   0.726  11.272 -0.0860 -0.1716  0.7654
   37TMC2    C5  566   3.148   0.671  11.184  0.1840 -0.6774 -0.5061
   37TMC2    C6  567   3.109   0.606  11.068 -0.9395  0.1929  0.2139
   37TMC2     C  568   2.827   0.773  11.326  0.4769 -0.2634  0.3112
   37TMC2     O  569   2.737   0.827  11.273 -0.2735  0.1505  0.6857
   37TMC2     H  570   2.777   0.615  11.126  0.3715  0.2406  0.1407
   37TMC2    H1  571   3.094   0.798  11.345  1.6106  0.2182 -0.4302
   37TMC2    H2  572   3.184   0.598  10.990 -1.4402 -1.4126 -0.0892
   37TMC2    C7  573   3.276   0.652  11.243  0.4392  0.5978  0.3232
   37TMC2    C8  574   2.935   0.529  10.931 -0.1796 -0.0045 -0.0824
   37TMC2    O1  575   3.293   0.702  11.352 -0.1298  0.5777  0.6585
   37TMC2    O2  576   2.830   0.547  10.873 -0.1415 -0.6019  0.5106
   37TMC2    O5  577   3.017   0.426  10.917  0.3185 -0.3320  0.3393
   37TMC2    H5  578   3.093   0.431  10.979  0.5508 -1.9577  0.2015
   38MPD2     C  579   2.616   0.841  11.786  0.0880  0.3083  0.4559
   38MPD2    C1  580   2.735   0.769  11.806 -0.2319 -0.2604  0.4212
   38MPD2    C2  581   2.808   0.737  11.693 -0.5511  0.0226  0.0847
   38MPD2    C3  582   2.767   0.783  11.565  0.2726 -0.3298  0.5719
   38MPD2    C4  583   2.642   0.850  11.548  0.2894 -0.3207 -0.9041
   38MPD2    C5  584   2.576   0.877  11.665 -0.3744 -0.1422  0.5656
   38MPD2     H  585   2.894   0.673  11.708 -0.9336 -1.1215 -2.6205
   38MPD2    H1  586   2.603   0.881  11.451 -1.1499 -0.1064 -0.2544
   38MPD2    H2  587   2.554   0.882  11.864  1.3358  2.0384  0.5487
   38MPD2    H3  588   2.490   0.943  11.675  0.3073  0.8951 -0.3492
   38MPD2     N  589   2.851   0.749  11.461  0.1428  1.2815 -0.3596
   38MPD2    H5  590   2.934   0.695  11.482  0.1209  1.5088  0.3001
   38MPD2    N1  591   2.787   0.728  11.932  0.0750  0.0882  0.4242
   38MPD2    H7  592   2.874   0.676  11.923 -0.0316  0.0069 -0.1841
   39MPD2     C  593   0.681   1.529   1.305 -0.4593 -0.8713  0.2270
   39MPD2    C1  594   0.672   1.668   1.326 -0.0281 -0.0109  1.0503
   39MPD2    C2  595   0.557   1.737   1.300 -0.7405  0.4650 -0.4842
   39MPD2    C3  596   0.461   1.673   1.224  0.4935  0.5953 -0.0277
   39MPD2    C4  597   0.479   1.539   1.193 -0.2357 -0.3669 -0.9913
   39MPD2    C5  598   0.579   1.466   1.242  0.1170  0.2025 -0.4166
   39MPD2     H  599   0.547   1.842   1.325  0.7185  0.3423  0.6079
   39MPD2    H1  600   0.399   1.473   1.161 -2.1502  0.2251  2.6512
   39MPD2    H2  601   0.767   1.471   1.334 -0.9451 -2.2105 -0.9872
   39MPD2    H3  602   0.579   1.360   1.217 -0.5064 -0.3477  1.8487
   39MPD2     N  603   0.338   1.730   1.186  0.1459  0.0914  0.3446
   39MPD2    H5  604   0.274   1.661   1.149  1.5508 -2.2581  2.2395
   39MPD2    N1  605   0.787   1.714   1.393  0.2711 -0.0471 -0.0159
   39MPD2    H7  606   0.866   1.650   1.388  0.6469  0.2107  2.6515
   40TCq2    C1  607   0.808   1.835   1.445  0.3244  0.4532  0.2878
   40TCq2    O2  608   0.720   1.913   1.476 -0.5149  0.0829  0.2984
   40TCq2    C2  609   0.948   1.850   1.487 -0.2276 -0.4793  0.0294
   40TCq2    C3  610   0.973   1.965   1.556 -0.0851  0.0318 -0.4672
   40TCq2    C4  611   1.103   2.014   1.572  0.7344  0.0180  0.5439
   40TCq2    C5  612   1.204   1.933   1.531  0.2915  0.4636 -0.2603
   40TCq2    C6  613   1.182   1.813   1.464  0.5372 -1.2903 -0.3101
   40TCq2    C7  614   1.050   1.777   1.442  0.7431 -0.1865  0.0616
   40TCq2    C8  615   1.280   1.758   1.371 -0.5058 -0.0074  0.1095
   40TCq2    O4  616   1.261   1.644   1.329  0.1878  0.4723 -0.3199
   40TCq2    C9  617   1.119   2.140   1.644 -0.2280 -0.1061 -0.0463
   40TCq2    O5  618   1.015   2.211   1.651  1.1119  0.4420  0.2445
   40TCq2    O6  619   1.239   2.181   1.655 -0.4345  0.0381 -0.1758
   40TCq2    H2  620   0.892   2.026   1.594  0.4397  0.2882  0.2314
   40TCq2    H3  621   1.307   1.960   1.551  0.7518 -1.5519  0.0851
   40TCq2    H4  622   1.037   1.688   1.383  3.3569 -0.1552 -0.5788
   41TMC2    C1  623   0.543   0.835  13.637 -0.5319 -0.6122 -0.0114
   41TMC2    C2  624   0.494   0.938  13.706  0.1069  0.3625 -0.1605
   41TMC2    C3  625   0.400   1.017  13.655  0.1232 -0.0843  0.0002
   41TMC2    C4  626   0.499   0.818  13.506 -0.2258 -0.1221 -0.1491
   41TMC2    C5  627   0.405   0.906  13.454  0.5131  0.0857 -0.0380
   41TMC2    C6  628   0.354   1.011  13.528 -0.2874 -0.3634  0.2224
   41TMC2     C  629   0.613   0.719  13.688 -1.0584  0.7052 -0.3030
   41TMC2     O  630   0.611   0.629  13.609  0.2194 -0.0503  0.4366
   41TMC2     H  631   0.537   0.966  13.802 -0.3466 -1.2545  0.5042
   41TMC2    H1  632   0.563   0.758  13.443 -0.3414 -0.3357 -0.0631
   41TMC2    H2  633   0.285   1.087  13.495 -0.0647 -0.4591 -0.4697
   41TMC2    C7  634   0.359   0.907  13.325 -0.9073 -0.2334  0.8176
   41TMC2    C8  635   0.373   1.134  13.740 -0.0477  0.0970  0.2844
   41TMC2    O1  636   0.285   1.001  13.300  0.7448 -0.2297  0.6840
   41TMC2    O2  637   0.460   1.188  13.810 -0.0598 -0.4181 -0.0807
   41TMC2    O5  638   0.245   1.171  13.728 -0.4695  0.3117  0.1759
   41TMC2    H5  639   0.184   1.098  13.706  1.3772 -1.5500  1.2393
   42MPD2     C  640   0.661   0.465  13.845  0.1235 -0.3207 -0.2205
   42MPD2    C1  641   0.645   0.587  13.899 -0.5324  0.4592  0.4685
   42MPD2    C2  642   0.644   0.598  14.033  0.2665 -0.1870  0.3895
   42MPD2    C3  643   0.665   0.492  14.122 -0.1770 -0.1335  0.6790
   42MPD2    C4  644   0.693   0.369  14.068 -0.5660  0.0801  0.5996
   42MPD2    C5  645   0.678   0.357  13.929 -0.1978 -0.4908  0.1727
   42MPD2     H  646   0.640   0.698  14.075  0.1174  0.4050 -1.0280
   42MPD2    H1  647   0.715   0.274  14.117  2.1231 -0.2401 -1.2397
   42MPD2    H2  648   0.663   0.439  13.740 -0.2279 -0.5135 -0.1822
   42MPD2    H3  649   0.679   0.259  13.884  2.2217 -0.3430 -0.0796
   42MPD2     N  650   0.649   0.499  14.259  0.3019  0.1592 -0.3248
   42MPD2    H5  651   0.637   0.413  14.312 -0.3439  1.3040  1.4000
   42MPD2    N1  652   0.616   0.706  13.825 -0.0760  0.2574  0.2110
   42MPD2    H7  653   0.600   0.791  13.880  0.9753  0.5456  0.0744
   43MPD2     C  654   1.255   3.119   0.522 -0.4140  0.5329  0.0219
   43MPD2    C1  655   1.360   3.050   0.576  1.3688  0.1132 -0.7352
   43MPD2    C2  656   1.352   3.015   0.707  0.6081  0.6949  1.0054
   43MPD2    C3  657   1.237   3.043   0.782  0.5791  0.1860 -0.6912
   43MPD2    C4  658   1.130   3.106   0.727  0.6521  0.5019  0.4681
   43MPD2    C5  659   1.142   3.138   0.591  1.0250 -0.6917  0.2640
   43MPD2     H  660   1.432   2.958   0.753  0.7834  0.0828 -0.0376
   43MPD2    H1  661   1.038   3.137   0.774 -0.9826 -0.3646 -2.2058
   43MPD2    H2  662   1.251   3.139   0.416 -0.5016 -0.6505 -0.1975
   43MPD2    H3  663   1.057   3.172   0.533  1.4619  0.1067  0.0870
   43MPD2     N  664   1.231   3.010   0.921 -0.0364 -0.2516 -0.2919
   43MPD2    H5  665   1.147   3.007   0.979 -1.2718 -2.8493 -2.2260
   43MPD2    N1  666   1.484   3.017   0.505  0.8665 -0.1371  0.3551
   43MPD2    H7  667   1.557   2.967   0.554  0.9681 -0.7621 -0.4316
   44TCq2    C1  668   1.074   3.035   1.371  0.6371 -0.1696  0.0463
   44TCq2    O2  669   1.053   3.140   1.312  0.5278 -0.0046 -0.1345
   44TCq2    C2  670   1.156   2.930   1.310  0.8974 -0.4904 -0.8412
   44TCq2    C3  671   1.239   2.853   1.379  0.8096 -0.3823 -0.5089
   44TCq2    C4  672   1.352   2.808   1.323 -0.7175 -0.2533 -0.2322
   44TCq2    C5  673   1.388   2.839   1.197 -0.5359  0.4045  0.0281
   44TCq2    C6  674   1.303   2.922   1.129 -0.1674 -0.0694  0.3435
   44TCq2    C7  675   1.189   2.965   1.185 -0.4415 -0.1591  0.8720
   44TCq2    C8  676   1.337   2.953   0.990 -0.3828 -0.0826  0.0112
   44TCq2    O4  677   1.446   2.919   0.954 -0.1690 -0.3967 -0.3917
   44TCq2    C9  678   1.444   2.740   1.406 -0.2753  0.4187 -0.4004
   44TCq2    O5  679   1.415   2.736   1.528  0.2744  0.8475  0.4566
   44TCq2    O6  680   1.548   2.700   1.344  0.3454 -0.0703  0.7368
   44TCq2    H2  681   1.210   2.824   1.479 -1.2468  0.5778 -0.8219
   44TCq2    H3  682   1.477   2.793   1.155 -1.1796  0.2120 -1.1306
   44TCq2    H4  683   1.120   3.027   1.130 -0.9621 -0.3036  1.3602
   45TMC2    C1  684   2.582   2.690   9.612 -0.2417  0.7112  0.1342
   45TMC2    C2  685   2.638   2.819   9.614 -0.5673 -0.0807  0.5901
   45TMC2    C3  686   2.651   2.878   9.737  0.5583  0.1293  0.5177
   45TMC2    C4  687   2.532   2.632   9.724 -0.4466 -0.2373  0.0441
   45TMC2    C5  688   2.546   2.705   9.843 -0.7577  0.4507  0.3014
   45TMC2    C6  689   2.611   2.828   9.850  0.8379  0.6105 -0.7123
   45TMC2     C  690   2.589   2.626   9.473 -0.2120  0.5491  0.1029
   45TMC2     O  691   2.634   2.695   9.382  0.2085 -0.0539 -0.4996
   45TMC2     H  692   2.684   2.870   9.530  1.0973 -0.0433  1.5229
   45TMC2    H1  693   2.484   2.536   9.714  0.0822 -0.4802 -0.1876
   45TMC2    H2  694   2.624   2.870   9.949  0.3166  0.7696 -0.7090
   45TMC2    C7  695   2.483   2.646   9.966 -0.3469  0.3619  0.2577
   45TMC2    C8  696   2.699   3.017   9.738 -0.2074 -0.3936 -0.4193
   45TMC2    O1  697   2.502   2.704  10.074  0.1707 -0.4151  0.6376
   45TMC2    O2  698   2.730   3.079   9.637 -0.1595 -0.6332  0.2309
   45TMC2    O5  699   2.604   3.071   9.816  0.1710 -0.6187 -0.2817
   45TMC2    H5  700   2.550   3.010   9.871  0.7456 -1.0316 -0.1793
   46MPD2     C  701   2.557   2.464   9.229  0.0397 -0.1461  0.7170
   46MPD2    C1  702   2.537   2.412   9.355 -0.0214 -0.0787 -0.1322
   46MPD2    C2  703   2.500   2.276   9.357 -0.3555  0.0936  0.1941
   46MPD2    C3  704   2.489   2.198   9.240 -0.7406 -0.0795  0.4412
   46MPD2    C4  705   2.514   2.254   9.120 -0.2521  1.3516  0.1837
   46MPD2    C5  706   2.556   2.387   9.116  0.1536 -0.2952  0.3683
   46MPD2     H  707   2.471   2.231   9.451 -1.1179 -2.6208 -1.3145
   46MPD2    H1  708   2.516   2.204   9.024  0.5661  1.4949  0.1214
   46MPD2    H2  709   2.569   2.571   9.215  1.4144 -0.1124  2.2037
   46MPD2    H3  710   2.569   2.440   9.022 -0.1140 -0.9453 -0.0358
   46MPD2     N  711   2.459   2.064   9.260  0.1221  0.0696  0.3132
   46MPD2    H5  712   2.436   2.039   9.356 -2.1326  0.3339 -0.1439
   46MPD2    N1  713   2.544   2.498   9.468  0.3920  0.0487 -0.4358
   46MPD2    H7  714   2.523   2.449   9.554  0.8686 -0.5777 -0.6762
   47TMC2    C1  715   1.242   1.454   9.545 -0.2474 -0.2257  0.0591
   47TMC2    C2  716   1.362   1.393   9.537 -0.2815 -0.1019 -1.2478
   47TMC2    C3  717   1.434   1.411   9.424 -0.0447  0.3175  0.0938
   47TMC2    C4  718   1.191   1.535   9.446  0.3764 -0.0241 -0.4170
   47TMC2    C5  719   1.259   1.538   9.326 -0.2804  0.7691  0.4645
   47TMC2    C6  720   1.388   1.486   9.318 -0.1480  0.0229  0.3181
   47TMC2     C  721   1.145   1.423   9.647 -0.0176 -0.2393  0.6882
   47TMC2     O  722   1.049   1.500   9.665 -0.2120 -0.0398 -0.1993
   47TMC2     H  723   1.399   1.327   9.615  0.1801  0.1246 -1.2744
   47TMC2    H1  724   1.094   1.582   9.460  0.6509  0.4829 -0.1896
   47TMC2    H2  725   1.445   1.511   9.228 -2.9224 -1.0346 -1.7139
   47TMC2    C7  726   1.206   1.594   9.204  1.0005 -0.2348  0.3200
   47TMC2    C8  727   1.557   1.340   9.415 -0.2799  0.2948 -0.0217
   47TMC2    O1  728   1.112   1.671   9.226  0.0010 -0.0008 -0.9890
   47TMC2    O2  729   1.606   1.291   9.514  0.1847 -0.2344  0.6257
   47TMC2    O5  730   1.550   1.281   9.295  0.1378 -0.7847 -0.0710
   47TMC2    H5  731   1.519   1.340   9.223  1.3395  0.9542  0.8350
   48MPD2     C  732   1.017   1.342   9.909  0.0056 -0.3879 -1.3372
   48MPD2    C1  733   1.106   1.269   9.835  0.5145  0.1466 -0.0823
   48MPD2    C2  734   1.111   1.134   9.861 -0.1440 -1.0661  1.0727
   48MPD2    C3  735   1.047   1.077   9.975 -0.5119 -0.3686  0.1434
   48MPD2    C4  736   0.971   1.153  10.064  0.2608  0.0468  0.0991
   48MPD2    C5  737   0.959   1.286  10.026 -0.2065 -0.3368  0.2558
   48MPD2     H  738   1.149   1.069   9.782  0.9821 -0.5961  1.2237
   48MPD2    H1  739   0.923   1.124  10.157 -0.8822 -0.1544 -0.5449
   48MPD2    H2  740   1.009   1.449   9.890  0.2547 -0.3894 -1.4523
   48MPD2    H3  741   0.902   1.357  10.085  1.3469  1.4298 -0.3741
   48MPD2     N  742   1.056   0.937   9.981  0.1963  0.5346  0.1838
   48MPD2    H5  743   1.119   0.893   9.914 -1.9123  2.0865 -2.8116
   48MPD2    N1  744   1.173   1.305   9.717 -0.6110 -0.2987 -0.1238
   48MPD2    H7  745   1.224   1.236   9.662  1.7607 -0.6016  2.4343
   49MPD2     C  746   3.175   3.349   9.666 -0.2125  0.3773  0.5653
   49MPD2    C1  747   3.240   3.438   9.750 -0.1706 -0.4031  0.3858
   49MPD2    C2  748   3.230   3.421   9.891 -0.2719 -0.2635 -0.1410
   49MPD2    C3  749   3.194   3.300   9.943 -0.1698 -0.4095 -0.5356
   49MPD2    C4  750   3.141   3.204   9.863  0.1565 -0.0382 -0.0560
   49MPD2    C5  751   3.140   3.228   9.727  0.4958 -0.3548 -0.2430
   49MPD2     H  752   3.268   3.503   9.952 -0.5898 -1.6930  1.9525
   49MPD2    H1  753   3.109   3.105   9.893 -0.1978 -0.4495 -1.7664
   49MPD2    H2  754   3.172   3.355   9.558 -1.1287 -0.6737  0.5334
   49MPD2    H3  755   3.109   3.154   9.655  1.6873 -0.5935 -0.5087
   49MPD2     N  756   3.227   3.262  10.077 -0.2844  0.2895 -0.3115
   49MPD2    H5  757   3.189   3.171  10.102  1.7947  0.3529  3.0466
   49MPD2    N1  758   3.297   3.558   9.710 -0.0092  0.0594 -0.8673
   49MPD2    H7  759   3.353   3.606   9.780  0.9715 -2.3580  0.0298
   50TCq2    C1  760   3.295   3.609   9.588 -0.2891  0.1016  0.2564
   50TCq2    O2  761   3.218   3.593   9.494  0.1439  0.4776 -0.2139
   50TCq2    C2  762   3.403   3.716   9.574  0.2958 -0.0598  0.7142
   50TCq2    C3  763   3.511   3.723   9.655 -0.1099 -0.0483  0.2247
   50TCq2    C4  764   3.598   3.828   9.632  0.0666 -0.6835 -0.3283
   50TCq2    C5  765   3.566   3.923   9.546 -0.2898  0.3996  0.0926
   50TCq2    C6  766   3.452   3.913   9.473 -0.3032  0.5484 -0.3925
   50TCq2    C7  767   3.365   3.815   9.492 -0.5047 -0.0002 -1.2028
   50TCq2    C8  768   3.420   4.023   9.386 -0.2508 -0.4204  0.0857
   50TCq2    O4  769   3.303   4.034   9.356 -0.2545 -0.5078  0.4910
   50TCq2    C9  770   3.723   3.836   9.711 -0.3911 -0.4653  0.1853
   50TCq2    O5  771   3.800   3.927   9.676  0.2488  0.0192  0.2029
   50TCq2    O6  772   3.747   3.760   9.807 -0.1125 -0.1728 -0.2379
   50TCq2    H2  773   3.548   3.644   9.719  1.9716  0.3067 -0.5531
   50TCq2    H3  774   3.636   4.005   9.535  1.9945 -1.6080 -0.2554
   50TCq2    H4  775   3.281   3.806   9.423 -1.2825  0.8648 -0.3575
   51MPD2     C  776   2.932   1.771   0.453  0.6963  0.8145  0.3459
   51MPD2    C1  777   2.882   1.651   0.508 -0.0088  0.3630  0.4312
   51MPD2    C2  778   2.899   1.643   0.647  0.0029  0.2223 -0.3851
   51MPD2    C3  779   2.938   1.749   0.726 -0.2696 -0.2230 -0.2029
   51MPD2    C4  780   2.979   1.861   0.663 -0.4336 -0.1566 -0.3942
   51MPD2    C5  781   2.981   1.872   0.529 -0.7535  0.3772  0.3680
   51MPD2     H  782   2.870   1.549   0.693  0.2197 -0.4675 -1.6467
   51MPD2    H1  783   3.011   1.946   0.722  3.8039 -0.4031 -2.3119
   51MPD2    H2  784   2.940   1.788   0.346 -0.5884  2.0725  0.4607
   51MPD2    H3  785   3.013   1.963   0.480 -2.3922 -0.5636 -2.4341
   51MPD2     N  786   2.932   1.745   0.866  0.1135  0.3011  0.1523
   51MPD2    H5  787   2.986   1.813   0.919 -0.3126  1.2855 -0.6768
   51MPD2    N1  788   2.838   1.539   0.435 -0.8400  0.3436  0.7148
   51MPD2    H7  789   2.794   1.467   0.492 -0.0057  0.6867  1.7872
   52TCq2    C1  790   2.880   1.651   0.954 -0.4717 -0.5141  0.4044
   52TCq2    O2  791   2.811   1.553   0.923  0.1947 -0.1753  0.1159
   52TCq2    C2  792   2.896   1.689   1.092 -0.1866  0.0596 -0.9308
   52TCq2    C3  793   2.872   1.586   1.187  0.1059  0.4764 -0.2854
   52TCq2    C4  794   2.913   1.592   1.319  0.5675  0.2827  0.0165
   52TCq2    C5  795   2.964   1.717   1.367  0.2494 -0.7855 -0.0741
   52TCq2    C6  796   2.972   1.818   1.278 -0.2673 -0.6399  0.8873
   52TCq2    C7  797   2.953   1.802   1.141 -0.4342  0.4073  0.0703
   52TCq2    C8  798   3.038   1.935   1.319  0.4911 -0.4258 -1.4975
   52TCq2    O4  799   3.004   2.038   1.267  0.1849  0.1253  0.1439
   52TCq2    C9  800   2.893   1.481   1.408 -0.4248  0.0299 -0.6900
   52TCq2    O5  801   2.821   1.385   1.367 -0.2117 -0.9236  0.3560
   52TCq2    O6  802   2.944   1.481   1.520 -0.0849 -0.1755  0.0805
   52TCq2    H2  803   2.838   1.490   1.149  0.2934  0.4060 -0.2769
   52TCq2    H3  804   2.999   1.732   1.468  0.5769 -1.3204 -0.1097
   52TCq2    H4  805   2.958   1.889   1.076 -0.2654  0.3892  0.0581
   53TMC2    C1  806   3.927   0.618  11.607  0.5512  0.5411 -0.1877
   53TMC2    C2  807   4.053   0.657  11.620  0.3172  0.5390  0.1253
   53TMC2    C3  808   4.081   0.713  11.738 -0.5267  0.1309  0.8143
   53TMC2    C4  809   3.831   0.615  11.704  0.1144 -0.4627 -0.6711
   53TMC2    C5  810   3.874   0.663  11.826 -0.2730  0.0094  0.6331
   53TMC2    C6  811   3.999   0.716  11.842 -0.8716  0.1775  0.6273
   53TMC2     C  812   3.894   0.557  11.478 -0.3490 -0.1323  0.4076
   53TMC2     O  813   3.977   0.504  11.404 -0.3714  0.6932  0.1429
   53TMC2     H  814   4.122   0.676  11.538  0.1966  3.3474  0.6622
   53TMC2    H1  815   3.728   0.585  11.689 -0.1369  0.8260 -1.4669
   53TMC2    H2  816   4.035   0.753  11.937  0.0723 -2.4391  1.3061
   53TMC2    C7  817   3.777   0.703  11.919 -0.1652 -0.4956  0.5957
   53TMC2    C8  818   4.226   0.712  11.770 -0.1557  1.0990 -0.2294
   53TMC2    O1  819   3.669   0.734  11.873 -0.3134 -0.2080 -0.4141
   53TMC2    O2  820   4.312   0.633  11.733  0.1013  0.2369 -0.4298
   53TMC2    O5  821   4.246   0.803  11.868  0.2181  0.0301 -0.2226
   53TMC2    H5  822   4.174   0.870  11.870 -1.0585 -1.3432 -0.3300
   54MPD2     C  823   3.734   0.426  11.267  0.3774  0.4234 -0.6129
   54MPD2    C1  824   3.686   0.523  11.349  0.2629  0.0113  0.1243
   54MPD2    C2  825   3.560   0.576  11.315 -0.7274 -0.2148 -0.2871
   54MPD2    C3  826   3.484   0.520  11.214 -0.6068  0.5324 -0.0450
   54MPD2    C4  827   3.533   0.421  11.132  0.1749  0.1933 -0.8698
   54MPD2    C5  828   3.664   0.382  11.159  0.1765 -1.0041 -0.3381
   54MPD2     H  829   3.519   0.656  11.375 -0.9879 -0.8635  0.4002
   54MPD2    H1  830   3.486   0.383  11.042 -1.4898 -2.7411  1.2570
   54MPD2    H2  831   3.830   0.378  11.279 -0.1918 -0.8093 -0.9437
   54MPD2    H3  832   3.713   0.316  11.088 -0.2877 -0.7218 -0.9191
   54MPD2     N  833   3.356   0.567  11.178 -0.4872 -0.3890 -0.7024
   54MPD2    H5  834   3.318   0.516  11.099 -2.0613  0.5477 -0.5439
   54MPD2    N1  835   3.760   0.574  11.459 -0.3684 -0.3975  0.3374
   54MPD2    H7  836   3.709   0.630  11.527  2.6672 -0.5161  2.7194
   55MPD2     C  837   4.279   3.138  17.225 -0.6211 -0.0654  0.2431
   55MPD2    C1  838   4.250   3.076  17.349  0.1160  0.6191 -0.1417
   55MPD2    C2  839   4.155   3.143  17.430  0.8765  0.3979 -0.0365
   55MPD2    C3  840   4.099   3.263  17.390 -0.2504 -0.4167 -0.3773
   55MPD2    C4  841   4.134   3.324  17.273  0.5523 -0.2761 -0.1263
   55MPD2    C5  842   4.222   3.256  17.187 -0.1034 -0.2607  0.4796
   55MPD2     H  843   4.128   3.107  17.529 -1.5493  0.6125 -0.6216
   55MPD2    H1  844   4.097   3.421  17.243 -0.6431 -0.8133 -0.4101
   55MPD2    H2  845   4.350   3.088  17.160 -1.4329  0.9051 -1.3723
   55MPD2    H3  846   4.255   3.304  17.096  1.8335 -0.5561  1.0270
   55MPD2     N  847   4.001   3.310  17.480  0.0082  0.2250  0.2804
   55MPD2    H5  848   3.997   3.267  17.572  0.6393  0.3356  0.3633
   55MPD2    N1  849   4.324   2.960  17.386  0.4258  0.5552  0.9387
   55MPD2    H7  850   4.404   2.939  17.328  1.2584  0.4447  2.1225
   56TCq2    C1  851   4.318   2.899  17.509  0.3199  0.2481  0.4968
   56TCq2    O2  852   4.241   2.916  17.601  0.0939 -0.1453  0.1609
   56TCq2    C2  853   4.407   2.786  17.524 -0.4691  0.1175 -0.0886
   56TCq2    C3  854   4.460   2.713  17.420  0.2620  0.3868 -0.3996
   56TCq2    C4  855   4.544   2.611  17.452 -0.2114  0.8315 -0.4405
   56TCq2    C5  856   4.584   2.577  17.584 -0.2085 -0.9178 -0.1621
   56TCq2    C6  857   4.527   2.649  17.682 -0.2506 -0.6732  0.8547
   56TCq2    C7  858   4.437   2.750  17.655 -0.3480  0.9584 -0.1532
   56TCq2    C8  859   4.518   2.577   0.119  0.3561  0.0484 -0.7090
   56TCq2    O4  860   4.575   2.467   0.130  0.1454 -0.4500  0.0728
   56TCq2    C9  861   4.607   2.549  17.346 -0.6748  0.1512  0.5017
   56TCq2    O5  862   4.651   2.435  17.366 -0.4087 -0.0177  0.5922
   56TCq2    O6  863   4.605   2.604  17.230 -0.5482 -0.4038  0.0127
   56TCq2    H2  864   4.424   2.728  17.319 -1.1766  1.9565  0.3503
   56TCq2    H3  865   4.654   2.495  17.598 -0.4186 -1.1246 -0.3220
   56TCq2    H4  866   4.400   2.801   0.051  1.6001 -0.2688  1.3661
   57TMC2    C1  867   3.586   4.426  13.656  1.1392 -0.0914 -0.4884
   57TMC2    C2  868   3.663   4.346  13.734 -0.2024  0.3294 -0.8311
   57TMC2    C3  869   3.758   4.267  13.670  0.1261  0.1219 -0.0214
   57TMC2    C4  870   3.596   4.438  13.518 -0.6813 -0.1814 -0.0436
   57TMC2    C5  871   3.708   4.375  13.468 -0.5446 -0.3045 -0.2273
   57TMC2    C6  872   3.786   4.290  13.543 -0.7372  0.5523 -0.2962
   57TMC2     C  873   3.474   4.468  13.722  0.0724  0.2235  0.1183
   57TMC2     O  874   3.412   4.566  13.685 -0.4109 -0.3626  0.2224
   57TMC2     H  875   3.653   4.355  13.842 -3.2023 -1.9866 -0.9223
   57TMC2    H1  876   3.529   4.501  13.461  0.1036  0.3388 -0.3991
   57TMC2    H2  877   3.876   4.237  13.512 -1.4354  0.7334 -2.5929
   57TMC2    C7  878   3.711   4.354  13.325  0.4432  0.0183  0.4018
   57TMC2    C8  879   3.828   4.161  13.742 -0.6371 -0.5807  0.0712
   57TMC2    O1  880   3.611   4.383  13.263 -0.0526 -0.6020 -0.0200
   57TMC2    O2  881   3.883   4.181  13.849 -0.4050  0.7289  0.5437
   57TMC2    O5  882   3.775   4.043  13.696 -0.0621  0.1586 -0.5849
   57TMC2    H5  883   3.699   4.051  13.634 -2.4336  1.4147  2.4524
   58MPD2     C  884   3.061   4.329  14.015  0.2611  0.8426  0.2896
   58MPD2    C1  885   3.094   4.451  13.957  0.1817 -0.7227 -0.6141
   58MPD2    C2  886   3.222   4.461  13.898 -0.2832  0.0629 -0.6942
   58MPD2    C3  887   3.305   4.355  13.883  0.7325  0.6045  0.2242
   58MPD2    C4  888   3.272   4.232  13.945  0.2594  0.5928  0.0927
   58MPD2    C5  889   3.158   4.230  14.027  0.3264 -0.0516  0.3112
   58MPD2     H  890   3.247   4.559  13.859  0.0307  0.4813  0.5507
   58MPD2    H1  891   3.337   4.146  13.942 -1.1133 -0.4630  0.6440
   58MPD2    H2  892   2.966   4.310  14.063  1.4591  0.6673  2.6189
   58MPD2    H3  893   3.141   4.138  14.082  1.8554  0.1900  1.1763
   58MPD2     N  894   3.423   4.364  13.800  0.1623  0.3586 -0.0111
   58MPD2    H5  895   3.486   4.284  13.801  0.3293  0.5186  2.5319
   58MPD2    N1  896   3.009   4.564  13.961 -0.8098  0.3937 -0.1399
   58MPD2    H7  897   3.034   4.653  13.919  1.7105 -1.5148 -2.7100
   59MPD2     C  898   1.091   4.158  13.107  0.3279 -0.3385 -0.3916
   59MPD2    C1  899   1.176   4.205  13.008  1.0407  0.5068 -0.7291
   59MPD2    C2  900   1.288   4.282  13.042  0.1838  0.5228  0.2620
   59MPD2    C3  901   1.306   4.322  13.175  0.5580  0.1400 -0.9722
   59MPD2    C4  902   1.218   4.272  13.274 -0.3342 -0.0801 -0.3002
   59MPD2    C5  903   1.114   4.192  13.234  0.3523 -0.1627 -0.0643
   59MPD2     H  904   1.352   4.317  12.961 -0.5893 -0.5717 -0.8261
   59MPD2    H1  905   1.242   4.276  13.379  1.2815 -0.3022 -0.6553
   59MPD2    H2  906   1.006   4.094  13.087 -1.1724  1.2727  0.9466
   59MPD2    H3  907   1.045   4.157  13.311  1.5615 -0.1655  1.0141
   59MPD2     N  908   1.415   4.397  13.212 -0.9809 -0.1563 -0.1746
   59MPD2    H5  909   1.425   4.403  13.313  0.1973  1.0903 -0.3753
   59MPD2    N1  910   1.157   4.156  12.873  0.0836 -0.6959  0.8445
   59MPD2    H7  911   1.217   4.190  12.798  1.0661  0.3560  2.0983
   60TCq2    C1  912   1.048   4.091  12.828  0.1463  0.1858 -0.0369
   60TCq2    O2  913   0.937   4.083  12.880 -0.0195 -0.8198  0.3586
   60TCq2    C2  914   1.072   4.042  12.691  0.2807 -0.0455  0.1239
   60TCq2    C3  915   0.968   3.969  12.638  0.0838  0.4175  0.1774
   60TCq2    C4  916   0.982   3.894  12.523  0.3631 -0.5930 -0.3830
   60TCq2    C5  917   1.103   3.896  12.465 -0.1619 -0.3192 -0.2173
   60TCq2    C6  918   1.201   3.975  12.512  0.4229 -0.7380  0.2672
   60TCq2    C7  919   1.193   4.042  12.632 -0.5482  0.2437  0.7690
   60TCq2    C8  920   1.302   4.033  12.418  0.3635  0.1258 -0.2459
   60TCq2    O4  921   1.336   3.962  12.322  0.0495 -0.1927 -0.6635
   60TCq2    C9  922   0.871   3.840  12.455  0.6686 -0.0851 -0.7170
   60TCq2    O5  923   0.886   3.806  12.331 -0.1263 -0.4233  0.2695
   60TCq2    O6  924   0.757   3.849  12.508 -0.3162 -0.7377 -0.1858
   60TCq2    H2  925   0.869   3.972  12.682 -0.2212 -0.2187 -0.4624
   60TCq2    H3  926   1.119   3.852  12.367  0.9547 -1.7890  0.6432
   60TCq2    H4  927   1.279   4.092  12.675  0.1938 -2.0783  1.9624
   61MPD2     C  928   0.837   1.107  15.830  0.4165  1.1064  0.0636
   61MPD2    C1  929   0.786   1.223  15.776  0.1482 -0.0105 -0.3270
   61MPD2    C2  930   0.846   1.271  15.657  0.1085  0.0253  0.5833
   61MPD2    C3  931   0.947   1.204  15.594 -0.4557  0.1273  0.5430
   61MPD2    C4  932   0.993   1.091  15.654 -0.2071  0.4845 -0.0048
   61MPD2    C5  933   0.938   1.044  15.772  0.2446 -0.0716  0.7828
   61MPD2     H  934   0.814   1.363  15.609 -0.3828 -0.0864  0.6954
   61MPD2    H1  935   1.072   1.036  15.604 -0.1884  1.5452 -1.1347
   61MPD2    H2  936   0.814   1.070  15.929 -1.1829  0.0163 -0.7112
   61MPD2    H3  937   0.982   0.954  15.814 -0.1069 -0.9524 -0.7355
   61MPD2     N  938   0.993   1.236  15.469 -0.5272  0.4277  0.0199
   61MPD2    H5  939   1.054   1.175  15.416 -0.7929  1.7286 -1.7518
   61MPD2    N1  940   0.676   1.294  15.831  0.6209 -0.7579 -0.8009
   61MPD2    H7  941   0.666   1.386  15.788  4.3439  0.7657  1.5845
   62TCq2    C1  942   0.596   1.262  15.944 -0.6551  0.4230  0.2814
   62TCq2    O2  943   0.622   1.173  16.026 -0.1727 -0.1202  0.0416
   62TCq2    C2  944   0.500   1.370  15.969 -0.0778 -0.0314  0.0360
   62TCq2    C3  945   0.466   1.381  16.093  0.0101  0.0490  0.6721
   62TCq2    C4  946   0.375   1.483  16.135 -0.7044  0.0194 -0.2144
   62TCq2    C5  947   0.323   1.563  16.041  0.3529  0.4045  0.1439
   62TCq2    C6  948   0.340   1.534  15.908  0.1853 -0.3305 -0.1613
   62TCq2    C7  949   0.430   1.435  15.875  0.4003 -0.3392 -0.2429
   62TCq2    C8  950   0.347   1.648  15.813 -1.3724 -0.5750  0.0562
   62TCq2    O4  951   0.344   1.766  15.852 -0.3688  0.3416  0.6331
   62TCq2    C9  952   0.369   1.523  16.273  0.2437  0.2474 -0.1816
   62TCq2    O5  953   0.279   1.602  16.304  0.1738 -0.1293 -0.0637
   62TCq2    O6  954   0.469   1.490  16.345  0.1642  0.0385 -0.1338
   62TCq2    H2  955   0.514   1.322  16.170  0.0411  0.5403  1.0346
   62TCq2    H3  956   0.264   1.651  16.066 -0.5520  0.1243 -1.0390
   62TCq2    H4  957   0.454   1.419  15.771 -1.2654  0.1422 -0.7057
   63TMC2    C1  958   0.165   0.776  11.214 -0.1659  0.1789  0.2203
   63TMC2    C2  959   0.220   0.815  11.329  0.3170  0.0171  0.2467
   63TMC2    C3  960   0.276   0.937  11.325 -0.1340  0.4855  0.6843
   63TMC2    C4  961   0.156   0.845  11.095 -0.3252 -0.6605 -0.0670
   63TMC2    C5  962   0.225   0.965  11.095  1.0164 -0.6269  0.4338
   63TMC2    C6  963   0.287   1.012  11.211 -0.8703  0.8375  0.6472
   63TMC2     C  964   0.069   0.668  11.218 -0.4784 -0.0175 -0.4026
   63TMC2     O  965   0.029   0.641  11.329 -0.7368 -0.0915  0.3250
   63TMC2     H  966   0.217   0.749  11.416 -0.8256  2.1136  1.7853
   63TMC2    H1  967   0.102   0.813  11.007  0.9360  0.8891 -1.4019
   63TMC2    H2  968   0.326   1.113  11.205 -0.2756  0.6132  0.6833
   63TMC2    C7  969   0.269   1.000  10.961 -0.2544 -0.8976 -0.2727
   63TMC2    C8  970   0.358   0.986  11.428 -0.2009 -0.5006 -0.6190
   63TMC2    O1  971   0.196   0.976  10.867  0.3360  0.4617  0.0648
   63TMC2    O2  972   0.437   1.083  11.410 -0.0237  0.5033 -0.2170
   63TMC2    O5  973   0.360   0.895  11.530 -0.4578  0.3967 -0.0121
   63TMC2    H5  974   0.286   0.832  11.542 -0.8595  1.1194  1.3635
   64MPD2     C  975   4.605   0.223  11.053 -0.3879  0.2812 -0.4778
   64MPD2    C1  976   4.704   0.263  10.964  0.1728  0.7683  0.4776
   64MPD2    C2  977   0.041   0.384  10.976  0.5146 -0.5546  0.3416
   64MPD2    C3  978   0.003   0.469  11.085 -0.2866  0.3935  0.2985
   64MPD2    C4  979   4.627   0.423  11.172 -0.1953  0.0594 -0.0052
   64MPD2    C5  980   4.568   0.296  11.160  0.6805 -0.3490  0.0485
   64MPD2     H  981   0.128   0.399  10.913 -0.0751 -0.3877 -0.4326
   64MPD2    H1  982   4.594   0.487  11.253  0.6061 -0.8258  1.0109
   64MPD2    H2  983   4.557   0.126  11.047 -0.5499  0.3928 -0.9604
   64MPD2    H3  984   4.489   0.263  11.226  0.8789  2.3704  1.6119
   64MPD2     N  985   0.067   0.592  11.109  0.2678  0.3376 -0.5056
   64MPD2    H5  986   0.129   0.618  11.033  2.4574  3.0274  2.2371
   64MPD2    N1  987   0.042   0.166  10.871 -0.4565  0.3697  0.1796
   64MPD2    H7  988   0.127   0.192  10.822 -0.9761  1.7738  0.0179
   65MPD2     C  989   1.272   0.369  15.562 -0.0468  0.1934  0.2392
   65MPD2    C1  990   1.316   0.384  15.428 -0.2467 -0.0183  0.0323
   65MPD2    C2  991   1.294   0.280  15.331 -0.2895 -0.2125  0.1038
   65MPD2    C3  992   1.230   0.168  15.365 -0.5459 -0.9675  0.3716
   65MPD2    C4  993   1.200   0.148  15.495  0.9099 -0.1870  0.0852
   65MPD2    C5  994   1.217   0.246  15.589  0.8661  0.0328  0.4755
   65MPD2     H  995   1.336   0.302  15.234 -3.1276  1.1845 -0.8024
   65MPD2    H1  996   1.147   0.058  15.525  4.9513 -2.2257  1.0809
   65MPD2    H2  997   1.278   0.442  15.641  3.1186 -0.5469  0.6970
   65MPD2    H3  998   1.179   0.223  15.688 -0.1665  0.4076  0.1658
   65MPD2     N  999   1.206   0.071  15.263  0.0831  0.3499  0.9230
   65MPD2    H5 1000   1.175   4.705  15.302  0.5326 -0.7079 -1.1074
   65MPD2    N1 1001   1.395   0.497  15.399 -0.0184  0.2458  0.1601
   65MPD2    H7 1002   1.412   0.515  15.301 -0.9729  1.6811  0.2605
   66TCq2    C1 1003   1.467   0.575  15.486  0.6261 -0.0693 -0.1504
   66TCq2    O2 1004   1.480   0.580  15.605 -0.1333  0.0301  0.1550
   66TCq2    C2 1005   1.545   0.677  15.419  0.0705  0.4455  0.3847
   66TCq2    C3 1006   1.627   0.630  15.319 -0.6085  0.0988  0.0027
   66TCq2    C4 1007   1.698   0.730  15.262  0.3407 -0.6058 -0.2597
   66TCq2    C5 1008   1.710   0.859  15.312 -0.0086 -0.3128  1.0134
   66TCq2    C6 1009   1.628   0.894  15.420  0.1013 -0.6964 -0.1645
   66TCq2    C7 1010   1.544   0.805  15.475 -0.9230 -0.4940 -0.1572
   66TCq2    C8 1011   1.600   1.038  15.439  0.2416  0.3238  0.6716
   66TCq2    O4 1012   1.652   1.118  15.364 -0.3036 -0.4618 -0.3388
   66TCq2    C9 1013   1.783   0.708  15.150 -0.4391 -0.0012  0.3476
   66TCq2    O5 1014   1.813   0.590  15.114 -0.6252 -0.3354  0.5029
   66TCq2    O6 1015   1.813   0.812  15.085 -0.3307  0.1496 -0.1778
   66TCq2    H2 1016   1.629   0.527  15.285 -1.6755 -0.5824  1.9748
   66TCq2    H3 1017   1.772   0.933  15.264 -1.3880  0.0462 -0.2173
   66TCq2    H4 1018   1.483   0.827  15.562 -0.8384 -0.2150 -0.1684
   67MPD2     C 1019   1.135   4.404  13.829  0.4532 -0.0870  0.6451
   67MPD2    C1 1020   1.097   4.513  13.905 -0.6059  0.0840 -0.9571
   67MPD2    C2 1021   0.981   4.576  13.872 -0.0912  0.4084  0.1316
   67MPD2    C3 1022   0.898   4.527  13.776  0.1681  0.1209 -0.1819
   67MPD2    C4 1023   0.940   4.415  13.703 -0.4492 -0.0087 -0.2078
   67MPD2    C5 1024   1.061   4.358  13.729  0.5097 -0.6825 -0.1917
   67MPD2     H 1025   0.954   4.664  13.929 -0.8629  2.1196 -2.8242
   67MPD2    H1 1026   0.873   4.382  13.624  2.9294 -2.0131 -2.2679
   67MPD2    H2 1027   1.228   4.353  13.851  1.1341  0.2352 -1.4554
   67MPD2    H3 1028   1.094   4.270  13.676 -0.3669  0.2169 -2.2477
   67MPD2     N 1029   0.764   4.576  13.749 -0.1742 -0.3147 -0.4043
   67MPD2    H5 1030   0.721   4.545  13.662 -0.2227 -0.5210 -0.3067
   67MPD2    N1 1031   1.168   4.560  14.014  0.5818 -0.1223  0.0232
   67MPD2    H7 1032   1.120   4.638  14.057  1.6787  0.4040  0.2924
   68TCq2    C1 1033   1.291   4.516  14.063 -0.3734  0.0540  0.0276
   68TCq2    O2 1034   1.360   4.419  14.026  0.1059 -0.0173  0.2634
   68TCq2    C2 1035   1.347   4.604  14.159 -0.9313 -0.0417 -1.3531
   68TCq2    C3 1036   1.271   4.706  14.212 -0.6762 -0.1021  0.2183
   68TCq2    C4 1037   1.329   0.065  14.307 -0.8268  0.1196  0.0355
   68TCq2    C5 1038   1.455   0.054  14.343  0.9752  0.1779 -0.4054
   68TCq2    C6 1039   1.529   4.676  14.291  1.0927 -0.2391 -0.0634
   68TCq2    C7 1040   1.479   4.592  14.191 -0.2422  0.1409  0.1278
   68TCq2    C8 1041   1.673   4.672  14.323 -0.4233 -0.2834  1.2801
   68TCq2    O4 1042   1.750   4.620  14.242 -0.3806  0.0211 -0.2641
   68TCq2    C9 1043   1.242   0.163  14.372  0.3901  0.5395  0.4338
   68TCq2    O5 1044   1.120   0.157  14.339 -0.3020  0.1231 -0.0847
   68TCq2    O6 1045   1.296   0.242  14.451 -0.2250  0.0119 -0.3475
   68TCq2    H2 1046   1.166   0.002  14.193 -0.3384  0.9162 -0.6260
   68TCq2    H3 1047   1.487   0.132  14.411  1.3696 -0.2455 -0.1081
   68TCq2    H4 1048   1.539   4.508  14.158  1.5296  2.2309 -1.9377
   69TMC2    C1 1049   3.692   1.372  12.532  0.5519 -0.6013  0.1736
   69TMC2    C2 1050   3.571   1.435  12.535  0.0161 -1.0694  0.3036
   69TMC2    C3 1051   3.555   1.528  12.438  0.0866 -0.8288 -0.0323
   69TMC2    C4 1052   3.780   1.372  12.427  0.3758  0.3659  0.5078
   69TMC2    C5 1053   3.756   1.465  12.328 -0.0110  0.2131 -0.6489
   69TMC2    C6 1054   3.649   1.546  12.339 -0.1918 -0.1592 -0.3711
   69TMC2     C 1055   3.702   1.258  12.632 -0.0245 -0.3501  0.4942
   69TMC2     O 1056   3.598   1.229  12.694 -0.0945 -0.4130  0.4684
   69TMC2     H 1057   3.499   1.430  12.616  0.0504  0.6652  0.4458
   69TMC2    H1 1058   3.856   1.296  12.410 -1.1321 -0.3136 -3.2267
   69TMC2    H2 1059   3.631   1.618  12.260 -0.0476  0.0935 -0.1725
   69TMC2    C7 1060   3.832   1.457  12.204 -0.5635  0.1198  0.1217
   69TMC2    C8 1061   3.437   1.612  12.441  0.4684  0.1942 -0.8440
   69TMC2    O1 1062   3.941   1.403  12.204  0.3162  0.2362  0.4460
   69TMC2    O2 1063   3.435   1.728  12.406 -0.3696  0.0748 -0.3362
   69TMC2    O5 1064   3.333   1.546  12.496 -0.5773  0.2956 -0.4429
   69TMC2    H5 1065   3.339   1.449  12.480  2.0172 -0.1253  3.0264
   70MPD2     C 1066   4.008   1.084  12.750 -0.4215 -0.8752  0.4186
   70MPD2    C1 1067   3.874   1.087  12.706  0.2825  0.5759  0.6705
   70MPD2    C2 1068   3.790   0.982  12.735  0.5314 -0.0909  0.6704
   70MPD2    C3 1069   3.837   0.869  12.794 -0.4353  0.5066 -0.5927
   70MPD2    C4 1070   3.971   0.857  12.820  0.0528  1.1238  0.2285
   70MPD2    C5 1071   4.048   0.968  12.807  0.7978 -0.3491  0.0843
   70MPD2     H 1072   3.689   0.983  12.698  0.0049  0.0340  2.0925
   70MPD2    H1 1073   4.010   0.767  12.864  1.3242  1.7432  0.3683
   70MPD2    H2 1074   4.067   1.175  12.751 -0.5460 -0.7805 -0.4429
   70MPD2    H3 1075   4.148   0.960  12.849  0.4812 -0.6686  0.7755
   70MPD2     N 1076   3.761   0.759  12.828  0.5202 -0.1729  0.2169
   70MPD2    H5 1077   3.812   0.684  12.873  2.6987  0.9655 -0.3524
   70MPD2    N1 1078   3.830   1.204  12.636 -0.6274 -0.4476  0.3418
   70MPD2    H7 1079   3.903   1.261  12.595 -0.4900 -0.8872 -0.0200
   71TMC2    C1 1080   4.654   0.186   0.906  0.0287  0.1562 -0.2186
   71TMC2    C2 1081   4.678   0.084   0.992 -0.1123  0.8246 -0.5855
   71TMC2    C3 1082   4.589   4.701   0.984 -0.7321 -0.3326  0.4454
   71TMC2    C4 1083   4.547   0.189   0.817  0.2953  0.3273  0.0863
   71TMC2    C5 1084   4.459   0.081   0.825 -0.1170  0.0061  0.3447
   71TMC2    C6 1085   4.488   4.694   0.890 -0.0408  0.0304 -0.2135
   71TMC2     C 1086   0.030   0.285   0.885  0.0500 -0.4608  0.3762
   71TMC2     O 1087   0.034   0.350   0.781  0.3218  0.1952 -0.1214
   71TMC2     H 1088   0.042   0.074   1.056  0.2252  2.8319 -0.7555
   71TMC2    H1 1089   4.545   0.275   0.751  0.7863  0.4675  0.2549
   71TMC2    H2 1090   4.428   4.605   0.875  1.2317 -0.5919 -1.6999
   71TMC2    C7 1091   4.350   0.072   0.729 -0.1416 -0.6059 -0.6632
   71TMC2    C8 1092   4.620   4.580   1.071  0.9315  0.0945  0.5297
   71TMC2    O1 1093   4.304   4.692   0.687  0.4640  0.3430  0.0562
   71TMC2    O2 1094   4.674   4.588   1.179  0.3575 -0.3204 -0.0443
   71TMC2    O5 1095   4.569   4.469   1.011  0.0517 -0.1898 -0.3301
   71TMC2    H5 1096   4.552   4.479   0.915 -4.6483  2.3004  0.7596
   72MPD2     C 1097   0.410   0.595   1.026  0.0512 -0.2611  0.8017
   72MPD2    C1 1098   0.336   0.585   0.910  1.3395 -0.0585 -0.2206
   72MPD2    C2 1099   0.244   0.485   0.887  0.0595  0.3743  0.2360
   72MPD2    C3 1100   0.216   0.405   0.992 -0.0536  0.4637  0.6187
   72MPD2    C4 1101   0.298   0.404   1.098  0.8122 -0.7144 -0.1584
   72MPD2    C5 1102   0.388   0.501   1.124 -0.0686 -0.1388 -0.4101
   72MPD2     H 1103   0.189   0.496   0.794  0.8075 -0.4313 -0.3009
   72MPD2    H1 1104   0.276   0.323   1.167  1.0649  0.2200  1.0159
   72MPD2    H2 1105   0.486   0.668   1.050  1.7237 -1.4147 -1.0052
   72MPD2    H3 1106   0.439   0.495   1.220 -1.4952 -0.3078  0.3302
   72MPD2     N 1107   0.111   0.307   0.993 -0.4426 -0.9570 -0.6249
   72MPD2    H5 1108   0.111   0.253   1.079 -0.9824 -0.5664 -0.3831
   72MPD2    N1 1109   0.364   0.678   0.805 -1.1149 -0.4728  0.0596
   72MPD2    H7 1110   0.321   0.656   0.716 -1.4693 -0.7896  0.3091
   73TMC2    C1 1111   0.481   3.032  13.752 -1.0287 -0.6560 -0.4801
   73TMC2    C2 1112   0.369   3.035  13.826 -0.2240 -0.4000 -0.1352
   73TMC2    C3 1113   0.390   3.062  13.960  0.2591 -0.0722 -0.4108
   73TMC2    C4 1114   0.606   3.044  13.806 -0.8958 -0.1499 -0.4063
   73TMC2    C5 1115   0.619   3.077  13.941 -0.0328  0.2587 -0.4134
   73TMC2    C6 1116   0.512   3.085  14.024 -0.2117  0.3194 -0.1988
   73TMC2     C 1117   0.478   3.087  13.618  0.0297  0.2475  0.0412
   73TMC2     O 1118   0.556   3.178  13.592 -0.2880  0.5833  0.0934
   73TMC2     H 1119   0.272   3.028  13.779  0.9242  0.6554 -2.6734
   73TMC2    H1 1120   0.689   3.043  13.737  0.5717 -3.6770  1.3734
   73TMC2    H2 1121   0.521   3.125  14.124  1.8362 -0.8636  0.0735
   73TMC2    C7 1122   0.705   3.197  13.950 -0.0045 -0.5289 -0.0790
   73TMC2    C8 1123   0.265   3.072  14.029 -1.1151  0.4700 -0.2680
   73TMC2    O1 1124   0.768   3.216  14.054  0.6151  0.0849 -0.6137
   73TMC2    O2 1125   0.162   3.113  13.977 -0.4869 -0.5799  0.4782
   73TMC2    O5 1126   0.290   3.069  14.164 -0.2517  0.0767 -0.5025
   73TMC2    H5 1127   0.373   3.019  14.184 -0.4809 -0.6776 -1.4533
   74MPD2     C 1128   0.345   3.170  13.137  0.1631  0.0946  0.3104
   74MPD2    C1 1129   0.429   3.241  13.222 -0.1778 -0.4517  0.2000
   74MPD2    C2 1130   0.419   3.212  13.355 -0.0370  0.1181 -0.1561
   74MPD2    C3 1131   0.348   3.100  13.406 -0.0031  0.1110  0.1967
   74MPD2    C4 1132   0.257   3.039  13.322 -0.0507 -0.4493 -0.0043
   74MPD2    C5 1133   0.258   3.078  13.184 -0.0837  0.3821 -0.0198
   74MPD2     H 1134   0.464   3.286  13.422 -0.1909 -1.7696  2.0294
   74MPD2    H1 1135   0.193   2.956  13.350 -0.0082  0.0554  1.6320
   74MPD2    H2 1136   0.360   3.184  13.030 -1.3924 -1.0835 -0.0577
   74MPD2    H3 1137   0.203   3.018  13.112 -4.2376  1.8042  1.9249
   74MPD2     N 1138   0.367   3.057  13.541 -0.2109  0.0971  0.1536
   74MPD2    H5 1139   0.303   2.992  13.586 -3.5157  2.1688 -1.5160
   74MPD2    N1 1140   0.504   3.344  13.169  0.4495  0.2871 -0.4052
   74MPD2    H7 1141   0.521   3.346  13.069  2.4424  3.0714 -0.0022
   75TCq2    C1 1142   0.700   4.668  13.829  0.3560  0.4608 -0.4877
   75TCq2    O2 1143   0.724   4.693  13.945 -0.7113  0.3061  0.2501
   75TCq2    C2 1144   0.593   0.020  13.765  0.1585  0.6556  0.2145
   75TCq2    C3 1145   0.500   0.079  13.849  0.2904 -0.3444 -0.4102
   75TCq2    C4 1146   0.397   0.152  13.798 -0.6259 -0.3033  0.0950
   75TCq2    C5 1147   0.391   0.162  13.662 -0.0143  0.1634 -0.2402
   75TCq2    C6 1148   0.486   0.097  13.581  0.3347  0.1079  0.0926
   75TCq2    C7 1149   0.595   0.036  13.633  0.1938  0.1448 -0.5486
   75TCq2    C8 1150   0.470   0.117  13.437  0.2622 -0.1816  0.2028
   75TCq2    O4 1151   0.516   0.030  13.359  0.2385 -0.3465  0.1103
   75TCq2    C9 1152   0.297   0.204  13.886 -0.1458 -0.5134  0.5601
   75TCq2    O5 1153   0.322   0.193  14.009 -0.1830 -0.5917 -0.5054
   75TCq2    O6 1154   0.201   0.270  13.844 -0.3448 -0.0642 -0.1475
   75TCq2    H2 1155   0.497   0.062  13.956 -1.1366  0.1354 -0.3657
   75TCq2    H3 1156   0.300   0.201  13.619 -1.7775 -1.4268  1.9901
   75TCq2    H4 1157   0.661   4.711  13.561  0.5220  0.3114 -0.3600
   76MPD2     C 1158   0.029   0.926  11.967  0.1080  0.1348 -0.1160
   76MPD2    C1 1159   4.656   0.859  11.895 -0.7121  0.1265 -0.3471
   76MPD2    C2 1160   4.650   0.720  11.902  0.5242 -0.2111 -0.6537
   76MPD2    C3 1161   0.032   0.650  11.962 -0.3784  0.7107 -0.3698
   76MPD2    C4 1162   0.130   0.718  12.042  0.5520  0.3589 -0.1238
   76MPD2    C5 1163   0.123   0.857  12.042  0.1184 -0.3508  0.0632
   76MPD2     H 1164   4.576   0.666  11.843  0.4375  1.0639 -1.7116
   76MPD2    H1 1165   0.209   0.670  12.100  3.0138  2.9893 -1.3408
   76MPD2    H2 1166   0.044   1.033  11.975 -0.1219  0.1271  0.4728
   76MPD2    H3 1167   0.201   0.919  12.084  0.3357  1.2967 -2.7762
   76MPD2     N 1168   0.049   0.508  11.950 -0.3995 -0.5959  0.2282
   76MPD2    H5 1169   0.120   0.461  12.005  0.0372 -0.5474 -0.2946
   76MPD2    N1 1170   4.561   0.931  11.807 -0.0213  0.1044  0.0335
   76MPD2    H7 1171   4.486   0.871  11.774  1.0840 -2.0670  1.4442
   77TCq2    C1 1172   4.697   0.426  11.869  0.5800  0.3716 -0.4120
   77TCq2    O2 1173   4.600   0.448  11.801  0.3012  0.3738  0.1357
   77TCq2    C2 1174   0.022   0.287  11.855 -0.1567 -0.0343 -0.2644
   77TCq2    C3 1175   4.662   0.191  11.791 -0.4822 -0.2762 -0.0205
   77TCq2    C4 1176   4.701   0.063  11.784 -0.6642  0.1523 -0.3986
   77TCq2    C5 1177   0.101   0.025  11.820 -0.5297  0.3756  0.7434
   77TCq2    C6 1178   0.181   0.122  11.873 -0.0568  0.2839  0.1423
   77TCq2    C7 1179   0.136   0.244  11.911 -0.2301 -0.2805 -0.1893
   77TCq2    C8 1180   0.313   0.075  11.914 -0.2140 -0.3160  0.4408
   77TCq2    O4 1181   0.352   4.699  11.863 -0.0074 -0.2745  0.0419
   77TCq2    C9 1182   4.621   4.689  11.712 -0.5336  0.0515 -0.5458
   77TCq2    O5 1183   4.518   0.009  11.656  0.1148 -0.1351  0.3772
   77TCq2    O6 1184   4.654   4.566  11.709 -0.3875 -0.0575  0.5693
   77TCq2    H2 1185   4.564   0.220  11.755  0.3079  1.0980 -1.0829
   77TCq2    H3 1186   0.120   4.642  11.808  1.5861  0.7081  1.2785
   77TCq2    H4 1187   0.203   0.318  11.954  0.9833 -0.1681 -2.2598
   78MPD1     C 1188   0.442   4.588   1.724 -0.2177 -0.3765 -0.7320
   78MPD1    C1 1189   0.529   4.674   1.665 -0.1716 -0.0822  0.2877
   78MPD1    C2 1190   0.633   0.005   1.750  0.0193  0.4064 -0.9618
   78MPD1    C3 1191   0.640   4.697   1.884  0.1834  0.5950  0.3771
   78MPD1    C4 1192   0.548   4.608   1.935 -0.7375 -0.1041 -0.3245
   78MPD1    C5 1193   0.453   4.556   1.854 -0.3914 -0.4291  0.0354
   78MPD1     H 1194   0.699   0.078   1.705  0.7586 -0.0147 -0.5710
   78MPD1    H1 1195   0.529   4.582   2.039  0.6348 -0.5701 -0.1910
   78MPD1    H2 1196   0.348   4.557   1.679 -1.7869 -1.2795  3.0953
   78MPD1    H3 1197   0.376   4.496   1.901 -0.5814  1.1181  1.6815
   78MPD1     N 1198   0.720   0.043   1.973 -0.1179 -0.8595 -0.2495
   78MPD1    H5 1199   0.722   0.018   2.071 -0.4455 -1.6931 -0.4554
   78MPD1    N1 1200   0.490   0.017   1.547 -0.1905  0.0180  0.0586
   78MPD1    H6 1201   0.434   4.677   1.490  0.8628 -0.3049 -0.6194
   78MPD1    H7 1202   0.572   0.040   1.490 -0.7522  1.0628 -0.3228
   79TCq2    C1 1203   0.807   0.140   1.940 -0.1894 -0.0421  0.4553
   79TCq2    O2 1204   0.824   0.201   1.832  0.0942 -0.0602  0.3079
   79TCq2    C2 1205   0.880   0.188   2.057  0.3825 -1.7219 -0.2782
   79TCq2    C3 1206   0.847   0.161   2.186  0.6340 -0.3131  0.2365
   79TCq2    C4 1207   0.931   0.203   2.285 -0.5911  0.0283 -0.7339
   79TCq2    C5 1208   1.054   0.256   2.258 -0.5522  0.1226 -0.4315
   79TCq2    C6 1209   1.087   0.277   2.120 -0.5876  0.2338  0.2088
   79TCq2    C7 1210   0.997   0.244   2.021 -0.0207  0.4984 -0.0273
   79TCq2    C8 1211   1.190   0.366   2.080 -0.4733 -0.2739 -0.8189
   79TCq2    O4 1212   1.209   0.362   1.960 -0.4780 -0.7439  0.3974
   79TCq2    C9 1213   0.896   0.178   2.426 -0.2007  0.0047 -0.2505
   79TCq2    O5 1214   0.983   0.203   2.511 -0.1443 -0.2930 -0.2895
   79TCq2    O6 1215   0.779   0.140   2.456  0.1814  0.1566 -0.0925
   79TCq2    H2 1216   0.753   0.114   2.213 -0.8596  2.0266 -0.8896
   79TCq2    H3 1217   1.116   0.283   2.342 -1.1810 -1.0198  0.3950
   79TCq2    H4 1218   1.030   0.250   1.917  1.0819  2.0075  0.4005
   80MPD2     C 1219   3.620   0.387  12.014 -0.4683  0.5132 -0.2300
   80MPD2    C1 1220   3.517   0.406  11.924  0.3866 -0.5177 -0.1157
   80MPD2    C2 1221   3.399   0.465  11.967  0.3740  0.2956  0.2701
   80MPD2    C3 1222   3.377   0.484  12.105 -0.2004  0.7239 -0.0700
   80MPD2    C4 1223   3.482   0.462  12.192  0.4931 -0.2834  0.0407
   80MPD2    C5 1224   3.593   0.403  12.147 -0.2117  0.2190  0.5549
   80MPD2     H 1225   3.317   0.491  11.901  1.5843 -0.2491 -1.4766
   80MPD2    H1 1226   3.467   0.468  12.300  0.7798 -0.8982  0.1109
   80MPD2    H2 1227   3.719   0.352  11.986 -1.5112 -2.6696  0.0461
   80MPD2    H3 1228   3.680   0.389  12.211 -1.7123 -1.0372  2.2802
   80MPD2     N 1229   3.247   0.520  12.154  0.0248 -0.3782 -0.7576
   80MPD2    H5 1230   3.240   0.524  12.255 -0.4926 -0.2359 -0.7975
   80MPD2    N1 1231   3.525   0.361  11.793  0.0328 -0.3761 -0.0557
   80MPD2    H7 1232   3.445   0.374  11.733 -2.0080 -0.8446  2.5722
   81TCq2    C1 1233   3.637   0.303  11.741 -0.6481 -0.5440  0.1940
   81TCq2    O2 1234   3.755   0.312  11.770  0.1812  0.3720 -0.0469
   81TCq2    C2 1235   3.609   0.232  11.608 -0.0167  0.1801 -0.0555
   81TCq2    C3 1236   3.720   0.191  11.527  0.5403 -0.7648 -0.2314
   81TCq2    C4 1237   3.701   0.100  11.427  0.2935 -0.2353 -0.5475
   81TCq2    C5 1238   3.575   0.062  11.388  0.7731 -0.2780 -0.2155
   81TCq2    C6 1239   3.474   0.098  11.468  0.1708  0.2259  0.2503
   81TCq2    C7 1240   3.486   0.170  11.590  0.6611 -0.4252  0.6195
   81TCq2    C8 1241   3.354   0.038  11.437 -0.3225 -0.7465  0.7217
   81TCq2    O4 1242   3.324   0.009  11.323  0.6358  0.1177  0.1070
   81TCq2    C9 1243   3.815   0.052  11.351 -0.2797 -0.6244  0.3070
   81TCq2    O5 1244   3.928   0.092  11.383  0.4269  0.3719  0.1437
   81TCq2    O6 1245   3.795   4.664  11.289  0.1492  0.4148 -0.0113
   81TCq2    H2 1246   3.819   0.227  11.555  0.6887  0.5774 -2.4512
   81TCq2    H3 1247   3.559   4.714  11.307 -0.1608  0.6545 -0.8393
   81TCq2    H4 1248   3.396   0.191  11.647  0.8494 -0.8577  1.0818
   82MPD2     C 1249   1.990   4.591  10.320 -0.5214 -0.8637 -0.4760
   82MPD2    C1 1250   1.908   4.496  10.265  0.4766  0.2144 -0.0414
   82MPD2    C2 1251   1.931   4.363  10.297 -0.1250 -0.0978 -0.0657
   82MPD2    C3 1252   2.042   4.322  10.370  0.1948 -0.6142 -0.2555
   82MPD2    C4 1253   2.131   4.415  10.407 -0.3411 -0.0688  0.3303
   82MPD2    C5 1254   2.099   4.549  10.389  0.0367  0.1790  1.1951
   82MPD2     H 1255   1.867   4.286  10.255  1.2380 -1.7511  0.8921
   82MPD2    H1 1256   2.215   4.379  10.466  0.1715  2.7788  1.3124
   82MPD2    H2 1257   1.980   4.697  10.302  3.0901 -0.3916  0.3735
   82MPD2    H3 1258   2.155   4.630  10.434  1.1418  1.7653 -3.0542
   82MPD2     N 1259   2.069   4.188  10.410 -0.1180 -0.1827 -0.8770
   82MPD2    H5 1260   2.142   4.175  10.479 -2.3017 -0.0258  1.4637
   82MPD2    N1 1261   1.812   4.543  10.173  0.6442  0.0822 -0.4767
   82MPD2    H7 1262   1.823   4.635  10.132  1.1783  0.7640  1.1942
   83TCq2    C1 1263   1.994   4.077  10.378 -0.2141 -0.3677  0.1454
   83TCq2    O2 1264   1.892   4.064  10.310 -0.2571  0.3494 -0.4322
   83TCq2    C2 1265   2.040   3.965  10.454 -0.6255 -0.8299 -0.6022
   83TCq2    C3 1266   2.169   3.949  10.487  0.3596  0.4313 -0.1118
   83TCq2    C4 1267   2.209   3.859  10.586 -0.3407  0.7359  0.0110
   83TCq2    C5 1268   2.111   3.789  10.651 -0.0614  0.0797 -0.2646
   83TCq2    C6 1269   1.980   3.807  10.619 -0.0065 -0.1781  0.4756
   83TCq2    C7 1270   1.940   3.886  10.516  0.5353  0.1797  0.0584
   83TCq2    C8 1271   1.879   3.759  10.707 -0.0699  0.4511 -0.0980
   83TCq2    O4 1272   1.912   3.746  10.824  0.1826 -0.2498  1.1444
   83TCq2    C9 1273   2.353   3.851  10.611 -0.1468  0.0958  0.2274
   83TCq2    O5 1274   2.423   3.941  10.565 -0.0220  0.7634  0.7891
   83TCq2    O6 1275   2.383   3.794  10.726 -0.1557 -0.0147 -0.7008
   83TCq2    H2 1276   2.248   4.001  10.434  1.7685 -1.4156  0.1884
   83TCq2    H3 1277   2.144   3.721  10.728  0.1309  1.0553  0.5076
   83TCq2    H4 1278   1.833   3.903  10.503  0.5095  0.5159  0.7275
   84TCq2    C1 1279   3.282   3.344  10.175  0.1716  0.3033  0.0925
   84TCq2    O2 1280   3.297   3.468  10.174 -0.1582 -0.2016 -0.1213
   84TCq2    C2 1281   3.303   3.270  10.297  0.0168 -0.3529 -0.4829
   84TCq2    C3 1282   3.312   3.139  10.294  0.2087 -0.6230 -0.2560
   84TCq2    C4 1283   3.304   3.071  10.408 -0.1772  0.5531 -0.2139
   84TCq2    C5 1284   3.273   3.132  10.525  0.0397  0.2252 -0.3788
   84TCq2    C6 1285   3.263   3.265  10.526 -0.1656  0.0360  0.6202
   84TCq2    C7 1286   3.279   3.339  10.411  0.0263  1.0100  0.9588
   84TCq2    C8 1287   3.244   3.334  10.649 -0.1151  0.0145  0.0990
   84TCq2    O4 1288   3.186   3.276  10.741  0.3725  0.0810 -0.0901
   84TCq2    C9 1289   3.305   2.922  10.403  0.3138 -0.0616  0.3653
   84TCq2    O5 1290   3.320   2.867  10.289 -0.4428 -0.7027 -0.6178
   84TCq2    O6 1291   3.273   2.870  10.516 -0.2485  0.6126  0.0667
   84TCq2    H2 1292   3.334   3.089  10.200 -2.0824 -1.3567 -0.4033
   84TCq2    H3 1293   3.253   3.069  10.611 -0.3527  0.7431 -0.0923
   84TCq2    H4 1294   3.260   3.446  10.411 -0.0323  0.9914 -1.6730
   85MPD2     C 1295   3.637   1.693  16.412 -0.2463 -0.6298  0.9240
   85MPD2    C1 1296   3.628   1.639  16.283  0.0382  0.4360  0.1388
   85MPD2    C2 1297   3.647   1.724  16.176 -0.8747 -0.3078 -0.5904
   85MPD2    C3 1298   3.679   1.856  16.192  0.6498 -1.0502  0.1898
   85MPD2    C4 1299   3.697   1.902  16.321 -0.7506  0.4479  0.2461
   85MPD2    C5 1300   3.657   1.827  16.429  0.4944  0.8068  0.2413
   85MPD2     H 1301   3.633   1.680  16.078 -1.7459 -0.0624 -0.5769
   85MPD2    H1 1302   3.737   2.000  16.345  2.3216 -1.8684  4.5622
   85MPD2    H2 1303   3.617   1.635  16.502 -0.4811 -0.4075  1.0129
   85MPD2    H3 1304   3.664   1.868  16.529  0.5802  2.0296 -0.2654
   85MPD2     N 1305   3.708   1.943  16.073  0.3352  0.7414  0.4123
   85MPD2    H5 1306   3.704   1.900  15.982 -0.1874 -0.0152  0.7917
   85MPD2    N1 1307   3.587   1.505  16.259  0.0514 -0.1042  1.1212
   85MPD2    H7 1308   3.567   1.486  16.161  1.6897 -1.8499  1.1273
   86TCq2    C1 1309   3.740   2.079  16.085  0.3125 -0.3390  0.1238
   86TCq2    O2 1310   3.693   2.152  16.179 -0.2480  0.0851 -0.3247
   86TCq2    C2 1311   3.833   2.128  15.989  0.2216 -0.0163 -0.5142
   86TCq2    C3 1312   3.834   2.264  15.973  0.2713 -0.5807 -0.4212
   86TCq2    C4 1313   3.899   2.317  15.859  0.1081  0.3080  0.1434
   86TCq2    C5 1314   3.965   2.238  15.774  0.2015 -0.0043 -0.1310
   86TCq2    C6 1315   3.963   2.103  15.800 -0.3729 -0.4836  0.7884
   86TCq2    C7 1316   3.900   2.042  15.909  0.0676 -0.4690  0.0174
   86TCq2    C8 1317   4.028   2.013  15.706 -0.4902  0.1933  0.0372
   86TCq2    O4 1318   4.060   1.900  15.738  0.3451  0.3726  0.3193
   86TCq2    C9 1319   3.878   2.457  15.834 -0.7588  0.4260  0.2036
   86TCq2    O5 1320   3.917   2.498  15.722 -0.3905 -0.2235 -0.5045
   86TCq2    O6 1321   3.776   2.500  15.889 -0.3212  0.5482  0.0602
   86TCq2    H2 1322   3.780   2.328  16.041 -0.1164 -0.1721 -1.1086
   86TCq2    H3 1323   4.023   2.293  15.701  0.1107 -0.2845 -0.4141
   86TCq2    H4 1324   3.917   1.935  15.921 -1.8924 -0.6271  1.3586
   87MPD2     C 1325   0.931   0.407   1.614 -0.5796 -0.9280 -0.1664
   87MPD2    C1 1326   0.922   0.313   1.515  0.5889 -0.2098 -0.4985
   87MPD2    C2 1327   0.909   0.358   1.382  0.0367  0.3459  0.4633
   87MPD2    C3 1328   0.881   0.488   1.350  0.4822  0.0665  0.3045
   87MPD2    C4 1329   0.890   0.584   1.445  0.4538 -0.0168  0.5592
   87MPD2    C5 1330   0.914   0.537   1.569  0.4647 -0.4990 -0.4415
   87MPD2     H 1331   0.901   0.289   1.299 -0.6812 -0.4738  1.2145
   87MPD2    H1 1332   0.880   0.691   1.427  1.3736 -0.1345 -0.6737
   87MPD2    H2 1333   0.938   0.379   1.718  2.3842 -0.4311 -0.2330
   87MPD2    H3 1334   0.908   0.610   1.649  0.0565  1.9065 -2.6739
   87MPD2     N 1335   0.857   0.533   1.218 -0.1667 -0.1329  0.2396
   87MPD2    H5 1336   0.843   0.631   1.197  1.0731  0.2950  1.4670
   87MPD2    N1 1337   0.930   0.180   1.556  0.2573  0.4630  0.5055
   87MPD2    H7 1338   0.944   0.154   1.653  5.1230  3.4024  0.6352
   88TCq2    C1 1339   0.914   0.072   1.465  0.9901  0.1914 -0.6529
   88TCq2    O2 1340   0.870   0.080   1.349 -0.4577  0.4268 -0.1918
   88TCq2    C2 1341   0.950   4.666   1.529 -1.4960  0.2905 -0.1438
   88TCq2    C3 1342   0.958   4.651   1.664  0.3619  0.1974  0.9332
   88TCq2    C4 1343   0.991   4.531   1.705 -0.7183  0.0185 -0.1149
   88TCq2    C5 1344   1.019   4.425   1.631 -0.1808 -0.5148 -0.0730
   88TCq2    C6 1345   1.017   4.439   1.498  0.1363  0.7290 -0.2273
   88TCq2    C7 1346   0.975   4.558   1.447  0.4132  0.3097 -0.3677
   88TCq2    C8 1347   1.096   4.354   1.404 -0.2581 -0.1663  0.4554
   88TCq2    O4 1348   1.072   4.363   1.282 -0.1680 -0.2900  0.6086
   88TCq2    C9 1349   1.001   4.513   1.843  0.1413  0.0902 -0.3357
   88TCq2    O5 1350   0.967   4.400   1.886  1.1622 -0.0759 -0.4532
   88TCq2    O6 1351   1.036   4.610   1.918  1.0203  0.1978  0.0960
   88TCq2    H2 1352   0.931   0.010   1.730 -1.4985  0.8603 -0.6726
   88TCq2    H3 1353   1.052   4.334   1.679  1.4965  1.5359  2.6179
   88TCq2    H4 1354   0.976   4.563   1.338 -1.3463  0.9403 -0.3674
   89MPD2     C 1355   1.503   1.724   1.163  0.9244  0.4389  0.3215
   89MPD2    C1 1356   1.471   1.845   1.223  0.1106  0.0046 -0.7587
   89MPD2    C2 1357   1.546   1.951   1.184  0.3636  0.1056 -0.2453
   89MPD2    C3 1358   1.645   1.947   1.089  0.4855 -0.0714 -0.7978
   89MPD2    C4 1359   1.681   1.824   1.037 -0.1272 -0.4951  0.1303
   89MPD2    C5 1360   1.606   1.713   1.069 -0.1209 -0.8241  0.5828
   89MPD2     H 1361   1.525   2.049   1.225  2.1207 -0.4016  1.8354
   89MPD2    H1 1362   1.756   1.815   0.960 -2.0262  0.0928 -1.7866
   89MPD2    H2 1363   1.446   1.634   1.185  2.8238 -0.5708  1.0709
   89MPD2    H3 1364   1.619   1.613   1.029  1.3195 -1.0103  1.5272
   89MPD2     N 1365   1.710   2.069   1.064  0.3940  0.0511  0.2392
   89MPD2    H5 1366   1.679   2.154   1.110 -0.6264  0.6242 -1.5205
   89MPD2    N1 1367   1.371   1.858   1.328 -0.3924 -0.2416 -0.2404
   89MPD2    H7 1368   1.355   1.949   1.371  3.3987  0.0604  0.5330
   90TCq2    C1 1369   1.808   2.096   0.972  0.1930 -0.9149  0.3921
   90TCq2    O2 1370   1.876   2.018   0.909 -0.3539 -0.1829 -0.1615
   90TCq2    C2 1371   1.819   2.236   0.946 -0.8051 -0.0754 -0.7492
   90TCq2    C3 1372   1.755   2.331   1.023 -0.5678 -0.4426 -0.4018
   90TCq2    C4 1373   1.817   2.449   1.023  0.4849  0.2058  0.1202
   90TCq2    C5 1374   1.898   2.496   0.924  0.4213  0.6174  0.3026
   90TCq2    C6 1375   1.959   2.398   0.850 -0.6659 -0.5936  0.3648
   90TCq2    C7 1376   1.916   2.267   0.855  0.0687 -0.8373  0.2864
   90TCq2    C8 1377   2.051   2.428   0.746 -0.0355 -0.2698 -0.0023
   90TCq2    O4 1378   2.137   2.346   0.721 -0.2028 -0.1246 -0.7341
   90TCq2    C9 1379   1.772   2.544   1.124 -0.4501 -0.1134 -0.3851
   90TCq2    O5 1380   1.743   2.491   1.237 -0.1864 -0.0124 -0.1660
   90TCq2    O6 1381   1.807   2.663   1.105  0.1111 -0.2268 -0.0838
   90TCq2    H2 1382   1.687   2.307   1.104  2.7170  0.2735  2.5441
   90TCq2    H3 1383   1.927   2.601   0.921 -2.1456  1.3207  0.0002
   90TCq2    H4 1384   1.984   2.190   0.820  1.7619  0.8086 -0.0876
   91TMC2    C1 1385   3.587   2.544  16.289 -0.3191 -0.2883 -0.6937
   91TMC2    C2 1386   3.631   2.582  16.166 -0.2356 -0.2436 -0.3892
   91TMC2    C3 1387   3.545   2.662  16.093 -0.2358 -0.1586  0.0257
   91TMC2    C4 1388   3.456   2.558  16.324 -0.2280  0.1558  0.2149
   91TMC2    C5 1389   3.372   2.629  16.243 -0.3371 -0.0427 -0.1548
   91TMC2    C6 1390   3.418   2.691  16.130  0.6770  0.0665  1.1138
   91TMC2     C 1391   3.661   2.440  16.352 -0.1565 -0.0227 -0.0678
   91TMC2     O 1392   3.602   2.372  16.436  0.9802 -0.3503  0.0265
   91TMC2     H 1393   3.729   2.563  16.125  0.7923 -0.5617  2.2231
   91TMC2    H1 1394   3.416   2.503  16.409 -2.4797  2.5038  0.6637
   91TMC2    H2 1395   3.353   2.749  16.064  1.1399 -0.8703 -0.1620
   91TMC2    C7 1396   3.234   2.633  16.279 -0.3582 -0.0779  0.1807
   91TMC2    C8 1397   3.597   2.771  16.020 -0.2061  0.2913  0.0767
   91TMC2    O1 1398   3.207   2.588  16.393  0.0123 -0.2934 -0.4802
   91TMC2    O2 1399   3.569   2.883  16.054 -0.0455  0.1337  0.1652
   91TMC2    O5 1400   3.722   2.730  15.978  0.1843  0.7596 -0.6303
   91TMC2    H5 1401   3.710   2.638  15.946  1.4597  0.5454 -0.5139
   92MPD2     C 1402   3.877   2.256  16.449 -0.4392 -0.1393  0.2870
   92MPD2    C1 1403   3.902   2.374  16.376  0.8719  0.4966  0.5206
   92MPD2    C2 1404   4.031   2.410  16.346 -0.0375 -0.2679 -0.2541
   92MPD2    C3 1405   4.144   2.348  16.396  0.6412  0.1460 -0.3180
   92MPD2    C4 1406   4.119   2.237  16.484 -0.0569  0.9880 -0.1584
   92MPD2    C5 1407   3.986   2.201  16.507 -0.3723  0.3495 -0.4830
   92MPD2     H 1408   4.040   2.506  16.296 -0.5853  0.3445  0.8150
   92MPD2    H1 1409   4.200   2.181  16.529 -1.4020 -0.4303  0.4809
   92MPD2    H2 1410   3.784   2.222  16.492 -0.8034 -2.4901 -2.4015
   92MPD2    H3 1411   3.970   2.120  16.578  1.3758  0.3740 -0.0609
   92MPD2     N 1412   4.264   2.404  16.369 -0.3551 -0.2119  0.5982
   92MPD2    H5 1413   4.272   2.497  16.328  0.0021 -0.5919 -0.1898
   92MPD2    N1 1414   3.794   2.453  16.323  0.5069 -0.3597 -0.7838
   92MPD2    H7 1415   3.822   2.533  16.267 -0.6114  0.5326 -0.0819
   93MPD2     C 1416   0.513   2.481  13.452  0.6242  0.0142  0.2400
   93MPD2    C1 1417   0.497   2.581  13.550 -0.2056 -0.5807 -0.4068
   93MPD2    C2 1418   0.372   2.631  13.569  0.0353  0.1530 -0.7337
   93MPD2    C3 1419   0.260   2.576  13.509 -0.0430 -0.8224 -0.6368
   93MPD2    C4 1420   0.274   2.453  13.451 -0.3985  0.2641 -0.5677
   93MPD2    C5 1421   0.402   2.410  13.422  0.0357  0.5730  0.4353
   93MPD2     H 1422   0.364   2.707  13.645 -0.6061  0.4083 -1.0583
   93MPD2    H1 1423   0.192   2.395  13.411 -0.0724 -1.6430  1.5492
   93MPD2    H2 1424   0.602   2.422  13.432  0.6362 -0.1763  0.8637
   93MPD2    H3 1425   0.407   2.315  13.371  0.5433  0.3663  0.8658
   93MPD2     N 1426   0.131   2.629  13.534 -0.1554 -0.1056  0.0073
   93MPD2    H5 1427   0.053   2.574  13.500  1.3081 -1.1837 -1.6169
   93MPD2    N1 1428   0.607   2.625  13.628 -0.1928 -0.3499  0.2265
   93MPD2    H7 1429   0.579   2.688  13.702 -1.6239 -0.7170 -0.0103
   94TCq2    C1 1430   0.735   2.581  13.619  0.1663 -0.2027 -0.1972
   94TCq2    O2 1431   0.789   2.515  13.526  0.3419 -0.0303 -0.5644
   94TCq2    C2 1432   0.817   2.624  13.734  0.8155 -0.4815  0.1480
   94TCq2    C3 1433   0.750   2.671  13.845 -0.0856  0.2777 -0.7654
   94TCq2    C4 1434   0.822   2.762  13.923 -0.5514 -0.2690 -0.3114
   94TCq2    C5 1435   0.950   2.801  13.889  0.3852  0.4136  0.3405
   94TCq2    C6 1436   1.006   2.743  13.777  0.5912  1.0545 -0.7038
   94TCq2    C7 1437   0.940   2.656  13.698  0.1697  0.3698  0.3335
   94TCq2    C8 1438   1.144   2.745  13.751  0.2770  0.0405 -0.3851
   94TCq2    O4 1439   1.203   2.655  13.695  0.2770  0.3379 -0.2944
   94TCq2    C9 1440   0.760   2.814  14.044 -0.1470  0.2701 -0.5998
   94TCq2    O5 1441   0.821   2.901  14.105 -0.6107  0.2661  0.3266
   94TCq2    O6 1442   0.644   2.774  14.071  0.0817  0.4357 -1.0000
   94TCq2    H2 1443   0.651   2.637  13.873  0.9480  0.8827  3.7316
   94TCq2    H3 1444   0.997   2.878  13.950  1.7492 -0.2630  0.1454
   94TCq2    H4 1445   0.976   2.631  13.599  2.0518 -0.5292  1.2546
   95TMC2    C1 1446   0.523   4.182  15.514 -0.2558  0.3356  0.5949
   95TMC2    C2 1447   0.587   4.137  15.627 -1.0029 -0.4703 -0.0913
   95TMC2    C3 1448   0.504   4.110  15.732  0.0378 -0.5609 -0.5200
   95TMC2    C4 1449   0.397   4.236  15.508 -0.6625  0.3709  0.2877
   95TMC2    C5 1450   0.322   4.207  15.615  0.2033 -0.0262  0.0881
   95TMC2    C6 1451   0.364   4.135  15.721  0.6868 -0.4925 -0.0223
   95TMC2     C 1452   0.597   4.196  15.390  0.1646  0.0260 -0.2971
   95TMC2     O 1453   0.713   4.165  15.395  0.2388 -0.2968 -0.7756
   95TMC2     H 1454   0.694   4.133  15.641 -1.2882  0.7908  2.5451
   95TMC2    H1 1455   0.351   4.275  15.418  2.1150  1.2623 -0.7793
   95TMC2    H2 1456   0.296   4.102  15.799 -1.0031  0.4638 -1.0998
   95TMC2    C7 1457   0.180   4.247  15.604 -0.5995 -0.1272  0.4670
   95TMC2    C8 1458   0.561   4.023  15.834 -0.7772  0.0532 -0.2882
   95TMC2    O1 1459   0.150   4.324  15.517  0.3446 -0.9001 -0.2181
   95TMC2    O2 1460   0.650   3.945  15.805 -0.2396 -0.5604  0.4643
   95TMC2    O5 1461   0.487   4.030  15.952 -0.1953 -0.0265  0.9704
   95TMC2    H5 1462   0.427   4.107  15.952 -0.8060 -0.4953  1.8121
   96MPD2     C 1463   0.614   4.341  14.899  0.4830  0.9532  0.0255
   96MPD2    C1 1464   0.711   4.342  14.997 -0.4302  0.6430 -0.1037
   96MPD2    C2 1465   0.687   4.294  15.120  0.8122  0.2983  0.7054
   96MPD2    C3 1466   0.571   4.228  15.149 -0.3501 -0.3690 -0.3727
   96MPD2    C4 1467   0.477   4.220  15.047 -0.1613  0.2412  0.3993
   96MPD2    C5 1468   0.500   4.274  14.922 -0.5575 -0.0103 -0.0202
   96MPD2     H 1469   0.759   4.301  15.201 -1.2036 -1.2851  2.6251
   96MPD2    H1 1470   0.389   4.161  15.071  0.5290 -1.3439 -0.9080
   96MPD2    H2 1471   0.633   4.379  14.799  1.1640  1.6053  0.4073
   96MPD2    H3 1472   0.427   4.275  14.842  0.8450  1.4731 -1.2556
   96MPD2     N 1473   0.523   4.194  15.273  0.4275 -0.1005  0.0087
   96MPD2    H5 1474   0.424   4.172  15.272 -0.1205  2.1382  2.6645
   96MPD2    N1 1475   0.833   4.407  14.969  0.5699  0.0993 -0.0123
   96MPD2    H7 1476   0.843   4.427  14.870 -0.4235 -1.7344 -0.4930
   97MPD2     C 1477   2.459   1.602   0.345 -0.2738  0.4686  0.2077
   97MPD2    C1 1478   2.424   1.574   0.473 -0.5823  1.2925 -0.4037
   97MPD2    C2 1479   2.474   1.642   0.587  0.2295 -0.0155 -0.1233
   97MPD2    C3 1480   2.555   1.754   0.561 -0.4988  0.0928  0.1262
   97MPD2    C4 1481   2.587   1.777   0.430  0.0783  0.3913  0.4428
   97MPD2    C5 1482   2.550   1.693   0.326 -0.2146  0.3067 -0.3123
   97MPD2     H 1483   2.436   1.610   0.683  1.1360 -0.0428  0.2289
   97MPD2    H1 1484   2.652   1.863   0.416  0.3828  0.5245  2.6423
   97MPD2    H2 1485   2.421   1.544   0.261  0.2971  0.0991  0.2082
   97MPD2    H3 1486   2.580   1.717   0.225  0.4195  0.9471  0.0235
   97MPD2     N 1487   2.603   1.842   0.661  0.6202 -0.0348  0.0759
   97MPD2    H5 1488   2.641   1.932   0.633 -0.0582  1.2189  3.2631
   97MPD2    N1 1489   2.342   1.459   0.481 -0.7328  0.7138  0.4720
   97MPD2    H7 1490   2.321   1.400   0.401  0.8066 -1.0285  1.3283
   98TCq2    C1 1491   2.593   1.821   0.797 -0.0780 -0.7057 -0.3242
   98TCq2    O2 1492   2.543   1.724   0.852 -0.5618 -0.3342  0.1572
   98TCq2    C2 1493   2.640   1.926   0.882  0.6449  0.3115 -0.4655
   98TCq2    C3 1494   2.608   1.918   1.022 -0.1577  1.1040  0.0388
   98TCq2    C4 1495   2.660   2.007   1.108 -0.3558 -0.4842 -0.6534
   98TCq2    C5 1496   2.751   2.096   1.068 -0.3704  0.2407  0.1878
   98TCq2    C6 1497   2.776   2.102   0.927  0.1854  0.1292 -0.1876
   98TCq2    C7 1498   2.724   2.022   0.833  0.5921  0.5133 -0.4868
   98TCq2    C8 1499   2.895   2.174   0.892  0.4161 -0.0980 -0.5678
   98TCq2    O4 1500   2.909   2.216   0.776 -0.2344  0.5346  0.2896
   98TCq2    C9 1501   2.613   2.001   1.241 -0.0117  0.5632 -0.0779
   98TCq2    O5 1502   2.652   2.092   1.320  0.0053  0.6076 -0.0989
   98TCq2    O6 1503   2.521   1.922   1.267 -0.3129  0.3737 -0.1201
   98TCq2    H2 1504   2.533   1.846   1.051  0.8119 -0.3184 -0.9422
   98TCq2    H3 1505   2.802   2.166   1.133  0.0530 -0.0505  0.1709
   98TCq2    H4 1506   2.769   2.013   0.735  1.2518  1.4836 -0.2750
   99MPD2     C 1507   0.797   3.259   1.744 -0.4433 -0.8764 -0.4733
   99MPD2    C1 1508   0.813   3.127   1.781  0.5211 -0.0689  0.1953
   99MPD2    C2 1509   0.895   3.052   1.697  0.0356  0.2002 -0.5305
   99MPD2    C3 1510   0.952   3.099   1.577  0.4181  0.7556  0.6506
   99MPD2    C4 1511   0.932   3.231   1.545  0.1887  0.5024 -0.0364
   99MPD2    C5 1512   0.861   3.304   1.631  0.1295  0.1940  0.0473
   99MPD2     H 1513   0.916   2.946   1.707 -0.7067  0.1284  0.2250
   99MPD2    H1 1514   0.966   3.290   1.460  0.3422 -1.6544 -1.4876
   99MPD2    H2 1515   0.731   3.329   1.793 -1.8903 -1.3468 -1.7782
   99MPD2    H3 1516   0.862   3.408   1.602 -1.1175  0.1888 -0.0059
   99MPD2     N 1517   1.030   3.010   1.496 -0.2660  0.6620 -0.1953
   99MPD2    H5 1518   1.036   2.913   1.525 -1.7860  0.0719 -1.9136
   99MPD2    N1 1519   0.743   3.072   1.886 -0.1027 -0.4799 -0.5186
   99MPD2    H7 1520   0.752   2.971   1.893  1.5629 -0.1597  1.5820
  100TCq2    C1 1521   0.671   3.138   1.981 -0.2995 -0.2951  0.2874
  100TCq2    O2 1522   0.659   3.256   2.013 -0.3923  0.4361 -0.3080
  100TCq2    C2 1523   0.568   3.061   2.037 -0.4446 -0.2775 -0.2230
  100TCq2    C3 1524   0.545   3.096   2.169 -0.2267  0.0944  0.7064
  100TCq2    C4 1525   0.471   3.000   2.232 -0.0451  0.6491  0.3472
  100TCq2    C5 1526   0.419   2.894   2.171 -0.0224 -0.1530 -0.9369
  100TCq2    C6 1527   0.444   2.869   2.036  0.5224  0.6090 -0.1710
  100TCq2    C7 1528   0.527   2.952   1.964  0.2987  0.2167  0.0004
  100TCq2    C8 1529   0.400   2.746   1.978  0.6881 -0.2722  0.4350
  100TCq2    O4 1530   0.374   2.648   2.045 -0.2137 -0.5436 -0.1074
  100TCq2    C9 1531   0.457   3.013   2.373  0.4997 -0.0147 -0.0274
  100TCq2    O5 1532   0.363   2.958   2.434 -0.0468 -0.0398 -0.4510
  100TCq2    O6 1533   0.538   3.095   2.421 -0.5642  0.2543  0.2051
  100TCq2    H2 1534   0.594   3.179   2.220 -0.7058  0.9306 -0.2142
  100TCq2    H3 1535   0.376   2.815   2.231 -3.5838  1.0823 -1.8495
  100TCq2    H4 1536   0.559   2.939   1.861  2.0154  0.0814  0.5518
  101MPD2     C 1537   2.318   0.225  12.879 -0.0424 -0.0135  0.4148
  101MPD2    C1 1538   2.216   0.311  12.928  0.3270  0.1843  0.4064
  101MPD2    C2 1539   2.117   0.254  13.010 -0.1807  0.8338 -0.3414
  101MPD2    C3 1540   2.098   0.118  13.020  0.1329 -0.8802 -0.0859
  101MPD2    C4 1541   2.203   0.035  12.969  0.2389  0.2171  0.3029
  101MPD2    C5 1542   2.308   0.090  12.905 -0.5749 -0.0491  0.3168
  101MPD2     H 1543   2.037   0.316  13.050 -0.9081  1.0028 -2.0508
  101MPD2    H1 1544   2.196   4.651  12.990  3.2607  0.3699  2.0253
  101MPD2    H2 1545   2.401   0.265  12.822  0.8750 -1.8287  0.4778
  101MPD2    H3 1546   2.393   0.036  12.866 -2.1661 -0.5198 -2.5199
  101MPD2     N 1547   1.990   0.069  13.098  0.0644  0.7672 -0.2052
  101MPD2    H5 1548   1.934   0.144  13.138  0.0160 -0.7257  2.5420
  101MPD2    N1 1549   2.210   0.443  12.880 -0.0450 -0.3212  0.0094
  101MPD2    H7 1550   2.279   0.476  12.813 -0.6737  0.6794 -0.1536
  102TCq2    C1 1551   2.352   0.765  12.551 -0.7581  0.3420 -0.6228
  102TCq2    O2 1552   2.460   0.710  12.576  0.1930  0.4434  0.2016
  102TCq2    C2 1553   2.227   0.704  12.599  0.1509  0.6443  0.2336
  102TCq2    C3 1554   2.108   0.729  12.537 -0.4879 -0.2835 -0.0771
  102TCq2    C4 1555   1.989   0.703  12.597 -0.5129  0.1151  0.4489
  102TCq2    C5 1556   1.979   0.652  12.723 -0.0136 -0.0683  0.0691
  102TCq2    C6 1557   2.102   0.626  12.783 -0.1850  0.0528  0.1095
  102TCq2    C7 1558   2.222   0.665  12.731 -0.1459  0.4592  0.7690
  102TCq2    C8 1559   2.097   0.525  12.889 -0.8536  0.5043  0.4005
  102TCq2    O4 1560   1.982   0.496  12.920 -0.5715  0.5537  0.1467
  102TCq2    C9 1561   1.864   0.715  12.531  0.4543 -0.3455 -0.5392
  102TCq2    O5 1562   1.773   0.647  12.582  0.5398  0.1492  0.1268
  102TCq2    O6 1563   1.863   0.782  12.427 -0.3727  0.4344  0.3980
  102TCq2    H2 1564   2.101   0.763  12.435  0.9047  1.5278  0.4483
  102TCq2    H3 1565   1.887   0.625  12.774 -0.7136 -0.2222 -1.2754
  102TCq2    H4 1566   2.316   0.642  12.780 -0.0039 -1.9243 -0.6519
  103TMC2    C1 1567   0.649   0.276  12.601 -0.5610 -0.4085  0.3599
  103TMC2    C2 1568   0.766   0.217  12.622 -0.4077  0.5221 -0.3232
  103TMC2    C3 1569   0.825   0.240  12.748  0.0342  0.5380  0.6552
  103TMC2    C4 1570   0.594   0.365  12.684  0.9401 -0.3017 -0.1216
  103TMC2    C5 1571   0.662   0.392  12.798 -0.1950 -0.5019  0.1650
  103TMC2    C6 1572   0.771   0.327  12.841 -0.3005 -0.0645 -0.1820
  103TMC2     C 1573   0.581   0.255  12.475 -0.2061  0.1319  0.1298
  103TMC2     O 1574   0.461   0.283  12.480 -0.1725  0.7501 -0.3291
  103TMC2     H 1575   0.811   0.141  12.560  0.0026  1.4433 -1.1360
  103TMC2    H1 1576   0.497   0.410  12.666 -0.0762 -2.1903  0.5747
  103TMC2    H2 1577   0.836   0.364  12.919  2.2738 -0.7404 -1.9563
  103TMC2    C7 1578   0.608   0.486  12.889 -0.3184 -0.3685 -0.6190
  103TMC2    C8 1579   0.929   0.148  12.780  0.8713  0.4884  0.4280
  103TMC2    O1 1580   0.629   0.462  13.008 -0.1077 -0.2747 -0.6021
  103TMC2    O2 1581   0.996   0.083  12.699  0.1208 -0.1157 -0.2184
  103TMC2    O5 1582   0.889   0.086  12.890  0.1919 -0.3584 -0.1068
  103TMC2    H5 1583   0.818   0.132  12.939 -0.4589 -1.9098  0.4292
  104MPD2     C 1584   0.748   0.139  12.167  0.2113 -0.5310  0.2681
  104MPD2    C1 1585   0.642   0.184  12.244  0.1564 -0.8096  0.6409
  104MPD2    C2 1586   0.520   0.197  12.187 -0.0287  0.0172 -0.4648
  104MPD2    C3 1587   0.491   0.127  12.070  0.2927  0.9670 -0.3308
  104MPD2    C4 1588   0.590   0.081  11.993  0.3839 -0.1613 -0.2464
  104MPD2    C5 1589   0.719   0.091  12.041  0.0380  1.0840 -0.6688
  104MPD2     H 1590   0.445   0.236  12.255 -2.2011 -3.2176 -1.0116
  104MPD2    H1 1591   0.575   0.047  11.891  1.5534 -0.7599 -0.2142
  104MPD2    H2 1592   0.850   0.144  12.201  0.2840  1.7981 -0.2983
  104MPD2    H3 1593   0.792   0.060  11.968 -0.4165  0.2562 -0.7798
  104MPD2     N 1594   0.365   0.145  12.022  0.4490  0.2814 -0.3242
  104MPD2    H5 1595   0.305   0.216  12.063 -0.6051 -0.1222 -1.1637
  104MPD2    N1 1596   0.671   0.215  12.377 -0.4633  0.3698  0.5819
  104MPD2    H7 1597   0.768   0.209  12.407  0.4465 -0.2793 -2.5458
  105MPD2     C 1598   1.944   4.362   0.076 -0.6086 -0.0301  0.3860
  105MPD2    C1 1599   1.823   4.429   0.071  0.0437 -0.2650  0.0719
  105MPD2    C2 1600   1.751   4.433   0.185 -0.8053 -0.1431 -1.2307
  105MPD2    C3 1601   1.789   4.356   0.300 -0.5833  0.3437 -0.7146
  105MPD2    C4 1602   1.898   4.276   0.289  0.2537 -0.3852  0.6460
  105MPD2    C5 1603   1.973   4.273   0.177 -0.0370 -0.0788  0.1424
  105MPD2     H 1604   1.659   4.490   0.192  0.6266  1.8193  1.5875
  105MPD2    H1 1605   1.943   4.226   0.373 -1.0828 -0.9591  1.0223
  105MPD2    H2 1606   2.014   4.364  17.687 -1.4125 -1.3374 -0.3291
  105MPD2    H3 1607   2.063   4.214   0.188  1.6766  2.6749  0.8079
  105MPD2     N 1608   1.697   4.361   0.417 -0.8086  0.1293  0.1792
  105MPD2    H5 1609   1.629   4.436   0.410 -0.2538  0.6345  0.3029
  105MPD2    N1 1610   1.792   4.501  17.648 -0.1087  0.2890  0.9419
  105MPD2    H7 1611   1.722   4.573  17.665  2.3699  2.3773  2.3527
  106TCq2    C1 1612   1.725   4.289   0.537  0.4566 -0.1294  0.5143
  106TCq2    O2 1613   1.781   4.181   0.546  0.6235  0.2254  0.5647
  106TCq2    C2 1614   1.654   4.343   0.651 -0.5184  0.5699  0.1923
  106TCq2    C3 1615   1.564   4.443   0.639  0.4992 -0.9924 -0.0545
  106TCq2    C4 1616   1.469   4.459   0.737  0.1452 -0.9859 -0.0126
  106TCq2    C5 1617   1.461   4.384   0.851 -0.2852  0.4748 -0.0794
  106TCq2    C6 1618   1.552   4.283   0.860 -0.0094  1.4354 -0.1593
  106TCq2    C7 1619   1.651   4.262   0.763 -0.0476 -0.1161 -0.1344
  106TCq2    C8 1620   1.569   4.217   0.989  0.4671  0.1014 -0.2281
  106TCq2    O4 1621   1.674   4.156   1.011  0.5947 -0.7922  0.3543
  106TCq2    C9 1622   1.372   4.564   0.709 -0.3476  0.5019 -0.7264
  106TCq2    O5 1623   1.359   4.602   0.588  0.2225 -0.4577  0.0665
  106TCq2    O6 1624   1.282   4.578   0.798  0.0933 -0.1490  0.5089
  106TCq2    H2 1625   1.565   4.511   0.555 -0.2666 -1.9518 -0.8497
  106TCq2    H3 1626   1.380   4.407   0.920 -1.2502  0.7563 -1.3110
  106TCq2    H4 1627   1.708   4.169   0.760 -1.3048 -0.8838 -0.1196
  107TMC2    C1 1628   2.711   3.615  11.379  0.0084 -0.1749  0.4623
  107TMC2    C2 1629   2.733   3.483  11.410  0.4171  0.6155 -0.5210
  107TMC2    C3 1630   2.810   3.412  11.327 -0.0707 -0.1025  0.7045
  107TMC2    C4 1631   2.775   3.670  11.271 -0.1123  0.4419  0.0223
  107TMC2    C5 1632   2.851   3.598  11.189  0.3110  0.2120  0.1974
  107TMC2    C6 1633   2.883   3.467  11.223 -0.0165  0.3345 -0.2091
  107TMC2     C 1634   2.622   3.690  11.470  0.0982  0.6065  0.2074
  107TMC2     O 1635   2.550   3.635  11.551  0.5468  0.4727  0.4060
  107TMC2     H 1636   2.682   3.444  11.497  1.9634  1.6578  0.8579
  107TMC2    H1 1637   2.745   3.760  11.219 -1.3915  0.5179  0.8922
  107TMC2    H2 1638   2.950   3.401  11.170  0.7784  1.1935 -0.2749
  107TMC2    C7 1639   2.933   3.675  11.100 -0.4643  0.4216  0.0596
  107TMC2    C8 1640   2.862   3.284  11.363  0.6694  0.6205  0.4866
  107TMC2    O1 1641   2.912   3.795  11.086  0.4384 -0.2208 -0.2884
  107TMC2    O2 1642   2.949   3.216  11.304 -0.1570 -0.2324  0.0289
  107TMC2    O5 1643   2.815   3.251  11.488 -0.3411  0.3034 -0.4242
  107TMC2    H5 1644   2.720   3.270  11.499  0.3743  2.8697  1.2083
  108MPD2     C 1645   2.573   4.058  11.466  0.2233 -0.1963 -0.0517
  108MPD2    C1 1646   2.553   3.932  11.504  0.1508 -0.2234 -0.3777
  108MPD2    C2 1647   2.470   3.914  11.610  0.6212  0.6310  0.0193
  108MPD2    C3 1648   2.398   4.020  11.667  0.0746  0.0538  0.8380
  108MPD2    C4 1649   2.413   4.148  11.605  0.1312  0.4676  0.1145
  108MPD2    C5 1650   2.498   4.160  11.510  0.9812 -0.5417 -0.0789
  108MPD2     H 1651   2.453   3.816  11.652  0.1279  1.1433  1.0339
  108MPD2    H1 1652   2.357   4.234  11.639  1.0922  0.4128  1.8864
  108MPD2    H2 1653   2.633   4.082  11.379 -0.6806 -0.0058 -0.6200
  108MPD2    H3 1654   2.514   4.253  11.457  0.8477 -0.4200  0.0949
  108MPD2     N 1655   2.307   4.015  11.783 -0.2678 -0.3623  0.2121
  108MPD2    H5 1656   2.252   4.097  11.806  0.2724  0.5442 -1.6433
  108MPD2    N1 1657   2.633   3.829  11.436 -0.2275 -0.5959  0.3355
  108MPD2    H7 1658   2.696   3.850  11.359  1.6363  1.7040  2.4837
  109MPD2     C 1659   2.244   0.647   1.936  0.3276 -0.7057  0.3003
  109MPD2    C1 1660   2.212   0.628   1.803  0.0671  0.3121 -0.6317
  109MPD2    C2 1661   2.323   0.630   1.719  0.5749 -0.7900  0.7993
  109MPD2    C3 1662   2.452   0.642   1.756 -0.1128  0.6737 -0.4833
  109MPD2    C4 1663   2.487   0.661   1.887 -0.0953  0.2350 -0.2160
  109MPD2    C5 1664   2.381   0.655   1.973  0.5129  0.5948  0.2190
  109MPD2     H 1665   2.316   0.616   1.612  2.2003 -3.7987  1.1011
  109MPD2    H1 1666   2.589   0.668   1.921  0.9354 -2.0096 -2.9105
  109MPD2    H2 1667   2.169   0.660   2.013 -3.9021 -2.0626 -3.5849
  109MPD2    H3 1668   2.400   0.667   2.079  0.5730 -0.0015  0.2735
  109MPD2     N 1669   2.545   0.649   1.645  0.0281 -0.0550 -0.3947
  109MPD2    H5 1670   2.498   0.634   1.556  0.3352  2.9347 -1.0288
  109MPD2    N1 1671   2.078   0.615   1.759 -0.4291  0.4473 -0.3548
  109MPD2    H7 1672   2.006   0.630   1.828 -0.4363  1.4118 -0.5701
  110TCq2    C1 1673   2.678   0.685   1.650 -0.3416 -0.2792  0.2083
  110TCq2    O2 1674   2.740   0.708   1.752 -0.6089  0.5993  0.5619
  110TCq2    C2 1675   2.720   0.733   1.516  0.0849 -0.5802 -0.5149
  110TCq2    C3 1676   2.844   0.704   1.479  0.0186 -0.1451 -0.3192
  110TCq2    C4 1677   2.891   0.749   1.354 -0.4847  0.3275  0.4261
  110TCq2    C5 1678   2.805   0.819   1.277 -0.2330 -0.6041 -0.2106
  110TCq2    C6 1679   2.667   0.831   1.312  0.0240 -0.1272  0.1602
  110TCq2    C7 1680   2.624   0.804   1.439  0.3606  0.0702  0.0979
  110TCq2    C8 1681   2.566   0.872   1.211 -0.1499  0.1197 -0.3192
  110TCq2    O4 1682   2.606   0.942   1.118 -0.9220  0.2453  0.4729
  110TCq2    C9 1683   3.033   0.727   1.316 -0.2205  0.1432 -0.0943
  110TCq2    O5 1684   3.068   0.752   1.201  0.3682 -0.6248 -0.5982
  110TCq2    O6 1685   3.105   0.655   1.389  0.0458  0.1254  0.2986
  110TCq2    H2 1686   2.911   0.652   1.546  1.7508  1.4728 -0.7915
  110TCq2    H3 1687   2.842   0.856   1.182  0.1446 -0.4276  0.0089
  110TCq2    H4 1688   2.529   0.835   1.482 -0.4556 -3.7224  0.9912
  111TMC2    C1 1689   2.490   1.116  11.291 -0.2662 -0.3325  0.5952
  111TMC2    C2 1690   2.390   1.187  11.336  0.2280 -0.0580  0.4106
  111TMC2    C3 1691   2.410   1.264  11.442  0.2703 -0.3699 -0.4983
  111TMC2    C4 1692   2.621   1.128  11.347 -0.3452  0.0363 -1.2191
  111TMC2    C5 1693   2.633   1.213  11.455  0.3645  0.3364 -0.4301
  111TMC2    C6 1694   2.526   1.281  11.506  0.4896  0.4304  0.9552
  111TMC2     C 1695   2.487   1.086  11.149 -0.2102  0.3180  0.0815
  111TMC2     O 1696   2.393   1.116  11.087  0.4189 -0.3035 -0.1770
  111TMC2     H 1697   2.288   1.175  11.303  0.2862  0.9727 -0.1457
  111TMC2    H1 1698   2.697   1.056  11.317 -0.7471  0.3991 -3.0884
  111TMC2    H2 1699   2.539   1.324  11.604 -1.3740 -0.1039  1.4313
  111TMC2    C7 1700   2.756   1.198  11.544  0.5016 -0.5312  0.5075
  111TMC2    C8 1701   2.288   1.264  11.521  0.7506  0.7367 -0.7748
  111TMC2    O1 1702   2.751   1.248  11.654  0.1960  0.4165 -0.1376
  111TMC2    O2 1703   2.208   1.170  11.514  0.2559  0.2886 -0.4963
  111TMC2    O5 1704   2.298   1.357  11.611 -0.5538 -0.0925 -0.0103
  111TMC2    H5 1705   2.372   1.418  11.590 -1.7608  1.3568 -0.1129
  112MPD2     C 1706   2.711   0.934  10.713 -0.2248 -0.2344  0.3808
  112MPD2    C1 1707   2.615   1.035  10.738  0.6367  0.4716 -0.6556
  112MPD2    C2 1708   2.575   1.066  10.869 -0.6290 -0.5044 -0.2167
  112MPD2    C3 1709   2.626   0.993  10.971 -0.1422 -0.2629 -0.1510
  112MPD2    C4 1710   2.720   0.890  10.947  0.6517 -0.2861  0.2256
  112MPD2    C5 1711   2.759   0.868  10.818 -0.3770  0.4202  0.3870
  112MPD2     H 1712   2.520   1.159  10.881 -0.7848 -0.4785 -1.1134
  112MPD2    H1 1713   2.752   0.814  11.017 -0.9662 -1.2990 -0.1487
  112MPD2    H2 1714   2.733   0.907  10.610  0.0963 -1.3621  0.7497
  112MPD2    H3 1715   2.826   0.783  10.812  0.8656  1.4050  0.2801
  112MPD2     N 1716   2.595   1.015  11.104  0.1150 -0.5049 -0.2858
  112MPD2    H5 1717   2.655   0.975  11.176 -0.2480  0.1944  0.4025
  112MPD2    N1 1718   2.553   1.109  10.639 -0.3082  0.2067 -1.0947
  112MPD2    H7 1719   2.481   1.173  10.671 -1.4926 -1.9386  0.5299
  113MPD2     C 1720   1.072   3.478   1.044  0.7981  0.0640  0.2898
  113MPD2    C1 1721   0.955   3.536   1.096 -0.1419 -0.0914  0.6948
  113MPD2    C2 1722   0.845   3.537   1.016 -0.3500 -0.5490  0.8174
  113MPD2    C3 1723   0.838   3.457   0.905 -0.7859  1.1328 -0.0691
  113MPD2    C4 1724   0.955   3.401   0.850  0.0660 -0.2724  0.1556
  113MPD2    C5 1725   1.071   3.423   0.919  0.0966  0.6372 -0.4943
  113MPD2     H 1726   0.750   3.581   1.044  0.7495  1.4974  1.3171
  113MPD2    H1 1727   0.960   3.339   0.761 -0.0540 -0.7505  0.4803
  113MPD2    H2 1728   1.164   3.483   1.100  1.1267  1.3030 -0.3622
  113MPD2    H3 1729   1.164   3.383   0.879  0.2305 -2.1132  2.5137
  113MPD2     N 1730   0.712   3.447   0.843 -0.2496 -0.1801 -0.5289
  113MPD2    H5 1731   0.637   3.498   0.889 -0.0985  0.5890 -1.1287
  113MPD2    N1 1732   0.944   3.605   1.219  0.1908  0.0632  0.1828
  113MPD2    H7 1733   0.860   3.662   1.221 -0.5531 -1.1701  3.8253
  114TCq2    C1 1734   0.679   3.375   0.731 -0.2287  0.0098  0.4925
  114TCq2    O2 1735   0.747   3.286   0.684  0.5293 -0.0418 -0.3374
  114TCq2    C2 1736   0.549   3.408   0.672 -0.1133  0.0013 -0.2010
  114TCq2    C3 1737   0.462   3.502   0.732 -0.5288 -0.0371 -0.0942
  114TCq2    C4 1738   0.331   3.500   0.702 -0.8942 -0.5103 -0.3979
  114TCq2    C5 1739   0.278   3.398   0.636  0.3431 -0.7276  0.5438
  114TCq2    C6 1740   0.360   3.295   0.598 -0.1367 -0.1245  0.3205
  114TCq2    C7 1741   0.496   3.301   0.600 -0.2358  0.5220  0.0803
  114TCq2    C8 1742   0.298   3.165   0.598 -0.8475  0.3301 -0.3435
  114TCq2    O4 1743   0.356   3.080   0.533  0.0597  0.1063 -0.1543
  114TCq2    C9 1744   0.244   3.602   0.760  0.3409  0.3361 -0.5754
  114TCq2    O5 1745   0.307   3.698   0.813  0.2558 -0.0693  0.5291
  114TCq2    O6 1746   0.124   3.595   0.734  0.0132 -0.1702  0.7446
  114TCq2    H2 1747   0.497   3.574   0.805  1.0398  0.1035 -0.9887
  114TCq2    H3 1748   0.174   3.410   0.609  0.3162 -1.4376  0.3406
  114TCq2    H4 1749   0.555   3.219   0.561 -0.5478  0.5134 -0.3639
  115TMC2    C1 1750   1.628   1.725   0.041 -0.1249  0.5707  0.0556
  115TMC2    C2 1751   1.758   1.745   0.068 -0.3286 -0.3986  0.0612
  115TMC2    C3 1752   1.801   1.871   0.045  0.2322  0.2010  0.3044
  115TMC2    C4 1753   1.538   1.824  17.690 -0.2297 -0.4803  0.1051
  115TMC2    C5 1754   1.584   1.956  17.685 -0.2422 -0.5343  0.3555
  115TMC2    C6 1755   1.715   1.973   0.012  0.0689 -0.4847  0.3920
  115TMC2     C 1756   1.566   1.591   0.050  0.0282 -0.0009 -0.6609
  115TMC2     O 1757   1.482   1.560  17.662 -0.2871  0.6522 -0.2697
  115TMC2     H 1758   1.822   1.658   0.081 -1.0632 -1.0353 -0.6003
  115TMC2    H1 1759   1.432   1.801   0.000 -0.2231 -0.3453  1.2783
  115TMC2    H2 1760   1.759   2.071   0.004 -0.3762 -0.4714 -2.0630
  115TMC2    C7 1761   1.498   2.066  17.651  0.0901  0.3068  0.8084
  115TMC2    C8 1762   1.926   1.912   0.105 -0.0798  0.1266  0.5180
  115TMC2    O1 1763   1.384   2.030  17.665  0.1856  0.1013  0.1093
  115TMC2    O2 1764   1.988   2.017   0.071 -0.2308 -0.1918 -0.4574
  115TMC2    O5 1765   1.949   1.841   0.221 -0.2597 -0.1406  0.1261
  115TMC2    H5 1766   1.889   1.768   0.247 -0.9208  0.7784  1.1628
  116MPD2     C 1767   1.567   1.110   0.227  0.2793  0.6954  0.0041
  116MPD2    C1 1768   1.546   1.163   0.102 -0.1291 -0.0575 -0.0593
  116MPD2    C2 1769   1.548   1.297   0.088  0.2830  0.4868  0.1503
  116MPD2    C3 1770   1.583   1.385   0.189  0.3495 -0.2523 -0.9958
  116MPD2    C4 1771   1.616   1.327   0.309  0.4249  0.3943 -0.7509
  116MPD2    C5 1772   1.607   1.191   0.330  0.2418  0.0743  0.2690
  116MPD2     H 1773   1.507   1.329  17.685 -0.1280  1.5795  0.6968
  116MPD2    H1 1774   1.652   1.390   0.389  0.5714 -0.5300 -0.0912
  116MPD2    H2 1775   1.558   1.003   0.244  0.4370  0.7257  0.2914
  116MPD2    H3 1776   1.624   1.140   0.424  2.1523  0.1225 -0.0612
  116MPD2     N 1777   1.609   1.520   0.163  0.2150 -0.5540  0.0567
  116MPD2    H5 1778   1.656   1.579   0.230 -0.5069  0.8894 -0.6848
  116MPD2    N1 1779   1.521   1.072  17.684 -0.2059 -0.4897  0.5085
  116MPD2    H7 1780   1.509   0.977   0.022  1.3732  0.1268  2.9851
  117TMC2    C1 1781   0.030   3.339  14.297 -0.8529 -0.0858  0.2755
  117TMC2    C2 1782   0.083   3.373  14.418 -0.0830  1.3272  0.0849
  117TMC2    C3 1783   0.214   3.413  14.419  0.3785  0.1977  0.4386
  117TMC2    C4 1784   0.099   3.352  14.182  0.0807 -0.9837  0.2501
  117TMC2    C5 1785   0.224   3.405  14.193 -0.6766 -0.3794  0.3065
  117TMC2    C6 1786   0.293   3.426  14.307  0.2719  0.4328  0.6899
  117TMC2     C 1787   4.615   3.292  14.292  0.3274 -0.5671  0.2835
  117TMC2     O 1788   4.574   3.206  14.369 -0.2353  0.6788 -0.2558
  117TMC2     H 1789   0.014   3.364  14.501  0.1623  1.5259  0.3119
  117TMC2    H1 1790   0.049   3.336  14.088  1.3879  1.2641 -0.8365
  117TMC2    H2 1791   0.395   3.461  14.307  0.3190  0.3103 -0.4962
  117TMC2    C7 1792   0.287   3.464  14.079  0.0777 -0.1760 -0.5024
  117TMC2    C8 1793   0.267   3.465  14.549 -0.2713 -0.4169 -0.3620
  117TMC2    O1 1794   0.364   3.560  14.096  0.4051  0.6579 -0.0991
  117TMC2    O2 1795   0.203   3.540  14.624 -0.2275 -0.1153 -0.3826
  117TMC2    O5 1796   0.403   3.438  14.551  0.0166 -0.0786  0.4180
  117TMC2    H5 1797   0.418   3.361  14.493  2.0472 -0.0241  0.8917
  118MPD2     C 1798   0.206   3.365  13.733  0.2251 -0.9002 -0.7077
  118MPD2    C1 1799   0.272   3.437  13.830 -0.6920  0.7851  0.2384
  118MPD2    C2 1800   0.364   3.538  13.803  0.0564 -0.0197 -0.2248
  118MPD2    C3 1801   0.393   3.566  13.667  0.4929  0.0212  0.0411
  118MPD2    C4 1802   0.321   3.495  13.570 -0.2840 -0.3095 -0.4779
  118MPD2    C5 1803   0.241   3.395  13.604 -0.2952 -0.4739  0.3694
  118MPD2     H 1804   0.427   3.581  13.879 -0.6592 -0.5697  0.6781
  118MPD2    H1 1805   0.320   3.518  13.464 -0.4691 -0.2660 -0.4662
  118MPD2    H2 1806   0.132   3.288  13.754 -0.6312  0.1584  0.1363
  118MPD2    H3 1807   0.188   3.341  13.528  0.6720 -0.5026 -0.2870
  118MPD2     N 1808   0.482   3.671  13.624  0.7839 -0.5379 -0.2303
  118MPD2    H5 1809   0.503   3.678  13.525  0.2728 -1.7524 -0.4242
  118MPD2    N1 1810   0.240   3.406  13.964 -0.3222 -0.2426 -0.4191
  118MPD2    H7 1811   0.164   3.340  13.981  0.5414 -1.2066 -0.3335
  119MPD2     C 1812   3.238   0.295  13.966  0.2782 -0.7525 -0.1024
  119MPD2    C1 1813   3.104   0.272  13.929 -0.4647 -0.2938  0.5067
  119MPD2    C2 1814   3.084   0.195  13.817 -0.1525 -0.5271 -0.2789
  119MPD2    C3 1815   3.189   0.123  13.763  0.4086  1.0789 -0.1805
  119MPD2    C4 1816   3.322   0.140  13.812  0.4229  0.2929 -0.4382
  119MPD2    C5 1817   3.342   0.231  13.914  0.2509  1.1772 -0.2683
  119MPD2     H 1818   2.984   0.193  13.775 -0.9975  1.4768  1.6667
  119MPD2    H1 1819   3.407   0.084  13.776  1.8435  1.1447  1.6135
  119MPD2    H2 1820   3.259   0.377  14.033 -0.2514 -0.5118 -0.2358
  119MPD2    H3 1821   3.441   0.247  13.956  0.4232  0.2601 -0.3249
  119MPD2     N 1822   3.171   0.031  13.658  0.3643  0.3350  0.0472
  119MPD2    H5 1823   3.256   4.720  13.615 -0.6044 -0.7934 -0.9683
  119MPD2    N1 1824   2.999   0.334  14.006 -0.3672 -0.2210 -0.0591
  119MPD2    H7 1825   3.018   0.406  14.075 -1.6513  0.3375 -0.2833
  120TCq2    C1 1826   3.059   4.698  13.610 -0.2396  0.3122 -0.9246
  120TCq2    O2 1827   2.944   4.699  13.654  0.1684 -0.3977  0.1628
  120TCq2    C2 1828   3.083   4.610  13.501  0.2203  0.2920  0.3921
  120TCq2    C3 1829   3.196   4.625  13.418  0.1695  0.0747  0.7089
  120TCq2    C4 1830   3.216   4.538  13.316 -0.1123  0.1182 -0.2447
  120TCq2    C5 1831   3.130   4.432  13.301  0.0413 -0.3225 -0.5250
  120TCq2    C6 1832   3.015   4.425  13.379 -0.0223 -0.5583 -0.1560
  120TCq2    C7 1833   2.984   4.521  13.475 -0.5244 -0.2136  0.6558
  120TCq2    C8 1834   2.908   4.336  13.341  0.0239  0.0164 -0.3590
  120TCq2    O4 1835   2.926   4.270  13.237 -0.0766  0.2293 -0.0461
  120TCq2    C9 1836   3.339   4.546  13.242  1.0525  0.6163 -0.1843
  120TCq2    O5 1837   3.426   4.632  13.273  0.1309 -0.0330  0.2263
  120TCq2    O6 1838   3.345   4.481  13.131  0.2316  0.2190 -0.1838
  120TCq2    H2 1839   3.268   4.706  13.423  1.8449 -1.3883  0.0833
  120TCq2    H3 1840   3.161   4.366  13.221  1.1443  0.1328 -0.4819
  120TCq2    H4 1841   2.894   4.523  13.535 -1.4605 -1.7906 -0.7051
  121TMC2    C1 1842   4.259   1.861  14.080 -0.0887 -0.4530 -0.6072
  121TMC2    C2 1843   4.362   1.783  14.025 -0.4143  0.4220  0.6331
  121TMC2    C3 1844   4.347   1.649  14.039 -0.0789 -0.1145 -0.0889
  121TMC2    C4 1845   4.157   1.812  14.151 -0.6333  0.0265 -0.1581
  121TMC2    C5 1846   4.158   1.675  14.177 -0.6434 -0.6371 -0.2404
  121TMC2    C6 1847   4.249   1.592  14.120  0.0733 -0.6406  0.1131
  121TMC2     C 1848   4.244   1.995  14.043 -0.5024  0.5675 -0.0556
  121TMC2     O 1849   4.181   2.066  14.120  0.2312 -0.0292  0.3027
  121TMC2     H 1850   4.444   1.832  13.974 -0.0561  1.5527  2.2640
  121TMC2    H1 1851   4.075   1.880  14.171 -0.0094  0.7211  0.0670
  121TMC2    H2 1852   4.230   1.487  14.135 -1.5282 -0.1742  1.3358
  121TMC2    C7 1853   4.047   1.605  14.236  0.2340 -0.0379 -0.5056
  121TMC2    C8 1854   4.444   1.567  13.979  0.0846  0.8909  0.2522
  121TMC2    O1 1855   4.064   1.498  14.287  0.0009 -0.0528  0.4653
  121TMC2    O2 1856   4.564   1.593  13.989 -1.0491  0.6737 -0.3273
  121TMC2    O5 1857   4.400   1.441  13.947  0.0888 -0.5719 -0.3793
  121TMC2    H5 1858   4.306   1.445  13.919  0.5244  1.6128 -1.5691
  122MPD2     C 1859   4.250   2.262  13.905 -0.5375 -0.0335 -0.5463
  122MPD2    C1 1860   4.280   2.141  13.843 -0.1458 -0.1856  0.1712
  122MPD2    C2 1861   4.321   2.128  13.710 -0.7594 -0.0824  0.4584
  122MPD2    C3 1862   4.341   2.247  13.640 -0.0996 -0.3325  0.1166
  122MPD2    C4 1863   4.303   2.366  13.693 -0.1853  0.3368  0.5226
  122MPD2    C5 1864   4.261   2.374  13.829  0.0582 -0.2190  0.6422
  122MPD2     H 1865   4.337   2.030  13.669 -2.6595 -0.4949  0.6658
  122MPD2    H1 1866   4.329   2.454  13.636 -1.2696  0.4237  0.1610
  122MPD2    H2 1867   4.218   2.265  14.008 -2.0204 -0.5481 -0.9946
  122MPD2    H3 1868   4.220   2.467  13.869  0.2284  0.6128 -1.1026
  122MPD2     N 1869   4.371   2.254  13.500  0.3268  0.1035  0.1695
  122MPD2    H5 1870   4.366   2.343  13.451  2.5026 -1.4192 -2.8634
  122MPD2    N1 1871   4.279   2.017  13.912 -0.1299 -0.0036 -0.9625
  122MPD2    H7 1872   4.305   1.938  13.854 -1.1902 -0.9016 -0.2069
  123MPD2     C 1873   3.080   4.678   9.415 -0.2045 -0.3925  0.0780
  123MPD2    C1 1874   2.967   4.609   9.447  0.2136  0.3722 -0.3432
  123MPD2    C2 1875   2.989   4.481   9.499  0.5141  0.8832  0.0441
  123MPD2    C3 1876   3.113   4.437   9.540 -0.8187  0.2394 -0.7127
  123MPD2    C4 1877   3.223   4.522   9.523 -0.3689 -0.3937 -0.4485
  123MPD2    C5 1878   3.207   4.641   9.462 -0.2542 -0.2363 -0.4334
  123MPD2     H 1879   2.908   4.414   9.527  0.9830 -0.7641 -2.5614
  123MPD2    H1 1880   3.324   4.497   9.552 -0.2434  0.3987 -0.2024
  123MPD2    H2 1881   3.067   0.049   9.362  1.1222  0.4007  1.1728
  123MPD2    H3 1882   3.295   4.702   9.446 -1.4072  1.7710  0.9539
  123MPD2     N 1883   3.126   4.306   9.590  0.7254 -0.7265 -0.2436
  123MPD2    H5 1884   3.041   4.256   9.613  0.6557 -0.8069 -0.6790
  123MPD2    N1 1885   2.837   4.664   9.409  0.3724  0.2366  0.2865
  123MPD2    H7 1886   2.835   0.032   9.364  0.9459 -0.8835 -2.0129
  124TCq2    C1 1887   3.235   4.257   9.652 -0.0969 -0.2985  0.2777
  124TCq2    O2 1888   3.340   4.319   9.662 -0.0052 -0.0703 -0.1045
  124TCq2    C2 1889   3.229   4.119   9.712  0.0120  0.2771  1.0729
  124TCq2    C3 1890   3.344   4.081   9.775 -0.1236  0.0323  0.0995
  124TCq2    C4 1891   3.336   3.962   9.841  0.4927  0.0462 -0.8022
  124TCq2    C5 1892   3.228   3.879   9.830  0.0290  0.5246  0.2847
  124TCq2    C6 1893   3.117   3.911   9.755  1.0002  0.4142 -0.1728
  124TCq2    C7 1894   3.119   4.034   9.697  0.2864 -0.3726  0.4574
  124TCq2    C8 1895   3.010   3.820   9.737 -0.6516 -0.3370  1.5024
  124TCq2    O4 1896   2.941   3.822   9.634 -0.1472 -0.4756 -0.1291
  124TCq2    C9 1897   3.447   3.924   9.937 -0.2396 -0.6487  0.5784
  124TCq2    O5 1898   3.531   4.018   9.952 -0.2799  0.3981  0.0310
  124TCq2    O6 1899   3.464   3.811   9.982 -0.2854  0.1990 -0.1709
  124TCq2    H2 1900   3.416   4.158   9.800  1.0677 -1.2662  0.6717
  124TCq2    H3 1901   3.237   3.782   9.879  2.2735 -0.9185 -3.0077
  124TCq2    H4 1902   3.039   4.053   9.626 -0.0444 -1.3547  0.5707
  125TMC2    C1 1903   0.686   2.065   8.532  0.0567  0.1934 -0.8665
  125TMC2    C2 1904   0.591   2.060   8.629 -0.2839 -0.4454 -0.3874
  125TMC2    C3 1905   0.623   1.980   8.736  0.4189  0.2612 -0.3211
  125TMC2    C4 1906   0.811   2.011   8.533  0.2599 -0.3198 -0.5468
  125TMC2    C5 1907   0.838   1.939   8.645 -0.0026 -0.4543  0.2475
  125TMC2    C6 1908   0.749   1.921   8.743 -0.2456  0.1192  0.2045
  125TMC2     C 1909   0.661   2.161   8.424 -0.4639 -0.5004 -0.1898
  125TMC2     O 1910   0.755   2.226   8.382 -0.5690  0.1588 -0.3196
  125TMC2     H 1911   0.502   2.119   8.643  0.6137  1.5995 -3.3200
  125TMC2    H1 1912   0.882   2.023   8.453 -0.9371  2.7892 -1.1404
  125TMC2    H2 1913   0.779   1.865   8.831 -0.2812 -1.6374 -0.8930
  125TMC2    C7 1914   0.950   1.849   8.643  0.5363  0.3769  0.2131
  125TMC2    C8 1915   0.538   1.972   8.843 -0.5829 -0.6805 -0.4094
  125TMC2    O1 1916   0.980   1.810   8.528 -0.2242  0.0085  0.0455
  125TMC2    O2 1917   0.591   1.965   8.955  0.0104 -0.2048  0.1916
  125TMC2    O5 1918   0.436   1.899   8.802 -0.0799 -0.0395  0.3722
  125TMC2    H5 1919   0.430   1.901   8.704  1.5305 -0.9189  0.2481
  126MPD1     C 1920   0.371   2.319   8.027 -0.8246  0.0742 -0.7029
  126MPD1    C1 1921   0.299   2.222   8.097  0.1850 -0.7036 -0.1128
  126MPD1    C2 1922   0.359   2.180   8.220  0.1455  0.3358  0.3663
  126MPD1    C3 1923   0.478   2.222   8.269  0.2462 -0.2485 -0.2703
  126MPD1    C4 1924   0.549   2.312   8.191 -0.1191 -0.4180  0.6141
  126MPD1    C5 1925   0.490   2.365   8.079 -0.3537  0.4379 -0.3194
  126MPD1     H 1926   0.314   2.102   8.281  0.6989 -0.5610 -0.3570
  126MPD1    H1 1927   0.652   2.332   8.219 -1.0818  3.3521  1.4090
  126MPD1    H2 1928   0.326   2.366   7.941 -0.1532 -0.1459 -1.1740
  126MPD1    H3 1929   0.545   2.443   8.026 -0.0096 -0.1962 -0.8925
  126MPD1     N 1930   0.529   2.160   8.380 -0.4935 -0.1695  0.3156
  126MPD1    H5 1931   0.465   2.096   8.426  0.7999 -1.1656  0.7126
  126MPD1    N1 1932   0.166   2.191   8.069 -0.8355  0.1957  0.8494
  126MPD1    H6 1933   0.142   2.100   8.106  1.7557  0.2887  2.7984
  126MPD1    H7 1934   0.146   2.204   7.970  0.7728  0.9330  0.6080
  127MPD2     C 1935   0.735   0.149   9.469 -0.0871  0.4039 -0.6082
  127MPD2    C1 1936   0.650   0.149   9.583  0.2485  0.3664 -0.2218
  127MPD2    C2 1937   0.702   0.212   9.695  0.4836 -0.1613 -0.0511
  127MPD2    C3 1938   0.815   0.291   9.691 -0.6203  0.9152 -0.1338
  127MPD2    C4 1939   0.889   0.297   9.573 -0.1102  0.5019 -0.5190
  127MPD2    C5 1940   0.847   0.224   9.470  0.1386 -0.4650  0.5410
  127MPD2     H 1941   0.652   0.212   9.791  1.6827 -0.7097  0.5717
  127MPD2    H1 1942   0.974   0.362   9.562  0.1856 -0.1027 -1.7277
  127MPD2    H2 1943   0.701   0.111   9.374 -2.3242  0.7796  0.0356
  127MPD2    H3 1944   0.910   0.240   9.383  1.8962 -0.6646  1.7670
  127MPD2     N 1945   0.844   0.374   9.803  0.1551  0.4517 -0.3388
  127MPD2    H5 1946   0.800   0.358   9.893 -0.0198  0.8944 -0.3428
  127MPD2    N1 1947   0.520   0.090   9.567 -0.1944 -0.6341 -0.2228
  127MPD2    H7 1948   0.488   0.051   9.479 -1.2758 -2.8269  1.1339
  128TCq2    C1 1949   0.444   0.062   9.675 -0.8933  0.2688 -0.0928
  128TCq2    O2 1950   0.479   0.077   9.790 -0.0864 -0.7333 -0.1563
  128TCq2    C2 1951   0.326   4.703   9.640 -0.5622  0.2103  0.1804
  128TCq2    C3 1952   0.282   4.614   9.741 -0.0735 -0.0022 -0.0837
  128TCq2    C4 1953   0.196   4.516   9.707 -0.0253  0.6963  0.6261
  128TCq2    C5 1954   0.153   4.507   9.574 -0.3684 -0.7655  0.2118
  128TCq2    C6 1955   0.195   4.597   9.480  0.0019 -0.0492 -0.5714
  128TCq2    C7 1956   0.277   4.704   9.512  0.1955 -0.0205  0.1649
  128TCq2    C8 1957   0.177   4.576   9.344 -0.6177  0.4881 -0.6859
  128TCq2    O4 1958   0.182   4.668   9.266 -0.0575  0.5709  0.1204
  128TCq2    C9 1959   0.163   4.416   9.807  0.9350  0.0105  0.0949
  128TCq2    O5 1960   0.059   4.348   9.784 -0.6489 -0.4113  0.4049
  128TCq2    O6 1961   0.235   4.408   9.911 -0.0853  0.0294  0.1278
  128TCq2    H2 1962   0.320   4.629   9.842  0.7163  1.4698 -0.6006
  128TCq2    H3 1963   0.084   4.427   9.549 -0.2446 -1.0848  0.8992
  128TCq2    H4 1964   0.311   0.050   9.436  1.0696  1.6678  2.0955
  129MPD2     C 1965   2.491   0.792   0.800  0.4010 -0.2471 -0.3083
  129MPD2    C1 1966   2.628   0.785   0.806 -0.3772  0.6723 -0.0043
  129MPD2    C2 1967   2.699   0.866   0.715  0.3069  0.1423 -0.5611
  129MPD2    C3 1968   2.638   0.958   0.627 -0.1055  0.0113 -0.3583
  129MPD2    C4 1969   2.502   0.947   0.620  0.0026 -0.2020 -0.8920
  129MPD2    C5 1970   2.432   0.858   0.701  0.6635 -0.0691 -0.1892
  129MPD2     H 1971   2.807   0.858   0.718  0.3857  0.7127 -1.8282
  129MPD2    H1 1972   2.439   1.000   0.550 -0.1827  0.1550 -0.4595
  129MPD2    H2 1973   2.425   0.741   0.870 -0.4816  1.6005  0.2318
  129MPD2    H3 1974   2.325   0.865   0.687  1.0460 -0.0185 -3.0596
  129MPD2     N 1975   2.721   1.033   0.544  0.2698 -1.3294 -0.6385
  129MPD2    H5 1976   2.822   1.028   0.542  0.2677 -2.0983  1.8316
  129MPD2    N1 1977   2.700   0.701   0.895 -0.4829  0.3866  0.5078
  129MPD2    H7 1978   2.801   0.713   0.898 -0.6089  1.3880  0.7136
  130TCq2    C1 1979   2.646   0.617   0.989 -0.0460  0.3529  0.7935
  130TCq2    O2 1980   2.531   0.619   1.037  0.3054  0.9329  0.0922
  130TCq2    C2 1981   2.743   0.539   1.055 -0.7639 -0.7962  0.4296
  130TCq2    C3 1982   2.869   0.511   1.004 -0.6547  0.1863  0.6584
  130TCq2    C4 1983   2.959   0.441   1.079  0.1369 -0.5425 -0.0132
  130TCq2    C5 1984   2.924   0.396   1.205 -0.2652 -0.2911 -0.3336
  130TCq2    C6 1985   2.800   0.432   1.257 -0.1146 -0.7888  1.2935
  130TCq2    C7 1986   2.716   0.509   1.182  1.0810 -0.4340  0.1458
  130TCq2    C8 1987   2.752   0.392   1.385  0.2578 -0.4338  0.0051
  130TCq2    O4 1988   2.631   0.390   1.404 -0.0342  0.0205 -0.0754
  130TCq2    C9 1989   3.095   0.430   1.040  0.0811  0.5013 -0.1815
  130TCq2    O5 1990   3.170   0.436   1.139 -0.7448  0.6054 -0.0408
  130TCq2    O6 1991   3.117   0.426   0.917  0.2458  0.1284  0.8303
  130TCq2    H2 1992   2.912   0.563   0.919 -1.6928 -1.1295 -0.6766
  130TCq2    H3 1993   2.999   0.336   1.256 -2.1055 -0.8255  1.7307
  130TCq2    H4 1994   2.614   0.523   1.215  0.5405  2.2496 -2.7039
  131MPD2     C 1995   2.692   0.745   9.379  0.3725 -0.4387  0.1317
  131MPD2    C1 1996   2.805   0.665   9.374  0.0342 -0.0288 -0.0376
  131MPD2    C2 1997   2.779   0.539   9.332 -0.6301  0.1981  0.9624
  131MPD2    C3 1998   2.658   0.483   9.300  0.3765  0.8001  0.1404
  131MPD2    C4 1999   2.555   0.569   9.295 -0.5736  1.0615 -0.1077
  131MPD2    C5 2000   2.574   0.697   9.339  0.6724  0.1516  0.3646
  131MPD2     H 2001   2.859   0.465   9.332 -0.4877  0.3369 -1.3909
  131MPD2    H1 2002   2.454   0.531   9.290 -0.3061  0.1141  1.8052
  131MPD2    H2 2003   2.705   0.849   9.406 -1.7855 -0.6284  1.9651
  131MPD2    H3 2004   2.485   0.758   9.351  1.6018  1.6486 -0.2702
  131MPD2     N 2005   2.663   0.346   9.262  0.0296  0.0299  0.6953
  131MPD2    H5 2006   2.740   0.285   9.285  0.6170 -0.1054 -1.6561
  131MPD2    N1 2007   2.926   0.711   9.421 -0.6178 -0.0553 -0.6055
  131MPD2    H7 2008   2.937   0.808   9.449 -1.3490  0.2665 -1.4395
  132TCq2    C1 2009   3.386   0.625   9.779 -0.1643 -0.8723 -0.2655
  132TCq2    O2 2010   3.366   0.505   9.799 -0.2694  0.2320  0.9861
  132TCq2    C2 2011   3.290   0.698   9.692 -0.3143  0.5091  0.8318
  132TCq2    C3 2012   3.302   0.837   9.680 -1.3475  0.1548 -0.6078
  132TCq2    C4 2013   3.233   0.903   9.590  0.9823  0.1629  0.0175
  132TCq2    C5 2014   3.140   0.836   9.520  1.0110 -0.3450 -0.3064
  132TCq2    C6 2015   3.141   0.700   9.517  0.0591  0.5336  0.2056
  132TCq2    C7 2016   3.206   0.622   9.606  0.4750 -0.1312  0.1270
  132TCq2    C8 2017   3.035   0.632   9.445  0.2693 -0.0292 -0.5153
  132TCq2    O4 2018   3.058   0.511   9.418  0.5025 -0.5759 -0.0756
  132TCq2    C9 2019   3.255   1.046   9.571 -0.4817 -0.2080 -0.0128
  132TCq2    O5 2020   3.201   1.105   9.473 -0.1273  0.4237  0.5384
  132TCq2    O6 2021   3.356   1.094   9.632  0.0861 -0.3002 -0.0350
  132TCq2    H2 2022   3.361   0.901   9.746 -0.9748  0.2923 -1.0723
  132TCq2    H3 2023   3.094   0.895   9.442 -0.7551 -0.0637  0.9523
  132TCq2    H4 2024   3.200   0.514   9.597  0.4938  0.0595 -2.0217
  133MPD2     C 2025   2.268   1.530   9.894  0.1751 -0.6408  0.4762
  133MPD2    C1 2026   2.360   1.457   9.829 -0.1418 -0.0998 -0.0518
  133MPD2    C2 2027   2.410   1.505   9.711  0.4797 -0.1125  0.6316
  133MPD2    C3 2028   2.364   1.624   9.658  0.2091  0.1762 -0.3529
  133MPD2    C4 2029   2.272   1.707   9.728 -0.5948  0.4851  0.6485
  133MPD2    C5 2030   2.223   1.651   9.842 -0.1685  0.2486 -0.1674
  133MPD2     H 2031   2.478   1.441   9.655  0.3385 -0.3865  0.7764
  133MPD2    H1 2032   2.243   1.804   9.691 -0.6549  0.7099  1.2896
  133MPD2    H2 2033   2.216   1.495   9.982 -2.0618  0.7704 -0.2723
  133MPD2    H3 2034   2.146   1.701   9.900  0.2992 -0.1062  0.7607
  133MPD2     N 2035   2.422   1.683   9.537  0.2805 -0.2015 -0.1148
  133MPD2    H5 2036   2.396   1.778   9.513  0.0365 -0.7273 -1.8982
  133MPD2    N1 2037   2.404   1.340   9.895  0.2215 -0.6163 -0.5389
  133MPD2    H7 2038   2.367   1.332   9.989 -2.7368  0.6546 -1.5927
  134TCq2    C1 2039   2.520   1.274   9.858 -0.0312 -0.2892 -0.2780
  134TCq2    O2 2040   2.596   1.284   9.763 -0.1827 -0.4681  0.3154
  134TCq2    C2 2041   2.558   1.160   9.947  0.0647  0.1410  0.5889
  134TCq2    C3 2042   2.685   1.123   9.933  0.2587  0.0878 -0.0455
  134TCq2    C4 2043   2.719   1.018  10.010  0.3398  0.1794  1.3403
  134TCq2    C5 2044   2.629   0.945  10.084 -0.6775  0.0834  0.3355
  134TCq2    C6 2045   2.506   0.996  10.099 -1.0956 -0.4677  0.9657
  134TCq2    C7 2046   2.463   1.108  10.024 -0.1674 -0.2910  0.5097
  134TCq2    C8 2047   2.414   0.971  10.207  0.5378  0.3122  0.2889
  134TCq2    O4 2048   2.320   1.045  10.223 -0.1501 -0.2302  0.0138
  134TCq2    C9 2049   2.852   0.970   9.996 -0.4112  0.3130 -0.1454
  134TCq2    O5 2050   2.943   1.051   9.969 -0.2144 -0.3989  0.3728
  134TCq2    O6 2051   2.881   0.852  10.036 -0.1814 -0.8065  0.1384
  134TCq2    H2 2052   2.763   1.174   9.879 -0.1468  0.8332  0.0726
  134TCq2    H3 2053   2.676   0.860  10.132 -0.7239 -0.5553 -0.7698
  134TCq2    H4 2054   2.360   1.143  10.024 -0.1079 -0.0756 -4.0081
  135MPD2     C 2055   1.107   2.241   8.435  0.2546 -0.4373 -0.4503
  135MPD2    C1 2056   1.099   2.238   8.576 -0.0819 -0.0821 -0.3435
  135MPD2    C2 2057   1.160   2.139   8.657  0.5893 -0.7018  0.5419
  135MPD2    C3 2058   1.235   2.045   8.594 -0.1539  0.4473 -0.5302
  135MPD2    C4 2059   1.239   2.048   8.454  0.7821 -0.2501 -0.5633
  135MPD2    C5 2060   1.180   2.144   8.377  0.1692 -1.0570  0.0865
  135MPD2     H 2061   1.156   2.146   8.765  0.2664 -0.1334  0.4926
  135MPD2    H1 2062   1.293   1.966   8.409 -1.1110 -1.6357 -0.3097
  135MPD2    H2 2063   1.044   2.307   8.377  0.9439 -0.2451 -0.9810
  135MPD2    H3 2064   1.187   2.134   8.270  1.6478 -0.3857  0.1285
  135MPD2     N 2065   1.311   1.945   8.666  0.5702  0.1942 -0.4712
  135MPD2    H5 2066   1.347   1.873   8.603  2.9815 -1.1083  2.3587
  135MPD2    N1 2067   1.020   2.337   8.650  0.3788  0.3756  0.1013
  135MPD2    H7 2068   1.015   2.329   8.751  0.5056  0.9549  0.1522
  136TCq2    C1 2069   0.948   2.438   8.590 -0.1270  0.1976 -0.2175
  136TCq2    O2 2070   0.940   2.469   8.475  0.2202  0.1024 -0.1061
  136TCq2    C2 2071   0.846   2.507   8.669 -0.6782  0.4183  1.0285
  136TCq2    C3 2072   0.811   2.636   8.633  0.0157  0.1864 -0.4505
  136TCq2    C4 2073   0.699   2.689   8.690  0.2037 -0.5340 -0.5362
  136TCq2    C5 2074   0.618   2.611   8.763  0.1322  0.9100 -0.2063
  136TCq2    C6 2075   0.652   2.478   8.786  0.5028  0.6562  0.4509
  136TCq2    C7 2076   0.774   2.424   8.753  0.2898 -0.1752  0.6621
  136TCq2    C8 2077   0.559   2.380   8.845 -0.0124 -0.6858  0.0380
  136TCq2    O4 2078   0.601   2.273   8.886 -0.0528 -0.2622 -0.4434
  136TCq2    C9 2079   0.678   2.834   8.675 -0.6894 -0.0216  0.1855
  136TCq2    O5 2080   0.772   2.899   8.620  0.5484  0.8729  0.2557
  136TCq2    O6 2081   0.556   2.879   8.693  0.0204 -0.2037  0.2766
  136TCq2    H2 2082   0.857   2.696   8.556 -0.8337 -0.6668 -1.6233
  136TCq2    H3 2083   0.536   2.658   8.817 -0.2038  0.7082 -0.5396
  136TCq2    H4 2084   0.805   2.321   8.763  3.2326  0.4316 -1.9675
  137MPD2     C 2085   0.427   0.663   8.665 -0.9649  0.5407 -0.6124
  137MPD2    C1 2086   0.374   0.694   8.793  0.7034 -0.1589 -0.1561
  137MPD2    C2 2087   0.465   0.737   8.890  0.6201  0.4993  0.2314
  137MPD2    C3 2088   0.593   0.773   8.855  0.0057 -0.0633  0.4867
  137MPD2    C4 2089   0.638   0.751   8.727 -0.1019  0.2034 -0.1920
  137MPD2    C5 2090   0.551   0.704   8.637 -0.2152 -0.0567  0.1552
  137MPD2     H 2091   0.448   0.743   8.997  3.2057 -1.7593  0.7639
  137MPD2    H1 2092   0.743   0.750   8.698 -0.6685  1.1053 -2.2807
  137MPD2    H2 2093   0.362   0.622   8.589 -0.4593 -0.1295 -0.6864
  137MPD2    H3 2094   0.592   0.682   8.539  0.4327  3.8831 -0.4430
  137MPD2     N 2095   0.681   0.807   8.954 -0.1624 -0.0056 -0.3584
  137MPD2    H5 2096   0.644   0.789   9.047  1.9812 -2.4867 -0.0053
  137MPD2    N1 2097   0.244   0.661   8.819 -0.7488  0.1100  0.3467
  137MPD2    H7 2098   0.201   0.615   8.739 -0.7551 -0.8047  0.8799
  138TCq2    C1 2099   0.172   0.701   8.926  0.1730 -0.0261  0.3487
  138TCq2    O2 2100   0.214   0.764   9.024  0.5051  0.3328 -0.1591
  138TCq2    C2 2101   0.042   0.642   8.946 -0.3084 -1.3070  0.3234
  138TCq2    C3 2102   4.712   0.552   8.856  0.2939  0.2581  0.0669
  138TCq2    C4 2103   4.642   0.439   8.898  0.2860  0.7532  0.9088
  138TCq2    C5 2104   4.629   0.425   9.032  0.4089  0.4062 -0.4630
  138TCq2    C6 2105   4.662   0.527   9.122  0.0526 -0.1743 -0.0954
  138TCq2    C7 2106   0.009   0.640   9.080  0.1925 -0.1679 -0.3161
  138TCq2    C8 2107   4.642   0.499   9.263 -0.2640  0.1953 -0.6577
  138TCq2    O4 2108   4.634   0.378   9.300  0.0484  0.4322  0.3708
  138TCq2    C9 2109   4.605   0.331   8.810  0.7408  0.3616  0.3381
  138TCq2    O5 2110   4.648   0.337   8.694  0.2002 -0.1365  0.1451
  138TCq2    O6 2111   4.560   0.229   8.869  0.3172 -0.2419 -0.2282
  138TCq2    H2 2112   0.008   0.571   8.751  0.7746 -0.2384  0.0631
  138TCq2    H3 2113   4.594   0.330   9.071  1.3119 -0.0627 -0.7730
  138TCq2    H4 2114   0.034   0.721   9.148  1.5947 -0.0212 -1.0132
  139TMC2    C1 2115   4.443   4.274  13.191  0.0256 -0.2063  0.4897
  139TMC2    C2 2116   4.397   4.286  13.059  0.0684 -0.0660 -0.1998
  139TMC2    C3 2117   4.270   4.337  13.046  0.4855 -0.4539 -0.4735
  139TMC2    C4 2118   4.371   4.305  13.300 -0.6536  0.3021  0.2853
  139TMC2    C5 2119   4.239   4.346  13.278  0.3924  0.2553  0.1648
  139TMC2    C6 2120   4.189   4.377  13.153  0.3808  0.6588  0.0105
  139TMC2     C 2121   4.566   4.199  13.206 -0.3378  0.2855 -0.8888
  139TMC2     O 2122   4.659   4.213  13.125  0.0322 -0.1218  0.6365
  139TMC2     H 2123   4.453   4.244  12.977  1.0524  1.5883 -0.3603
  139TMC2    H1 2124   4.417   4.321  13.396  0.0902 -0.0787 -0.0088
  139TMC2    H2 2125   4.099   4.432  13.133  1.0449  1.1922 -1.5012
  139TMC2    C7 2126   4.149   4.369  13.389  0.9423 -0.1717 -0.2079
  139TMC2    C8 2127   4.214   4.380  12.919  0.8431 -0.0183  0.1047
  139TMC2    O1 2128   4.043   4.422  13.359  0.2026  0.1814 -0.1028
  139TMC2    O2 2129   4.095   4.384  12.901  0.3317 -0.3039  0.1534
  139TMC2    O5 2130   4.308   4.371  12.823  0.4444  0.6306 -0.4526
  139TMC2    H5 2131   4.401   4.369  12.851  0.1870  1.3765  0.4241
  140MPD2     C 2132   4.670   3.971  13.474 -0.0995 -0.0378  0.8508
  140MPD2    C1 2133   4.668   4.023  13.347 -0.3066  0.1556  1.0766
  140MPD2    C2 2134   0.050   3.978  13.264  0.4901  0.7152 -0.3616
  140MPD2    C3 2135   0.146   3.887  13.314  0.8716 -0.4019 -0.2927
  140MPD2    C4 2136   0.139   3.843  13.450 -0.1066 -0.3444 -0.0296
  140MPD2    C5 2137   0.034   3.889  13.530 -1.2435 -0.2977  0.2309
  140MPD2     H 2138   0.055   4.000  13.158  0.7326  0.8409 -0.3247
  140MPD2    H1 2139   0.208   3.767  13.485  0.5027  1.1168  1.9198
  140MPD2    H2 2140   4.580   3.986  13.533  0.4001  0.1957  1.5538
  140MPD2    H3 2141   0.034   3.858  13.633  1.5481 -1.8293 -0.2118
  140MPD2     N 2142   0.231   3.831  13.218 -0.3017  0.1259 -0.3592
  140MPD2    H5 2143   0.211   3.851  13.121  1.7318  1.1776 -0.5467
  140MPD2    N1 2144   4.558   4.103  13.303  0.6596 -0.1367  0.0905
  140MPD2    H7 2145   4.470   4.096  13.354  1.5839 -2.2451  1.3814
  141TCq2    C1 2146   0.622   0.608  14.335  0.5326 -0.1100  0.7002
  141TCq2    O2 2147   0.661   0.723  14.325  0.0094  0.2845 -0.6846
  141TCq2    C2 2148   0.577   0.568  14.464 -0.0649 -0.4642  0.1837
  141TCq2    C3 2149   0.521   0.446  14.470 -0.1125  0.5641 -0.7338
  141TCq2    C4 2150   0.487   0.392  14.591  0.8837  0.4654  0.3108
  141TCq2    C5 2151   0.515   0.459  14.707  0.6935 -0.7821 -0.0502
  141TCq2    C6 2152   0.572   0.588  14.692  0.4522 -0.4710  0.5339
  141TCq2    C7 2153   0.607   0.640  14.575  0.4751  0.2842 -0.9937
  141TCq2    C8 2154   0.563   0.668  14.817 -0.5051 -0.5280  0.4739
  141TCq2    O4 2155   0.509   0.610  14.910 -0.4347 -0.3357  0.1420
  141TCq2    C9 2156   0.402   0.276  14.584 -0.5665 -0.3339  0.6599
  141TCq2    O5 2157   0.369   0.223  14.476  0.0521 -0.2413 -0.0450
  141TCq2    O6 2158   0.375   0.222  14.693 -0.1656 -0.5158  0.5621
  141TCq2    H2 2159   0.495   0.383  14.386  1.4120 -1.1474  0.0789
  141TCq2    H3 2160   0.476   0.424  14.802 -1.2605  1.8159  0.1108
  141TCq2    H4 2161   0.643   0.742  14.568 -1.1951  0.9152 -0.2361
  142MPD2     C 2162   2.194   2.599   9.473  0.8008 -0.4556  0.0224
  142MPD2    C1 2163   2.201   2.681   9.580 -0.4287 -0.1434  0.5188
  142MPD2    C2 2164   2.257   2.807   9.566 -0.5082  0.5793  0.5838
  142MPD2    C3 2165   2.315   2.851   9.449 -0.0918  0.3850 -0.0137
  142MPD2    C4 2166   2.313   2.766   9.347 -0.2286  0.1118 -0.8337
  142MPD2    C5 2167   2.252   2.646   9.359 -0.3259 -0.0149  0.3905
  142MPD2     H 2168   2.264   2.866   9.656  2.0794 -0.8454  1.3384
  142MPD2    H1 2169   2.363   2.783   9.252 -0.8095 -0.1529 -1.1860
  142MPD2    H2 2170   2.162   2.496   9.483  0.6535 -0.5583 -1.3898
  142MPD2    H3 2171   2.256   2.582   9.272 -1.8731 -1.7564  1.6070
  142MPD2     N 2172   2.373   2.977   9.433  0.9113  0.0326  0.1178
  142MPD2    H5 2173   2.417   2.998   9.344 -1.6981  2.1717 -0.6899
  142MPD2    N1 2174   2.140   2.627   9.702  0.5198  0.0036 -0.0654
  142MPD2    H7 2175   2.104   2.532   9.704 -1.3715  0.7296  0.6375
  143TCq2    C1 2176   2.371   3.082   9.528 -0.7570 -0.4118 -0.1329
  143TCq2    O2 2177   2.343   3.083   9.647 -0.4860 -0.3501 -0.6966
  143TCq2    C2 2178   2.408   3.207   9.469  0.5341  0.3670  0.4127
  143TCq2    C3 2179   2.393   3.213   9.336  0.5560 -0.3782 -0.0202
  143TCq2    C4 2180   2.452   3.319   9.266  0.4304  0.5208 -0.0215
  143TCq2    C5 2181   2.536   3.399   9.328 -0.2148 -0.3224 -0.4767
  143TCq2    C6 2182   2.547   3.384   9.468  0.1463 -0.1392 -0.2262
  143TCq2    C7 2183   2.473   3.297   9.539  0.9166 -0.7791  0.2332
  143TCq2    C8 2184   2.642   3.473   9.541  1.0703  0.2249 -0.2359
  143TCq2    O4 2185   2.703   3.558   9.475  0.4828 -0.2529 -0.5187
  143TCq2    C9 2186   2.424   3.326   9.125  0.4736  0.2794 -0.2021
  143TCq2    O5 2187   2.473   3.419   9.056  0.3936 -0.0957  0.1158
  143TCq2    O6 2188   2.364   3.225   9.073  0.7421  0.2968 -0.2642
  143TCq2    H2 2189   2.321   3.149   9.287  1.2081 -1.2984  0.2338
  143TCq2    H3 2190   2.585   3.482   9.278  2.0159 -0.3049  1.7349
  143TCq2    H4 2191   2.459   3.296   9.646 -0.2686 -0.5340  0.0870
  144MPD2     C 2192   0.224   2.672  17.645  0.9644  0.5667 -0.2168
  144MPD2    C1 2193   0.331   2.606  17.578  0.0947 -0.6554  0.1778
  144MPD2    C2 2194   0.393   2.503  17.642  0.0215 -0.3592  0.8730
  144MPD2    C3 2195   0.339   2.450   0.068 -0.0422  0.4998  0.0207
  144MPD2    C4 2196   0.230   2.504   0.132 -0.3798 -0.3415  0.4771
  144MPD2    C5 2197   0.173   2.613   0.071 -0.7367 -0.6100 -0.6667
  144MPD2     H 2198   0.485   2.469  17.596 -1.0720 -0.3288 -1.3215
  144MPD2    H1 2199   0.187   2.476   0.228 -0.4003  1.6089  1.0324
  144MPD2    H2 2200   0.177   2.757  17.597 -2.9364 -0.2699  2.2173
  144MPD2    H3 2201   0.085   2.657   0.116  0.6188  1.8220 -0.4027
  144MPD2     N 2202   0.393   2.344   0.132 -0.5495 -0.5616 -0.2787
  144MPD2    H5 2203   0.349   2.311   0.217  1.9181  1.8650  1.9610
  144MPD2    N1 2204   0.376   2.640  17.446  0.1153  0.0741 -0.0496
  144MPD2    H7 2205   0.445   2.576  17.408  0.7833 -1.0006  2.9798
  145TCq2    C1 2206   0.505   2.267   0.095  0.3410  0.9097 -0.0266
  145TCq2    O2 2207   0.566   2.259  17.679 -0.6321 -0.2664  0.4242
  145TCq2    C2 2208   0.541   2.171   0.193 -0.0549 -0.1835 -0.0688
  145TCq2    C3 2209   0.551   2.045   0.155 -0.1865 -0.0175  0.5151
  145TCq2    C4 2210   0.596   1.950   0.240 -1.3875  0.1006  0.0135
  145TCq2    C5 2211   0.602   1.974   0.373  0.1598  0.3057  0.0985
  145TCq2    C6 2212   0.572   2.103   0.415  0.3704  0.7487 -0.0621
  145TCq2    C7 2213   0.550   2.205   0.327  0.4323  0.6948 -0.4657
  145TCq2    C8 2214   0.624   2.136   0.548 -0.0393 -1.1081  0.0403
  145TCq2    O4 2215   0.663   2.041   0.613 -0.3425 -0.1489 -0.1611
  145TCq2    C9 2216   0.617   1.817   0.201  0.1472  0.2378 -0.3956
  145TCq2    O5 2217   0.598   1.791   0.077  0.3353  0.1022  0.5127
  145TCq2    O6 2218   0.664   1.733   0.283  0.0102 -0.3286  0.6637
  145TCq2    H2 2219   0.548   2.021   0.049 -2.5571  0.4017  0.4971
  145TCq2    H3 2220   0.621   1.890   0.439 -0.1620  1.0772  1.1682
  145TCq2    H4 2221   0.547   2.310   0.355  0.9394  0.9398 -1.3170
  146TMC2    C1 2222   1.548   1.954  12.268  0.4170 -0.4709  0.5523
  146TMC2    C2 2223   1.426   1.947  12.209  0.0185  0.3302 -0.3353
  146TMC2    C3 2224   1.414   1.912  12.075  0.8363  0.0765  0.6119
  146TMC2    C4 2225   1.664   1.925  12.205 -0.1859  0.2386  0.2143
  146TMC2    C5 2226   1.650   1.893  12.073 -0.2062 -0.0412 -0.1181
  146TMC2    C6 2227   1.531   1.887  12.010  0.1800 -0.5940 -0.0998
  146TMC2     C 2228   1.553   2.029  12.392 -0.4750 -0.7633  0.5617
  146TMC2     O 2229   1.462   2.108  12.408 -0.3602  0.0688  0.5149
  146TMC2     H 2230   1.332   1.970  12.258  1.1201  0.5956  1.6970
  146TMC2    H1 2231   1.759   1.943  12.255  0.4550 -1.8331 -0.2633
  146TMC2    H2 2232   1.532   1.881  11.901 -1.0931  3.1614 -0.2981
  146TMC2    C7 2233   1.771   1.835  12.006  0.7445 -0.1095  0.4400
  146TMC2    C8 2234   1.288   1.923  12.015 -0.0470 -0.4600  0.1869
  146TMC2    O1 2235   1.759   1.807  11.892  0.0301  0.1803 -0.1674
  146TMC2    O2 2236   1.200   2.001  12.052  0.1801 -0.1297  0.3634
  146TMC2    O5 2237   1.259   1.809  11.951  0.1049  0.6810  0.2021
  146TMC2    H5 2238   1.341   1.769  11.917  0.4515  1.9578 -0.4928
  147MPD2     C 2239   2.239   1.625  11.965 -0.4883  0.2892  0.2588
  147MPD2    C1 2240   2.201   1.635  12.095 -0.3982  0.1910 -0.2381
  147MPD2    C2 2241   2.088   1.697  12.135 -0.0104 -0.1174 -0.5091
  147MPD2    C3 2242   1.997   1.741  12.041  0.5821 -0.3682  0.1587
  147MPD2    C4 2243   2.036   1.735  11.907 -0.3642  0.0978  0.4796
  147MPD2    C5 2244   2.158   1.678  11.866  0.7586  0.3689 -0.1993
  147MPD2     H 2245   2.060   1.707  12.239  1.0006 -0.6717 -0.1823
  147MPD2    H1 2246   1.975   1.782  11.831  3.7925  1.4743 -2.0325
  147MPD2    H2 2247   2.335   1.582  11.940  0.3888  1.6920  1.2222
  147MPD2    H3 2248   2.180   1.696  11.761  0.0726 -0.1849 -0.4391
  147MPD2     N 2249   1.878   1.804  12.082 -0.8926  0.6593 -0.4573
  147MPD2    H5 2250   1.868   1.815  12.183 -0.3308 -0.2357 -0.3023
  147MPD2    N1 2251   2.300   1.594  12.193  0.0192  0.3093  1.0624
  147MPD2    H7 2252   2.387   1.555  12.157 -0.0127  1.2375 -0.0187
  148MPD2     C 2253   2.754   0.395   9.694 -0.2360 -0.3235  0.4306
  148MPD2    C1 2254   2.722   0.273   9.741  0.2613  1.0689  0.1797
  148MPD2    C2 2255   2.591   0.256   9.785  0.0063  0.7180 -0.4693
  148MPD2    C3 2256   2.501   0.363   9.785  1.2893  0.0977  0.5395
  148MPD2    C4 2257   2.539   0.478   9.737 -0.0747 -0.2618  0.5327
  148MPD2    C5 2258   2.660   0.492   9.679  0.5118 -0.2800 -0.1032
  148MPD2     H 2259   2.555   0.160   9.822 -1.0538  1.5337  0.6252
  148MPD2    H1 2260   2.462   0.553   9.722 -0.3866 -0.7674 -0.3487
  148MPD2    H2 2261   2.852   0.421   9.656 -0.6012  0.4023 -0.0203
  148MPD2    H3 2262   2.696   0.587   9.641 -2.1964  0.8000  0.0839
  148MPD2     N 2263   2.368   0.360   9.826  0.3615 -0.0617 -0.1463
  148MPD2    H5 2264   2.320   0.449   9.824 -2.2513 -1.4313  1.3946
  148MPD2    N1 2265   2.810   0.164   9.746 -0.4133  0.5122  0.0681
  148MPD2    H7 2266   2.776   0.073   9.773 -0.3862  0.9496  1.5792
  149TCq2    C1 2267   2.945   0.170   9.730  0.2054 -1.2662  0.3158
  149TCq2    O2 2268   3.013   0.262   9.693 -0.6328 -0.7063 -0.2730
  149TCq2    C2 2269   3.013   0.049   9.776  0.0055 -0.1263  0.5417
  149TCq2    C3 2270   3.151   0.063   9.777 -0.2029  0.0441 -0.1125
  149TCq2    C4 2271   3.227   4.680   9.835 -1.3780 -0.1952 -1.0690
  149TCq2    C5 2272   3.176   4.556   9.860 -0.5884 -0.2735  0.3474
  149TCq2    C6 2273   3.036   4.547   9.852 -0.8834 -0.3805 -0.1719
  149TCq2    C7 2274   2.952   4.649   9.806  0.0556 -0.7643 -0.0466
  149TCq2    C8 2275   2.976   4.441   9.928  0.1137 -0.4810  0.0497
  149TCq2    O4 2276   2.854   4.437   9.922 -0.1088  0.4135  0.6236
  149TCq2    C9 2277   3.364   4.692   9.818 -0.6587 -0.1647  0.2186
  149TCq2    O5 2278   3.438   4.587   9.824  0.1976 -0.3777 -0.3801
  149TCq2    O6 2279   3.416   0.085   9.798  0.7007 -0.1605  0.1588
  149TCq2    H2 2280   3.208   0.155   9.766 -2.8920  1.9126  1.8168
  149TCq2    H3 2281   3.244   4.475   9.887 -0.1319  0.4785  1.4442
  149TCq2    H4 2282   2.845   4.633   9.794  0.3344  0.0817 -3.4731
  150MPD2     C 2283   3.499   4.621  12.001 -0.4729  0.7399 -0.1225
  150MPD2    C1 2284   3.578   4.613  11.889  0.3344  0.1664 -0.4159
  150MPD2    C2 2285   3.700   4.684  11.884 -0.5129  0.0408 -0.7827
  150MPD2    C3 2286   3.738   0.037  11.988  0.3824 -0.2101 -0.3232
  150MPD2    C4 2287   3.653   0.052  12.095 -0.3263  0.2501  0.0383
  150MPD2    C5 2288   3.534   4.701  12.104 -0.6928  0.2127 -0.5560
  150MPD2     H 2289   3.763   4.692  11.797  0.3592 -0.1388 -0.1619
  150MPD2    H1 2290   3.677   0.101  12.188 -0.3468  0.3393 -0.0035
  150MPD2    H2 2291   3.407   4.564  12.010 -0.0498 -0.0359 -0.6548
  150MPD2    H3 2292   3.469   4.710  12.191 -0.9729 -1.3604 -0.5991
  150MPD2     N 2293   3.868   0.102  11.978 -0.0607 -0.7310 -0.1849
  150MPD2    H5 2294   3.907   0.087  11.886  1.9313  0.0262  0.5373
  150MPD2    N1 2295   3.527   4.545  11.771 -0.1551 -0.0519  0.8344
  150MPD2    H7 2296   3.448   4.483  11.787 -0.1003 -0.6599 -1.1858
  151TCq2    C1 2297   3.935   0.180  12.065 -0.8606  1.0019  0.0241
  151TCq2    O2 2298   3.911   0.213  12.182 -0.6608 -0.5310  0.1694
  151TCq2    C2 2299   4.059   0.219  12.009 -0.1470  0.5686 -0.0150
  151TCq2    C3 2300   4.068   0.228  11.874  0.7668  0.3117 -0.1307
  151TCq2    C4 2301   4.182   0.267  11.816 -0.4938  1.3172 -0.1759
  151TCq2    C5 2302   4.291   0.299  11.897 -0.2806 -0.2047  0.9378
  151TCq2    C6 2303   4.272   0.303  12.035 -0.4917  0.0411  0.2612
  151TCq2    C7 2304   4.162   0.253  12.094 -0.1927  0.7146  0.5452
  151TCq2    C8 2305   4.393   0.318  12.117 -0.0811  0.1245  0.8490
  151TCq2    O4 2306   4.378   0.400  12.208 -0.1429  0.3915 -0.0188
  151TCq2    C9 2307   4.188   0.281  11.668 -0.4844  0.2664  0.2283
  151TCq2    O5 2308   4.091   0.248  11.598 -0.4801  0.2344  0.1820
  151TCq2    O6 2309   4.297   0.319  11.621  0.0095 -0.5142 -0.7915
  151TCq2    H2 2310   3.986   0.216  11.805  0.8137  0.3244 -0.1879
  151TCq2    H3 2311   4.384   0.339  11.857  1.2038 -0.6388  3.9229
  151TCq2    H4 2312   4.153   0.244  12.201 -0.4474 -1.2567  0.3528
  152MPD2     C 2313   3.537   3.877  12.438 -0.5731  0.7143 -0.5014
  152MPD2    C1 2314   3.553   4.014  12.431  0.4650  0.1199 -0.4859
  152MPD2    C2 2315   3.442   4.090  12.395  0.1307 -0.0340 -0.6795
  152MPD2    C3 2316   3.320   4.032  12.370  0.0555  0.1546  0.0365
  152MPD2    C4 2317   3.309   3.897  12.378  0.5493 -0.1379 -0.2199
  152MPD2    C5 2318   3.418   3.816  12.414 -0.5695 -0.0623 -0.5064
  152MPD2     H 2319   3.444   4.198  12.400  2.6611 -0.1537  0.6887
  152MPD2    H1 2320   3.225   3.855  12.324  0.5582  0.1324 -0.4404
  152MPD2    H2 2321   3.616   3.814  12.477 -2.7156 -0.5341  1.8226
  152MPD2    H3 2322   3.404   3.709  12.407 -1.4726 -0.0757  1.4819
  152MPD2     N 2323   3.218   4.112  12.315 -0.1157 -0.0101  0.0024
  152MPD2    H5 2324   3.235   4.208  12.288  2.9844 -0.3960  0.6037
  152MPD2    N1 2325   3.682   4.066  12.461 -0.3017  0.5191 -0.4005
  152MPD2    H7 2326   3.762   4.008  12.483 -1.1370 -0.4129  0.2201
  153TCq2    C1 2327   3.709   4.194  12.478  0.2959  0.5456  0.3463
  153TCq2    O2 2328   3.642   4.292  12.467 -0.3188 -0.3013  0.0165
  153TCq2    C2 2329   3.854   4.211  12.520  0.4434 -0.1212 -0.2363
  153TCq2    C3 2330   3.928   4.103  12.564 -0.2876  0.2992  0.0746
  153TCq2    C4 2331   4.052   4.123  12.603 -0.4572  1.1477 -0.0640
  153TCq2    C5 2332   4.112   4.248  12.597 -0.0171  0.4872 -0.4825
  153TCq2    C6 2333   4.038   4.356  12.556 -0.8652  0.1371 -0.5761
  153TCq2    C7 2334   3.913   4.335  12.510  0.5659 -0.1252  0.2999
  153TCq2    C8 2335   4.100   4.475  12.507 -0.0647 -0.2880  0.6416
  153TCq2    O4 2336   4.020   4.554  12.454 -0.2784 -0.6526  0.2756
  153TCq2    C9 2337   4.128   4.011  12.653  0.1141  0.3454  0.3324
  153TCq2    O5 2338   4.067   3.921  12.710  0.2029 -0.0643 -0.0232
  153TCq2    O6 2339   4.255   4.019  12.635 -0.7310  0.2292 -0.7430
  153TCq2    H2 2340   3.888   4.003  12.576  1.1555 -0.5014 -1.8623
  153TCq2    H3 2341   4.217   4.265  12.620 -0.2552  1.2452  0.0746
  153TCq2    H4 2342   3.848   4.417  12.482  0.3929 -0.2579  0.3103
  154MPD2     C 2343   0.739   4.045  17.606  0.3011 -0.0160  0.1705
  154MPD2    C1 2344   0.727   4.176  17.644 -0.3915 -0.1537 -0.5327
  154MPD2    C2 2345   0.683   4.212   0.077 -0.1259 -0.5508 -0.1216
  154MPD2    C3 2346   0.665   4.116   0.174 -0.7780  0.0399  0.3003
  154MPD2    C4 2347   0.695   3.987   0.137 -0.6876  0.5287 -0.2503
  154MPD2    C5 2348   0.722   3.950   0.009 -0.9121  0.1246 -0.2846
  154MPD2     H 2349   0.672   4.315   0.107  1.0053 -0.2718 -0.6537
  154MPD2    H1 2350   0.711   3.912   0.213 -0.2632  1.3779  0.5036
  154MPD2    H2 2351   0.776   4.015  17.509 -3.1463 -0.4545 -1.0270
  154MPD2    H3 2352   0.759   3.849  17.686 -3.0700 -0.3611 -2.1683
  154MPD2     N 2353   0.630   4.156   0.301 -0.2199 -0.0926  0.7236
  154MPD2    H5 2354   0.627   4.257   0.316 -0.5842 -0.2357  1.6271
  154MPD2    N1 2355   0.754   4.268  17.539  0.2038  0.1957 -0.0953
  154MPD2    H7 2356   0.786   4.225  17.453 -0.6553  0.7172 -0.6738
  155TCq2    C1 2357   0.741   4.403  17.547  0.8460 -0.2510  0.6611
  155TCq2    O2 2358   0.705   4.467  17.645  0.2249 -0.5058 -0.3951
  155TCq2    C2 2359   0.762   4.470  17.420  0.6957  0.2966  0.3322
  155TCq2    C3 2360   0.736   4.603  17.419  0.0840  0.4832 -0.3732
  155TCq2    C4 2361   0.737   4.666  17.303  0.1592  0.2504  0.3159
  155TCq2    C5 2362   0.761   4.607  17.179 -0.2557 -0.1913 -0.4317
  155TCq2    C6 2363   0.799   4.474  17.183 -0.8754 -0.7555  0.2137
  155TCq2    C7 2364   0.806   4.405  17.302 -0.6413  0.2943 -0.0877
  155TCq2    C8 2365   0.827   4.410  17.059  0.3038 -0.5611 -0.2429
  155TCq2    O4 2366   0.799   4.292  17.047 -0.5720 -0.2697  1.3387
  155TCq2    C9 2367   0.707   0.083  17.306  0.0795  0.6303 -0.2846
  155TCq2    O5 2368   0.712   0.143  17.193  0.6865 -0.3012  0.1000
  155TCq2    O6 2369   0.693   0.133  17.416  0.3244 -0.2174  0.0144
  155TCq2    H2 2370   0.707   4.659  17.507 -1.1931 -0.7205 -0.0236
  155TCq2    H3 2371   0.762   4.668  17.090  0.7021  1.0190  0.4159
  155TCq2    H4 2372   0.836   4.302  17.291  1.8132  0.9899 -0.0469
  156MPD2     C 2373   3.987   1.772  12.145 -0.5867 -0.0876  0.7520
  156MPD2    C1 2374   4.021   1.839  12.033 -0.0820  0.0942  0.5854
  156MPD2    C2 2375   4.155   1.852  11.999 -0.0992  0.1679  0.5677
  156MPD2    C3 2376   4.253   1.798  12.082 -0.5749  1.0440 -0.5205
  156MPD2    C4 2377   4.219   1.739  12.196 -0.8746  0.2365  0.1926
  156MPD2    C5 2378   4.085   1.721  12.226 -0.3569 -0.3498  0.4271
  156MPD2     H 2379   4.189   1.911  11.915  1.4210  0.6907  1.5583
  156MPD2    H1 2380   4.287   1.711  12.276 -0.4561 -0.0423 -0.2609
  156MPD2    H2 2381   3.884   1.756  12.174 -1.0530 -0.3632 -1.0513
  156MPD2    H3 2382   4.054   1.667  12.314 -2.0366  0.8969  0.5757
  156MPD2     N 2383   4.389   1.829  12.046 -0.3631  0.2402  0.6053
  156MPD2    H5 2384   4.404   1.881  11.960 -1.1036  0.3532  0.5457
  156MPD2    N1 2385   3.916   1.886  11.949  0.2380  0.0059 -0.6884
  156MPD2    H7 2386   3.825   1.882  11.993  0.4167  1.1889 -0.2131
  157TCq2    C1 2387   3.936   1.943  11.825 -0.6358 -0.4781 -0.2146
  157TCq2    O2 2388   4.040   1.990  11.778  0.5884  0.2056  0.0092
  157TCq2    C2 2389   3.808   1.955  11.759  0.2355 -0.0684 -0.2705
  157TCq2    C3 2390   3.695   1.894  11.801  0.1506 -0.2031 -0.5598
  157TCq2    C4 2391   3.584   1.903  11.722 -0.1558 -0.1911 -0.4734
  157TCq2    C5 2392   3.579   1.985  11.612 -0.1473 -0.5602 -0.2490
  157TCq2    C6 2393   3.689   2.065  11.583  0.1100  0.6070 -0.2305
  157TCq2    C7 2394   3.807   2.046  11.656 -0.3159 -0.3913 -0.2420
  157TCq2    C8 2395   3.706   2.135  11.459  0.1644  0.2267  0.4620
  157TCq2    O4 2396   3.804   2.205  11.448 -0.0389 -0.4209  0.1178
  157TCq2    C9 2397   3.465   1.823  11.745  0.2653  0.6711  0.5026
  157TCq2    O5 2398   3.407   1.793  11.635  0.0755 -0.3307 -0.2903
  157TCq2    O6 2399   3.439   1.784  11.860 -0.2393 -0.3371  0.2484
  157TCq2    H2 2400   3.693   1.825  11.885 -1.6367  0.2807 -0.2106
  157TCq2    H3 2401   3.480   2.002  11.570  0.4835  2.6553 -0.4439
  157TCq2    H4 2402   3.895   2.105  11.635 -0.3389 -0.2722 -0.0028
  158TMC2    C1 2403   3.906   1.052  13.171  0.3476 -0.0598  0.5469
  158TMC2    C2 2404   3.884   1.173  13.103  0.2259  0.1357 -0.5565
  158TMC2    C3 2405   3.751   1.187  13.063  0.1423  0.2139  0.2488
  158TMC2    C4 2406   3.820   0.948  13.190 -0.1143  0.4757  0.3687
  158TMC2    C5 2407   3.684   0.978  13.158  0.4676 -0.2977 -0.1826
  158TMC2    C6 2408   3.656   1.095  13.095 -0.0645 -0.4797  0.4212
  158TMC2     C 2409   4.041   1.026  13.219 -0.0781  0.4670  0.4536
  158TMC2     O 2410   4.132   1.076  13.155 -0.2794 -0.5641 -0.5530
  158TMC2     H 2411   3.965   1.245  13.099 -1.1759  1.7237 -0.3397
  158TMC2    H1 2412   3.853   0.847  13.209  3.3885  1.1934 -1.8687
  158TMC2    H2 2413   3.551   1.118  13.077 -0.0674 -0.1229  0.8779
  158TMC2    C7 2414   3.576   0.887  13.161  0.1710 -0.4758 -0.1773
  158TMC2    C8 2415   3.684   1.316  13.076 -0.2645  0.3286 -1.2643
  158TMC2    O1 2416   3.470   0.926  13.108  0.4647  0.1068  0.3197
  158TMC2    O2 2417   3.572   1.336  13.126 -0.5501  0.6723  0.2796
  158TMC2    O5 2418   3.764   1.419  13.034  0.1121  0.1552 -0.4460
  158TMC2    H5 2419   3.837   1.372  12.989  0.2101 -0.3440  0.2279
  159MPD2     C 2420   4.381   0.958  13.608 -0.7161  0.6491 -0.3595
  159MPD2    C1 2421   4.254   0.951  13.656  0.2862  0.4829  0.7654
  159MPD2    C2 2422   4.144   0.955  13.565  0.0562 -0.3745  0.9974
  159MPD2    C3 2423   4.158   0.978  13.426  0.1863  1.0391  0.3621
  159MPD2    C4 2424   4.285   0.995  13.389  0.5274 -0.1742  0.0929
  159MPD2    C5 2425   4.393   0.982  13.471  0.1109  0.0794 -0.5433
  159MPD2     H 2426   4.042   0.943  13.598 -0.9489 -1.3404 -2.5113
  159MPD2    H1 2427   4.309   1.012  13.285  1.2927 -2.3701 -0.1052
  159MPD2    H2 2428   4.459   0.946  13.682 -2.2964  2.4039  1.6004
  159MPD2    H3 2429   4.484   0.996  13.413 -0.7880  0.9443 -1.7516
  159MPD2     N 2430   4.043   0.987  13.348 -0.0233  0.3641  0.3400
  159MPD2    H5 2431   3.953   0.963  13.389 -0.1112 -0.6633 -0.4651
  159MPD2    N1 2432   4.247   0.942  13.798 -0.4492  0.4392 -0.6114
  159MPD2    H7 2433   4.336   0.925  13.843  0.3199  0.7610 -2.0032
  160TMC2    C1 2434   4.096   3.164   1.471 -0.0604 -0.4488  0.9067
  160TMC2    C2 2435   4.208   3.113   1.522  1.0761 -0.2483 -0.5540
  160TMC2    C3 2436   4.327   3.168   1.493 -0.5397  0.0362  0.2902
  160TMC2    C4 2437   4.105   3.273   1.389 -0.6720 -0.3833  0.0403
  160TMC2    C5 2438   4.222   3.341   1.369 -0.2152 -0.2957 -0.6707
  160TMC2    C6 2439   4.336   3.289   1.419 -0.1180  0.4975 -0.2721
  160TMC2     C 2440   3.977   3.085   1.490 -0.2740  0.1360 -0.3737
  160TMC2     O 2441   3.986   2.967   1.529 -0.9325 -0.0286 -0.2790
  160TMC2     H 2442   4.203   3.041   1.603  0.6557  0.5839  0.1547
  160TMC2    H1 2443   4.011   3.318   1.358 -2.5639 -2.5139  2.6909
  160TMC2    H2 2444   4.432   3.338   1.411  0.0731  0.2649  0.5500
  160TMC2    C7 2445   4.211   3.473   1.316  0.1762 -0.1764 -0.5027
  160TMC2    C8 2446   4.442   3.094   1.525 -0.1239  0.6205 -0.0035
  160TMC2    O1 2447   4.099   3.520   1.312  0.1025  0.6407 -0.5841
  160TMC2    O2 2448   4.427   2.983   1.580  0.0686  0.1249  0.0790
  160TMC2    O5 2449   4.526   3.129   1.423  0.2194 -0.3231 -0.2015
  160TMC2    H5 2450   4.621   3.113   1.443 -0.1553 -0.0495  1.8227
  161MPD2     C 2451   3.684   3.017   1.500 -0.1815 -0.6331 -0.2578
  161MPD2    C1 2452   3.733   3.136   1.453 -0.0621  0.0157 -0.1244
  161MPD2    C2 2453   3.640   3.234   1.412  0.5277  0.3295 -0.8888
  161MPD2    C3 2454   3.504   3.210   1.405  0.5330  0.1314  0.3751
  161MPD2    C4 2455   3.459   3.097   1.462 -0.4404  0.5540  0.2275
  161MPD2    C5 2456   3.548   3.006   1.510 -0.0444  0.3529 -0.2128
  161MPD2     H 2457   3.674   3.327   1.368  1.0702  0.9271  0.7920
  161MPD2    H1 2458   3.354   3.070   1.463 -0.4500  0.5827  0.0872
  161MPD2    H2 2459   3.750   2.937   1.532 -0.2184 -0.8472 -0.7071
  161MPD2    H3 2460   3.500   2.914   1.539 -0.3371  0.4006 -0.5473
  161MPD2     N 2461   3.417   3.304   1.351 -0.0479  0.1200  0.3593
  161MPD2    H5 2462   3.336   3.257   1.313 -0.0625  0.7144 -0.3392
  161MPD2    N1 2463   3.870   3.164   1.446 -0.3483  0.9532  1.1370
  161MPD2    H7 2464   3.893   3.260   1.422 -0.7286  1.3556  2.3993
  162TMC2    C1 2465   1.873   0.208   1.075  0.1442  0.0507  0.1047
  162TMC2    C2 2466   1.782   0.251   0.976  0.5672  0.3618 -0.0054
  162TMC2    C3 2467   1.656   0.282   1.015  0.6633 -0.0566 -0.4299
  162TMC2    C4 2468   1.837   0.184   1.203 -0.1307  0.2876  0.6600
  162TMC2    C5 2469   1.709   0.211   1.231  0.0550  0.0569  0.6879
  162TMC2    C6 2470   1.614   0.259   1.144 -0.1818  0.9227 -0.0134
  162TMC2     C 2471   2.005   0.173   1.029  0.1712 -0.2966  0.6235
  162TMC2     O 2472   2.048   0.245   0.940 -0.4409 -0.1999 -0.0056
  162TMC2     H 2473   1.818   0.244   0.874  1.0155  0.6371  0.1324
  162TMC2    H1 2474   1.907   0.145   1.275 -0.2807  2.2022  1.8532
  162TMC2    H2 2475   1.513   0.287   1.172 -0.8425 -0.6526 -0.8197
  162TMC2    C7 2476   1.663   0.218   1.371  0.3034  0.5939 -0.1524
  162TMC2    C8 2477   1.560   0.342   0.916 -0.4779 -0.4424 -0.7375
  162TMC2    O1 2478   1.544   0.227   1.391  0.2092 -0.0693  0.2436
  162TMC2    O2 2479   1.464   0.405   0.956 -0.0648 -0.0454  0.7144
  162TMC2    O5 2480   1.568   0.266   0.805 -0.6338 -0.2109 -0.6443
  162TMC2    H5 2481   1.625   0.189   0.827 -0.4137  0.1947  0.2350
  163MPD2     C 2482   2.421   4.624   0.957  0.5431 -0.2483  0.9871
  163MPD2    C1 2483   2.347   4.701   0.866  1.0998 -0.3314 -0.2603
  163MPD2    C2 2484   2.222   0.028   0.899 -1.0444  0.4646 -0.3235
  163MPD2    C3 2485   2.177   0.010   1.029 -0.2156  0.4664  0.1705
  163MPD2    C4 2486   2.243   4.651   1.112 -0.3625  0.7184 -0.0563
  163MPD2    C5 2487   2.369   4.602   1.080  0.3911 -0.6092 -0.0311
  163MPD2     H 2488   2.156   0.075   0.828 -1.2979 -1.8016 -1.5722
  163MPD2    H1 2489   2.206   4.633   1.212  2.1175 -1.6121  0.4488
  163MPD2    H2 2490   2.523   4.593   0.935  1.9148  5.2022 -0.4658
  163MPD2    H3 2491   2.428   4.542   1.149  1.1276 -0.0366 -0.1667
  163MPD2     N 2492   2.055   0.057   1.078 -0.2286 -0.2400 -0.0580
  163MPD2    H5 2493   2.015   0.021   1.164 -0.1053  0.7436  0.4143
  163MPD2    N1 2494   2.391   4.703   0.727 -0.7599 -0.2596  0.0343
  163MPD2    H7 2495   2.470   4.648   0.695 -0.5282  0.1590 -0.1161
  164TCq2    C1 2496   2.995   4.511  11.050 -0.1095 -0.2628 -0.0147
  164TCq2    O2 2497   2.912   4.444  11.109 -0.2696  0.1534 -0.0451
  164TCq2    C2 2498   3.008   4.648  11.099  0.4515  1.1097  0.8636
  164TCq2    C3 2499   3.109   0.000  11.057 -0.0544 -0.1274  0.2283
  164TCq2    C4 2500   3.103   0.141  11.074  0.2695 -0.2372  0.0212
  164TCq2    C5 2501   2.992   0.196  11.145  0.0248 -0.2039  0.4126
  164TCq2    C6 2502   2.891   0.115  11.174  0.1751  0.2620 -0.0284
  164TCq2    C7 2503   2.894   4.702  11.151  0.0384 -0.2125  0.6636
  164TCq2    C8 2504   2.754   0.170  11.155 -0.3877 -0.3921 -0.8092
  164TCq2    O4 2505   2.677   0.115  11.077  0.1643 -0.2876  0.2513
  164TCq2    C9 2506   3.220   0.221  11.036  0.2131  0.3163 -0.4129
  164TCq2    O5 2507   3.303   0.156  10.968  0.0477 -0.4030 -0.2260
  164TCq2    O6 2508   3.225   0.342  11.059 -0.5030  0.3517 -0.1425
  164TCq2    H2 2509   3.196   4.679  11.009 -0.4843  0.3595 -1.0041
  164TCq2    H3 2510   2.984   0.304  11.142 -1.2257 -0.3163 -0.3998
  164TCq2    H4 2511   2.816   4.632  11.178  1.4513 -2.1134 -0.2194
  165MPD2     C 2512   3.382   1.964   1.453  0.0922  0.0256 -0.0569
  165MPD2    C1 2513   3.252   2.005   1.431 -0.2027  0.4529 -0.1579
  165MPD2    C2 2514   3.222   2.134   1.434  0.6401  0.4450  0.0158
  165MPD2    C3 2515   3.322   2.235   1.457 -0.0823 -0.4111  1.1803
  165MPD2    C4 2516   3.442   2.194   1.497 -0.0429 -0.4343  0.8851
  165MPD2    C5 2517   3.471   2.057   1.496 -0.3505  0.5693  0.2124
  165MPD2     H 2518   3.118   2.163   1.417  0.1595 -0.9634  0.5599
  165MPD2    H1 2519   3.508   2.273   1.534  0.3509  0.9511 -2.7907
  165MPD2    H2 2520   3.421   1.864   1.443 -1.6804 -0.6056 -0.7156
  165MPD2    H3 2521   3.575   2.027   1.499 -0.9260 -1.1938  2.1087
  165MPD2     N 2522   3.301   2.371   1.434 -0.4053  0.6211 -0.4708
  165MPD2    H5 2523   3.370   2.440   1.464 -0.9345  0.2895  1.5062
  165MPD2    N1 2524   3.157   1.906   1.392  0.0648 -0.4314  0.3718
  165MPD2    H7 2525   3.176   1.808   1.411  0.1678 -0.1553  1.7278
  166TCq2    C1 2526   3.188   2.435   1.393  0.3736 -0.1873 -0.3643
  166TCq2    O2 2527   3.072   2.396   1.395  0.1903 -0.0581 -0.1042
  166TCq2    C2 2528   3.222   2.572   1.367  0.1968  0.7054 -0.4183
  166TCq2    C3 2529   3.123   2.659   1.389  0.0859 -0.2450 -0.2387
  166TCq2    C4 2530   3.134   2.787   1.339 -0.3958  0.0930  0.5183
  166TCq2    C5 2531   3.248   2.834   1.280 -0.0567  0.1267 -0.1594
  166TCq2    C6 2532   3.350   2.740   1.258  0.4051 -0.3088  0.7018
  166TCq2    C7 2533   3.337   2.610   1.297  0.2689  0.4672 -0.1707
  166TCq2    C8 2534   3.476   2.786   1.208  0.4785  0.1997 -1.0408
  166TCq2    O4 2535   3.569   2.708   1.199 -0.6811 -0.3160  0.1103
  166TCq2    C9 2536   3.028   2.889   1.368 -0.0079  0.1183 -0.4311
  166TCq2    O5 2537   2.932   2.867   1.450  0.1283  0.0944 -0.3961
  166TCq2    O6 2538   3.042   2.995   1.303 -0.3171  0.0805 -0.2002
  166TCq2    H2 2539   3.040   2.619   1.446 -1.4007  2.2560 -0.6156
  166TCq2    H3 2540   3.255   2.941   1.268 -0.1919  0.3699  1.9047
  166TCq2    H4 2541   3.407   2.535   1.262  0.4170 -0.0381  1.1916
  167TMC2    C1 2542   2.110   0.169  12.621 -0.4783  0.2211  0.5209
  167TMC2    C2 2543   1.998   0.209  12.688  0.2190 -0.1087 -0.2720
  167TMC2    C3 2544   1.914   0.115  12.730 -0.2157  0.1148 -0.3838
  167TMC2    C4 2545   2.147   0.038  12.610  0.5522 -0.9588 -0.4131
  167TMC2    C5 2546   2.053   4.668  12.655 -0.3567 -0.4805  0.0607
  167TMC2    C6 2547   1.940   4.706  12.722  0.0761 -1.3746  0.0197
  167TMC2     C 2548   2.168   0.266  12.531 -0.7358  0.4123 -0.0536
  167TMC2     O 2549   2.190   0.376  12.577  0.0316 -0.3068  0.1287
  167TMC2     H 2550   1.980   0.315  12.691  2.2800  0.1714  2.6351
  167TMC2    H1 2551   2.238   0.009  12.560 -1.4014 -3.5684 -2.4514
  167TMC2    H2 2552   1.872   4.628  12.753 -1.7596  0.0655 -0.4281
  167TMC2    C7 2553   2.101   4.530  12.663 -0.6087  0.3362 -0.1354
  167TMC2    C8 2554   1.799   0.148  12.809  0.1597  0.2798  0.6320
  167TMC2    O1 2555   2.055   4.461  12.751  0.5949 -0.2548  0.1551
  167TMC2    O2 2556   1.720   0.067  12.855  0.2845  0.0598  0.1009
  167TMC2    O5 2557   1.832   0.262  12.874  0.0532  0.2413  0.2447
  167TMC2    H5 2558   1.894   0.323  12.830 -1.0788  0.7245 -0.7100
  168MPD2     C 2559   2.302   0.412  12.318 -0.4766 -0.4999 -0.2392
  168MPD2    C1 2560   2.284   0.272  12.318 -0.5208 -0.2906 -0.5226
  168MPD2    C2 2561   2.320   0.205  12.200  0.5812  0.5556 -0.3505
  168MPD2    C3 2562   2.351   0.270  12.084 -0.8003 -0.5030 -0.2124
  168MPD2    C4 2563   2.366   0.405  12.087  0.6415 -0.2180  0.1240
  168MPD2    C5 2564   2.348   0.466  12.208  0.3609 -0.2515 -0.6423
  168MPD2     H 2565   2.325   0.097  12.211 -1.0279  0.2740 -2.4683
  168MPD2    H1 2566   2.388   0.459  11.995 -2.2302 -1.9843 -1.6226
  168MPD2    H2 2567   2.276   0.481  12.398  2.4447  2.7375 -2.0871
  168MPD2    H3 2568   2.344   0.574  12.198  0.0120 -0.4796 -3.2000
  168MPD2     N 2569   2.357   0.201  11.956  0.0465 -0.0493 -0.0080
  168MPD2    H5 2570   2.318   0.250  11.875  1.5942 -1.0773 -1.3731
  168MPD2    N1 2571   2.228   0.200  12.424  0.1429  0.2377  0.0511
  168MPD2    H7 2572   2.212   0.100  12.416  0.1645  0.1254  1.3997
  169MPD1     C 2573   1.159   3.365   9.375  0.2536  0.7080 -0.6444
  169MPD1    C1 2574   1.111   3.434   9.278  0.1677 -0.2428  0.3295
  169MPD1    C2 2575   0.979   3.446   9.254 -0.5981  0.2930  0.6696
  169MPD1    C3 2576   0.888   3.363   9.317  0.3471  0.5202  0.3729
  169MPD1    C4 2577   0.937   3.278   9.413  0.4243  0.0196 -0.5104
  169MPD1    C5 2578   1.073   3.279   9.443 -0.3444 -0.5752  0.0555
  169MPD1     H 2579   0.946   3.523   9.185  0.3217  0.7241  0.7078
  169MPD1    H1 2580   0.868   3.214   9.468  0.0507  1.0757  0.2574
  169MPD1    H2 2581   1.264   3.365   9.400  0.2396  0.5375 -0.5852
  169MPD1    H3 2582   1.117   3.228   9.528  0.0623 -0.5513 -0.1398
  169MPD1     N 2583   0.755   3.385   9.280 -1.2407  0.5515 -0.1741
  169MPD1    H5 2584   0.734   3.458   9.212 -2.1433 -1.4296 -2.0358
  169MPD1    N1 2585   1.196   3.524   9.208  0.2176  0.1131  0.5648
  169MPD1    H6 2586   1.160   3.540   9.114  0.4765 -2.0946  0.0712
  169MPD1    H7 2587   1.288   3.480   9.198  0.0422  0.0354 -0.6946
  170MPD1     C 2588   2.517   2.637  12.774 -0.0861 -0.7952 -0.1997
  170MPD1    C1 2589   2.544   2.772  12.785  0.6151 -0.2431  1.2967
  170MPD1    C2 2590   2.599   2.813  12.901  0.5408  0.5806 -0.0068
  170MPD1    C3 2591   2.650   2.725  12.995 -0.6950 -0.1590 -0.2265
  170MPD1    C4 2592   2.630   2.592  12.986  1.2656  0.9518 -0.1846
  170MPD1    C5 2593   2.562   2.554  12.876  0.1415  0.2885  0.3879
  170MPD1     H 2594   2.611   2.919  12.920 -0.4713  0.5643  0.6857
  170MPD1    H1 2595   2.672   2.520  13.055 -0.9534 -2.3346 -2.2873
  170MPD1    H2 2596   2.454   2.587  12.702 -0.9329  0.7060 -0.5020
  170MPD1    H3 2597   2.552   2.448  12.856  0.7092  0.4733 -0.9399
  170MPD1     N 2598   2.714   2.782  13.103  0.4033 -0.0252  0.0712
  170MPD1    H5 2599   2.726   2.883  13.101  0.0422  0.0246  0.4954
  170MPD1    N1 2600   2.470   2.866  12.710  0.1300 -0.0190 -0.7940
  170MPD1    H6 2601   2.517   2.956  12.718  1.6948 -0.5540 -3.9792
  170MPD1    H7 2602   2.457   2.844  12.611 -1.8405  0.0953 -0.5648
  171MPD1     C 2603   1.889   4.086  15.108  0.2381 -0.4541  0.3773
  171MPD1    C1 2604   1.883   3.962  15.056  0.9211 -0.6151 -0.2578
  171MPD1    C2 2605   1.893   3.853  15.135  0.4876 -0.5833 -0.1503
  171MPD1    C3 2606   1.920   3.867  15.266  0.0786 -0.3774  0.7782
  171MPD1    C4 2607   1.933   3.989  15.318 -0.1201 -0.2993  0.2508
  171MPD1    C5 2608   1.904   4.100  15.242  0.3071  0.3795  0.2212
  171MPD1     H 2609   1.891   3.758  15.083 -0.0325 -1.2692  1.1340
  171MPD1    H1 2610   1.938   4.001  15.426  0.6192  1.5524  0.0177
  171MPD1    H2 2611   1.879   4.172  15.043  1.2309  0.7543  1.8311
  171MPD1    H3 2612   1.882   4.198  15.280  2.8820  1.4204 -0.9767
  171MPD1     N 2613   1.916   3.763  15.360  0.0971  0.2349  0.1925
  171MPD1    H5 2614   1.929   3.792  15.457  0.7522  1.9479 -0.4097
  171MPD1    N1 2615   1.836   3.946  14.925  0.2875  0.0778  0.6566
  171MPD1    H6 2616   1.877   3.870  14.871 -1.9009 -1.0814  0.6138
  171MPD1    H7 2617   1.826   4.030  14.869  0.2990  1.7156  3.1132
  172MPD1     C 2618   0.940   2.364   0.288 -0.6131  0.1008  0.4014
  172MPD1    C1 2619   0.872   2.404   0.399  0.6248 -0.0117  0.4136
  172MPD1    C2 2620   0.761   2.486   0.381 -1.4110 -0.4994 -0.8055
  172MPD1    C3 2621   0.731   2.548   0.257 -0.2417  0.2946  0.2697
  172MPD1    C4 2622   0.814   2.510   0.151 -0.5127 -0.6607  0.0891
  172MPD1    C5 2623   0.914   2.413   0.164 -0.4250 -0.2445  0.3929
  172MPD1     H 2624   0.701   2.517   0.466 -1.9147  1.5850 -1.9060
  172MPD1    H1 2625   0.807   2.536   0.046  0.2166 -3.0465 -0.5696
  172MPD1    H2 2626   1.017   2.291   0.310 -2.1490 -1.1919  1.5035
  172MPD1    H3 2627   0.955   2.372   0.072  2.5280  1.6625  0.8610
  172MPD1     N 2628   0.620   2.647   0.240  0.2211 -0.2599  0.3121
  172MPD1    H5 2629   0.610   2.695   0.151 -0.1486  0.4964  0.7608
  172MPD1    N1 2630   0.873   2.321   0.510  0.2180  0.1108 -0.5428
  172MPD1    H6 2631   0.829   2.372   0.586  1.5967 -1.4582  1.3248
  172MPD1    H7 2632   0.965   2.293   0.544  0.0929  2.6257  1.7894
  173MPD1     C 2633   2.777   3.097  13.977  0.6688  0.0381  0.7170
  173MPD1    C1 2634   2.747   3.049  14.100 -0.0609  0.1701  0.2933
  173MPD1    C2 2635   2.630   2.984  14.125 -0.2227 -0.2148 -0.8287
  173MPD1    C3 2636   2.540   2.965  14.019  0.1622  0.1167  0.1229
  173MPD1    C4 2637   2.572   3.007  13.894  0.0673 -0.7337 -0.0338
  173MPD1    C5 2638   2.686   3.073  13.876 -0.2502  0.2001  0.4699
  173MPD1     H 2639   2.598   2.959  14.226  0.6582  2.9686  0.2488
  173MPD1    H1 2640   2.511   2.992  13.805 -0.5449 -0.7231  0.3807
  173MPD1    H2 2641   2.875   3.138  13.955 -0.2419  3.3680  2.8462
  173MPD1    H3 2642   2.716   3.108  13.778 -0.0314  1.6137  1.0336
  173MPD1     N 2643   2.426   2.887  14.053  0.0849  0.3752  0.1509
  173MPD1    H5 2644   2.413   2.855  14.148 -0.6224 -0.1475 -0.1172
  173MPD1    N1 2645   2.846   3.056  14.202 -0.3476  0.4760  0.1534
  173MPD1    H6 2646   2.875   3.153  14.211  0.0496  0.3613  0.0933
  173MPD1    H7 2647   2.803   3.033  14.292  0.9729  0.1267  0.7001
  174MPD1     C 2648   1.718   2.098  13.835  0.8908  0.3799 -0.3531
  174MPD1    C1 2649   1.852   2.086  13.872 -0.2041 -0.2260 -0.5262
  174MPD1    C2 2650   1.921   2.198  13.914 -0.1296  0.2536 -0.3515
  174MPD1    C3 2651   1.863   2.320  13.930  0.2942 -0.5681 -0.9810
  174MPD1    C4 2652   1.727   2.335  13.899 -0.5386 -0.0232 -0.4729
  174MPD1    C5 2653   1.657   2.223  13.850  0.1144 -1.0329 -0.1528
  174MPD1     H 2654   2.027   2.198  13.939 -0.5584 -2.7935  1.4763
  174MPD1    H1 2655   1.669   2.426  13.902 -0.4002 -0.0141  2.1754
  174MPD1    H2 2656   1.661   2.013  13.799  0.9733  0.0603  0.2677
  174MPD1    H3 2657   1.550   2.239  13.836 -0.4263 -1.9487  2.8896
  174MPD1     N 2658   1.929   2.437  13.993 -0.2633  0.4800  0.8116
  174MPD1    H5 2659   1.867   2.513  14.019 -0.3325  0.6627  0.1174
  174MPD1    N1 2660   1.923   1.969  13.859  0.5549  0.2888 -0.1835
  174MPD1    H6 2661   1.870   1.883  13.842  0.7747  0.8078 -3.4037
  174MPD1    H7 2662   1.974   1.960  13.947  2.4000  1.6471 -1.1345
  175MPD1     C 2663   0.390   3.871  15.233 -0.1083  0.1126 -0.1284
  175MPD1    C1 2664   0.313   3.946  15.319  0.7100 -0.0868  0.0492
  175MPD1    C2 2665   0.310   3.914  15.451  0.3709  0.0986 -0.4110
  175MPD1    C3 2666   0.379   3.806  15.507 -0.4365 -0.5715  0.8927
  175MPD1    C4 2667   0.450   3.727  15.417 -0.3701 -0.3855  0.2022
  175MPD1    C5 2668   0.458   3.761  15.284 -0.0390  0.6312 -1.1950
  175MPD1     H 2669   0.238   3.968  15.510  0.0999 -1.2192  0.4481
  175MPD1    H1 2670   0.515   3.647  15.448 -1.0388 -0.3983  1.5620
  175MPD1    H2 2671   0.405   3.891  15.127  0.8320 -0.7091 -0.1552
  175MPD1    H3 2672   0.520   3.700  15.219 -1.0804  0.5666 -2.1269
  175MPD1     N 2673   0.380   3.756  15.643  0.0252  0.4269 -0.4477
  175MPD1    H5 2674   0.428   3.670  15.668  0.1624  0.5646 -0.2433
  175MPD1    N1 2675   0.248   4.063  15.277 -0.1170  0.1206 -0.0865
  175MPD1    H6 2676   0.161   4.075  15.328  0.6656 -1.6641  1.6605
  175MPD1    H7 2677   0.222   4.051  15.179 -0.3609  1.3269 -0.1743
  176MPD1     C 2678   1.932   1.319   0.021 -0.0444 -0.3549 -0.0176
  176MPD1    C1 2679   1.884   1.416  17.629 -0.8731  0.1633 -0.2200
  176MPD1    C2 2680   1.965   1.525  17.597 -0.1952  0.7917 -0.0397
  176MPD1    C3 2681   2.085   1.551  17.653  0.6145  0.4538 -0.1219
  176MPD1    C4 2682   2.129   1.461   0.058  0.2155 -0.6004  0.5110
  176MPD1    C5 2683   2.055   1.342   0.079 -0.1578 -0.3187  0.4867
  176MPD1     H 2684   1.944   1.592  17.514 -0.5099  1.0350  0.2368
  176MPD1    H1 2685   2.215   1.474   0.123  0.9202 -2.7390  0.0231
  176MPD1    H2 2686   1.868   1.238   0.055  1.0660 -0.7727  1.0992
  176MPD1    H3 2687   2.080   1.274   0.160 -1.3570 -0.5678  0.6482
  176MPD1     N 2688   2.156   1.673  17.625  0.3237 -0.4221 -0.2674
  176MPD1    H5 2689   2.119   1.751  17.571  1.2300  1.7216  2.2478
  176MPD1    N1 2690   1.775   1.385  17.547  0.1587  0.2758  0.0902
  176MPD1    H6 2691   1.721   1.464  17.513 -0.6019 -1.0681 -1.8251
  176MPD1    H7 2692   1.713   1.316  17.590  0.7040 -0.6558 -0.6131
  177MPD1     C 2693   1.353   0.082  10.456  0.9672 -0.8411 -0.0258
  177MPD1    C1 2694   1.377   0.089  10.325 -0.2012  0.4638 -0.3033
  177MPD1    C2 2695   1.304   0.175  10.247  0.0333  0.1727  0.1372
  177MPD1    C3 2696   1.195   0.245  10.302  0.2526 -0.0791 -0.2884
  177MPD1    C4 2697   1.175   0.235  10.432 -0.0597 -0.2667  0.4884
  177MPD1    C5 2698   1.259   0.160  10.508  0.5119  0.2715  0.0575
  177MPD1     H 2699   1.319   0.175  10.139  0.3292 -0.6334  0.1796
  177MPD1    H1 2700   1.111   0.302  10.488 -0.4976 -1.5408  1.5114
  177MPD1    H2 2701   1.409   0.014  10.519 -0.2940 -2.9010 -1.1205
  177MPD1    H3 2702   1.232   0.161  10.613 -0.3007 -0.8587 -0.1419
  177MPD1     N 2703   1.111   0.315  10.208  0.1584 -0.1162 -0.1898
  177MPD1    H5 2704   1.120   0.293  10.109 -2.2702  0.7459 -0.5948
  177MPD1    N1 2705   1.493   0.019  10.281 -0.0548  0.6465  0.2781
  177MPD1    H6 2706   1.456   4.699  10.196  0.7147  0.8883 -0.1791
  177MPD1    H7 2707   1.509   4.667  10.349  1.2642  2.0256  1.4653
  178MPD1     C 2708   3.780   0.397   0.028  0.7595 -0.2209  0.3966
  178MPD1    C1 2709   3.654   0.426   0.068 -0.6300  0.0519  0.5370
  178MPD1    C2 2710   3.603   0.552   0.054 -0.2065  0.5749 -0.1357
  178MPD1    C3 2711   3.664   0.645  17.663 -0.2740  0.6584  0.1225
  178MPD1    C4 2712   3.791   0.619  17.608 -0.1133 -0.3410  0.7021
  178MPD1    C5 2713   3.841   0.492  17.640 -0.7151 -0.1015  0.3476
  178MPD1     H 2714   3.506   0.563   0.101 -1.0869 -0.5321 -1.6777
  178MPD1    H1 2715   3.846   0.688  17.545 -1.7715  0.1304 -0.2605
  178MPD1    H2 2716   3.830   0.301   0.042 -1.8134 -1.3996  1.4983
  178MPD1    H3 2717   3.941   0.467  17.606 -1.0559  0.8284 -1.3101
  178MPD1     N 2718   3.616   0.779  17.654 -0.9311 -0.3008 -0.2765
  178MPD1    H5 2719   3.683   0.844  17.614  1.1053 -1.1167  1.8061
  178MPD1    N1 2720   3.596   0.328   0.159  0.1156  0.4650  0.3357
  178MPD1    H6 2721   3.607   0.234   0.121  1.2999 -0.7406  3.7278
  178MPD1    H7 2722   3.497   0.337   0.182  0.3369  1.5378  0.8380
  179MPD1     C 2723   3.137   0.464  15.433 -0.1678 -0.3876 -0.4283
  179MPD1    C1 2724   3.026   0.431  15.355 -0.1940 -0.2992 -0.4546
  179MPD1    C2 2725   2.937   0.336  15.414  0.7758  0.3158  0.9358
  179MPD1    C3 2726   2.983   0.249  15.512  1.1799  0.0010  0.2305
  179MPD1    C4 2727   3.106   0.278  15.565 -0.2616  0.0197 -0.1782
  179MPD1    C5 2728   3.181   0.393  15.530 -0.2419  0.1584 -0.3572
  179MPD1     H 2729   2.837   0.324  15.373  0.2843 -1.1017  2.5529
  179MPD1    H1 2730   3.143   0.225  15.653 -0.3913  0.0643 -0.0969
  179MPD1    H2 2731   3.204   0.541  15.396 -1.8487  1.0575 -0.4406
  179MPD1    H3 2732   3.261   0.417  15.598  0.1692 -2.0693 -0.0442
  179MPD1     N 2733   2.913   0.135  15.560  0.4619 -0.1338  0.3378
  179MPD1    H5 2734   2.970   0.070  15.613  0.6265  0.6862  1.1780
  179MPD1    N1 2735   2.977   0.516  15.255  0.2920 -0.1214 -0.2071
  179MPD1    H6 2736   2.918   0.469  15.186 -1.0185  3.7345 -1.7193
  179MPD1    H7 2737   3.046   0.555  15.191 -0.0103  2.0097  0.7696
  180MPD1     C 2738   1.848   1.561  15.028  0.3575  0.4344  0.4112
  180MPD1    C1 2739   1.938   1.631  14.942 -0.0122  0.3173  0.3974
  180MPD1    C2 2740   1.932   1.604  14.809  0.2991 -0.1497 -0.0100
  180MPD1    C3 2741   1.860   1.492  14.763 -0.9308 -0.1488 -0.0968
  180MPD1    C4 2742   1.791   1.408  14.851  0.0588  0.0154  0.9145
  180MPD1    C5 2743   1.780   1.446  14.982  0.3055  0.0220  0.2740
  180MPD1     H 2744   1.986   1.664  14.738 -1.9188  2.1433  0.2343
  180MPD1    H1 2745   1.754   1.308  14.834  2.0793 -0.2251 -2.0069
  180MPD1    H2 2746   1.837   1.591  15.131 -1.2759  0.0315  0.3555
  180MPD1    H3 2747   1.718   1.385  15.047 -1.2453  2.6280  1.2179
  180MPD1     N 2748   1.872   1.465  14.623  0.5370 -0.3045 -0.4058
  180MPD1    H5 2749   1.935   1.520  14.565 -0.4678 -0.0806 -1.2786
  180MPD1    N1 2750   2.003   1.750  14.982  0.1403 -0.1647  0.4227
  180MPD1    H6 2751   2.073   1.768  14.910  1.1347 -5.3734  0.0393
  180MPD1    H7 2752   2.052   1.735  15.071  1.8522  1.1196 -0.2974
  181MPD1     C 2753   4.080   2.521   9.943 -0.3522 -0.7896  0.0743
  181MPD1    C1 2754   4.058   2.570   9.817  0.0810  0.2831 -0.6641
  181MPD1    C2 2755   4.166   2.614   9.739  0.4451 -0.3781  0.4831
  181MPD1    C3 2756   4.296   2.608   9.786  0.5348  0.3740 -0.0178
  181MPD1    C4 2757   4.311   2.572   9.913  0.4700 -0.0204  0.4035
  181MPD1    C5 2758   4.208   2.524   9.989  0.1881  0.0741 -0.1166
  181MPD1     H 2759   4.147   2.658   9.642  0.9844 -1.7872 -0.2423
  181MPD1    H1 2760   4.405   2.556   9.964  0.7252 -0.6033 -0.2539
  181MPD1    H2 2761   4.003   2.493  10.014 -0.7730 -0.3940 -0.2256
  181MPD1    H3 2762   4.232   2.484  10.087  0.0959 -1.2075 -0.6105
  181MPD1     N 2763   4.405   2.649   9.704 -0.1573  0.1921 -0.5006
  181MPD1    H5 2764   4.490   2.646   9.759  0.7198 -0.8096 -1.8924
  181MPD1    N1 2765   3.926   2.588   9.771 -0.0815  0.2591 -0.5931
  181MPD1    H6 2766   3.915   2.594   9.669  0.4333  0.3806 -0.6377
  181MPD1    H7 2767   3.858   2.528   9.818  0.2925 -0.2151 -0.6689
  182MPD1     C 2768   4.721   1.567   1.267 -0.5010 -0.0464 -0.5502
  182MPD1    C1 2769   0.025   1.541   1.135 -0.7629 -0.1770 -0.5360
  182MPD1    C2 2770   4.663   1.590   1.041  0.0221  0.0626 -0.0431
  182MPD1    C3 2771   4.547   1.658   1.080  0.0980 -0.2156 -0.2668
  182MPD1    C4 2772   4.523   1.677   1.217 -0.5119 -0.5871  0.6663
  182MPD1    C5 2773   4.608   1.631   1.313 -0.1144 -0.5048  0.4193
  182MPD1     H 2774   4.684   1.577   0.936 -1.4684 -1.0116 -0.2078
  182MPD1    H1 2775   4.437   1.733   1.250 -0.5579 -1.2691  1.6890
  182MPD1    H2 2776   0.077   1.542   1.338  0.7754  1.2878 -1.4741
  182MPD1    H3 2777   4.589   1.654   1.417  1.3509  2.7826 -0.0176
  182MPD1     N 2778   4.454   1.715   0.980  0.0232  0.1489  0.2016
  182MPD1    H5 2779   4.375   1.766   1.019 -1.5435 -1.5365 -0.7746
  182MPD1    N1 2780   0.151   1.496   1.092 -0.0275  0.0019  0.6143
  182MPD1    H6 2781   0.144   1.444   1.005  2.6553  0.1956  0.3049
  182MPD1    H7 2782   0.173   1.420   1.156  0.7648  0.6677  1.1282
  183MPD1     C 2783   1.882   2.542   9.306 -0.0137 -0.0411 -0.3330
  183MPD1    C1 2784   1.782   2.446   9.312 -0.1450 -0.3036  0.8937
  183MPD1    C2 2785   1.700   2.442   9.424 -0.4790  0.4075 -0.2120
  183MPD1    C3 2786   1.692   2.544   9.516  0.1536 -0.5649 -0.2914
  183MPD1    C4 2787   1.786   2.643   9.502  0.1872 -0.2581 -0.5580
  183MPD1    C5 2788   1.880   2.638   9.400  0.2198 -0.0748  0.2989
  183MPD1     H 2789   1.632   2.360   9.440  0.5856 -0.9882 -2.8521
  183MPD1    H1 2790   1.790   2.728   9.568  0.7546 -0.9947  0.3518
  183MPD1    H2 2791   1.959   2.555   9.231  0.3723 -4.0738 -0.6057
  183MPD1    H3 2792   1.959   2.712   9.402 -0.1883  0.3842 -0.3995
  183MPD1     N 2793   1.600   2.549   9.618  0.0898  0.2517  0.2929
  183MPD1    H5 2794   1.546   2.464   9.627 -1.6496  1.1593 -1.6577
  183MPD1    N1 2795   1.782   2.342   9.230 -0.2498 -0.5307  0.0721
  183MPD1    H6 2796   1.817   2.367   9.138  2.3038 -1.4982  0.7887
  183MPD1    H7 2797   1.691   2.299   9.213 -0.1283 -0.9448  0.4943
  184MPD1     C 2798   0.043   0.173   9.887 -0.2595  0.0702  0.0556
  184MPD1    C1 2799   0.041   0.158   9.746  0.2798 -0.4895 -0.1221
  184MPD1    C2 2800   0.134   0.238   9.675 -0.1835  1.2309  0.3964
  184MPD1    C3 2801   0.231   0.314   9.738  0.2837  0.1672 -0.3853
  184MPD1    C4 2802   0.230   0.316   9.871 -0.4897  0.7535 -0.0068
  184MPD1    C5 2803   0.138   0.250   9.940 -0.4456 -0.1315  1.0030
  184MPD1     H 2804   0.122   0.246   9.567 -1.7329 -1.5695  0.3752
  184MPD1    H1 2805   0.296   0.384   9.925 -0.1019  0.0033  0.4655
  184MPD1    H2 2806   4.691   0.122   9.947  0.5710 -1.3121 -0.0828
  184MPD1    H3 2807   0.139   0.260  10.048  1.7129  1.6261  0.7999
  184MPD1     N 2808   0.332   0.393   9.673  0.1475 -0.6047  0.1842
  184MPD1    H5 2809   0.388   0.448   9.736 -0.4250 -0.5739  0.6655
  184MPD1    N1 2810   4.657   0.095   9.676 -0.4043 -0.1274  0.0989
  184MPD1    H6 2811   4.648   0.003   9.718 -1.3717 -0.2902 -0.4748
  184MPD1    H7 2812   4.689   0.081   9.580  0.6926  2.2794  0.1079
  185MPD1     C 2813   0.701   0.382   8.751 -0.4087 -0.6004 -0.5598
  185MPD1    C1 2814   0.800   0.435   8.830  0.0428  0.1304 -0.6628
  185MPD1    C2 2815   0.777   0.444   8.969  0.1848  0.5180 -0.1989
  185MPD1    C3 2816   0.651   0.434   9.023 -0.6988 -0.0431 -0.1088
  185MPD1    C4 2817   0.546   0.399   8.933  0.5726 -0.1005  0.0616
  185MPD1    C5 2818   0.574   0.368   8.804  0.1445  0.4709 -0.8755
  185MPD1     H 2819   0.869   0.451   9.026  0.3229 -1.5775 -0.1709
  185MPD1    H1 2820   0.450   0.367   8.971 -0.6580  3.7444  0.2618
  185MPD1    H2 2821   0.725   0.334   8.657 -0.1061 -0.0940 -0.7457
  185MPD1    H3 2822   0.491   0.331   8.745  0.6943 -0.8817 -0.8053
  185MPD1     N 2823   0.628   0.441   9.159 -0.2623  0.4539  0.0232
  185MPD1    H5 2824   0.529   0.432   9.181  0.0907 -0.4789  1.1831
  185MPD1    N1 2825   0.931   0.447   8.784 -0.5709 -0.1282 -0.1310
  185MPD1    H6 2826   0.972   0.536   8.815 -0.6260  0.0879 -0.6757
  185MPD1    H7 2827   0.936   0.444   8.682 -1.6263 -1.3794 -0.1403
  186MPD1     C 2828   2.868   0.732  15.728  0.2391 -0.9859 -0.1546
  186MPD1    C1 2829   2.835   0.777  15.853  0.2196  0.4286  0.5172
  186MPD1    C2 2830   2.917   0.743  15.959 -0.6268  0.4513  0.0766
  186MPD1    C3 2831   3.042   0.685  15.938  0.7983  0.3229 -0.0755
  186MPD1    C4 2832   3.076   0.650  15.805 -0.0626 -0.1680 -0.9635
  186MPD1    C5 2833   2.988   0.668  15.702 -0.5821 -0.2985  0.3599
  186MPD1     H 2834   2.883   0.774  16.057  0.6980  1.0482  0.3418
  186MPD1    H1 2835   3.174   0.608  15.787 -0.5219 -1.5612 -0.1612
  186MPD1    H2 2836   2.803   0.749  15.643 -1.2992  0.9241  1.3922
  186MPD1    H3 2837   3.009   0.618  15.607  0.2746 -0.4281  0.6148
  186MPD1     N 2838   3.131   0.651  16.045  0.0251  0.5631 -0.0608
  186MPD1    H5 2839   3.214   0.598  16.022 -0.3766  0.9359 -2.3901
  186MPD1    N1 2840   2.707   0.828  15.881  0.4310  0.8481  0.2984
  186MPD1    H6 2841   2.645   0.846  15.802 -0.4970 -0.4001  0.7406
  186MPD1    H7 2842   2.697   0.880  15.968 -1.7793  0.5315  0.2306
  187MPD1     C 2843   2.900   2.374   0.074  0.1303 -0.0090 -0.5098
  187MPD1    C1 2844   2.949   2.415  17.644 -0.7494 -0.2636 -0.7135
  187MPD1    C2 2845   2.861   2.423  17.538  0.1196  0.2503  0.3050
  187MPD1    C3 2846   2.726   2.407  17.555  0.2074 -0.2620  0.6089
  187MPD1    C4 2847   2.680   2.358  17.672 -0.5328 -0.1919  0.2703
  187MPD1    C5 2848   2.767   2.341   0.085  0.3499  0.3986 -0.1789
  187MPD1     H 2849   2.908   2.455  17.446  2.9700 -0.0414  1.6203
  187MPD1    H1 2850   2.574   2.338  17.688 -0.9666  1.7151 -0.1681
  187MPD1    H2 2851   2.957   2.378   0.166 -1.8213 -0.5048  0.7185
  187MPD1    H3 2852   2.740   2.297   0.180 -0.4280 -2.6015 -1.8108
  187MPD1     N 2853   2.634   2.430  17.452 -0.1332 -1.3254 -0.3887
  187MPD1    H5 2854   2.540   2.396  17.470  0.6082 -2.1880  1.8777
  187MPD1    N1 2855   3.088   2.421  17.623  0.6492  0.3690  0.9066
  187MPD1    H6 2856   3.113   2.489  17.551 -2.1223  1.2839  0.8031
  187MPD1    H7 2857   3.138   2.445   0.016  1.4553 -0.8476  0.7667
  188MPD1     C 2858   2.692   1.269   9.113  0.0064  0.3966 -0.1185
  188MPD1    C1 2859   2.600   1.278   9.020  0.2395 -0.1255 -0.5974
  188MPD1    C2 2860   2.472   1.231   9.048  0.2904 -0.3010 -0.3656
  188MPD1    C3 2861   2.439   1.180   9.169 -0.2483 -0.2034  0.4891
  188MPD1    C4 2862   2.532   1.209   9.272 -0.7889  0.4085  0.0811
  188MPD1    C5 2863   2.660   1.246   9.245  0.0152  0.0998 -0.2219
  188MPD1     H 2864   2.398   1.227   8.969  3.3868 -0.7847 -3.2427
  188MPD1    H1 2865   2.512   1.176   9.373 -0.9816  1.1293  0.2788
  188MPD1    H2 2866   2.788   1.310   9.085 -0.3267  2.7632  2.2180
  188MPD1    H3 2867   2.732   1.248   9.325 -1.2985  1.1939  0.9293
  188MPD1     N 2868   2.321   1.090   9.202  0.1022 -0.5944  0.3833
  188MPD1    H5 2869   2.299   1.059   9.296  1.9105 -1.9651  0.3613
  188MPD1    N1 2870   2.630   1.321   8.894  0.1815 -0.1561  0.0518
  188MPD1    H6 2871   2.548   1.355   8.844  0.2841  1.6010  1.0800
  188MPD1    H7 2872   2.712   1.381   8.889 -1.7703  2.2193 -3.2210
  189MPD1     C 2873   4.088   2.402   0.487 -0.1642  0.5776 -0.8935
  189MPD1    C1 2874   3.996   2.335   0.570  0.1512  0.7385  0.0645
  189MPD1    C2 2875   3.877   2.398   0.591  0.4614  0.2613 -0.3902
  189MPD1    C3 2876   3.848   2.518   0.525 -0.3887  0.0089  0.2103
  189MPD1    C4 2877   3.933   2.570   0.427  0.4904  0.2515  0.4893
  189MPD1    C5 2878   4.059   2.513   0.419 -0.6573 -0.0235 -0.3194
  189MPD1     H 2879   3.817   2.356   0.672  1.5274  0.3304  0.4282
  189MPD1    H1 2880   3.914   2.654   0.360 -4.7327 -0.7290  0.7604
  189MPD1    H2 2881   4.182   2.349   0.480 -0.2942  0.1529  0.4853
  189MPD1    H3 2882   4.129   2.556   0.347 -1.1230 -3.0270 -2.6002
  189MPD1     N 2883   3.723   2.577   0.547 -0.1968  0.7249 -0.6725
  189MPD1    H5 2884   3.666   2.543   0.624 -1.0614  0.1765 -1.5564
  189MPD1    N1 2885   4.033   2.217   0.646 -0.9754 -1.1006 -0.6335
  189MPD1    H6 2886   4.088   2.158   0.584  0.2279 -1.5884  0.9053
  189MPD1    H7 2887   3.948   2.163   0.663 -1.2309  0.0127  1.5623
  190MPD1     C 2888   2.494   0.723  15.228 -0.1426  0.0356  0.1181
  190MPD1    C1 2889   2.622   0.691  15.191  0.0427  0.5744  0.0285
  190MPD1    C2 2890   2.726   0.755  15.262  0.1570  0.0294  0.4681
  190MPD1    C3 2891   2.698   0.861  15.341 -0.2102 -0.0217  0.5134
  190MPD1    C4 2892   2.570   0.899  15.375 -0.3635  0.4243  0.0293
  190MPD1    C5 2893   2.472   0.817  15.325 -0.2407 -0.6301 -0.4486
  190MPD1     H 2894   2.826   0.713  15.254 -0.0892 -0.5443  0.3803
  190MPD1    H1 2895   2.551   0.986  15.436 -0.5732 -0.8681  1.7977
  190MPD1    H2 2896   2.408   0.676  15.182  0.0981  1.0186 -1.3377
  190MPD1    H3 2897   2.377   0.839  15.372 -0.4114  1.0429 -1.5750
  190MPD1     N 2898   2.805   0.929  15.395 -0.6471  0.4384 -0.1314
  190MPD1    H5 2899   2.898   0.889  15.382 -0.0776  2.6366 -2.8013
  190MPD1    N1 2900   2.637   0.574  15.110  0.0833  0.5740 -0.0758
  190MPD1    H6 2901   2.732   0.573  15.072  0.3335  3.9802  0.4828
  190MPD1    H7 2902   2.573   0.573  15.031  1.7977 -1.9140 -1.4321
  191MPD1     C 2903   2.094   2.700  13.081  0.0430  0.7896 -0.7167
  191MPD1    C1 2904   1.968   2.683  13.039  0.2508  0.5533 -0.1366
  191MPD1    C2 2905   1.918   2.750  12.927 -0.2771  0.2774 -0.5813
  191MPD1    C3 2906   2.004   2.824  12.844 -0.1858 -0.6933 -0.0170
  191MPD1    C4 2907   2.138   2.824  12.873 -0.9360  0.1460  0.0567
  191MPD1    C5 2908   2.181   2.770  12.994  0.1052 -0.0393 -0.5726
  191MPD1     H 2909   1.810   2.742  12.912 -0.0730 -0.7747 -1.4830
  191MPD1    H1 2910   2.213   2.866  12.808  1.3086 -0.3834  2.2812
  191MPD1    H2 2911   2.133   2.655  13.172 -1.6816  0.4908 -0.1088
  191MPD1    H3 2912   2.289   2.766  13.002 -0.1406  1.5066  3.6981
  191MPD1     N 2913   1.943   2.886  12.737  0.0227  0.1102 -0.0096
  191MPD1    H5 2914   1.842   2.888  12.739  0.0052  0.5134 -1.2257
  191MPD1    N1 2915   1.873   2.619  13.123 -0.2972 -0.5100 -0.1333
  191MPD1    H6 2916   1.924   2.543  13.168 -0.3416 -0.9497 -0.8144
  191MPD1    H7 2917   1.790   2.598  13.067 -0.3484  1.1632 -0.6834
  192MPD1     C 2918   1.296   3.632  12.574 -0.1620 -0.2319  0.7950
  192MPD1    C1 2919   1.309   3.519  12.645  0.2044 -0.6839  0.2253
  192MPD1    C2 2920   1.426   3.444  12.632 -0.7680 -0.1212 -0.5655
  192MPD1    C3 2921   1.534   3.482  12.545 -0.1073 -0.3137  0.0576
  192MPD1    C4 2922   1.517   3.602  12.483 -0.3340  0.2098  0.4922
  192MPD1    C5 2923   1.404   3.678  12.498  0.2203 -0.0575 -0.4092
  192MPD1     H 2924   1.432   3.350  12.686 -0.9365  0.3132  0.2033
  192MPD1    H1 2925   1.593   3.643  12.418 -1.1286  0.4119 -0.3186
  192MPD1    H2 2926   1.204   3.688  12.565  1.0863  1.6962  0.0486
  192MPD1    H3 2927   1.385   3.769  12.442  2.1329  0.5738 -0.0285
  192MPD1     N 2928   1.655   3.406  12.523 -0.1487  0.2910 -0.0168
  192MPD1    H5 2929   1.713   3.449  12.451  2.0034  0.5550  1.8589
  192MPD1    N1 2930   1.195   3.458  12.703  0.4791  0.6835 -0.3693
  192MPD1    H6 2931   1.129   3.528  12.737 -0.3475 -0.3858  0.2198
  192MPD1    H7 2932   1.226   3.395  12.776 -2.2755 -0.1098  0.1109
  193MPD1     C 2933   1.932   3.696  17.442 -0.0096  0.4872 -0.1666
  193MPD1    C1 2934   1.906   3.583  17.369 -0.2178 -0.2585  0.1449
  193MPD1    C2 2935   1.916   3.585  17.231  0.1984 -0.8836 -0.5728
  193MPD1    C3 2936   1.955   3.699  17.167 -1.1475 -0.0786  0.2101
  193MPD1    C4 2937   1.981   3.811  17.235 -0.3227 -0.1829 -0.5815
  193MPD1    C5 2938   1.969   3.807  17.370  0.3396 -0.1232 -0.4275
  193MPD1     H 2939   1.881   3.498  17.176  1.3593 -1.0598 -1.0245
  193MPD1    H1 2940   2.012   3.905  17.190  0.7507 -0.1379  0.2649
  193MPD1    H2 2941   1.907   3.701  17.548  1.2703  0.9513  0.1047
  193MPD1    H3 2942   1.985   3.903  17.419  1.3619 -0.3155 -0.3949
  193MPD1     N 2943   1.960   3.707  17.025  0.0441 -0.2192 -0.2409
  193MPD1    H5 2944   1.986   3.795  16.982  0.1790  0.6566  1.6149
  193MPD1    N1 2945   1.835   3.473  17.426 -0.1624  0.3998 -0.2797
  193MPD1    H6 2946   1.838   3.390  17.368 -0.1405  0.5428 -0.4835
  193MPD1    H7 2947   1.866   3.448  17.519 -1.2324  0.7060  0.1616
  194MPD1     C 2948   0.998   0.931  16.752 -0.3508 -0.1548 -0.3860
  194MPD1    C1 2949   0.992   0.965  16.879 -0.6282  0.8111  0.2162
  194MPD1    C2 2950   0.903   0.900  16.954 -0.2044  0.5248 -0.2332
  194MPD1    C3 2951   0.834   0.784  16.913  0.7251 -0.0845  0.0652
  194MPD1    C4 2952   0.867   0.734  16.788 -0.1357  0.3519 -0.8310
  194MPD1    C5 2953   0.940   0.813  16.703 -0.1631 -0.2925  0.5868
  194MPD1     H 2954   0.894   0.931  17.058  2.2773  0.4699 -0.0163
  194MPD1    H1 2955   0.820   0.640  16.765  2.4970 -1.1904  0.0452
  194MPD1    H2 2956   1.071   0.983  16.691  0.6661 -0.6577  0.3934
  194MPD1    H3 2957   0.952   0.767  16.605  1.5874  1.4135 -0.0042
  194MPD1     N 2958   0.733   0.715  16.979  0.0556 -0.0830  0.1293
  194MPD1    H5 2959   0.672   0.657  16.922 -0.6774 -0.4865  1.3145
  194MPD1    N1 2960   1.048   1.082  16.924 -0.3973  0.1940 -0.8096
  194MPD1    H6 2961   1.133   1.109  16.874 -0.4600 -0.4555 -1.2694
  194MPD1    H7 2962   1.075   1.065  17.020 -0.2622 -2.4027 -1.3042
  195MPD1     C 2963   0.850   2.974   0.340  0.3847  0.5110  0.0623
  195MPD1    C1 2964   0.969   3.029   0.291  0.0153 -0.2476  0.0817
  195MPD1    C2 2965   1.073   2.943   0.267  0.2129 -0.6389 -0.3917
  195MPD1    C3 2966   1.068   2.811   0.317 -0.7701  0.0324  0.2397
  195MPD1    C4 2967   0.960   2.774   0.386  0.3406  0.7345  0.5800
  195MPD1    C5 2968   0.850   2.853   0.400  0.4129 -0.4616  0.6808
  195MPD1     H 2969   1.152   2.984   0.206  1.7474 -0.0399  2.0020
  195MPD1    H1 2970   0.957   2.672   0.422  0.6139  0.1746 -0.9875
  195MPD1    H2 2971   0.757   3.028   0.346 -0.1820 -0.5055  0.3792
  195MPD1    H3 2972   0.766   2.813   0.456  0.4469 -3.2755 -1.2985
  195MPD1     N 2973   1.173   2.715   0.289 -0.2255 -0.7717  0.6573
  195MPD1    H5 2974   1.152   2.624   0.327  1.3462 -1.3456  0.1382
  195MPD1    N1 2975   0.981   3.158   0.240 -0.0409 -0.3858 -0.2328
  195MPD1    H6 2976   0.935   3.228   0.297 -1.2248 -1.1058 -0.3106
  195MPD1    H7 2977   1.079   3.187   0.234  0.5877 -2.4102  0.2677
  196MPD1     C 2978   0.538   0.440   0.028 -0.4520 -0.5974 -0.2521
  196MPD1    C1 2979   0.581   0.572   0.004 -0.3828 -0.2695 -0.5447
  196MPD1    C2 2980   0.554   0.660   0.107 -0.2522 -0.2018 -0.3310
  196MPD1    C3 2981   0.490   0.629   0.222  0.3668 -0.4454 -0.3470
  196MPD1    C4 2982   0.446   0.496   0.237 -0.1667  0.0008 -0.1133
  196MPD1    C5 2983   0.474   0.398   0.146 -0.6166  0.0550 -0.5210
  196MPD1     H 2984   0.589   0.763   0.104 -1.1606  0.1835  1.7308
  196MPD1    H1 2985   0.396   0.474   0.331 -0.6433 -0.3796 -0.4573
  196MPD1    H2 2986   0.572   0.366  17.650  0.3713 -0.8050  0.3617
  196MPD1    H3 2987   0.448   0.295   0.168  0.0499  0.1384  0.6365
  196MPD1     N 2988   0.451   0.718   0.327  1.0018 -0.1015  0.5553
  196MPD1    H5 2989   0.406   0.665   0.402 -0.1179  2.6468  1.8621
  196MPD1    N1 2990   0.675   0.608  17.599 -0.1425 -0.6500  0.1502
  196MPD1    H6 2991   0.663   0.551  17.516  0.3443  1.0377 -1.0731
  196MPD1    H7 2992   0.651   0.704  17.575 -0.3560 -0.5857  0.6325
  197MPD1     C 2993   0.288   4.433  17.392  0.1853 -0.1732 -0.3046
  197MPD1    C1 2994   0.326   4.315  17.327 -0.0200  0.7923 -0.5643
  197MPD1    C2 2995   0.375   4.321  17.204  0.2062  0.3868  0.5463
  197MPD1    C3 2996   0.384   4.445  17.139  0.4045 -0.0224  0.4550
  197MPD1    C4 2997   0.338   4.565  17.199 -0.4192  0.1301 -0.5739
  197MPD1    C5 2998   0.295   4.558  17.330 -0.7484  0.2276  0.0034
  197MPD1     H 2999   0.414   4.233  17.153 -1.1893 -0.6160  1.1844
  197MPD1    H1 3000   0.347   4.661  17.151 -3.3404  1.2684  1.1435
  197MPD1    H2 3001   0.254   4.423  17.495 -0.1840  0.3878 -0.3726
  197MPD1    H3 3002   0.264   4.646  17.384  0.6027 -0.0027  1.1564
  197MPD1     N 3003   0.424   4.455  17.000 -0.8167 -0.3606  0.0738
  197MPD1    H5 3004   0.452   4.551  16.981  1.1056 -0.9892 -0.2339
  197MPD1    N1 3005   0.295   4.191  17.387 -0.1345 -0.4801  0.3234
  197MPD1    H6 3006   0.365   4.123  17.358 -1.0634 -0.9445 -0.8170
  197MPD1    H7 3007   0.303   4.204  17.488 -1.4701  2.0307  0.1057
  198MPD1     C 3008   1.812   2.432  15.579  0.5210  0.8219  0.2969
  198MPD1    C1 3009   1.851   2.496  15.696 -0.8307 -0.1529 -0.4336
  198MPD1    C2 3010   1.979   2.546  15.705 -0.0535  0.0157 -0.1268
  198MPD1    C3 3011   2.073   2.520  15.603  0.0396 -0.9972  0.1508
  198MPD1    C4 3012   2.039   2.456  15.487 -0.0839  0.1818  0.0591
  198MPD1    C5 3013   1.905   2.414  15.483  0.4193 -0.7769 -0.6066
  198MPD1     H 3014   2.012   2.594  15.796 -0.5596 -0.5844  0.3675
  198MPD1    H1 3015   2.091   2.445  15.393 -0.8528 -1.3671 -0.1934
  198MPD1    H2 3016   1.711   2.403  15.550  0.1916  1.4868  0.7753
  198MPD1    H3 3017   1.874   2.366  15.392 -1.7747 -1.1173  0.3329
  198MPD1     N 3018   2.209   2.544  15.624 -0.5196  0.0251  0.3603
  198MPD1    H5 3019   2.221   2.575  15.720 -0.4015 -1.6059  0.8623
  198MPD1    N1 3020   1.754   2.538  15.790  0.3857  0.6473  0.2575
  198MPD1    H6 3021   1.797   2.567  15.878 -0.3899 -0.6745  1.0784
  198MPD1    H7 3022   1.684   2.466  15.810  2.0517 -1.1881 -0.4350
  199MPD1     C 3023   0.811   1.999   9.525  0.1204 -0.6274  0.0226
  199MPD1    C1 3024   0.708   1.964   9.611  0.4001  0.3949 -0.6601
  199MPD1    C2 3025   0.588   2.036   9.601 -0.1019  0.5437  0.3877
  199MPD1    C3 3026   0.580   2.144   9.506 -0.8374 -0.2963  0.3574
  199MPD1    C4 3027   0.688   2.170   9.427 -1.1424  0.3540  0.7186
  199MPD1    C5 3028   0.800   2.096   9.433 -0.2030 -0.1166  0.5764
  199MPD1     H 3029   0.501   1.999   9.654  1.9658 -1.2618  2.4845
  199MPD1    H1 3030   0.678   2.244   9.348 -0.7207 -1.5251 -1.1121
  199MPD1    H2 3031   0.903   1.941   9.524  0.0091 -0.8233  2.2579
  199MPD1    H3 3032   0.890   2.120   9.377 -0.5739  0.5586  0.2644
  199MPD1     N 3033   0.466   2.218   9.485 -0.5108  0.4737 -0.5850
  199MPD1    H5 3034   0.481   2.296   9.423 -1.8556  0.1181 -1.3509
  199MPD1    N1 3035   0.727   1.849   9.693 -0.4263  0.5365  0.0393
  199MPD1    H6 3036   0.672   1.858   9.778  0.2980 -0.8541  0.6500
  199MPD1    H7 3037   0.823   1.819   9.710 -0.0345  2.1383  0.6783
  200MPD1     C 3038   3.304   4.124  15.256 -0.5277 -0.0745 -0.9424
  200MPD1    C1 3039   3.399   4.058  15.312 -0.2147  0.1297  0.3529
  200MPD1    C2 3040   3.492   3.991  15.232 -0.1310  0.0127 -0.1925
  200MPD1    C3 3041   3.473   3.972  15.096 -0.1860  0.4435  0.1699
  200MPD1    C4 3042   3.367   4.044  15.044 -0.4882 -0.3506 -0.2273
  200MPD1    C5 3043   3.288   4.120  15.122 -0.0682  0.2470 -0.5526
  200MPD1     H 3044   3.581   3.957  15.284  0.1502  2.7637  1.0905
  200MPD1    H1 3045   3.324   4.043  14.944 -0.7361 -2.8660 -0.0959
  200MPD1    H2 3046   3.245   4.190  15.318  1.1132  1.6807 -1.2300
  200MPD1    H3 3047   3.203   4.168  15.075  0.3474  0.2902 -1.2634
  200MPD1     N 3048   3.550   3.883  15.022 -0.4051  0.2148 -0.1168
  200MPD1    H5 3049   3.630   3.838  15.066  1.5472  0.8828 -2.9984
  200MPD1    N1 3050   3.421   4.084  15.447 -0.2624  0.0937 -0.4563
  200MPD1    H6 3051   3.335   4.100  15.499 -0.9009  2.1190 -2.1472
  200MPD1    H7 3052   3.474   4.012  15.497  1.4499  1.8093  0.1835
  201MPD1     C 3053   0.782   2.606  12.649 -0.0210  0.0948 -0.3907
  201MPD1    C1 3054   0.787   2.482  12.592  0.2494  0.0981 -0.4171
  201MPD1    C2 3055   0.843   2.385  12.666 -0.2387 -0.7072 -1.1307
  201MPD1    C3 3056   0.904   2.407  12.794  0.1895 -0.3518 -0.3355
  201MPD1    C4 3057   0.891   2.525  12.850 -0.3776  0.6712 -0.0662
  201MPD1    C5 3058   0.835   2.623  12.775  0.3314 -0.7913  0.0707
  201MPD1     H 3059   0.834   2.286  12.624  0.8518 -1.3609  0.1594
  201MPD1    H1 3060   0.909   2.547  12.954 -1.7329  0.6056  0.1821
  201MPD1    H2 3061   0.748   2.696  12.600  1.0850  0.9876  0.4611
  201MPD1    H3 3062   0.816   2.722  12.815  1.1957  0.3477 -2.3553
  201MPD1     N 3063   0.967   2.308  12.865 -0.6053 -0.1165  0.0447
  201MPD1    H5 3064   0.969   2.213  12.827 -1.6229 -0.1878  0.1766
  201MPD1    N1 3065   0.762   2.455  12.454  0.2153 -0.0099 -0.1595
  201MPD1    H6 3066   0.743   2.356  12.443  0.4707 -0.1403  0.5840
  201MPD1    H7 3067   0.679   2.499  12.415  1.3069  0.3661 -2.0555
  202MPD1     C 3068   1.955   2.130  11.143 -0.0717 -0.3497  0.0544
  202MPD1    C1 3069   2.047   2.066  11.063  0.0515 -0.1708  0.3446
  202MPD1    C2 3070   1.989   1.977  10.978  0.0835  0.0065  0.0744
  202MPD1    C3 3071   1.858   1.970  10.937 -0.2751 -0.1887  0.1173
  202MPD1    C4 3072   1.771   2.050  11.009  0.2834 -0.3004 -0.3993
  202MPD1    C5 3073   1.824   2.127  11.105 -0.1252 -0.1466 -0.0102
  202MPD1     H 3074   2.057   1.916  10.920  1.0941 -0.4850  1.7992
  202MPD1    H1 3075   1.665   2.039  10.992  0.4205 -1.1780 -0.7067
  202MPD1    H2 3076   1.967   2.195  11.229 -0.9273  0.4273 -0.4200
  202MPD1    H3 3077   1.745   2.184  11.155 -0.6370  0.4425 -1.5024
  202MPD1     N 3078   1.816   1.902  10.817 -0.7155  0.0775  0.3019
  202MPD1    H5 3079   1.717   1.882  10.805 -0.8505 -0.0134  1.6597
  202MPD1    N1 3080   2.181   2.034  11.103  0.3156 -0.4205  0.7961
  202MPD1    H6 3081   2.228   2.117  11.137  1.6366  0.1210 -2.4053
  202MPD1    H7 3082   2.237   1.996  11.027 -1.5216 -1.1667 -0.2033
  203MPD1     C 3083   4.271   3.196  11.982  0.4117  0.3816 -0.3079
  203MPD1    C1 3084   4.309   3.069  11.942  0.1153 -0.1463 -0.2024
  203MPD1    C2 3085   4.360   2.983  12.028 -0.1008 -0.4125 -0.0178
  203MPD1    C3 3086   4.369   3.013  12.164 -0.5123 -0.2209 -0.2932
  203MPD1    C4 3087   4.322   3.129  12.209 -0.1699  0.6070 -0.0446
  203MPD1    C5 3088   4.264   3.216  12.118 -0.3729  0.3873 -0.4236
  203MPD1     H 3089   4.396   2.888  11.988 -1.1676 -0.5238 -0.7032
  203MPD1    H1 3090   4.324   3.159  12.313 -1.5780 -1.2249  0.5118
  203MPD1    H2 3091   4.230   3.276  11.921 -0.9664  0.1683  0.3371
  203MPD1    H3 3092   4.227   3.310  12.158  0.4018  0.1959  0.7566
  203MPD1     N 3093   4.444   2.924  12.242 -0.7347 -0.4714 -0.7213
  203MPD1    H5 3094   4.444   2.827  12.212  2.0649 -0.1658 -1.7142
  203MPD1    N1 3095   4.340   3.058  11.800  0.4626  0.1431 -0.4869
  203MPD1    H6 3096   4.278   3.118  11.746 -1.2033  0.1791  1.4513
  203MPD1    H7 3097   4.339   2.966  11.756  0.6814  0.1704 -0.5455
  204MPD1     C 3098   3.961   3.815   0.437  0.6258 -0.1525 -0.8292
  204MPD1    C1 3099   3.839   3.832   0.371  0.0525 -0.7805 -0.4903
  204MPD1    C2 3100   3.850   3.840   0.235 -0.1744 -0.2275 -0.2989
  204MPD1    C3 3101   3.971   3.817   0.169 -0.7323 -0.1479  0.0776
  204MPD1    C4 3102   4.087   3.794   0.236  0.2872 -0.6643 -0.2106
  204MPD1    C5 3103   4.079   3.789   0.367 -0.1846 -0.1949 -0.0108
  204MPD1     H 3104   3.768   3.872   0.172 -0.5053  0.4415  0.4755
  204MPD1    H1 3105   4.180   3.768   0.186  1.3068  0.2767  1.2052
  204MPD1    H2 3106   3.966   3.816   0.546  0.6302 -0.0983 -0.8299
  204MPD1    H3 3107   4.167   3.756   0.421  1.2685  0.3964 -1.9880
  204MPD1     N 3108   3.961   3.833   0.026 -0.3094 -1.0958 -0.6530
  204MPD1    H5 3109   3.873   3.855  17.674 -0.4241  0.0253  0.1121
  204MPD1    N1 3110   3.722   3.870   0.438 -0.6461  0.3202  0.1665
  204MPD1    H6 3111   3.702   3.835   0.532  1.4871  0.5220  0.6858
  204MPD1    H7 3112   3.636   3.858   0.385 -0.5453 -1.4384  0.4038
  205MPD1     C 3113   4.387   3.403  16.653 -0.3354  0.4174 -0.3975
  205MPD1    C1 3114   4.326   3.285  16.693 -0.0720 -0.3340 -0.0747
  205MPD1    C2 3115   4.208   3.284  16.769  0.0344 -1.1723 -0.1027
  205MPD1    C3 3116   4.137   3.408  16.782 -0.1421  0.3936 -0.3722
  205MPD1    C4 3117   4.200   3.524  16.734 -0.0140 -0.0920  0.5695
  205MPD1    C5 3118   4.322   3.523  16.682 -0.8198  0.1132  0.1802
  205MPD1     H 3119   4.163   3.187  16.787  1.0993 -1.1179  2.9095
  205MPD1    H1 3120   4.143   3.616  16.741  0.1534  0.1595 -1.2520
  205MPD1    H2 3121   4.487   3.403  16.610 -0.7206 -1.6486 -1.2684
  205MPD1    H3 3122   4.375   3.615  16.661  0.1813 -0.7401 -1.0744
  205MPD1     N 3123   4.019   3.420  16.863 -0.4957 -0.3113  0.2840
  205MPD1    H5 3124   3.997   3.517  16.886 -1.2318 -0.2528 -0.6802
  205MPD1    N1 3125   4.397   3.163  16.669 -0.0264  0.3925  0.2568
  205MPD1    H6 3126   4.463   3.173  16.593 -0.0934 -2.6003 -0.2080
  205MPD1    H7 3127   4.334   3.083  16.660 -0.5712  0.8629 -0.1874
  206MPD1     C 3128   0.147   0.788  16.904  0.9806  0.0958 -0.1646
  206MPD1    C1 3129   0.163   0.908  16.846 -0.1750  0.2767 -0.4817
  206MPD1    C2 3130   0.122   0.927  16.716  1.3608  1.1210  0.2237
  206MPD1    C3 3131   0.023   0.842  16.671  0.0187 -0.1951  0.2803
  206MPD1    C4 3132   4.716   0.728  16.743  0.2708  0.2061 -0.3933
  206MPD1    C5 3133   0.061   0.696  16.855 -0.0257  0.1657  0.0462
  206MPD1     H 3134   0.151   1.020  16.668  0.8780  2.9887  3.5127
  206MPD1    H1 3135   4.650   0.655  16.697 -2.2646  0.9133  2.0830
  206MPD1    H2 3136   0.201   0.765  16.995  0.0394  1.9385  0.8780
  206MPD1    H3 3137   0.056   0.599  16.902  0.0139 -0.1903 -0.6945
  206MPD1     N 3138   4.663   0.863  16.558  0.2594  0.0962  0.2873
  206MPD1    H5 3139   4.614   0.782  16.520 -1.5624  0.6898  1.4081
  206MPD1    N1 3140   0.264   0.994  16.886  0.2851 -0.0499  0.4753
  206MPD1    H6 3141   0.292   0.993  16.983 -0.5703 -3.4268  0.6921
  206MPD1    H7 3142   0.234   1.091  16.882  1.4120  0.3450  1.5618
  207MPD1     C 3143   1.604   1.973   9.698 -0.4002 -0.2689 -0.2057
  207MPD1    C1 3144   1.537   2.059   9.784  1.2983 -0.0857 -0.2181
  207MPD1    C2 3145   1.606   2.170   9.829 -0.8584  0.0444 -0.2326
  207MPD1    C3 3146   1.717   2.216   9.770  0.6943 -1.2146 -0.3149
  207MPD1    C4 3147   1.776   2.136   9.670  0.3779 -0.0808 -0.3500
  207MPD1    C5 3148   1.729   2.010   9.648  0.6826  0.6571  0.2314
  207MPD1     H 3149   1.554   2.222   9.909 -0.6800 -2.1297  1.3150
  207MPD1    H1 3150   1.868   2.152   9.615  1.6149  0.0773  1.7515
  207MPD1    H2 3151   1.555   1.880   9.672 -0.3986 -0.5115  0.6569
  207MPD1    H3 3152   1.781   1.944   9.578 -1.4713 -1.7415  0.8862
  207MPD1     N 3153   1.789   2.330   9.820 -0.1799 -0.5530  1.1308
  207MPD1    H5 3154   1.879   2.350   9.777  0.1166 -0.2500  1.8869
  207MPD1    N1 3155   1.420   2.015   9.846 -0.4166 -0.4990  0.2709
  207MPD1    H6 3156   1.363   2.093   9.878 -0.1142 -0.2736  0.2580
  207MPD1    H7 3157   1.364   1.966   9.777 -0.1540  1.0372 -1.0172
  208MPD1     C 3158   4.220   2.455  16.787 -0.0507  0.3204  0.3121
  208MPD1    C1 3159   4.160   2.569  16.847  0.4914  0.5772 -0.9829
  208MPD1    C2 3160   4.173   2.582  16.982 -0.5139  0.7534 -0.5394
  208MPD1    C3 3161   4.232   2.484  17.061 -0.4162 -0.4662  0.2939
  208MPD1    C4 3162   4.281   2.369  17.001 -0.5827 -0.3608 -0.3036
  208MPD1    C5 3163   4.281   2.366  16.866  0.4677  0.2382 -0.0740
  208MPD1     H 3164   4.122   2.666  17.028  0.7257  0.8934  0.5728
  208MPD1    H1 3165   4.338   2.290  17.048 -1.6681 -0.0214  1.5724
  208MPD1    H2 3166   4.228   2.438  16.680 -1.5199  2.5251 -0.1353
  208MPD1    H3 3167   4.323   2.272  16.831  0.4702 -1.0309  3.4133
  208MPD1     N 3168   4.229   2.503  17.204 -0.7332 -0.3937 -0.1401
  208MPD1    H5 3169   4.177   2.583  17.239  0.4572 -0.6169  2.1220
  208MPD1    N1 3170   4.113   2.670  16.768  0.0109 -0.2536 -0.2278
  208MPD1    H6 3171   4.092   2.637  16.674  0.2457 -1.5250  0.1676
  208MPD1    H7 3172   4.034   2.718  16.811  0.8623  2.2344 -1.4377
  209MPD1     C 3173   1.399   2.190  10.980 -0.3424  0.2100  0.6575
  209MPD1    C1 3174   1.484   2.229  10.875  0.4249 -0.1307  0.8142
  209MPD1    C2 3175   1.572   2.329  10.902  0.5623 -0.3498  0.7551
  209MPD1    C3 3176   1.578   2.388  11.029 -0.0833 -0.0046 -0.6740
  209MPD1    C4 3177   1.506   2.346  11.128  0.3568 -0.3677 -0.2587
  209MPD1    C5 3178   1.417   2.247  11.104 -0.1412 -0.4049  0.1811
  209MPD1     H 3179   1.638   2.352  10.819  0.7950  1.2264  1.3798
  209MPD1    H1 3180   1.520   2.390  11.226 -0.8565  0.2479 -0.3628
  209MPD1    H2 3181   1.327   2.111  10.970 -0.5427  0.8091 -2.7552
  209MPD1    H3 3182   1.363   2.210  11.190  3.3400 -2.1573  1.6395
  209MPD1     N 3183   1.688   2.482  11.042  0.2022 -0.6076  0.2606
  209MPD1    H5 3184   1.751   2.500  10.964  1.0356  1.8064  1.5003
  209MPD1    N1 3185   1.460   2.190  10.745 -0.0524  0.3684  0.2945
  209MPD1    H6 3186   1.546   2.196  10.692  1.1676  2.1566  2.4644
  209MPD1    H7 3187   1.424   2.095  10.742  2.3739 -0.5027 -0.8762
  210MPD1     C 3188   2.411   2.736  11.762 -0.5497  0.6761  0.2026
  210MPD1    C1 3189   2.276   2.773  11.767  0.5653  0.0195  0.1468
  210MPD1    C2 3190   2.206   2.813  11.655 -0.8990 -0.2099 -0.2733
  210MPD1    C3 3191   2.261   2.758  11.539  0.4430 -0.3711 -0.2165
  210MPD1    C4 3192   2.391   2.716  11.525  0.0164 -0.2740 -0.1519
  210MPD1    C5 3193   2.463   2.705  11.643  0.4485 -0.1229 -0.0985
  210MPD1     H 3194   2.111   2.864  11.660 -1.2059 -0.8344  0.3371
  210MPD1    H1 3195   2.446   2.697  11.433 -1.1353 -0.3595 -0.8255
  210MPD1    H2 3196   2.472   2.731  11.851  0.2839  3.2938 -0.2467
  210MPD1    H3 3197   2.571   2.699  11.633  0.4393 -0.0767 -0.2243
  210MPD1     N 3198   2.198   2.759  11.412  0.1668 -0.0430 -0.0171
  210MPD1    H5 3199   2.256   2.720  11.339 -1.0156 -0.7851 -0.5553
  210MPD1    N1 3200   2.214   2.795  11.893 -0.6116 -0.8785 -0.3525
  210MPD1    H6 3201   2.240   2.725  11.963  1.0554  0.1037  0.0247
  210MPD1    H7 3202   2.114   2.803  11.878 -0.5381  1.0799  0.3424
  211MPD1     C 3203   0.281   2.053  15.827 -0.1520  0.4943 -0.1408
  211MPD1    C1 3204   0.145   2.053  15.832 -0.3721 -0.0469  0.7520
  211MPD1    C2 3205   0.088   2.112  15.935  0.3071  0.2466  0.6233
  211MPD1    C3 3206   0.150   2.194  16.022  0.1310  0.0387 -0.2219
  211MPD1    C4 3207   0.285   2.208  16.008 -0.5840  0.1309  0.3940
  211MPD1    C5 3208   0.349   2.134  15.916 -0.9671  0.0037 -0.2812
  211MPD1     H 3209   4.702   2.108  15.943  0.2829  0.8303  0.5587
  211MPD1    H1 3210   0.346   2.268  16.075  1.1340  0.3647 -1.3451
  211MPD1    H2 3211   0.337   2.009  15.745  1.6734 -2.9929  2.9972
  211MPD1    H3 3212   0.456   2.147  15.905 -0.6766 -0.3223  2.1642
  211MPD1     N 3213   0.068   2.251  16.122 -0.3846 -0.6717  0.3016
  211MPD1    H5 3214   4.694   2.221  16.128 -0.2048 -1.3771 -0.2981
  211MPD1    N1 3215   0.074   1.992  15.731  0.0457  0.4515 -0.1836
  211MPD1    H6 3216   4.702   1.972  15.761 -0.7537  0.7348 -2.5317
  211MPD1    H7 3217   0.130   1.918  15.688 -3.6131 -1.9430 -0.7823
  212MPD1     C 3218   4.468   1.216  17.027 -0.4200 -0.0377 -0.4431
  212MPD1    C1 3219   4.483   1.141  16.912  0.8064  0.5407 -0.9342
  212MPD1    C2 3220   4.390   1.042  16.887  0.4837 -0.0608 -0.9553
  212MPD1    C3 3221   4.291   1.013  16.979 -0.1727  0.0461  0.2734
  212MPD1    C4 3222   4.283   1.093  17.090  0.0416  0.3580  0.8229
  212MPD1    C5 3223   4.370   1.199  17.111 -0.4215  0.3472  0.0153
  212MPD1     H 3224   4.405   0.980  16.799 -0.1983 -0.1721 -0.9917
  212MPD1    H1 3225   4.205   1.071  17.162 -0.4691 -0.7933 -0.0731
  212MPD1    H2 3226   4.540   1.292  17.055  0.1692 -0.8470  0.2471
  212MPD1    H3 3227   4.359   1.268  17.194  1.2743 -1.3080  1.6107
  212MPD1     N 3228   4.199   0.911  16.962 -0.4135  0.2373 -0.0056
  212MPD1    H5 3229   4.126   0.908  17.033  0.3354 -0.6048  0.7168
  212MPD1    N1 3230   4.572   1.171  16.817 -0.0638 -0.4387 -0.1342
  212MPD1    H6 3231   4.610   1.089  16.769  2.3270  0.5722  0.0203
  212MPD1    H7 3232   4.652   1.222  16.855 -0.8693  0.4798  0.3250
  213MPD1     C 3233   1.931   1.522  15.603  0.6473 -0.4089 -0.4717
  213MPD1    C1 3234   1.858   1.454  15.512  0.0511  0.2211 -0.2343
  213MPD1    C2 3235   1.785   1.549  15.436 -0.0298  0.5746 -0.2574
  213MPD1    C3 3236   1.814   1.686  15.425  0.3760 -0.4392 -0.3597
  213MPD1    C4 3237   1.909   1.737  15.508  0.3007 -0.3615  0.0545
  213MPD1    C5 3238   1.966   1.653  15.595  0.0175  0.8180  0.0888
  213MPD1     H 3239   1.700   1.519  15.375 -0.7661  0.1553  0.9766
  213MPD1    H1 3240   1.947   1.836  15.486 -0.9582 -0.3512 -2.1232
  213MPD1    H2 3241   1.978   1.461  15.679 -0.9345 -0.5176  0.4314
  213MPD1    H3 3242   2.051   1.682  15.656  0.1392 -1.6775  1.1122
  213MPD1     N 3243   1.735   1.767  15.339 -0.5218  0.2820  0.1426
  213MPD1    H5 3244   1.658   1.730  15.286 -0.9627  2.3985 -0.6838
  213MPD1    N1 3245   1.805   1.327  15.549  0.3165 -0.7829  0.3928
  213MPD1    H6 3246   1.758   1.282  15.470  1.0570 -1.3073  0.2498
  213MPD1    H7 3247   1.878   1.267  15.585  1.1000 -0.8691 -1.3770
  214MPD1     C 3248   1.343   1.222  14.896  0.5125  0.3723  0.2504
  214MPD1    C1 3249   1.366   1.262  15.031 -1.0339  0.2922 -0.5372
  214MPD1    C2 3250   1.408   1.391  15.056 -0.0715  0.0779  0.5782
  214MPD1    C3 3251   1.436   1.478  14.954 -0.1074  0.1161 -0.3028
  214MPD1    C4 3252   1.403   1.448  14.824  0.4399  0.1658  0.3098
  214MPD1    C5 3253   1.360   1.318  14.793 -1.0458  0.1749 -0.3480
  214MPD1     H 3254   1.427   1.411  15.161  2.4626 -1.3519  0.4046
  214MPD1    H1 3255   1.418   1.512  14.739 -0.2543 -0.1080 -0.0211
  214MPD1    H2 3256   1.312   1.120  14.879 -0.7712  0.5891  1.2641
  214MPD1    H3 3257   1.347   1.286  14.691  0.5672  1.6059 -1.0009
  214MPD1     N 3258   1.477   1.608  14.980  0.1506 -0.2655  0.1004
  214MPD1    H5 3259   1.478   1.668  14.897 -0.5681 -0.7012 -0.2234
  214MPD1    N1 3260   1.357   1.173  15.136  0.0267  0.7614  0.5419
  214MPD1    H6 3261   1.365   1.218  15.227  1.8787 -1.1537  1.3378
  214MPD1    H7 3262   1.271   1.118  15.134  1.5258 -1.5759 -0.1300
  215MPD1     C 3263   1.020   2.477  11.208 -0.2976 -0.0559  0.4618
  215MPD1    C1 3264   0.996   2.577  11.299 -0.6438 -0.1882  0.3386
  215MPD1    C2 3265   1.082   2.680  11.316  0.1016 -0.3574  0.3742
  215MPD1    C3 3266   1.208   2.669  11.265  0.0448 -0.3158  0.0952
  215MPD1    C4 3267   1.235   2.569  11.178  0.2428 -0.7058  0.7193
  215MPD1    C5 3268   1.141   2.467  11.156  0.0313  0.2450 -0.5073
  215MPD1     H 3269   1.054   2.766  11.377  1.0659  0.0281  0.2783
  215MPD1    H1 3270   1.332   2.558  11.131 -1.2814 -0.3411 -2.5128
  215MPD1    H2 3271   0.951   2.395  11.199  0.0066  0.0955 -3.5964
  215MPD1    H3 3272   1.170   2.381  11.096 -1.7554 -0.9431  0.3392
  215MPD1     N 3273   1.295   2.774  11.291 -0.7653  0.2223  0.2254
  215MPD1    H5 3274   1.271   2.840  11.365  1.8419  2.4438 -0.8980
  215MPD1    N1 3275   0.856   2.589  11.339  0.9916 -0.1839 -0.0720
  215MPD1    H6 3276   0.822   2.494  11.352  0.8872 -0.0964  0.3100
  215MPD1    H7 3277   0.839   2.645  11.423  3.2150 -0.8101  0.8212
  216MPD1     C 3278   4.419   0.684  17.003  0.6459  0.4378 -0.0546
  216MPD1    C1 3279   4.346   0.676  17.117  1.1278 -0.0247 -0.8988
  216MPD1    C2 3280   4.300   0.551  17.148 -0.1259 -0.3496  0.1647
  216MPD1    C3 3281   4.281   0.452  17.056  0.0851 -0.3003 -0.4472
  216MPD1    C4 3282   4.349   0.468  16.939 -0.1689 -0.0132 -0.0978
  216MPD1    C5 3283   4.426   0.579  16.912 -0.5630  0.2306 -0.4254
  216MPD1     H 3284   4.244   0.532  17.239  1.9146 -0.8995  1.3016
  216MPD1    H1 3285   4.348   0.388  16.865  0.9311  1.8796 -2.1444
  216MPD1    H2 3286   4.479   0.773  16.986  0.5611  0.5801  0.3834
  216MPD1    H3 3287   4.486   0.584  16.822 -1.5689  0.1366 -1.1008
  216MPD1     N 3288   4.211   0.332  17.099 -0.4371  0.0722  0.1103
  216MPD1    H5 3289   4.172   0.335  17.193  0.5365  0.2880  0.5069
  216MPD1    N1 3290   4.338   0.789  17.207  0.3583  0.6018 -0.3021
  216MPD1    H6 3291   4.252   0.808  17.258  0.6633  1.5182 -0.1236
  216MPD1    H7 3292   4.371   0.873  17.160  1.7053  0.0589 -0.3190
  217MPD1     C 3293   1.881   1.127   8.747 -0.4440 -0.2329  0.7556
  217MPD1    C1 3294   1.756   1.168   8.690 -0.0160 -0.2296 -0.2109
  217MPD1    C2 3295   1.723   1.298   8.673 -0.6277  0.0202 -0.0512
  217MPD1    C3 3296   1.808   1.390   8.734 -0.2059  0.9795 -0.4959
  217MPD1    C4 3297   1.927   1.355   8.795  0.0291 -0.1429  0.2124
  217MPD1    C5 3298   1.969   1.223   8.790 -0.1629  0.1960  0.4368
  217MPD1     H 3299   1.629   1.334   8.633 -1.6947 -2.6566  0.0368
  217MPD1    H1 3300   1.997   1.432   8.824 -0.5293  0.8535 -1.1232
  217MPD1    H2 3301   1.911   1.023   8.748  2.6021  0.6646  1.2499
  217MPD1    H3 3302   2.069   1.188   8.813 -0.2491 -0.1300  0.3139
  217MPD1     N 3303   1.773   1.525   8.745  0.4877 -0.0287 -0.0854
  217MPD1    H5 3304   1.831   1.582   8.806 -2.6060  1.2164  1.7354
  217MPD1    N1 3305   1.676   1.065   8.629 -0.0467 -0.3830 -0.1344
  217MPD1    H6 3306   1.576   1.084   8.629 -0.2258 -1.2993  0.7174
  217MPD1    H7 3307   1.692   0.979   8.680 -1.2353  1.2644  3.0362
  218MPD1     C 3308   0.647   3.275  12.606 -0.2056  0.1864  0.2632
  218MPD1    C1 3309   0.729   3.383  12.631  0.4280 -0.7362 -0.4449
  218MPD1    C2 3310   0.859   3.343  12.667  0.7726 -0.0614  0.5375
  218MPD1    C3 3311   0.903   3.211  12.677  0.5715  0.2654  0.2690
  218MPD1    C4 3312   0.810   3.108  12.667 -0.0598 -0.3865 -0.5093
  218MPD1    C5 3313   0.691   3.147  12.630 -0.5845  0.0494 -0.1216
  218MPD1     H 3314   0.924   3.429  12.675  0.9463  0.0138 -1.7374
  218MPD1    H1 3315   0.829   3.002  12.671 -0.9180 -0.5579 -1.0896
  218MPD1    H2 3316   0.546   3.294  12.574 -0.4844  1.9984  2.1916
  218MPD1    H3 3317   0.618   3.068  12.614  0.9647 -1.4245  0.2217
  218MPD1     N 3318   1.044   3.188  12.688  0.5894 -0.2940  0.4650
  218MPD1    H5 3319   1.110   3.263  12.670  0.2191  0.2676  1.4197
  218MPD1    N1 3320   0.697   3.514  12.583  0.5796 -0.5419 -0.1422
  218MPD1    H6 3321   0.596   3.525  12.583  0.5154 -1.0595  1.7226
  218MPD1    H7 3322   0.747   3.581  12.642  1.3786 -1.5773  0.3590
  219MPD1     C 3323   1.336   2.930  11.917  0.1193  0.6482 -0.2495
  219MPD1    C1 3324   1.445   3.005  11.962 -0.3365 -0.3230 -0.2107
  219MPD1    C2 3325   1.432   3.061  12.083 -0.6549 -0.1429  0.0918
  219MPD1    C3 3326   1.327   3.023  12.174  0.0112 -0.0787  0.3372
  219MPD1    C4 3327   1.225   2.943  12.130  0.2249  0.4513 -0.0918
  219MPD1    C5 3328   1.234   2.892  12.002 -0.0886  0.3775 -0.1877
  219MPD1     H 3329   1.511   3.130  12.111  0.4746 -1.2352 -0.3688
  219MPD1    H1 3330   1.138   2.908  12.185  0.7306 -0.2771  0.2328
  219MPD1    H2 3331   1.337   2.882  11.820 -1.4444 -3.3348  1.7220
  219MPD1    H3 3332   1.159   2.825  11.963  0.7127  0.4434 -1.8226
  219MPD1     N 3333   1.321   3.057  12.305  0.6232  0.2812 -0.1779
  219MPD1    H5 3334   1.252   3.006  12.360  1.3918  0.5415  1.0459
  219MPD1    N1 3335   1.542   3.044  11.869  0.0111  0.0531  0.3885
  219MPD1    H6 3336   1.560   2.971  11.801 -1.5980  1.1065 -1.1898
  219MPD1    H7 3337   1.623   3.087  11.912 -0.7149  2.7622 -0.9321
  220MPD1     C 3338   1.928   3.060   9.403  0.4173  0.4303  0.8813
  220MPD1    C1 3339   1.796   3.049   9.429  0.7915  0.1964  0.1300
  220MPD1    C2 3340   1.764   3.028   9.568  0.2286 -0.0860  0.0019
  220MPD1    C3 3341   1.855   3.023   9.670 -0.4036  0.6786  0.1972
  220MPD1    C4 3342   1.985   3.052   9.637  0.5199  0.0299 -0.4904
  220MPD1    C5 3343   2.023   3.064   9.502 -0.3571  0.7957 -0.4594
  220MPD1     H 3344   1.658   3.023   9.592  0.3385  3.1178  1.0425
  220MPD1    H1 3345   2.066   3.034   9.707 -0.6767  1.4748  1.2872
  220MPD1    H2 3346   1.958   3.062   9.299 -2.1892 -1.2245  0.0989
  220MPD1    H3 3347   2.126   3.085   9.474 -0.4080  1.2558 -0.3043
  220MPD1     N 3348   1.814   2.989   9.798  0.6656 -0.2382 -0.1731
  220MPD1    H5 3349   1.721   2.950   9.798  0.3884  0.4347  2.2603
  220MPD1    N1 3350   1.708   3.033   9.322 -0.7102  0.4075  0.4703
  220MPD1    H6 3351   1.613   3.068   9.338 -0.3883  1.4182  0.2008
  220MPD1    H7 3352   1.741   3.085   9.241  2.4656 -0.2376  1.3539
  221MPD1     C 3353   4.092   1.972  17.048 -0.1299  0.2386  0.0188
  221MPD1    C1 3354   4.085   1.911  16.923  0.2594 -0.2851  0.0056
  221MPD1    C2 3355   4.193   1.938  16.838  0.2773  0.0464  0.0750
  221MPD1    C3 3356   4.315   1.972  16.886  0.8278 -0.1537 -0.5487
  221MPD1    C4 3357   4.323   2.015  17.011  0.2215  0.0173  0.0620
  221MPD1    C5 3358   4.211   2.029  17.085 -0.3856  0.0879  0.2078
  221MPD1     H 3359   4.179   1.913  16.733 -3.8960 -1.8874  1.0755
  221MPD1    H1 3360   4.410   2.055  17.063 -1.2020 -0.2217  2.5920
  221MPD1    H2 3361   4.008   1.976  17.116 -0.2959 -0.8424 -0.1137
  221MPD1    H3 3362   4.216   2.084  17.179 -1.7846  1.7363 -0.6801
  221MPD1     N 3363   4.430   1.974  16.810  0.0775  0.6001 -0.1490
  221MPD1    H5 3364   4.519   1.974  16.859  1.0197  1.7335 -1.8391
  221MPD1    N1 3365   3.959   1.865  16.878 -0.3518  0.5598  0.6489
  221MPD1    H6 3366   3.974   1.805  16.797 -0.2066  1.6278 -0.1187
  221MPD1    H7 3367   3.920   1.812  16.955 -2.3693  1.5268  0.2910
  222MPD1     C 3368   0.706   1.274  17.410  0.6915  0.2807 -0.2880
  222MPD1    C1 3369   0.681   1.155  17.337 -0.3923  0.0924 -0.1451
  222MPD1    C2 3370   0.554   1.119  17.308  0.0961 -0.2026  0.0261
  222MPD1    C3 3371   0.449   1.170  17.376 -0.2653  0.3688 -0.9557
  222MPD1    C4 3372   0.471   1.271  17.467  0.0305  0.6403 -0.0739
  222MPD1    C5 3373   0.596   1.322  17.484  0.0142  0.2777 -0.3719
  222MPD1     H 3374   0.543   1.042  17.232  1.7076  0.9518 -1.3900
  222MPD1    H1 3375   0.388   1.320  17.517  1.6634  2.1603  1.1500
  222MPD1    H2 3376   0.803   1.320  17.425  0.8923 -0.0992 -0.4136
  222MPD1    H3 3377   0.603   1.416  17.539 -1.0903 -0.2411  0.6375
  222MPD1     N 3378   0.315   1.122  17.360 -0.1278 -0.4001 -0.0555
  222MPD1    H5 3379   0.254   1.157  17.434 -1.5587  0.4576 -1.6338
  222MPD1    N1 3380   0.788   1.116  17.254 -0.5722 -0.0269  0.5838
  222MPD1    H6 3381   0.879   1.125  17.298  0.4694  0.3176 -1.6533
  222MPD1    H7 3382   0.774   1.019  17.226 -0.8542  0.3974 -0.7535
  223MPD1     C 3383   4.442   0.307  17.533  1.0332 -0.2250  0.9780
  223MPD1    C1 3384   4.351   0.405  17.501  1.2854 -0.0938 -0.4965
  223MPD1    C2 3385   4.391   0.528  17.459 -0.0103 -0.5997 -0.3338
  223MPD1    C3 3386   4.527   0.538  17.411 -0.3496  0.6186 -0.7184
  223MPD1    C4 3387   4.624   0.436  17.430  0.3861 -0.3510  0.1382
  223MPD1    C5 3388   4.577   0.326  17.507  0.3846  0.2500 -0.2151
  223MPD1     H 3389   4.322   0.611  17.454 -0.4157 -0.8830  0.6725
  223MPD1    H1 3390   0.003   0.445  17.394 -0.0306 -1.1979 -1.2617
  223MPD1    H2 3391   4.418   0.213  17.581  0.7932 -0.3888  0.5379
  223MPD1    H3 3392   4.655   0.251  17.519  0.5905  0.5850  0.4870
  223MPD1     N 3393   4.563   0.657  17.339 -0.3251  0.9339  0.4627
  223MPD1    H5 3394   4.486   0.722  17.340 -1.1245 -0.0454  2.6278
  223MPD1    N1 3395   4.220   0.380  17.540 -0.1312 -0.0677 -0.3917
  223MPD1    H6 3396   4.152   0.425  17.477  0.4252 -0.1247 -1.0340
  223MPD1    H7 3397   4.210   0.279  17.535 -1.0109 -0.0145  0.2246
  224MPD1     C 3398   1.348   2.935   9.418 -0.6499 -0.1644 -0.1531
  224MPD1    C1 3399   1.397   2.811   9.427  0.5217  0.0448  0.8436
  224MPD1    C2 3400   1.307   2.707   9.455  0.1995 -0.0704 -0.2645
  224MPD1    C3 3401   1.179   2.728   9.495  0.0343 -0.4356  0.5025
  224MPD1    C4 3402   1.135   2.853   9.500  0.0563  0.2716  0.8783
  224MPD1    C5 3403   1.215   2.951   9.457 -0.4389  0.0320  0.4325
  224MPD1     H 3404   1.338   2.604   9.446 -1.3076 -0.4672 -1.0091
  224MPD1    H1 3405   1.040   2.890   9.538  0.1079  0.5934  0.6921
  224MPD1    H2 3406   1.410   3.019   9.389  0.1770 -0.1262  1.7234
  224MPD1    H3 3407   1.172   3.049   9.443 -1.3404 -0.6465 -1.6570
  224MPD1     N 3408   1.079   2.630   9.526  0.2229 -0.3958  0.5577
  224MPD1    H5 3409   0.990   2.672   9.551  1.2674  0.4552  2.8468
  224MPD1    N1 3410   1.521   2.782   9.363 -0.2827 -0.0790  0.2217
  224MPD1    H6 3411   1.555   2.695   9.404 -0.4002  0.2009  0.8959
  224MPD1    H7 3412   1.586   2.861   9.362  0.3905 -0.6219  2.6062
  225MPD1     C 3413   1.839   3.685  12.220  0.7882  0.8314 -0.6006
  225MPD1    C1 3414   1.783   3.633  12.106  0.4322 -0.2343  0.2198
  225MPD1    C2 3415   1.674   3.701  12.051  0.5831 -0.1373 -0.2024
  225MPD1    C3 3416   1.599   3.790  12.128  0.0942  0.6949  0.5937
  225MPD1    C4 3417   1.639   3.828  12.251  0.1517  0.5329  0.0626
  225MPD1    C5 3418   1.764   3.775  12.295 -0.0301 -0.8750 -0.1720
  225MPD1     H 3419   1.631   3.663  11.959  1.1941 -2.6271  0.5313
  225MPD1    H1 3420   1.580   3.901  12.305 -1.3448 -1.0353  0.5196
  225MPD1    H2 3421   1.932   3.650  12.263  0.4696 -0.1906 -0.7524
  225MPD1    H3 3422   1.809   3.809  12.387 -0.2930  0.7972 -0.6617
  225MPD1     N 3423   1.482   3.856  12.090  0.2857  0.3363 -0.1995
  225MPD1    H5 3424   1.438   3.926  12.150 -0.1189 -1.3097  1.4222
  225MPD1    N1 3425   1.876   3.576  12.022 -0.2373 -0.2050  0.3927
  225MPD1    H6 3426   1.845   3.518  11.944  0.2765  0.3635 -0.2412
  225MPD1    H7 3427   1.939   3.516  12.073  0.7410  0.1460 -0.4030
  226MPD1     C 3428   0.916   3.827   8.881  0.8695 -0.1289  0.1153
  226MPD1    C1 3429   1.039   3.798   8.935  0.2251  0.2436 -0.3058
  226MPD1    C2 3430   1.052   3.788   9.077 -0.2022 -0.3750 -0.3498
  226MPD1    C3 3431   0.934   3.790   9.159 -0.0055  0.0424  0.0588
  226MPD1    C4 3432   0.815   3.816   9.099 -0.1192 -0.4088  0.2890
  226MPD1    C5 3433   0.806   3.832   8.965 -0.1050 -0.0170 -0.1576
  226MPD1     H 3434   1.148   3.771   9.124 -0.7334 -0.9009  0.5582
  226MPD1    H1 3435   0.726   3.829   9.158 -0.8844  1.7377 -1.3412
  226MPD1    H2 3436   0.898   3.841   8.775 -1.7664  0.4835  0.6353
  226MPD1    H3 3437   0.706   3.858   8.934  0.5975  0.1668 -2.2973
  226MPD1     N 3438   0.941   3.755   9.293  0.1877  0.6891 -0.2708
  226MPD1    H5 3439   1.034   3.759   9.333  0.5932  0.9029 -1.2315
  226MPD1    N1 3440   1.152   3.810   8.857  0.1803  0.1861  0.2590
  226MPD1    H6 3441   1.129   3.800   8.758 -1.0795  1.1937  0.4504
  226MPD1    H7 3442   1.216   3.735   8.880 -0.9001 -1.4606 -2.0898
  227MPD1     C 3443   1.441   4.212   9.682  0.4435  0.4773  0.7027
  227MPD1    C1 3444   1.392   4.161   9.560 -0.4160  0.5860  0.9639
  227MPD1    C2 3445   1.326   4.039   9.549  1.0312  0.5024 -0.4966
  227MPD1    C3 3446   1.284   3.971   9.667  0.1410 -0.9078 -0.4143
  227MPD1    C4 3447   1.330   4.020   9.793 -0.7395  0.5195  0.3784
  227MPD1    C5 3448   1.409   4.137   9.795  0.4299 -0.2353  0.4178
  227MPD1     H 3449   1.312   4.003   9.447  3.3699  0.7226 -0.9181
  227MPD1    H1 3450   1.308   3.971   9.888 -0.8294  2.1014  1.1839
  227MPD1    H2 3451   1.492   4.307   9.692  0.5997  0.4765 -0.0392
  227MPD1    H3 3452   1.439   4.185   9.888 -2.5201 -0.5255  1.5079
  227MPD1     N 3453   1.198   3.862   9.649  0.6458  0.5179  0.1973
  227MPD1    H5 3454   1.182   3.831   9.554  3.6078  2.3231 -0.9163
  227MPD1    N1 3455   1.428   4.220   9.442  0.1383 -0.1583  0.1964
  227MPD1    H6 3456   1.351   4.223   9.376 -0.5924 -0.2051  1.0564
  227MPD1    H7 3457   1.457   4.316   9.463  0.4651 -0.7439  2.4342
  228MPD1     C 3458   3.254   1.350  12.242  0.0024  0.7409  1.1251
  228MPD1    C1 3459   3.224   1.316  12.374  0.1366  0.2959 -1.0264
  228MPD1    C2 3460   3.095   1.342  12.424 -0.3815  0.4478  0.2606
  228MPD1    C3 3461   2.994   1.384  12.339  0.4471 -0.3389 -0.4430
  228MPD1    C4 3462   3.030   1.423  12.214  0.2101  0.0296  0.5117
  228MPD1    C5 3463   3.157   1.411  12.168 -0.0132 -0.0125  0.6881
  228MPD1     H 3464   3.068   1.310  12.524  0.8013 -0.5771  0.2582
  228MPD1    H1 3465   2.960   1.462  12.141 -0.1578  2.7237  2.3441
  228MPD1    H2 3466   3.352   1.337  12.198  0.0210 -2.6676  2.1190
  228MPD1    H3 3467   3.177   1.431  12.063  0.2714  1.2682  0.9864
  228MPD1     N 3468   2.858   1.403  12.390  0.4093 -0.4896 -0.4884
  228MPD1    H5 3469   2.854   1.370  12.486 -0.2337  1.1406  0.0335
  228MPD1    N1 3470   3.330   1.281  12.461 -0.5754 -0.0738 -0.0998
  228MPD1    H6 3471   3.400   1.227  12.411  1.3862  1.6460  0.8094
  228MPD1    H7 3472   3.293   1.230  12.541 -0.9405 -0.3626 -0.4548
  229MPD1     C 3473   2.405   0.288  14.767 -0.0445  0.2021  0.2050
  229MPD1    C1 3474   2.450   0.198  14.668  0.8023  0.2380  0.5881
  229MPD1    C2 3475   2.551   0.112  14.717  0.0992  0.0042 -0.1736
  229MPD1    C3 3476   2.613   0.138  14.838  0.1097 -0.7360 -0.1171
  229MPD1    C4 3477   2.578   0.233  14.922 -0.1915 -0.0863 -0.4351
  229MPD1    C5 3478   2.462   0.303  14.892 -0.1279  0.8442  0.3335
  229MPD1     H 3479   2.573   0.029  14.651 -0.4119 -2.4888  2.8175
  229MPD1    H1 3480   2.630   0.252  15.016  0.2927  0.0892 -0.7404
  229MPD1    H2 3481   2.319   0.349  14.743  0.3578  0.5253 -0.4143
  229MPD1    H3 3482   2.431   0.376  14.966 -1.3390  2.4604 -1.7588
  229MPD1     N 3483   2.724   0.063  14.885  0.1230  0.0686 -0.5670
  229MPD1    H5 3484   2.745   0.068  14.984 -1.7743  3.9629 -0.3445
  229MPD1    N1 3485   2.375   0.177  14.550 -0.5419 -0.1499  0.5350
  229MPD1    H6 3486   2.318   0.252  14.513  2.6520  0.9924 -2.1050
  229MPD1    H7 3487   2.437   0.149  14.474 -2.2113  1.5726 -1.4619
  230MPD1     C 3488   3.227   4.376  15.631  0.1138 -0.1908 -0.2734
  230MPD1    C1 3489   3.325   4.421  15.543 -0.2156  0.6225 -0.0762
  230MPD1    C2 3490   3.288   4.466  15.419  0.2090 -0.7429 -0.7069
  230MPD1    C3 3491   3.154   4.464  15.382 -0.3509  0.5047  0.8294
  230MPD1    C4 3492   3.061   4.408  15.461  0.1238 -0.3824  0.0460
  230MPD1    C5 3493   3.095   4.367  15.593 -0.0582 -0.2269  0.0161
  230MPD1     H 3494   3.364   4.517  15.361 -0.2599  2.2961  1.3652
  230MPD1    H1 3495   2.956   4.409  15.435 -0.2513 -1.6826  1.5281
  230MPD1    H2 3496   3.250   4.360  15.736 -0.0785  0.2579 -0.1658
  230MPD1    H3 3497   3.021   4.332  15.665  0.0984  2.1386  1.3256
  230MPD1     N 3498   3.119   4.494  15.249  0.4320  0.3008 -0.2392
  230MPD1    H5 3499   3.204   4.505  15.195  0.6911  1.1934  0.3544
  230MPD1    N1 3500   3.453   4.449  15.584 -0.0818 -0.0865  0.0198
  230MPD1    H6 3501   3.491   4.396  15.662 -0.8371  3.1775  2.6390
  230MPD1    H7 3502   3.516   4.420  15.510 -0.1215 -1.1450  0.4047
  231MPD1     C 3503   1.422   2.028  15.701  0.3831 -0.0710 -0.1339
  231MPD1    C1 3504   1.304   2.051  15.631 -0.6292  0.1600  0.5834
  231MPD1    C2 3505   1.321   2.089  15.499 -0.0889  0.0622 -0.1114
  231MPD1    C3 3506   1.439   2.135  15.449 -0.7433  0.3413  0.0327
  231MPD1    C4 3507   1.551   2.127  15.529  0.2530  0.3953 -0.2075
  231MPD1    C5 3508   1.539   2.069  15.653 -0.3163 -0.6133  0.4608
  231MPD1     H 3509   1.237   2.087  15.430  1.8037  1.1693 -2.4079
  231MPD1    H1 3510   1.647   2.162  15.492 -0.2629  0.6275 -1.3229
  231MPD1    H2 3511   1.426   1.980  15.798 -0.1649 -0.5180 -0.3374
  231MPD1    H3 3512   1.626   2.074  15.718  1.9000  0.6880 -2.6048
  231MPD1     N 3513   1.441   2.195  15.323  0.0441 -0.2951  0.5910
  231MPD1    H5 3514   1.360   2.183  15.263 -0.1577 -0.2485  0.8552
  231MPD1    N1 3515   1.181   2.012  15.686 -0.1756 -0.8111 -0.2187
  231MPD1    H6 3516   1.110   2.070  15.642  0.2154 -0.2339 -0.0820
  231MPD1    H7 3517   1.183   2.012  15.788  1.6369 -0.3794 -0.2591
  232MPD1     C 3518   3.159   0.030   0.110 -0.3576  0.1341 -0.5510
  232MPD1    C1 3519   3.026   0.063   0.138  0.1853 -0.0848 -0.2267
  232MPD1    C2 3520   2.933   4.691   0.120  0.1572  0.0676 -0.7186
  232MPD1    C3 3521   2.968   4.568   0.066 -0.0554 -0.0679 -0.0245
  232MPD1    C4 3522   3.092   4.540   0.026  0.7100 -0.7612 -0.0551
  232MPD1    C5 3523   3.182   4.640   0.046 -0.1871 -0.3218  0.5890
  232MPD1     H 3524   2.829   4.704   0.149  0.0079  0.4366 -1.4057
  232MPD1    H1 3525   3.127   4.442  17.689 -0.2515 -1.1492  0.0760
  232MPD1    H2 3526   3.235   0.098   0.146 -1.3926  1.2850 -0.5389
  232MPD1    H3 3527   3.284   4.604   0.036 -0.5361 -0.9176 -0.8773
  232MPD1     N 3528   2.860   4.477   0.041  0.1404 -0.1353  0.4353
  232MPD1    H5 3529   2.768   4.501   0.077 -0.2311  0.6677 -1.0507
  232MPD1    N1 3530   2.996   0.179   0.212 -0.5353 -0.2348  0.5873
  232MPD1    H6 3531   3.070   0.246   0.189 -0.3308 -1.5509 -2.6078
  232MPD1    H7 3532   2.904   0.218   0.195 -0.8715 -2.5258 -2.8720
  233MPD1     C 3533   3.348   1.777  17.685 -0.3188  0.1627 -0.2986
  233MPD1    C1 3534   3.405   1.829   0.105 -0.0024  0.0046 -0.1625
  233MPD1    C2 3535   3.378   1.779   0.228  0.9710 -0.3377 -0.0218
  233MPD1    C3 3536   3.291   1.673   0.247  0.6288  0.2402 -0.5043
  233MPD1    C4 3537   3.232   1.620   0.136 -0.3899  0.5768 -0.3335
  233MPD1    C5 3538   3.254   1.674   0.009  0.4632  0.0361 -0.8354
  233MPD1     H 3539   3.429   1.819   0.315 -1.2493  3.2577 -0.3785
  233MPD1    H1 3540   3.160   1.541   0.157  0.7839 -0.2237  0.6656
  233MPD1    H2 3541   3.373   1.812  17.586  1.8227  1.0569  0.5717
  233MPD1    H3 3542   3.209   1.622  17.619 -2.1900 -3.3949  2.7878
  233MPD1     N 3543   3.253   1.626   0.374  0.4380 -0.6541  0.3892
  233MPD1    H5 3544   3.208   1.536   0.385 -0.1054 -0.6577 -1.8638
  233MPD1    N1 3545   3.477   1.956   0.101 -0.0508 -0.4092 -0.3106
  233MPD1    H6 3546   3.520   1.973   0.010  0.5590  0.8624  0.2184
  233MPD1    H7 3547   3.539   1.968   0.181  0.0109 -0.5283 -0.3404
  234MPD1     C 3548   1.654   0.721  10.017  0.3570  0.4667 -0.4759
  234MPD1    C1 3549   1.670   0.804  10.126  0.1490 -0.5611  0.6943
  234MPD1    C2 3550   1.636   0.940  10.112  0.3324 -0.1643 -0.2753
  234MPD1    C3 3551   1.581   0.987   9.994 -0.4644 -0.6198 -0.7568
  234MPD1    C4 3552   1.566   0.901   9.889 -0.7443 -0.0536 -0.7682
  234MPD1    C5 3553   1.601   0.771   9.906 -0.2770  0.5232  0.4554
  234MPD1     H 3554   1.652   1.001  10.201  1.5005 -0.4918 -0.2612
  234MPD1    H1 3555   1.536   0.925   9.788 -0.2567 -0.7610 -1.0789
  234MPD1    H2 3556   1.684   0.617  10.020  0.5367  0.5458  0.2963
  234MPD1    H3 3557   1.596   0.703   9.821  2.0498  1.9649 -0.8349
  234MPD1     N 3558   1.550   1.127   9.993 -0.3036  0.3589  0.8046
  234MPD1    H5 3559   1.579   1.178  10.075  0.1952 -2.6586  2.4884
  234MPD1    N1 3560   1.747   0.762  10.239 -0.4193  0.8515 -0.8967
  234MPD1    H6 3561   1.731   0.672  10.282  2.3819  0.5849 -0.3793
  234MPD1    H7 3562   1.740   0.820  10.323  1.2539 -0.6029  0.2671
  235MPD1     C 3563   2.194   4.159   8.892 -0.2043 -0.0040 -0.4354
  235MPD1    C1 3564   2.234   4.131   9.018  0.3875  0.0407 -0.5029
  235MPD1    C2 3565   2.284   4.237   9.095 -0.3549 -0.2694  0.4963
  235MPD1    C3 3566   2.295   4.362   9.044 -0.2280 -0.0045  0.4571
  235MPD1    C4 3567   2.237   4.394   8.922 -0.2596  0.3071 -0.4181
  235MPD1    C5 3568   2.202   4.287   8.845  0.0263 -0.8341  0.2609
  235MPD1     H 3569   2.315   4.201   9.192 -0.0085 -0.4362  0.3251
  235MPD1    H1 3570   2.251   4.488   8.869 -0.4133  1.9883  2.5118
  235MPD1    H2 3571   2.147   4.091   8.822 -1.7807  0.8939 -0.2625
  235MPD1    H3 3572   2.173   4.309   8.743 -0.5206 -0.4926  0.4925
  235MPD1     N 3573   2.363   4.454   9.124  0.0303 -0.4486 -0.1584
  235MPD1    H5 3574   2.429   4.422   9.194 -0.5003  0.7674  0.9057
  235MPD1    N1 3575   2.226   3.997   9.070  0.6239  0.2084 -0.4297
  235MPD1    H6 3576   2.272   3.972   9.157  0.1584 -0.9776 -0.5210
  235MPD1    H7 3577   2.262   3.925   9.007 -0.9635 -0.3588 -0.7021
  236MPD1     C 3578   1.728   0.955   9.489  0.2872  0.4879 -0.0706
  236MPD1    C1 3579   1.800   0.958   9.604  0.5637  0.2825 -0.2302
  236MPD1    C2 3580   1.851   0.842   9.653  0.6742 -0.3604  0.1262
  236MPD1    C3 3581   1.822   0.725   9.589 -0.0187 -0.4253 -0.1142
  236MPD1    C4 3582   1.745   0.718   9.477 -0.8870  0.2837  0.0110
  236MPD1    C5 3583   1.695   0.836   9.423 -0.4804 -0.0691 -0.0281
  236MPD1     H 3584   1.893   0.850   9.753 -1.6238 -1.9082  1.2288
  236MPD1    H1 3585   1.736   0.624   9.425  1.6487 -0.8675  1.6767
  236MPD1    H2 3586   1.676   1.043   9.451  3.8096  2.2808 -0.6762
  236MPD1    H3 3587   1.626   0.838   9.339 -0.6477  1.1904  0.1374
  236MPD1     N 3588   1.868   0.603   9.635 -0.7291 -0.0675  0.2821
  236MPD1    H5 3589   1.838   0.525   9.577  2.9496 -0.4683 -1.0522
  236MPD1    N1 3590   1.817   1.082   9.665  0.4718  0.4447  0.3521
  236MPD1    H6 3591   1.737   1.141   9.642  1.1129 -0.0577 -3.1137
  236MPD1    H7 3592   1.811   1.061   9.765 -1.6711 -0.5641  0.0188
  237MPD1     C 3593   1.571   3.732  15.413 -0.3905  0.2119 -0.2224
  237MPD1    C1 3594   1.552   3.681  15.541  0.4385  0.1588  0.6845
  237MPD1    C2 3595   1.483   3.560  15.555 -0.3892  1.0607  0.8973
  237MPD1    C3 3596   1.411   3.508  15.443 -0.7772 -0.1203 -0.3320
  237MPD1    C4 3597   1.430   3.562  15.314 -0.5010 -0.1441  0.0021
  237MPD1    C5 3598   1.496   3.690  15.307 -0.4323 -0.4285 -0.1139
  237MPD1     H 3599   1.489   3.511  15.651  1.4525  0.9696  0.7446
  237MPD1    H1 3600   1.379   3.522  15.227 -1.0865 -1.8179  1.1118
  237MPD1    H2 3601   1.630   3.823  15.407  0.3360 -0.1706  1.1639
  237MPD1    H3 3602   1.504   3.741  15.211  2.0748  0.2783  0.4809
  237MPD1     N 3603   1.321   3.398  15.454  0.1048  0.3079  0.1536
  237MPD1    H5 3604   1.284   3.361  15.367 -0.4711 -0.5813  0.7755
  237MPD1    N1 3605   1.630   3.733  15.643  0.9649 -0.8742  0.6151
  237MPD1    H6 3606   1.657   3.829  15.625  0.3071 -1.0149 -1.0808
  237MPD1    H7 3607   1.578   3.719  15.730  0.7978  1.1429  0.8299
  238MPD1     C 3608   3.190   2.133  15.234 -0.3217 -0.4297 -0.0160
  238MPD1    C1 3609   3.253   2.087  15.122 -0.0375 -0.0725 -0.7390
  238MPD1    C2 3610   3.183   2.041  15.006 -0.2999  0.2743  0.0292
  238MPD1    C3 3611   3.044   2.022  15.013 -0.0545 -0.1799 -0.1264
  238MPD1    C4 3612   2.981   2.061  15.129  0.4650  0.2820  0.0618
  238MPD1    C5 3613   3.059   2.110  15.234  0.1931 -0.0017 -0.1943
  238MPD1     H 3614   3.249   1.995  14.934  0.7410  0.6304  0.7519
  238MPD1    H1 3615   2.875   2.050  15.146  0.0105  2.3891 -1.5295
  238MPD1    H2 3616   3.235   2.180  15.320 -1.5144 -0.3713  0.5755
  238MPD1    H3 3617   3.006   2.155  15.317 -2.0176 -0.1159 -1.5398
  238MPD1     N 3618   2.964   1.964  14.914 -0.2786  0.2029  0.0829
  238MPD1    H5 3619   2.864   1.952  14.930 -0.1681 -0.3150  0.3763
  238MPD1    N1 3620   3.386   2.120  15.113  0.4385 -0.4103  0.2511
  238MPD1    H6 3621   3.448   2.070  15.051 -0.6983 -0.5466 -0.7873
  238MPD1    H7 3622   3.441   2.115  15.199 -0.2618  3.5601  0.9529
  239MPD1     C 3623   3.495   2.916  15.231  0.0067  0.5730  0.3713
  239MPD1    C1 3624   3.410   3.028  15.233  0.5254  0.4295  1.2857
  239MPD1    C2 3625   3.352   3.069  15.115  0.3047  0.4010 -0.0883
  239MPD1    C3 3626   3.398   3.010  15.000 -0.1909  0.0085 -0.5321
  239MPD1    C4 3627   3.496   2.915  15.002 -0.1096 -0.1285 -0.0412
  239MPD1    C5 3628   3.544   2.862  15.119 -0.1531  0.1138  0.8316
  239MPD1     H 3629   3.281   3.150  15.119  0.2394  0.3326  0.1947
  239MPD1    H1 3630   3.529   2.867  14.910 -0.8752 -1.2069  0.2535
  239MPD1    H2 3631   3.557   2.885  15.314 -0.2979 -0.2960  0.2810
  239MPD1    H3 3632   3.614   2.780  15.121 -0.0380  0.1825 -0.5184
  239MPD1     N 3633   3.344   3.041  14.871  0.6875 -0.5607  0.5042
  239MPD1    H5 3634   3.384   2.984  14.797  3.4272  1.6528  0.2460
  239MPD1    N1 3635   3.360   3.070  15.356 -0.1463 -0.2349  1.1910
  239MPD1    H6 3636   3.331   3.168  15.360  0.1728 -0.0493 -1.0132
  239MPD1    H7 3637   3.426   3.054  15.432  0.4945 -0.5484  0.5736
  240MPD1     C 3638   2.900   2.418  13.891  0.1911 -0.1581 -0.8791
  240MPD1    C1 3639   2.779   2.373  13.840  0.3776 -0.2281 -0.6623
  240MPD1    C2 3640   2.689   2.330  13.930 -0.1386 -0.2999  0.0613
  240MPD1    C3 3641   2.718   2.317  14.067  0.5007 -0.5102 -0.5157
  240MPD1    C4 3642   2.841   2.365  14.113 -0.2527 -0.1731 -0.5665
  240MPD1    C5 3643   2.928   2.423  14.027 -0.4140  0.7631 -0.4707
  240MPD1     H 3644   2.591   2.297  13.897 -1.3734  2.0254  1.4523
  240MPD1    H1 3645   2.875   2.368  14.216 -2.4902  1.0029  0.1477
  240MPD1    H2 3646   2.969   2.464  13.821  0.6403  0.2644 -0.1549
  240MPD1    H3 3647   3.028   2.452  14.057 -0.6029  1.2156 -0.2786
  240MPD1     N 3648   2.620   2.257  14.147 -0.7306 -0.4426 -0.0013
  240MPD1    H5 3649   2.540   2.215  14.100 -0.6161  1.3353 -1.8037
  240MPD1    N1 3650   2.741   2.412  13.710  0.2350  0.2199 -0.7295
  240MPD1    H6 3651   2.810   2.427  13.636  0.2721 -1.3493 -0.9970
  240MPD1    H7 3652   2.670   2.350  13.673  0.1488 -0.1360  0.0298
  241MPD1     C 3653   2.341   2.536  15.073 -0.0383 -0.4599  0.8905
  241MPD1    C1 3654   2.321   2.400  15.066  0.3606  0.9308 -0.7505
  241MPD1    C2 3655   2.357   2.324  14.961 -0.1999 -0.1383  0.3908
  241MPD1    C3 3656   2.429   2.374  14.854 -0.6018  0.0441  0.3336
  241MPD1    C4 3657   2.473   2.512  14.870 -0.0223  0.0030 -0.0047
  241MPD1    C5 3658   2.424   2.585  14.976  0.0357  0.7009 -0.4524
  241MPD1     H 3659   2.333   2.218  14.964 -0.1401 -0.1135  1.5492
  241MPD1    H1 3660   2.541   2.564  14.803 -1.9121  0.9599 -1.1777
  241MPD1    H2 3661   2.290   2.608  15.135 -0.5384  0.7877 -0.9716
  241MPD1    H3 3662   2.455   2.689  14.980  1.8508  0.1111  0.7222
  241MPD1     N 3663   2.459   2.303  14.729  0.0739 -0.3983  0.1751
  241MPD1    H5 3664   2.510   2.352  14.656 -0.0270 -0.0039  0.3698
  241MPD1    N1 3665   2.236   2.343  15.164  0.5732 -0.0126 -0.2620
  241MPD1    H6 3666   2.254   2.381  15.257 -1.4819 -1.4815  0.7632
  241MPD1    H7 3667   2.234   2.242  15.183 -1.5415  0.0521 -0.0465
  242MPD1     C 3668   2.535   1.390  15.401  0.2079 -0.2164 -0.6464
  242MPD1    C1 3669   2.426   1.302  15.391 -0.0275  1.3027 -0.8744
  242MPD1    C2 3670   2.429   1.209  15.284  1.1071 -0.0870 -0.6909
  242MPD1    C3 3671   2.523   1.211  15.179 -1.0247  0.0255 -0.6012
  242MPD1    C4 3672   2.626   1.299  15.193 -0.3682  0.1079  0.0812
  242MPD1    C5 3673   2.624   1.387  15.299 -0.2161 -0.3375 -1.0915
  242MPD1     H 3674   2.352   1.132  15.284  2.3763 -1.3526  0.1606
  242MPD1    H1 3675   2.709   1.303  15.123 -1.0370 -2.1344 -0.8334
  242MPD1    H2 3676   2.542   1.468  15.475 -1.7293 -0.0335 -0.6587
  242MPD1    H3 3677   2.698   1.466  15.298 -0.2206 -0.3322 -0.9911
  242MPD1     N 3678   2.521   1.123  15.070  0.4220  0.7716 -0.1698
  242MPD1    H5 3679   2.600   1.123  15.007  0.3392  0.2679 -0.2797
  242MPD1    N1 3680   2.352   1.293  15.511 -0.8805  0.1772 -0.2428
  242MPD1    H6 3681   2.256   1.262  15.496 -1.4456  2.2825 -0.8907
  242MPD1    H7 3682   2.347   1.384  15.556 -1.0448  0.1545 -0.2135
  243MPD1     C 3683   0.180   4.668   0.138  0.2729 -0.2342  0.2675
  243MPD1    C1 3684   0.095   4.563   0.174  0.0520 -0.2952 -0.6997
  243MPD1    C2 3685   4.711   4.527   0.084 -0.7619 -0.6281  0.4872
  243MPD1    C3 3686   4.699   4.599  17.655 -0.0594 -0.0184  0.0038
  243MPD1    C4 3687   0.058   4.705  17.633  0.3375 -0.2595  0.4031
  243MPD1    C5 3688   0.158   0.012   0.024  0.2463  0.2480  0.5139
  243MPD1     H 3689   4.648   4.443   0.110 -3.2306  1.3143  0.6784
  243MPD1    H1 3690   0.051   0.037  17.539  2.4447 -2.5090 -1.0833
  243MPD1    H2 3691   0.260   4.699   0.204  0.7196  0.2144 -0.4767
  243MPD1    H3 3692   0.208   0.104   0.000  2.6593 -1.7074 -1.9332
  243MPD1     N 3693   4.590   4.562  17.563  0.5614  0.2082  0.3128
  243MPD1    H5 3694   4.529   4.487  17.594  2.6353 -0.8649  1.7762
  243MPD1    N1 3695   0.122   4.483   0.286  0.7739 -0.5799 -0.2451
  243MPD1    H6 3696   0.194   4.511   0.353  0.9724 -0.5974 -0.4508
  243MPD1    H7 3697   0.039   4.455   0.338 -0.4835  1.2670 -1.2286
  244MPD1     C 3698   3.832   4.153  17.688 -0.3596  0.4054  0.4695
  244MPD1    C1 3699   3.949   4.172   0.067  0.5972  0.2337  0.5997
  244MPD1    C2 3700   4.050   4.241   0.002  0.5218 -0.7092  0.1097
  244MPD1    C3 3701   4.052   4.252  17.557  0.2151  0.2019  0.1969
  244MPD1    C4 3702   3.937   4.219  17.488 -0.4200  0.8964  0.0564
  244MPD1    C5 3703   3.829   4.172  17.554 -0.1548 -0.4273 -0.1043
  244MPD1     H 3704   4.144   4.266   0.050 -0.4108  3.6383 -0.3021
  244MPD1    H1 3705   3.923   4.239  17.383 -1.9781 -2.1727 -0.2901
  244MPD1    H2 3706   3.741   4.126   0.047  0.2142 -0.3357  1.1109
  244MPD1    H3 3707   3.731   4.159  17.509  0.5442  0.4648 -1.9003
  244MPD1     N 3708   4.172   4.302  17.504 -0.8200 -0.5066  0.1924
  244MPD1    H5 3709   4.246   4.322  17.570 -0.1260 -1.8226 -0.1769
  244MPD1    N1 3710   3.946   4.137   0.201  0.1037 -0.0397 -0.2756
  244MPD1    H6 3711   4.044   4.142   0.227 -0.7199  1.2612  2.5677
  244MPD1    H7 3712   3.914   4.041   0.210  1.5737 -0.7154 -2.3589
  245MPD1     C 3713   0.810   4.405  13.101 -1.0036 -0.3523  0.8681
  245MPD1    C1 3714   0.772   4.453  13.228 -0.2260 -0.1287 -0.7928
  245MPD1    C2 3715   0.859   4.548  13.286  0.3908 -0.6243  0.5999
  245MPD1    C3 3716   0.986   4.567  13.225 -0.4637 -0.5290  0.1508
  245MPD1    C4 3717   1.021   4.503  13.109 -0.1869 -0.5022  0.0240
  245MPD1    C5 3718   0.931   4.420  13.045 -0.7451 -0.8239  0.8534
  245MPD1     H 3719   0.836   4.599  13.378  2.4588  0.1744  0.6824
  245MPD1    H1 3720   1.116   4.524  13.060  0.3512 -1.2924  0.7294
  245MPD1    H2 3721   0.748   4.332  13.049  0.3203 -0.0871 -1.0769
  245MPD1    H3 3722   0.956   4.372  12.951 -0.0848  0.2830  0.4592
  245MPD1     N 3723   1.077   4.661  13.289  0.2218  0.1761 -0.0390
  245MPD1    H5 3724   1.049   4.711  13.373 -1.8371 -1.5938  0.3413
  245MPD1    N1 3725   0.640   4.435  13.274 -0.0461 -0.4758 -0.4179
  245MPD1    H6 3726   0.638   4.428  13.375 -1.5802  0.7477 -0.3624
  245MPD1    H7 3727   0.597   4.351  13.234 -0.4690 -1.2513  1.6475
  246MPD1     C 3728   2.301   0.766  10.664  0.0608  0.2959  0.3230
  246MPD1    C1 3729   2.427   0.716  10.622  0.1354 -0.3127 -0.0891
  246MPD1    C2 3730   2.468   0.752  10.493  0.1418  0.8295  0.0115
  246MPD1    C3 3731   2.394   0.836  10.418  0.6451 -0.5308 -0.4893
  246MPD1    C4 3732   2.268   0.874  10.456  0.2740  1.3757  0.6926
  246MPD1    C5 3733   2.224   0.844  10.588  0.0530  0.2429  0.5097
  246MPD1     H 3734   2.567   0.716  10.470 -0.5948 -1.8469  1.0351
  246MPD1    H1 3735   2.213   0.961  10.420 -0.7724  0.6071  0.4517
  246MPD1    H2 3736   2.269   0.742  10.765  0.0157 -0.1803  0.1983
  246MPD1    H3 3737   2.134   0.880  10.637 -0.8783 -4.0036  1.9006
  246MPD1     N 3738   2.459   0.876  10.296  0.4260 -0.0758 -0.1576
  246MPD1    H5 3739   2.542   0.838  10.252  0.5544 -0.7746  0.6744
  246MPD1    N1 3740   2.489   0.618  10.700  0.3144  0.3193  0.1321
  246MPD1    H6 3741   2.588   0.602  10.684  0.8615  1.8842  1.8904
  246MPD1    H7 3742   2.478   0.647  10.797  4.2888  1.3947  0.2798
  247MPD1     C 3743   4.435   4.210  15.803 -0.2722 -0.4074  0.8598
  247MPD1    C1 3744   4.501   4.311  15.740  0.1760  0.2119 -0.3067
  247MPD1    C2 3745   4.627   4.294  15.692 -0.3927  0.5875  0.1782
  247MPD1    C3 3746   4.689   4.171  15.709 -0.0583 -0.2650  0.5926
  247MPD1    C4 3747   4.624   4.074  15.776 -0.0914 -0.1920  0.5995
  247MPD1    C5 3748   4.500   4.092  15.820 -0.7472  0.4194 -0.5370
  247MPD1     H 3749   4.684   4.374  15.647  0.5039  0.7966  1.6808
  247MPD1    H1 3750   4.678   3.982  15.795  0.1610  0.2323  1.8809
  247MPD1    H2 3751   4.331   4.213  15.833 -0.5771  2.4771 -0.5454
  247MPD1    H3 3752   4.438   4.018  15.870 -0.8077  0.5072 -0.4826
  247MPD1     N 3753   0.106   4.154  15.673  0.4300  0.2008 -0.0721
  247MPD1    H5 3754   0.148   4.067  15.701 -0.4230 -0.2059 -0.0440
  247MPD1    N1 3755   4.427   4.428  15.705 -0.1690  0.8099  0.5248
  247MPD1    H6 3756   4.494   4.505  15.707  1.8411 -0.9268  0.3967
  247MPD1    H7 3757   4.361   4.439  15.782 -0.3804 -2.5501  0.8427
  248MPD1     C 3758   0.931   4.446  16.537  0.6168  0.0248 -0.1489
  248MPD1    C1 3759   0.906   4.570  16.593  0.4212  0.5840 -0.1642
  248MPD1    C2 3760   0.890   4.583  16.734 -0.4562 -0.2793 -0.0754
  248MPD1    C3 3761   0.888   4.470  16.823 -0.6712  0.2002 -0.6648
  248MPD1    C4 3762   0.893   4.352  16.757  0.6730 -0.3159 -0.5980
  248MPD1    C5 3763   0.921   4.335  16.625  0.1473 -0.5300 -0.3613
  248MPD1     H 3764   0.868   4.676  16.784  2.3659  0.1510  0.3869
  248MPD1    H1 3765   0.882   4.258  16.811  2.6183  0.5243  1.2878
  248MPD1    H2 3766   0.947   4.433  16.431 -0.7457 -1.5491 -0.1589
  248MPD1    H3 3767   0.932   4.234  16.590  0.1566 -0.2560 -1.1360
  248MPD1     N 3768   0.860   4.495  16.959  0.1459 -0.1636  0.1885
  248MPD1    H5 3769   0.874   4.588  16.997 -1.0807  0.4473 -0.8914
  248MPD1    N1 3770   0.901   4.679  16.504 -0.6487  0.4340 -0.4384
  248MPD1    H6 3771   0.978   4.677  16.438  0.1202 -1.9525  0.5236
  248MPD1    H7 3772   0.902   0.047  16.550 -1.7249  0.4851 -0.5202
  249MPD1     C 3773   3.544   4.465   9.164 -0.1298  0.5640 -0.2143
  249MPD1    C1 3774   3.660   4.405   9.201 -0.2870 -0.1966  0.7541
  249MPD1    C2 3775   3.645   4.279   9.260 -0.2791 -0.2128 -0.1440
  249MPD1    C3 3776   3.523   4.223   9.282 -0.6793  0.0989 -0.0878
  249MPD1    C4 3777   3.404   4.288   9.254  0.0073 -0.1811 -0.1702
  249MPD1    C5 3778   3.418   4.410   9.191 -0.1275  0.0235 -0.0305
  249MPD1     H 3779   3.735   4.223   9.280 -1.3421 -1.6202  0.6701
  249MPD1    H1 3780   3.303   4.259   9.280  0.0466 -0.4842 -0.3678
  249MPD1    H2 3781   3.545   4.559   9.110 -2.5093  0.5321 -0.3136
  249MPD1    H3 3782   3.331   4.469   9.162  0.6207  0.4886 -1.3040
  249MPD1     N 3783   3.531   4.097   9.347 -0.6752  0.5491 -0.6398
  249MPD1    H5 3784   3.624   4.067   9.374 -1.6079  0.1781  2.1636
  249MPD1    N1 3785   3.782   4.462   9.163 -0.5027  0.0423  0.6662
  249MPD1    H6 3786   3.770   4.562   9.177  2.3755 -0.0085  3.4021
  249MPD1    H7 3787   3.860   4.425   9.216  0.4401  1.9270  0.6042
  250MPD2     C 3788   4.010   3.653  12.512  0.0499  0.1231  0.9655
  250MPD2    C1 3789   4.090   3.584  12.592 -0.2715 -1.0638  1.1359
  250MPD2    C2 3790   4.093   3.445  12.565 -0.8726 -1.0123 -0.7776
  250MPD2    C3 3791   4.030   3.392  12.457 -0.4914 -0.0281  0.1683
  250MPD2    C4 3792   3.942   3.470  12.381 -0.0963 -0.3878  0.0002
  250MPD2    C5 3793   3.928   3.598  12.418  0.0982 -0.0693  0.3879
  250MPD2     H 3794   4.143   3.381  12.637  1.0770  0.2798 -0.9564
  250MPD2    H1 3795   3.890   3.432  12.293  1.1093 -0.1049 -0.8338
  250MPD2    H2 3796   4.007   3.761  12.527  1.3871  0.0505  1.8022
  250MPD2    H3 3797   3.852   3.654  12.364  0.2755  0.6324  0.8541
  250MPD2     N 3798   4.044   3.253  12.419 -0.5010  0.0982 -0.0228
  250MPD2    H5 3799   3.991   3.226  12.337  0.2792 -0.7295 -0.2541
  250MPD2    N1 3800   4.169   3.646  12.697 -0.2902 -0.3537 -0.3317
  250MPD2    H7 3801   4.149   3.745  12.707  0.0706 -0.5689  2.2934
  251TMC3    C1 3802   4.313   3.671  12.874  0.6852  1.1385 -0.1347
  251TMC3    C2 3803   4.227   3.773  12.912  0.0551  0.0808  0.2936
  251TMC3    C3 3804   4.279   3.880  12.988 -0.1285 -0.2263 -0.1597
  251TMC3    C4 3805   4.447   3.682  12.898 -0.3505  0.2520  0.7411
  251TMC3    C5 3806   4.496   3.789  12.968 -0.5939  0.8004  0.1197
  251TMC3    C6 3807   4.415   3.888  13.015 -0.1759 -0.5054 -0.6844
  251TMC3     C 3808   4.263   3.584  12.773 -0.9885 -0.1579  0.2406
  251TMC3     O 3809   4.305   3.470  12.771 -0.2107 -0.2044 -0.2250
  251TMC3     H 3810   4.120   3.758  12.904  0.2123 -0.8619  0.0544
  251TMC3    H1 3811   4.508   3.612  12.843  2.1231  2.0514  1.2124
  251TMC3    H2 3812   4.465   3.970  13.065  0.1796 -1.0389 -0.1673
  251TMC3    C7 3813   4.634   3.809  12.944 -0.0835  0.2144  0.0157
  251TMC3    C8 3814   4.192   3.968  13.056  0.7744 -0.6749 -1.0842
  251TMC3    O1 3815   4.713   3.722  12.972  0.0340 -0.4198 -0.0987
  251TMC3    O2 3816   4.237   4.036  13.147  0.7345 -0.2146 -0.1499
  252TMC3    C1 3817   0.527   3.345   9.232  0.4750 -0.4557  0.2714
  252TMC3    C2 3818   0.497   3.474   9.206  0.2285 -0.6317  0.4031
  252TMC3    C3 3819   0.407   3.496   9.107  0.3177 -0.0418 -0.5096
  252TMC3    C4 3820   0.456   3.246   9.184 -0.1255  0.3311  0.5476
  252TMC3    C5 3821   0.371   3.267   9.080  0.0642  0.5265  0.1079
  252TMC3    C6 3822   0.347   3.396   9.036 -0.2173  1.0672 -0.0155
  252TMC3     C 3823   0.643   3.313   9.315 -0.0221  0.3412  0.3559
  252TMC3     O 3824   0.645   3.213   9.384  0.1671 -0.1831 -0.0506
  252TMC3     H 3825   0.561   3.553   9.244 -0.9095  1.7388 -2.5495
  252TMC3    H1 3826   0.492   3.146   9.203  1.0875  0.4227 -1.2328
  252TMC3    H2 3827   0.273   3.419   8.961  2.0936  4.4494 -1.2396
  252TMC3    C7 3828   0.263   3.176   9.044 -0.2579 -0.2083  0.5776
  252TMC3    C8 3829   0.399   3.632   9.055 -0.1752  0.0675 -0.3322
  252TMC3    O1 3830   0.190   3.211   8.951 -0.1277 -0.3576 -0.3134
  252TMC3    O2 3831   0.360   3.649   8.941 -0.1331  0.5226 -0.4303
  253MPD2     C 3832   1.072   3.634  15.408 -0.0119 -0.0247 -0.1248
  253MPD2    C1 3833   0.941   3.584  15.401 -0.1567  0.3783 -0.2020
  253MPD2    C2 3834   0.884   3.535  15.522 -0.2166  0.1774 -0.9950
  253MPD2    C3 3835   0.955   3.531  15.636 -0.3847  0.1343  0.3778
  253MPD2    C4 3836   1.079   3.601  15.642 -0.2324 -0.5483  0.1329
  253MPD2    C5 3837   1.136   3.654  15.528 -0.1074 -0.2992 -0.2822
  253MPD2     H 3838   0.785   3.491  15.518 -0.7389  1.1878  0.7572
  253MPD2    H1 3839   1.135   3.612  15.734  2.2408 -3.0030 -1.0779
  253MPD2    H2 3840   1.141   3.662  15.329 -0.9511  1.7625 -0.3159
  253MPD2    H3 3841   1.237   3.688  15.544 -1.5660  2.5805  2.8113
  253MPD2     N 3842   0.918   3.457  15.751 -0.4411  0.6840  0.9597
  253MPD2    H5 3843   0.985   3.453  15.827 -0.7268 -0.3334  1.1627
  253MPD2    N1 3844   0.861   3.574  15.284 -0.1005  0.0579  0.1308
  253MPD2    H7 3845   0.777   3.519  15.303 -0.5176  0.4481 -0.5870
  254TMC3    C1 3846   0.766   3.322  15.890 -0.3629  0.3501  0.2886
  254TMC3    C2 3847   0.634   3.293  15.923 -0.3091  1.0169 -0.4454
  254TMC3    C3 3848   0.616   3.264  16.055  0.1201 -0.4166 -0.0986
  254TMC3    C4 3849   0.867   3.312  15.982  0.2716  0.2454  0.4460
  254TMC3    C5 3850   0.840   3.260  16.105  0.0190  0.9951 -0.0140
  254TMC3    C6 3851   0.710   3.251  16.151  0.1274 -0.0913  0.4961
  254TMC3     C 3852   0.794   3.392  15.763 -0.3337  0.3813  0.1756
  254TMC3     O 3853   0.703   3.387  15.681  0.1301  0.5891  0.0639
  254TMC3     H 3854   0.555   3.309  15.851 -0.6996 -2.2229 -0.7133
  254TMC3    H1 3855   0.967   3.333  15.948 -0.3731  0.2665 -1.4608
  254TMC3    H2 3856   0.691   3.254  16.257 -0.7470  1.2752  0.3009
  254TMC3    C7 3857   0.948   3.215  16.186  0.4581  0.3743 -0.0686
  254TMC3    C8 3858   0.480   3.258  16.108 -0.4588  0.1443 -0.0044
  254TMC3    O1 3859   0.915   3.172  16.299 -0.0734 -0.0952 -0.2818
  254TMC3    O2 3860   0.478   3.254  16.229  0.4114 -0.2402  0.4900
  255MPD2     C 3861   0.692   1.774   9.228 -0.2627  0.0848  0.8813
  255MPD2    C1 3862   0.579   1.705   9.263 -0.4876 -0.9325  0.5943
  255MPD2    C2 3863   0.588   1.569   9.249  0.7126  1.4186  0.1413
  255MPD2    C3 3864   0.700   1.501   9.207 -0.9396  0.6786  0.8287
  255MPD2    C4 3865   0.814   1.571   9.178  0.1289  0.0655 -0.3333
  255MPD2    C5 3866   0.804   1.708   9.190 -0.1255  0.5691  0.5366
  255MPD2     H 3867   0.491   1.522   9.256  0.5958  1.5546 -0.5666
  255MPD2    H1 3868   0.912   1.533   9.152 -0.4920 -1.0581 -1.0163
  255MPD2    H2 3869   0.684   1.881   9.245  1.6218  0.4003 -0.2944
  255MPD2    H3 3870   0.894   1.768   9.177 -1.3978  2.1464 -0.9988
  255MPD2     N 3871   0.692   1.365   9.185  0.9556  0.4077 -0.2614
  255MPD2    H5 3872   0.602   1.323   9.208  1.7965 -1.1646  0.1499
  255MPD2    N1 3873   0.467   1.778   9.304 -0.2045  0.2158 -0.3525
  255MPD2    H7 3874   0.463   1.879   9.292  2.7519  0.3451 -0.1006
  256TMC3    C1 3875   0.243   1.789   9.367 -0.4973 -0.4885  0.0994
  256TMC3    C2 3876   0.238   1.916   9.318  0.2324  0.1104 -0.0408
  256TMC3    C3 3877   0.129   1.992   9.340  0.1418 -0.2176  0.3958
  256TMC3    C4 3878   0.145   1.740   9.448 -0.0720 -0.2346 -0.0187
  256TMC3    C5 3879   0.033   1.825   9.459 -0.1922 -0.3327  0.0527
  256TMC3    C6 3880   0.019   1.952   9.415 -0.3193  0.6026 -0.2065
  256TMC3     C 3881   0.360   1.716   9.369  0.1722  0.1957 -0.7287
  256TMC3     O 3882   0.358   1.604   9.414  0.3777 -0.1243  0.7531
  256TMC3     H 3883   0.306   1.938   9.237  0.4650  2.5143  0.8322
  256TMC3    H1 3884   0.149   1.640   9.489  0.7793 -0.9927 -1.9630
  256TMC3    H2 3885   4.649   2.005   9.433  0.0769  1.9913 -2.2916
  256TMC3    C7 3886   4.644   1.762   9.532  0.2744  0.0927 -0.3445
  256TMC3    C8 3887   0.101   2.090   9.230  0.3370 -0.2057 -0.1762
  256TMC3    O1 3888   4.674   1.673   9.611 -0.2146  0.6526  0.1996
  256TMC3    O2 3889   4.704   2.106   9.219 -0.0188 -0.1367  0.1829
  257MPD2     C 3890   3.216   3.435  12.945  0.0813 -0.8585  0.0355
  257MPD2    C1 3891   3.148   3.335  12.886 -0.3618 -0.1120  0.5205
  257MPD2    C2 3892   3.077   3.252  12.969 -0.6460 -0.6001 -0.3774
  257MPD2    C3 3893   3.096   3.249  13.104  0.3062  0.9901  0.0494
  257MPD2    C4 3894   3.169   3.350  13.167 -1.5235 -0.0299 -0.0820
  257MPD2    C5 3895   3.223   3.444  13.083 -0.3692  0.0378 -0.2741
  257MPD2     H 3896   3.006   3.186  12.922  0.6981 -0.5992 -2.4166
  257MPD2    H1 3897   3.191   3.356  13.273  0.4886 -0.0524 -0.4893
  257MPD2    H2 3898   3.274   3.508  12.890  3.7354 -3.2764  0.6768
  257MPD2    H3 3899   3.279   3.526  13.126  0.6246 -0.5457 -0.4727
  257MPD2     N 3900   3.028   3.141  13.175 -0.1893  0.0543  0.5703
  257MPD2    H5 3901   2.991   3.083  13.100 -1.4769  2.6675 -0.8193
  257MPD2    N1 3902   3.134   3.346  12.744  0.3082 -0.3099  0.8342
  257MPD2    H7 3903   3.178   3.431  12.710 -1.6374  0.6990  0.8748
  258TMC3    C1 3904   2.943   3.003  13.353 -0.3218 -0.9852 -0.4138
  258TMC3    C2 3905   2.878   2.935  13.260 -0.3609 -0.1386  0.6673
  258TMC3    C3 3906   2.800   2.832  13.309 -1.1712 -0.9964  0.3122
  258TMC3    C4 3907   2.941   2.976  13.487 -0.1282  0.5673  0.7384
  258TMC3    C5 3908   2.869   2.866  13.524  0.0407 -0.0174 -0.0462
  258TMC3    C6 3909   2.795   2.798  13.442  0.4707  1.3848  0.0822
  258TMC3     C 3910   3.025   3.122  13.312 -0.1049 -0.1794  0.4613
  258TMC3     O 3911   3.088   3.177  13.408  0.1588  0.3884  0.2552
  258TMC3     H 3912   2.902   2.935  13.154  0.5117  3.7670  0.8942
  258TMC3    H1 3913   2.970   3.049  13.562  1.4185 -0.6444  1.3047
  258TMC3    H2 3914   2.742   2.710  13.477  0.1802  1.5109 -0.0357
  258TMC3    C7 3915   2.895   2.808  13.657  0.1620  0.4349  0.2743
  258TMC3    C8 3916   2.764   2.726  13.215 -0.6319 -0.0233  0.0910
  258TMC3    O1 3917   2.818   2.728  13.709  0.0989 -0.5482  0.3548
  258TMC3    O2 3918   2.754   2.613  13.255 -0.3567 -0.3549  0.0462
  259MPD2     C 3919   1.388   4.690   1.225  0.1102 -0.1390 -0.7596
  259MPD2    C1 3920   1.490   4.605   1.267  0.0808 -0.5437  0.0835
  259MPD2    C2 3921   1.585   4.572   1.174 -0.0256  0.2586  0.2613
  259MPD2    C3 3922   1.588   4.626   1.044 -0.7078  0.2496  0.4600
  259MPD2    C4 3923   1.486   4.709   1.001  0.0752 -0.0934  0.6333
  259MPD2    C5 3924   1.393   0.020   1.097 -0.1475 -0.3354  0.1249
  259MPD2     H 3925   1.662   4.500   1.196 -2.1842 -2.0502  0.2704
  259MPD2    H1 3926   1.468   0.000   0.895  1.9138 -1.3555  0.1547
  259MPD2    H2 3927   1.306   4.714   1.291  1.3521 -1.1541  1.1578
  259MPD2    H3 3928   1.311   0.082   1.064 -0.1422 -1.0155 -1.1673
  259MPD2     N 3929   1.699   4.593   0.968 -0.5385 -0.1576 -0.0616
  259MPD2    H5 3930   1.760   4.522   1.009 -0.4886 -0.1306 -0.0893
  259MPD2    N1 3931   1.506   4.572   1.405 -0.6544  0.3245 -0.5626
  259MPD2    H7 3932   1.430   4.612   1.460 -0.3882  0.2532 -0.1413
  260TMC3    C1 3933   1.840   4.616   0.772 -0.8219  0.0108  0.0398
  260TMC3    C2 3934   1.860   4.673   0.649  0.6400 -0.8314 -0.4513
  260TMC3    C3 3935   1.977   4.634   0.591 -0.5052 -1.0710  0.3619
  260TMC3    C4 3936   1.938   4.546   0.840  0.4451 -0.2271 -0.2716
  260TMC3    C5 3937   2.053   4.518   0.769  0.5300  0.0721  0.1824
  260TMC3    C6 3938   2.076   4.564   0.645  0.0729 -0.0060 -0.1258
  260TMC3     C 3939   1.730   4.660   0.854  0.0353  1.0497  0.3038
  260TMC3     O 3940   1.670   0.027   0.802 -0.0064 -0.0559  1.0069
  260TMC3     H 3941   1.790   0.021   0.607  0.5984  0.0314  1.0663
  260TMC3    H1 3942   1.925   4.507   0.940 -0.2238  4.0946  1.2978
  260TMC3    H2 3943   2.173   4.553   0.596  1.8518  0.0089  3.4005
  260TMC3    C7 3944   2.131   4.400   0.800 -0.6760  0.1329  0.7319
  260TMC3    C8 3945   1.999   4.663   0.447 -0.2211 -0.2093 -0.0605
  260TMC3    O1 3946   2.227   4.378   0.721 -0.4312  0.9606 -0.2587
  260TMC3    O2 3947   1.934   0.037   0.409 -0.1617 -0.1406  0.0415
  261MPD2     C 3948   3.815   2.808  11.924 -0.4431 -1.2480 -0.6241
  261MPD2    C1 3949   3.898   2.912  11.950 -0.3367  0.5573 -0.4245
  261MPD2    C2 3950   3.894   3.019  11.857 -0.1829  0.7708  0.6618
  261MPD2    C3 3951   3.814   3.024  11.744 -0.6468  0.2949  0.7558
  261MPD2    C4 3952   3.745   2.911  11.712  0.1057  0.4355 -0.7824
  261MPD2    C5 3953   3.743   2.812  11.804  0.1603  0.0562  0.2892
  261MPD2     H 3954   3.959   3.104  11.877 -0.5036  1.3851 -0.9107
  261MPD2    H1 3955   3.677   2.904  11.627  0.3457  2.1874 -1.1206
  261MPD2    H2 3956   3.814   2.728  11.998 -0.6266  0.6851  1.4705
  261MPD2    H3 3957   3.674   2.730  11.786 -0.3133  0.8894 -1.6278
  261MPD2     N 3958   3.823   3.140  11.663 -0.1878 -0.0014 -0.1427
  261MPD2    H5 3959   3.887   3.214  11.692 -1.8797  1.6251 -0.5699
  261MPD2    N1 3960   3.970   2.921  12.069  0.2658 -0.5139  0.3028
  261MPD2    H7 3961   4.029   3.003  12.074  0.4816 -0.6526  0.0655
  262TMC3    C1 3962   3.828   3.267  11.461  0.5313  1.0828 -0.3351
  262TMC3    C2 3963   3.806   3.390  11.521  0.4901 -0.2500  0.7463
  262TMC3    C3 3964   3.802   3.499  11.432  0.2713  0.4227 -0.3257
  262TMC3    C4 3965   3.854   3.247  11.331 -0.6620 -0.0014 -0.2244
  262TMC3    C5 3966   3.879   3.360  11.257 -0.6990  0.1048  0.1305
  262TMC3    C6 3967   3.847   3.485  11.305  0.1628 -0.4778  0.2421
  262TMC3     C 3968   3.764   3.155  11.534 -0.0507 -0.7698 -0.2648
  262TMC3     O 3969   3.688   3.075  11.477  0.1928  0.1623 -0.2924
  262TMC3     H 3970   3.780   3.393  11.626  1.0508  1.6152  0.8300
  262TMC3    H1 3971   3.878   3.151  11.287  0.3461  0.3900 -0.5312
  262TMC3    H2 3972   3.845   3.565  11.231 -1.5810  0.4503  1.3030
  262TMC3    C7 3973   3.893   3.344  11.116 -0.0563 -1.2165 -0.0753
  262TMC3    C8 3974   3.701   3.604  11.437 -0.2610 -0.1608 -0.2111
  262TMC3    O1 3975   3.879   3.236  11.066  0.1361 -0.4307 -0.1447
  262TMC3    O2 3976   3.690   3.670  11.336 -0.8101 -0.7489 -0.1021
  263MPD2     C 3977   4.447   2.296  11.316  0.5169 -0.2684  1.0022
  263MPD2    C1 3978   4.582   2.311  11.280  0.2017 -0.1156 -0.3587
  263MPD2    C2 3979   4.611   2.371  11.159  0.0714 -0.1541 -0.4357
  263MPD2    C3 3980   4.516   2.430  11.078 -0.3786  0.9205 -0.3023
  263MPD2    C4 3981   4.383   2.438  11.123  0.1350  0.0271 -0.4523
  263MPD2    C5 3982   4.356   2.370  11.246 -0.0289 -0.6707  0.5349
  263MPD2     H 3983   4.715   2.385  11.131 -0.2139  1.3665 -0.7346
  263MPD2    H1 3984   4.294   2.482  11.081  0.1206  0.3446 -0.0826
  263MPD2    H2 3985   4.414   2.243  11.404 -2.7991  0.8923  0.4347
  263MPD2    H3 3986   4.253   2.365  11.282 -0.5152  0.2722 -0.7462
  263MPD2     N 3987   4.560   2.493  10.956 -0.3617  0.0954  0.0138
  263MPD2    H5 3988   4.660   2.503  10.944 -0.3043 -1.7885 -1.2088
  263MPD2    N1 3989   4.681   2.255  11.368 -0.1632 -0.3148 -0.1772
  263MPD2    H7 3990   4.647   2.211  11.453 -0.3561  1.0570  0.4537
  264TMC3    C1 3991   4.558   2.648  10.773 -0.5941 -0.4507  0.4175
  264TMC3    C2 3992   4.503   2.775  10.753 -0.0594  0.2563 -0.5765
  264TMC3    C3 3993   4.568   2.865  10.671 -0.3366  0.5546 -0.0091
  264TMC3    C4 3994   4.681   2.618  10.727 -0.3328  0.4165  0.2298
  264TMC3    C5 3995   0.010   2.711  10.643  0.3060  0.4111 -0.3752
  264TMC3    C6 3996   4.675   2.834  10.606 -0.6792 -0.2573 -0.1455
  264TMC3     C 3997   4.479   2.553  10.859 -0.1910  0.3507 -0.2802
  264TMC3     O 3998   4.357   2.561  10.861  0.6177  0.2065  0.3257
  264TMC3     H 3999   4.402   2.799  10.786 -0.5528 -0.7643 -1.3587
  264TMC3    H1 4000   4.705   2.513  10.725  0.5675  0.6564 -1.0485
  264TMC3    H2 4001   0.009   2.900  10.542 -1.6186 -1.9495 -2.7691
  264TMC3    C7 4002   0.120   2.667  10.556 -0.4931 -0.6957  0.6053
  264TMC3    C8 4003   4.523   3.003  10.657  0.0330  0.0504 -0.3052
  264TMC3    O1 4004   0.196   2.578  10.597 -0.5780 -0.0395  0.4955
  264TMC3    O2 4005   4.543   3.053  10.547  0.5475 -0.2673 -0.0489
  265MPD2     C 4006   1.845   2.893  15.426  0.0724  0.7263 -0.2285
  265MPD2    C1 4007   1.872   2.999  15.336 -0.7873  0.0079 -0.6506
  265MPD2    C2 4008   1.912   2.970  15.211 -0.9515 -0.0033  0.8604
  265MPD2    C3 4009   1.941   2.845  15.165 -0.4792 -0.1675 -0.1200
  265MPD2    C4 4010   1.912   2.742  15.248  0.2565 -0.1153 -0.7907
  265MPD2    C5 4011   1.865   2.764  15.375 -0.0272  0.5259  0.0222
  265MPD2     H 4012   1.927   3.046  15.135 -1.2321  0.3519  1.1614
  265MPD2    H1 4013   1.921   2.638  15.218 -0.0658  0.5414 -3.1519
  265MPD2    H2 4014   1.806   2.905  15.526  2.2603 -2.2695  0.9848
  265MPD2    H3 4015   1.844   2.682  15.442 -2.2076  0.5551 -0.6527
  265MPD2     N 4016   1.998   2.821  15.039 -0.2083 -0.0846 -0.0063
  265MPD2    H5 4017   2.013   2.723  15.019  1.7245  0.7891 -2.8765
  265MPD2    N1 4018   1.860   3.130  15.378  0.1359 -0.3122  0.4446
  265MPD2    H7 4019   1.858   3.198  15.302 -2.0266  0.6378  1.3591
  266TMC3    C1 4020   1.844   3.319  15.524  0.5744  0.1903 -1.0412
  266TMC3    C2 4021   1.829   3.368  15.647  0.1391  0.5768 -0.0746
  266TMC3    C3 4022   1.839   3.505  15.672  0.9856 -0.2517 -0.5170
  266TMC3    C4 4023   1.890   3.404  15.423 -0.3905 -0.9854  0.2620
  266TMC3    C5 4024   1.907   3.534  15.450 -0.5705  0.5865  0.5758
  266TMC3    C6 4025   1.879   3.587  15.572 -0.0318  0.4767 -0.4591
  266TMC3     C 4026   1.847   3.173  15.510  0.4282  0.1044  0.3255
  266TMC3     O 4027   1.830   3.113  15.615 -0.3123 -0.6047  0.3761
  266TMC3     H 4028   1.788   3.311  15.730 -0.2516  1.3443  0.2657
  266TMC3    H1 4029   1.911   3.366  15.323 -1.2098 -0.9499  0.0768
  266TMC3    H2 4030   1.890   3.691  15.598  3.2745  0.2913 -1.1432
  266TMC3    C7 4031   1.917   3.628  15.329  0.1771  0.2089  0.2785
  266TMC3    C8 4032   1.871   3.542  15.807 -0.3040  0.6006  0.3339
  266TMC3    O1 4033   1.907   3.568  15.225  0.5654 -0.1310 -0.1562
  266TMC3    O2 4034   1.898   3.451  15.887  0.5395 -0.1275  0.2582
  267MPD2     C 4035   4.134   4.535   0.245  0.0667 -0.2631  0.5421
  267MPD2    C1 4036   4.217   4.626   0.176  0.2349 -0.4633 -0.6669
  267MPD2    C2 4037   4.197   4.669   0.047 -0.1316 -0.1586  0.1892
  267MPD2    C3 4038   4.088   4.625  17.675  0.3388  0.1325 -0.7515
  267MPD2    C4 4039   3.999   4.540   0.048 -0.1807 -0.7522  0.0640
  267MPD2    C5 4040   4.020   4.502   0.178 -0.2010 -0.1343 -0.1388
  267MPD2     H 4041   4.279   0.000   0.001  0.6948  2.1520  4.3656
  267MPD2    H1 4042   3.907   4.509   0.001 -1.1435 -1.0184  2.1455
  267MPD2    H2 4043   4.163   4.500   0.344  0.5265 -0.9158  0.1702
  267MPD2    H3 4044   3.944   4.434   0.215 -0.8323  0.4980 -0.2825
  267MPD2     N 4045   4.053   4.658  17.538  0.1426 -0.0794  0.0909
  267MPD2    H5 4046   3.965   4.622  17.502 -0.3375  1.2874 -0.1102
  267MPD2    N1 4047   4.347   4.655   0.237 -1.0133  0.4839  0.1483
  267MPD2    H7 4048   4.378   4.597   0.314 -2.7716 -2.2326 -1.1571
  268TMC3    C1 4049   4.555   0.063   0.272  0.0181  0.3160  0.0433
  268TMC3    C2 4050   4.613   0.185   0.238 -0.8767  0.4719 -0.5173
  268TMC3    C3 4051   4.682   0.240   0.339 -0.5229 -0.2564  0.1483
  268TMC3    C4 4052   4.593   4.706   0.383  0.4279 -0.0118 -0.3027
  268TMC3    C5 4053   4.696   0.037   0.462  0.0623 -0.1247 -0.3778
  268TMC3    C6 4054   0.012   0.165   0.446  1.2564  0.4293  0.3417
  268TMC3     C 4055   4.421   0.044   0.207 -0.4977  0.1340 -0.9786
  268TMC3     O 4056   4.385   0.131   0.128 -0.7072  0.3788 -0.3572
  268TMC3     H 4057   4.567   0.241   0.157 -0.5289 -0.6841 -1.5101
  268TMC3    H1 4058   4.539   4.616   0.413 -0.4550  0.7749  0.4890
  268TMC3    H2 4059   0.068   0.215   0.524 -0.2106  2.2360  0.2326
  268TMC3    C7 4060   0.030   4.666   0.563 -0.6259 -0.1114  0.5034
  268TMC3    C8 4061   0.014   0.373   0.315 -0.0314  0.0259  0.2110
  268TMC3    O1 4062   4.705   4.555   0.567 -0.3031 -0.0185  0.3047
  268TMC3    O2 4063   0.060   0.434   0.413 -0.0490  0.4974 -0.6024
  269MPD2     C 4064   4.678   3.534  15.621  0.3115  0.6489 -0.0576
  269MPD2    C1 4065   4.559   3.580  15.664  0.4878  0.1092 -0.3359
  269MPD2    C2 4066   4.525   3.707  15.626  0.4934  0.6371  0.6792
  269MPD2    C3 4067   4.602   3.787  15.540  0.0723  0.4533  0.5906
  269MPD2    C4 4068   4.716   3.733  15.487  0.0280  0.4812 -0.4917
  269MPD2    C5 4069   0.029   3.607  15.529  0.4921 -0.4761  0.8630
  269MPD2     H 4070   4.436   3.760  15.658 -0.9970 -1.3746 -0.1041
  269MPD2    H1 4071   0.058   3.779  15.413  0.4500 -1.5350 -1.3823
  269MPD2    H2 4072   4.715   3.441  15.662  0.7562 -0.4399 -2.8981
  269MPD2    H3 4073   0.129   3.567  15.512  0.7020 -0.5749  2.2905
  269MPD2     N 4074   4.549   3.910  15.501 -0.3602 -0.7060 -0.0386
  269MPD2    H5 4075   4.467   3.948  15.548 -0.6300 -2.5182  0.9381
  269MPD2    N1 4076   4.490   3.506  15.760  0.0436 -0.2125  0.8223
  269MPD2    H7 4077   4.519   3.411  15.782 -2.9154 -1.5185 -1.0141
  270TMC3    C1 4078   4.289   3.440  15.863  0.8008 -0.3972 -0.6644
  270TMC3    C2 4079   4.161   3.443  15.819 -0.5943  0.0914  0.0018
  270TMC3    C3 4080   4.091   3.329  15.819 -0.0743  0.8185 -0.8276
  270TMC3    C4 4081   4.339   3.326  15.919 -0.2215  0.1246 -0.5536
  270TMC3    C5 4082   4.259   3.217  15.935  0.2528  0.2161 -0.0254
  270TMC3    C6 4083   4.131   3.216  15.887 -0.2811  0.1536  0.4705
  270TMC3     C 4084   4.368   3.545  15.805 -0.1674  0.0182  0.2801
  270TMC3     O 4085   4.314   3.654  15.805 -0.3904  0.0936 -0.1217
  270TMC3     H 4086   4.127   3.530  15.763 -1.3907 -1.1856 -1.5000
  270TMC3    H1 4087   4.433   3.332  15.972 -1.5695  1.2921  1.7150
  270TMC3    H2 4088   4.063   3.134  15.906  0.6513 -0.9669 -1.0002
  270TMC3    C7 4089   4.321   3.083  15.959 -0.3821  0.9874 -0.0198
  270TMC3    C8 4090   4.045   3.303  15.683 -0.3032  0.3126  0.7349
  270TMC3    O1 4091   4.446   3.082  15.956 -0.0689  0.0021 -0.1528
  270TMC3    O2 4092   4.050   3.398  15.610 -0.2890  0.4374 -0.5340
  271MPD2     C 4093   3.643   3.411  14.090  0.4172 -0.3035 -0.3311
  271MPD2    C1 4094   3.560   3.376  14.199  0.4346  0.4910 -0.0326
  271MPD2    C2 4095   3.424   3.402  14.198 -0.3039  0.0731 -0.0723
  271MPD2    C3 4096   3.363   3.452  14.085  0.8614 -0.5215 -0.7083
  271MPD2    C4 4097   3.444   3.472  13.974  0.4129 -0.4375  0.1983
  271MPD2    C5 4098   3.578   3.460  13.977 -0.2265 -0.0197 -0.0173
  271MPD2     H 4099   3.373   3.385  14.292  1.3254 -0.0673  0.7952
  271MPD2    H1 4100   3.404   3.513  13.882 -1.2596 -2.7655 -0.1147
  271MPD2    H2 4101   3.751   3.401  14.090  0.2913 -1.6262 -1.3545
  271MPD2    H3 4102   3.635   3.490  13.890 -0.5444 -0.0910 -0.2491
  271MPD2     N 4103   3.222   3.464  14.080 -0.4029  0.1708  0.1017
  271MPD2    H5 4104   3.187   3.478  13.986  3.0682 -3.1181 -1.6590
  271MPD2    N1 4105   3.620   3.331  14.318 -0.3284 -0.4774 -0.0559
  271MPD2    H7 4106   3.555   3.303  14.391 -0.2491 -0.5485 -0.0134
  272TMC3    C1 4107   3.776   3.249  14.470  0.3867 -0.4525 -0.5986
  272TMC3    C2 4108   3.898   3.185  14.480 -0.5182  0.0681  0.0389
  272TMC3    C3 4109   3.936   3.135  14.601  0.4404  0.0677 -0.2219
  272TMC3    C4 4110   3.690   3.245  14.576  0.0253 -0.7965  0.0663
  272TMC3    C5 4111   3.730   3.192  14.699  1.0822  1.2955  0.3123
  272TMC3    C6 4112   3.851   3.144  14.711 -0.1030  0.3652  0.1203
  272TMC3     C 4113   3.751   3.315  14.342 -0.8215 -0.4643  0.3231
  272TMC3     O 4114   3.846   3.343  14.270 -0.5235 -0.2575 -0.3117
  272TMC3     H 4115   3.968   3.190  14.398  0.0719 -0.4954  0.5067
  272TMC3    H1 4116   3.592   3.291  14.562 -0.4118 -0.6038  3.9925
  272TMC3    H2 4117   3.884   3.089  14.798  0.3543 -0.9655 -0.8959
  272TMC3    C7 4118   3.679   3.271  14.811  0.5926 -0.2622 -0.6338
  272TMC3    C8 4119   4.065   3.065  14.597  0.3681 -0.0281 -0.1886
  272TMC3    O1 4120   3.555   3.286  14.806 -0.1102  0.5326 -0.1923
  272TMC3    O2 4121   4.131   3.074  14.492 -0.4178  0.4004  0.0846
  273MPD2     C 4122   0.569   1.118  11.975  0.2445 -0.0166  0.3181
  273MPD2    C1 4123   0.674   1.207  11.956  0.0972  0.3747  0.4819
  273MPD2    C2 4124   0.701   1.254  11.833 -0.2668 -0.4779 -0.5129
  273MPD2    C3 4125   0.622   1.216  11.723  0.2628  1.0591  0.1690
  273MPD2    C4 4126   0.517   1.134  11.747  0.1745  0.0348 -0.6749
  273MPD2    C5 4127   0.488   1.082  11.867  0.1959 -0.1702 -0.7502
  273MPD2     H 4128   0.771   1.336  11.819  1.0359 -1.3527  0.8201
  273MPD2    H1 4129   0.450   1.115  11.664  2.1617 -1.4588 -1.9215
  273MPD2    H2 4130   0.534   1.077  12.069 -1.3642 -2.6085 -1.3987
  273MPD2    H3 4131   0.406   1.016  11.894  2.6252 -2.0029  2.0284
  273MPD2     N 4132   0.647   1.254  11.590 -0.3211 -0.2157  0.3933
  273MPD2    H5 4133   0.595   1.218  11.511 -0.5716 -0.2623  0.5783
  273MPD2    N1 4134   0.761   1.251  12.057  0.2448 -0.1284 -0.6226
  273MPD2    H7 4135   0.832   1.316  12.026  0.4977 -0.0280  0.1732
  274TMC3    C1 4136   0.769   1.354  11.406 -0.6892 -0.0762  0.1693
  274TMC3    C2 4137   0.673   1.327  11.319 -0.8292  0.0379 -0.3652
  274TMC3    C3 4138   0.668   1.388  11.199  0.1757 -0.7433  0.2722
  274TMC3    C4 4139   0.866   1.452  11.374  0.5714 -0.2069  0.1857
  274TMC3    C5 4140   0.843   1.524  11.263  0.1815  0.1196 -0.6171
  274TMC3    C6 4141   0.759   1.492  11.164  0.1408 -0.1736 -0.3360
  274TMC3     C 4142   0.744   1.339  11.550  0.1429  0.4445  0.8298
  274TMC3     O 4143   0.814   1.409  11.621  0.6770  0.2798  0.2619
  274TMC3     H 4144   0.590   1.261  11.342 -0.7402  0.2890  0.6513
  274TMC3    H1 4145   0.952   1.471  11.437 -0.9734  0.7632  1.9660
  274TMC3    H2 4146   0.738   1.568  11.090 -1.6055 -1.1434 -0.8304
  274TMC3    C7 4147   0.789   1.644  11.316  0.5602  0.3161  0.1639
  274TMC3    C8 4148   0.557   1.369  11.105 -0.0706 -0.9056 -0.7203
  274TMC3    O1 4149   0.679   1.669  11.274  0.1073 -0.9251 -0.3259
  274TMC3    O2 4150   0.472   1.286  11.136  0.0570 -0.2833  0.1050
  275MPD2     C 4151   0.343   4.146  13.750  0.0521  0.1408  0.1619
  275MPD2    C1 4152   0.383   4.142  13.885  0.5324  0.0846 -0.0373
  275MPD2    C2 4153   0.281   4.132  13.977  0.0196  0.2380 -1.1114
  275MPD2    C3 4154   0.150   4.095  13.939 -0.1164  0.4207 -0.0737
  275MPD2    C4 4155   0.119   4.081  13.801  0.7478  0.4914 -0.0679
  275MPD2    C5 4156   0.215   4.121  13.710 -0.8288  0.3662 -0.3256
  275MPD2     H 4157   0.301   4.164  14.078 -0.3014 -0.6749 -0.7633
  275MPD2    H1 4158   0.024   4.038  13.770 -0.7692  3.2011  0.7852
  275MPD2    H2 4159   0.414   4.162  13.671  0.7397 -0.5406  0.6482
  275MPD2    H3 4160   0.194   4.128  13.604  0.1706 -1.5244 -0.6530
  275MPD2     N 4161   0.051   4.056  14.024  0.0523  1.1081  0.1288
  275MPD2    H5 4162   4.682   4.023  13.996  0.6007 -1.7744  1.6802
  275MPD2    N1 4163   0.518   4.155  13.932 -1.6165  0.4517  0.5610
  275MPD2    H7 4164   0.534   4.131  14.029 -0.6504  0.4424  0.4002
  276TMC3    C1 4165   0.739   4.155  13.913 -0.1114 -0.3426  0.6615
  276TMC3    C2 4166   0.723   4.030  13.970  0.6577  1.0080  0.3290
  276TMC3    C3 4167   0.811   3.993  14.063  0.2326  0.1996 -0.3909
  276TMC3    C4 4168   0.808   4.244  13.985 -0.1787  0.2344  0.0135
  276TMC3    C5 4169   0.894   4.207  14.086  0.4305  0.2328  0.9288
  276TMC3    C6 4170   0.906   4.074  14.117 -0.9333  0.1889 -0.9567
  276TMC3     C 4171   0.620   4.199  13.854 -0.5435  0.8193 -0.3379
  276TMC3     O 4172   0.633   4.225  13.736 -0.2809 -0.4183 -0.2836
  276TMC3     H 4173   0.657   3.952  13.934  3.3321  0.4337 -3.2880
  276TMC3    H1 4174   0.804   4.349  13.957  0.3920 -0.3980 -2.4057
  276TMC3    H2 4175   0.977   4.036  14.188 -1.7665 -1.4918 -1.0249
  276TMC3    C7 4176   0.962   4.304  14.176 -0.1673 -0.4708 -0.2405
  276TMC3    C8 4177   0.803   3.854  14.101 -0.0701  0.0460 -0.5640
  276TMC3    O1 4178   0.917   4.417  14.186  0.1802 -0.2526  0.0933
  276TMC3    O2 4179   0.778   3.776  14.009  0.3656  0.2505 -0.8584
  277MPD2     C 4180   2.343   3.050  13.154 -0.9833  0.5381  0.1517
  277MPD2    C1 4181   2.211   3.067  13.175  0.4023 -0.2713 -0.1010
  277MPD2    C2 4182   2.160   2.991  13.274  0.2132  0.2673 -0.0064
  277MPD2    C3 4183   2.225   2.890  13.335  0.5947  0.4097 -0.1557
  277MPD2    C4 4184   2.353   2.855  13.287  0.3710 -0.3526  0.0973
  277MPD2    C5 4185   2.412   2.947  13.209 -0.1882  0.0878 -0.9518
  277MPD2     H 4186   2.053   2.982  13.290  0.3556  0.2468  0.9902
  277MPD2    H1 4187   2.414   2.770  13.315  2.0226  0.4595 -0.9953
  277MPD2    H2 4188   2.395   3.105  13.076 -0.0486 -0.4908  0.0444
  277MPD2    H3 4189   2.514   2.932  13.178 -0.1353 -2.1345  0.3216
  277MPD2     N 4190   2.156   2.811  13.429  0.1359  0.4059  0.1250
  277MPD2    H5 4191   2.065   2.842  13.460  0.3786  1.0057  0.2462
  277MPD2    N1 4192   2.148   3.167  13.102 -0.4597  0.2395  0.4009
  277MPD2    H7 4193   2.205   3.228  13.045 -3.2443 -0.2653 -2.9066
  278TMC3    C1 4194   2.094   2.648  13.587 -0.4075  0.0317  0.0431
  278TMC3    C2 4195   2.065   2.514  13.594  0.3748  0.5259  0.8736
  278TMC3    C3 4196   1.939   2.483  13.627 -0.1635  0.5977  0.3813
  278TMC3    C4 4197   2.013   2.741  13.640 -0.3206  0.8049  0.4170
  278TMC3    C5 4198   1.891   2.704  13.676  0.0341  0.5685 -0.6725
  278TMC3    C6 4199   1.847   2.574  13.672  0.7472 -0.9200  0.0845
  278TMC3     C 4200   2.195   2.688  13.492  0.2837  0.3629 -0.5541
  278TMC3     O 4201   2.299   2.626  13.482 -0.1916 -0.4324  0.5026
  278TMC3     H 4202   2.137   2.450  13.545  0.7598  2.8315 -1.5697
  278TMC3    H1 4203   2.042   2.845  13.644  1.2672  0.3533  0.4932
  278TMC3    H2 4204   1.749   2.535  13.697  0.0878 -0.1029 -1.2900
  278TMC3    C7 4205   1.801   2.809  13.717 -0.6103 -0.1733 -0.4216
  278TMC3    C8 4206   1.900   2.347  13.584 -0.0044  0.1478  0.1824
  278TMC3    O1 4207   1.845   2.916  13.750 -0.5321  0.1054 -0.0464
  278TMC3    O2 4208   1.992   2.266  13.577  0.4438 -0.2093  0.0078
  279MPD2     C 4209   0.454   3.460   0.302  0.8455 -0.4777 -0.4288
  279MPD2    C1 4210   0.514   3.351   0.243 -0.9168 -0.0603 -0.0424
  279MPD2    C2 4211   0.636   3.370   0.177  0.5998 -0.0008  0.3088
  279MPD2    C3 4212   0.689   3.497   0.163 -0.1389  0.1541 -0.5829
  279MPD2    C4 4213   0.637   3.605   0.231 -0.3974  0.6473 -0.0494
  279MPD2    C5 4214   0.523   3.582   0.303 -0.3740 -0.7773 -0.4378
  279MPD2     H 4215   0.694   3.286   0.140  0.5654  0.0288  0.1860
  279MPD2    H1 4216   0.694   3.697   0.243 -1.7611  1.5037 -0.1259
  279MPD2    H2 4217   0.362   3.447   0.358  0.4684 -1.6956 -1.3274
  279MPD2    H3 4218   0.487   3.662   0.366  1.9220  0.3528 -0.5516
  279MPD2     N 4219   0.802   3.521   0.081  0.0671  0.9765 -0.0508
  279MPD2    H5 4220   0.842   3.613   0.098  1.5257 -0.0582  2.1119
  279MPD2    N1 4221   0.441   3.232   0.241 -0.3839  0.0540  0.0363
  279MPD2    H7 4222   0.364   3.223   0.306 -0.8717  1.0961 -0.3935
  280TMC3    C1 4223   0.411   2.998   0.204  0.3184  0.1464 -0.0873
  280TMC3    C2 4224   0.485   2.885   0.226 -0.3327 -0.0823 -0.9573
  280TMC3    C3 4225   0.420   2.775   0.278 -0.4281  0.4507 -0.4304
  280TMC3    C4 4226   0.278   3.009   0.233  0.0611 -0.3406  0.3519
  280TMC3    C5 4227   0.217   2.891   0.275 -0.8173  0.1446 -0.5867
  280TMC3    C6 4228   0.286   2.775   0.314  0.2456 -0.4028  0.6393
  280TMC3     C 4229   0.484   3.119   0.174  0.1217  0.1628 -0.9664
  280TMC3     O 4230   0.586   3.089   0.119  0.2574  0.2827  0.2232
  280TMC3     H 4231   0.591   2.886   0.205 -0.0861  2.8478  0.3790
  280TMC3    H1 4232   0.219   3.097   0.211 -1.9571 -1.8262 -0.1793
  280TMC3    H2 4233   0.236   2.682   0.339  0.9723 -1.4360 -1.7400
  280TMC3    C7 4234   0.069   2.883   0.251  0.7528 -0.1143 -0.0589
  280TMC3    C8 4235   0.512   2.666   0.317 -0.3162  0.3406 -0.6945
  280TMC3    O1 4236   0.003   2.792   0.305 -0.6843  0.2858  0.3453
  280TMC3    O2 4237   0.475   2.608   0.419 -0.1314  0.4256  0.2508
  281TMC3    C1 4238   0.334   3.673  13.119  0.0419 -0.4442  0.2261
  281TMC3    C2 4239   0.383   3.740  13.012  0.4787  0.1348  0.4155
  281TMC3    C3 4240   0.374   3.679  12.889 -0.0356  0.0281  0.2981
  281TMC3    C4 4241   0.246   3.569  13.101  0.1435 -1.1527 -0.1872
  281TMC3    C5 4242   0.223   3.525  12.974 -0.8115  0.2079 -0.0206
  281TMC3    C6 4243   0.292   3.578  12.870 -0.0336  0.5156 -0.6812
  281TMC3     C 4244   0.327   3.744  13.239 -1.2073  0.4358 -0.5919
  281TMC3     O 4245   0.376   3.706  13.341  0.0848  0.1838  0.5687
  281TMC3     H 4246   0.441   3.830  13.032 -2.1230  1.8669  0.1242
  281TMC3    H1 4247   0.195   3.529  13.188 -0.4252  0.5851  0.2769
  281TMC3    H2 4248   0.295   3.529  12.773 -1.2254  0.4349 -0.6823
  281TMC3    C7 4249   0.110   3.430  12.951  0.3784 -0.0073 -0.4537
  281TMC3    C8 4250   0.408   3.748  12.763  0.1473  0.1554 -0.0962
  281TMC3    O1 4251   0.083   3.401  12.831  0.3356  0.1537  0.5791
  281TMC3    O2 4252   0.482   3.678  12.694  0.3787 -0.0721  0.1155
  282MPD2     C 4253   1.999   0.097  14.695 -0.7855 -0.1606  0.2431
  282MPD2    C1 4254   1.873   0.094  14.749  0.6951 -0.1457 -0.3352
  282MPD2    C2 4255   1.772   0.059  14.663 -0.1981 -0.1349  0.2194
  282MPD2    C3 4256   1.797   0.030  14.533  0.3917 -0.3909 -0.7415
  282MPD2    C4 4257   1.920   0.041  14.478 -0.3296 -0.0398 -0.1375
  282MPD2    C5 4258   2.021   0.068  14.564 -0.9789 -0.3918  0.3942
  282MPD2     H 4259   1.674   0.034  14.701 -0.9266  0.3796 -1.3238
  282MPD2    H1 4260   1.938   0.017  14.374 -2.2358  1.2393 -0.7578
  282MPD2    H2 4261   2.091   0.095  14.752  0.0711  0.3520 -1.1124
  282MPD2    H3 4262   2.123   0.052  14.531 -1.0775 -1.0366  0.3947
  282MPD2     N 4263   1.688   4.702  14.456  0.7938 -0.0065  0.2051
  282MPD2    H5 4264   1.594   4.719  14.489  0.6966 -0.1332 -0.0091
  282MPD2    N1 4265   1.845   0.105  14.890  0.4557 -0.6309  0.3970
  282MPD2    H7 4266   1.751   0.087  14.924  0.8124 -0.4597  1.4478
  283TMC3    C1 4267   1.869   0.167  15.112 -0.4237  0.2173  0.1238
  283TMC3    C2 4268   1.919   0.261  15.201 -0.6178 -0.3849 -0.4395
  283TMC3    C3 4269   1.868   0.259  15.332 -0.5435  0.5481  0.2489
  283TMC3    C4 4270   1.775   0.072  15.142 -0.0957 -0.0266  0.2300
  283TMC3    C5 4271   1.725   0.076  15.267  0.3711 -0.2055  0.2993
  283TMC3    C6 4272   1.771   0.165  15.363 -0.0298 -0.9062 -0.0159
  283TMC3     C 4273   1.937   0.144  14.982  0.3177 -0.1428 -0.0985
  283TMC3     O 4274   2.059   0.173  14.971 -0.2958  0.4793  0.6994
  283TMC3     H 4275   1.995   0.330  15.168 -2.3967  2.6509  1.8081
  283TMC3    H1 4276   1.740   4.720  15.070  1.1172  0.5281 -0.9385
  283TMC3    H2 4277   1.732   0.174  15.464  0.8824 -3.3723  0.5528
  283TMC3    C7 4278   1.617   4.705  15.314  0.0949  0.5501  0.4571
  283TMC3    C8 4279   1.897   0.356  15.432  0.0881  0.3439  0.4586
  283TMC3    O1 4280   1.552   0.006  15.413 -0.6119 -0.1350 -0.1797
  283TMC3    O2 4281   1.901   0.316  15.552  0.1066  0.1743  0.0728
  284MPD2     C 4282   4.506   4.065  11.162  1.2910 -1.0560  0.3790
  284MPD2    C1 4283   4.636   4.088  11.130 -0.0754 -1.3359 -0.5135
  284MPD2    C2 4284   0.008   3.992  11.150 -0.7902  0.5183  0.4451
  284MPD2    C3 4285   4.699   3.865  11.202 -0.2478  0.1009 -0.8344
  284MPD2    C4 4286   4.559   3.841  11.224 -0.0103 -0.4831  0.1563
  284MPD2    C5 4287   4.472   3.947  11.211  1.0120 -0.3352 -0.7780
  284MPD2     H 4288   0.109   4.014  11.119 -1.1434  0.0845 -1.0294
  284MPD2    H1 4289   4.514   3.748  11.256  0.9919 -1.3721 -1.0416
  284MPD2    H2 4290   4.429   4.141  11.157 -0.2659 -2.6877 -0.4267
  284MPD2    H3 4291   4.368   3.940  11.239  1.7436  0.0690  2.0431
  284MPD2     N 4292   0.074   3.765  11.224 -0.2991 -0.0188  0.6814
  284MPD2    H5 4293   0.169   3.801  11.223 -0.2212 -0.2422 -0.6843
  284MPD2    N1 4294   4.678   4.218  11.083 -0.0262 -0.7164  0.0543
  284MPD2    H7 4295   0.048   4.224  11.040  0.9392 -0.8894  2.1144
  285TMC3    C1 4296   4.686   4.442  11.030  0.2292  0.0894 -0.4636
  285TMC3    C2 4297   0.044   4.395  10.932  0.5736  0.1293  0.1277
  285TMC3    C3 4298   0.171   4.428  10.935  0.2811 -0.2293  0.4147
  285TMC3    C4 4299   0.007   4.531  11.124  0.1350  0.0387 -0.1306
  285TMC3    C5 4300   0.143   4.562  11.125  0.1375 -0.6198 -0.8574
  285TMC3    C6 4301   0.225   4.521  11.023  0.6377 -0.5032 -0.6442
  285TMC3     C 4302   4.613   4.334  11.092 -0.2164  0.3897  0.2976
  285TMC3     O 4303   4.525   4.366  11.169  0.1746 -0.8664 -0.6842
  285TMC3     H 4304   0.007   4.326  10.857  0.4949 -0.5375  0.7749
  285TMC3    H1 4305   4.669   4.561  11.208  1.3754 -0.7756  1.0492
  285TMC3    H2 4306   0.332   4.532  11.028  0.6352 -0.0970 -1.6007
  285TMC3    C7 4307   0.199   4.616  11.243  0.2870 -0.0553 -0.0460
  285TMC3    C8 4308   0.250   4.314  10.896 -0.2098  0.0419  0.1776
  285TMC3    O1 4309   0.126   4.600  11.339 -0.1375  0.5435 -0.2312
  285TMC3    O2 4310   0.211   4.201  10.935 -0.2099 -0.4097 -0.1826
  286MPD2     C 4311   4.448   2.484   1.505  0.3616  0.0437  0.3852
  286MPD2    C1 4312   4.454   2.491   1.368  0.3553  0.6529  0.2325
  286MPD2    C2 4313   4.510   2.391   1.297  0.0635  0.7790 -0.1027
  286MPD2    C3 4314   4.553   2.273   1.359 -0.3214 -0.3300 -0.5697
  286MPD2    C4 4315   4.542   2.263   1.500 -0.3320 -0.5044  0.4480
  286MPD2    C5 4316   4.494   2.372   1.569  0.1112 -0.3535  0.2268
  286MPD2     H 4317   4.520   2.400   1.190 -0.4462 -3.8747 -0.5661
  286MPD2    H1 4318   4.575   2.174   1.552 -1.2538 -0.8641  0.4137
  286MPD2    H2 4319   4.399   2.554   1.573  0.7775  0.9812 -0.2806
  286MPD2    H3 4320   4.480   2.363   1.676  0.5534 -0.5319  0.2701
  286MPD2     N 4321   4.611   2.158   1.290  0.2239  0.2184 -0.3230
  286MPD2    H5 4322   4.646   2.083   1.349  2.2059  0.9258 -0.5846
  286MPD2    N1 4323   4.416   2.604   1.292 -0.3469 -0.1050  0.0766
  286MPD2    H7 4324   4.454   2.617   1.199  0.0194 -0.2299  0.2080
  287TMC3    C1 4325   4.709   2.035   1.121 -0.5331  0.1518  0.0399
  287TMC3    C2 4326   4.703   2.007   0.985 -0.8318 -0.0906  0.9136
  287TMC3    C3 4327   0.057   1.908   0.933  0.0323 -0.1538  0.4749
  287TMC3    C4 4328   0.082   1.980   1.203 -0.7396 -0.5212  0.3302
  287TMC3    C5 4329   0.167   1.893   1.141  0.1098 -0.5062  0.3643
  287TMC3    C6 4330   0.156   1.849   1.013 -0.5990 -0.0813 -0.0695
  287TMC3     C 4331   4.633   2.150   1.154 -0.0775  0.3193  0.0691
  287TMC3     O 4332   4.571   2.210   1.066  0.3411 -0.4785 -0.1245
  287TMC3     H 4333   4.628   2.058   0.926 -1.6905 -0.6111  1.5523
  287TMC3    H1 4334   0.110   2.023   1.298 -3.2341  0.9896  0.3777
  287TMC3    H2 4335   0.223   1.775   0.972 -1.3015 -0.6001 -0.2816
  287TMC3    C7 4336   0.294   1.854   1.219  0.1179  0.6845 -0.3096
  287TMC3    C8 4337   0.056   1.878   0.790  0.3763 -0.0565 -0.7381
  287TMC3    O1 4338   0.344   1.938   1.293 -0.0197  0.2431  0.2352
  287TMC3    O2 4339   0.134   1.795   0.755 -0.2529  0.0815  0.1924
  288TMC3    C1 4340   2.087   2.595  14.047  0.4922 -0.1904 -0.3787
  288TMC3    C2 4341   2.038   2.632  14.166  0.0118  0.2024  0.6443
  288TMC3    C3 4342   2.071   2.756  14.212 -0.3378  0.7278  0.2777
  288TMC3    C4 4343   2.169   2.673  13.976 -0.0554  0.1703  0.4754
  288TMC3    C5 4344   2.212   2.793  14.031  0.3703 -0.3349  0.0863
  288TMC3    C6 4345   2.164   2.839  14.148  0.0065 -0.7825 -0.6657
  288TMC3     C 4346   2.057   2.463  13.993  0.0237 -0.3880 -0.2546
  288TMC3     O 4347   2.155   2.398  13.955 -0.1050  0.4715  0.2514
  288TMC3     H 4348   1.968   2.565  14.214 -0.3602 -0.8004 -1.3233
  288TMC3    H1 4349   2.202   2.639  13.878  0.3951  0.8838  0.3783
  288TMC3    H2 4350   2.199   2.932  14.191 -0.3329 -1.5520  1.3056
  288TMC3    C7 4351   2.323   2.857  13.966  0.6778 -0.4660 -0.5207
  288TMC3    C8 4352   2.013   2.809  14.339  0.5235  0.0594 -0.3034
  288TMC3    O1 4353   2.318   2.866  13.846  0.1272 -0.3647  0.5025
  288TMC3    O2 4354   2.051   2.922  14.375  0.3461 -0.0924 -0.0982
  289MPD2     C 4355   2.213   1.731  14.021  0.8808  0.3235 -0.4433
  289MPD2    C1 4356   2.172   1.806  14.129  0.5675  0.0628  0.4919
  289MPD2    C2 4357   2.038   1.820  14.152 -0.1998  0.3825 -0.2681
  289MPD2    C3 4358   1.946   1.743  14.086 -0.1713  0.3216 -0.2656
  289MPD2    C4 4359   2.001   1.654  13.995  0.5612 -0.3624  0.0457
  289MPD2    C5 4360   2.130   1.640  13.968  0.1393  0.2417 -0.1408
  289MPD2     H 4361   2.007   1.894  14.225 -2.5563 -0.7167 -0.1816
  289MPD2    H1 4362   1.944   1.572  13.954 -0.8155  0.1857  0.8743
  289MPD2    H2 4363   2.315   1.729  13.984  0.8917  1.9872 -0.4846
  289MPD2    H3 4364   2.163   1.561  13.902  0.7791  0.0721  0.3722
  289MPD2     N 4365   1.808   1.762  14.099 -0.7593 -0.1351 -0.0705
  289MPD2    H5 4366   1.744   1.693  14.062 -0.1694 -0.0727 -1.2030
  289MPD2    N1 4367   2.272   1.890  14.195 -0.1655 -0.0591  0.2868
  289MPD2    H7 4368   2.364   1.900  14.152 -0.9221 -1.2618 -1.5622
  290TMC3    C1 4369   1.605   1.865  14.174 -0.0710  0.1252  0.5620
  290TMC3    C2 4370   1.548   1.993  14.153  0.3342  0.5087  0.3204
  290TMC3    C3 4371   1.414   2.008  14.176 -0.5194 -0.2305  0.3575
  290TMC3    C4 4372   1.530   1.758  14.207 -0.5064 -0.2453  0.6331
  290TMC3    C5 4373   1.395   1.782  14.223  0.2408 -0.2097 -0.1761
  290TMC3    C6 4374   1.324   1.900  14.207  0.5411 -0.3164  0.0442
  290TMC3     C 4375   1.752   1.867  14.172  0.6294  0.2658  0.3984
  290TMC3     O 4376   1.807   1.969  14.212 -0.3097  0.1006 -0.6360
  290TMC3     H 4377   1.608   2.067  14.101  0.2260  1.1918  1.1608
  290TMC3    H1 4378   1.579   1.666  14.233  0.9340  0.6467  1.0481
  290TMC3    H2 4379   1.216   1.909  14.210  0.6738  0.9015  1.2085
  290TMC3    C7 4380   1.311   1.670  14.281  0.4237  0.1901  0.7459
  290TMC3    C8 4381   1.350   2.138  14.150  0.0454 -0.2994 -0.2404
  290TMC3    O1 4382   1.208   1.711  14.334  0.1407  0.3332  0.9013
  290TMC3    O2 4383   1.227   2.136  14.155 -0.4215  0.1520  0.0082
  291MPD2     C 4384   1.118   1.962   0.600 -0.3033 -0.4409  0.7019
  291MPD2    C1 4385   1.192   1.939   0.487  0.1081 -0.1358 -0.2832
  291MPD2    C2 4386   1.256   2.045   0.430 -0.3304 -0.3013  0.3079
  291MPD2    C3 4387   1.251   2.175   0.479  0.0034 -0.7809  0.4216
  291MPD2    C4 4388   1.166   2.190   0.586 -0.5968  0.3563 -0.2903
  291MPD2    C5 4389   1.095   2.091   0.642  0.3405 -0.0316  0.3068
  291MPD2     H 4390   1.327   2.021   0.351  0.0664 -1.4737  1.0339
  291MPD2    H1 4391   1.162   2.290   0.628  0.7007 -0.2373  1.2575
  291MPD2    H2 4392   1.076   1.886   0.665 -1.1257  0.5605  1.3239
  291MPD2    H3 4393   1.033   2.116   0.728  0.0208  0.1372  0.0279
  291MPD2     N 4394   1.315   2.287   0.417 -0.8891  0.2560 -0.6601
  291MPD2    H5 4395   1.298   2.381   0.451  0.0115  0.5244 -0.9403
  291MPD2    N1 4396   1.217   1.801   0.455  0.3922 -0.4086  0.7951
  291MPD2    H7 4397   1.158   1.734   0.505  3.4705 -2.6117  1.4375
  292TMC3    C1 4398   1.309   1.607   0.377  0.2011  0.0237 -0.4717
  292TMC3    C2 4399   1.272   1.565   0.500  0.1092  0.4565  0.2958
  292TMC3    C3 4400   1.235   1.435   0.518 -0.5220  0.6058  0.0083
  292TMC3    C4 4401   1.293   1.521   0.271 -0.0438 -0.4462 -0.6889
  292TMC3    C5 4402   1.245   1.395   0.287 -0.7234  0.4399 -0.4803
  292TMC3    C6 4403   1.223   1.345   0.412  0.3529 -1.1235  0.0646
  292TMC3     C 4404   1.298   1.743   0.356  0.4282 -0.4517  0.5458
  292TMC3     O 4405   1.364   1.800   0.271 -0.0604 -0.1974 -0.8829
  292TMC3     H 4406   1.281   1.629   0.587  1.2811  0.9353 -0.1835
  292TMC3    H1 4407   1.317   1.556   0.171  2.7856 -0.8877 -0.1791
  292TMC3    H2 4408   1.163   1.255   0.423  1.0695 -1.2202  3.1331
  292TMC3    C7 4409   1.209   1.302   0.182  0.4813 -0.1629 -0.1551
  292TMC3    C8 4410   1.163   1.403   0.644 -0.0661 -0.4126 -0.0294
  292TMC3    O1 4411   1.198   1.184   0.210 -0.1889  0.6349 -0.0306
  292TMC3    O2 4412   1.163   1.487   0.730 -0.3064  0.1909 -0.2627
  293MPD2     C 4413   3.410   3.037  12.757 -0.4016 -0.5802  0.1690
  293MPD2    C1 4414   3.326   2.989  12.859  0.1553  0.9159  0.4072
  293MPD2    C2 4415   3.362   3.020  12.992 -0.2896  0.4724 -0.0794
  293MPD2    C3 4416   3.456   3.115  13.015 -0.9745 -0.0693  0.2895
  293MPD2    C4 4417   3.536   3.162  12.915  0.6700  0.4988 -0.5968
  293MPD2    C5 4418   3.514   3.129  12.790 -0.2071  0.7083  0.3850
  293MPD2     H 4419   3.283   3.009  13.065  0.3365  0.1684  0.5542
  293MPD2    H1 4420   3.616   3.230  12.942 -1.2522  1.2944  3.0004
  293MPD2    H2 4421   3.393   3.015  12.653 -1.2435 -2.3138  0.6627
  293MPD2    H3 4422   3.582   3.166  12.714  2.0590 -0.6547  1.7302
  293MPD2     N 4423   3.460   3.159  13.149 -0.2679  0.1751 -0.5987
  293MPD2    H5 4424   3.396   3.124  13.219  0.0597  0.1625 -0.3066
  293MPD2    N1 4425   3.212   2.919  12.832 -0.0636  0.0529  0.2621
  293MPD2    H7 4426   3.186   2.910  12.734 -1.7720  1.8744  0.5371
  294TMC3    C1 4427   3.026   2.775  12.857 -0.1166  0.8349  0.0693
  294TMC3    C2 4428   2.990   2.645  12.908  0.2250 -0.9164  0.4359
  294TMC3    C3 4429   2.912   2.570  12.822 -0.1436  0.0867 -0.0628
  294TMC3    C4 4430   2.973   2.816  12.740  0.5342 -0.4771 -0.3789
  294TMC3    C5 4431   2.889   2.746  12.663 -0.5689  0.3299  0.0198
  294TMC3    C6 4432   2.867   2.616  12.698 -0.1017  0.0655 -0.0798
  294TMC3     C 4433   3.130   2.855  12.917 -0.7133  0.6602 -0.0350
  294TMC3     O 4434   3.134   2.845  13.039 -0.5271  0.8822  0.0261
  294TMC3     H 4435   3.014   2.611  13.007 -0.1522 -2.4772 -0.0120
  294TMC3    H1 4436   2.991   2.919  12.711  1.4081 -0.5276 -0.0125
  294TMC3    H2 4437   2.814   2.549  12.632 -0.6959  2.6885 -2.2522
  294TMC3    C7 4438   2.842   2.789  12.535  0.2920  0.0474 -0.4607
  294TMC3    C8 4439   2.923   2.425  12.834  0.1412  0.7549  0.1019
  294TMC3    O1 4440   2.760   2.713  12.480 -0.4285  0.6396  0.1150
  294TMC3    O2 4441   2.920   2.387  12.951 -0.2060  0.0557 -0.4457
  295MPD2     C 4442   3.567   0.971   0.296  0.1492 -0.1968 -1.3835
  295MPD2    C1 4443   3.546   1.109   0.292 -0.1804  0.4076  0.0425
  295MPD2    C2 4444   3.416   1.147   0.307 -0.4233  0.0162  0.2730
  295MPD2    C3 4445   3.314   1.056   0.336  0.5390  0.2749 -0.6414
  295MPD2    C4 4446   3.342   0.919   0.347  0.2442  0.2807 -0.0735
  295MPD2    C5 4447   3.469   0.880   0.323  0.6832  0.0622 -0.1495
  295MPD2     H 4448   3.404   1.254   0.294 -0.2002 -0.1149 -1.0034
  295MPD2    H1 4449   3.261   0.850   0.365  0.1181  0.5732  0.4685
  295MPD2    H2 4450   3.666   0.929   0.283  0.5108 -0.0151  0.7244
  295MPD2    H3 4451   3.499   0.776   0.324 -1.0394 -0.4181  0.6697
  295MPD2     N 4452   3.182   1.101   0.329  0.6515  0.2494  0.0780
  295MPD2    H5 4453   3.112   1.028   0.337  0.6024  0.5291  2.1521
  295MPD2    N1 4454   3.650   1.203   0.261  0.0525  0.2179  0.4722
  295MPD2    H7 4455   3.625   1.300   0.276 -1.7784 -0.3538  1.0383
  296TMC3    C1 4456   2.990   1.222   0.284  0.3824 -0.5886 -0.1325
  296TMC3    C2 4457   2.953   1.340   0.232 -0.0726  0.5613 -0.2409
  296TMC3    C3 4458   2.832   1.388   0.269  0.0456  0.2099 -0.1561
  296TMC3    C4 4459   2.909   1.142   0.368  0.4831  0.1830  0.6591
  296TMC3    C5 4460   2.788   1.202   0.400 -0.5265  0.4398 -0.1485
  296TMC3    C6 4461   2.748   1.321   0.353  0.3815  0.5590  0.1544
  296TMC3     C 4462   3.132   1.227   0.312  0.6318  0.3767 -0.0091
  296TMC3     O 4463   3.184   1.336   0.311 -0.7042  0.5413 -0.5395
  296TMC3     H 4464   3.014   1.391   0.159  1.6896  0.3044  1.0519
  296TMC3    H1 4465   2.931   1.038   0.387 -1.4583 -0.9292 -3.0609
  296TMC3    H2 4466   2.649   1.358   0.378  0.1035 -1.2957  1.7847
  296TMC3    C7 4467   2.678   1.129   0.459 -0.2058 -0.2266  0.3054
  296TMC3    C8 4468   2.838   1.531   0.297 -0.5222 -0.2032 -0.3652
  296TMC3    O1 4469   2.564   1.153   0.426  0.0852  0.0286 -0.2965
  296TMC3    O2 4470   2.888   1.610   0.218  0.2148 -0.1512  0.4816
  297MPD2     C 4471   0.910   3.652  16.089  0.1444 -0.5191 -0.3669
  297MPD2    C1 4472   0.844   3.749  16.017  0.0957  0.4669  0.9447
  297MPD2    C2 4473   0.919   3.840  15.941 -0.7309 -0.7036  0.1587
  297MPD2    C3 4474   1.058   3.835  15.937  0.1342 -0.3342  0.2113
  297MPD2    C4 4475   1.120   3.742  16.015  0.4613  0.0569 -0.1254
  297MPD2    C5 4476   1.045   3.649  16.085 -0.4761  0.3007 -0.1010
  297MPD2     H 4477   0.880   3.912  15.869  1.4380  0.1802 -0.1292
  297MPD2    H1 4478   1.228   3.739  16.011  0.4798  0.0658  0.4331
  297MPD2    H2 4479   0.857   3.589  16.158 -1.7049  0.5069 -0.8531
  297MPD2    H3 4480   1.098   3.577  16.147  1.6887  1.6013 -0.4330
  297MPD2     N 4481   1.118   3.922  15.846 -0.1978 -0.3063  0.4608
  297MPD2    H5 4482   1.057   3.995  15.810  1.1710 -0.4983 -2.2382
  297MPD2    N1 4483   0.703   3.744  15.999 -0.3136 -0.1351  0.0537
  297MPD2    H7 4484   0.669   3.800  15.921 -0.5556 -0.4161 -0.0416
  298TMC3    C1 4485   0.481   3.683  16.034 -0.0219 -0.0052  0.0217
  298TMC3    C2 4486   0.453   3.703  15.903  0.1857 -0.8353  0.8426
  298TMC3    C3 4487   0.326   3.744  15.872 -0.3013 -0.1022  0.1380
  298TMC3    C4 4488   0.385   3.683  16.129  0.6953  0.3253  0.0167
  298TMC3    C5 4489   0.259   3.718  16.090  0.0537 -0.2367  0.1158
  298TMC3    C6 4490   0.222   3.745  15.956  1.0340 -0.4063 -0.2851
  298TMC3     C 4491   0.620   3.660  16.069  0.5736 -0.2010 -0.1082
  298TMC3     O 4492   0.632   3.583  16.165  0.0224  0.7506 -0.0972
  298TMC3     H 4493   0.527   3.694  15.824  0.3082  3.4351  0.4332
  298TMC3    H1 4494   0.413   3.664  16.231 -1.3248  2.4131  0.9647
  298TMC3    H2 4495   0.125   3.783  15.928  1.6407  1.1538 -0.2679
  298TMC3    C7 4496   0.172   3.771  16.198 -0.9536  0.4769  0.0222
  298TMC3    C8 4497   0.299   3.805  15.745  0.3292  0.4456  0.3278
  298TMC3    O1 4498   0.197   3.745  16.315  0.1944  0.1354 -0.2826
  298TMC3    O2 4499   0.204   3.884  15.747 -0.3103 -0.2210  0.8001
  299MPD2     C 4500   1.499   3.049  10.784  0.0676 -0.2281  0.1610
  299MPD2    C1 4501   1.554   3.106  10.666  0.4836 -0.6125 -0.3694
  299MPD2    C2 4502   1.499   3.082  10.547 -0.4837 -0.8734 -1.1291
  299MPD2    C3 4503   1.386   3.001  10.535 -0.0466 -0.1740  0.0381
  299MPD2    C4 4504   1.341   2.942  10.648 -0.2619  0.0177  0.1545
  299MPD2    C5 4505   1.403   2.953  10.768  0.0379  0.6016 -0.5747
  299MPD2     H 4506   1.536   3.133  10.460  0.2024  2.2225  0.9790
  299MPD2    H1 4507   1.258   2.872  10.652 -0.9907  0.7722 -1.7152
  299MPD2    H2 4508   1.548   3.062  10.880  1.3286 -0.8985 -0.3818
  299MPD2    H3 4509   1.374   2.899  10.858  1.4135 -0.2345 -0.6305
  299MPD2     N 4510   1.317   2.974  10.410 -0.1838 -0.4806 -0.0249
  299MPD2    H5 4511   1.248   2.899  10.409 -1.3471  0.5583  1.2826
  299MPD2    N1 4512   1.655   3.196  10.683  0.2997 -0.5836 -0.4897
  299MPD2    H7 4513   1.692   3.204  10.777 -0.0211  1.5076 -0.5401
  300TMC3    C1 4514   1.240   3.025  10.206 -0.0849  0.2178  0.7453
  300TMC3    C2 4515   1.256   3.110  10.096  0.4897  0.0646  0.1965
  300TMC3    C3 4516   1.151   3.194  10.070 -0.4929 -0.0280  0.5708
  300TMC3    C4 4517   1.121   3.016  10.274  0.2207  0.3664 -0.6709
  300TMC3    C5 4518   1.020   3.099  10.235 -0.6622  0.0164 -0.2855
  300TMC3    C6 4519   1.030   3.190  10.130 -0.5693  1.0302  0.1789
  300TMC3     C 4520   1.357   3.021  10.290  0.4274 -0.0397 -0.5576
  300TMC3     O 4521   1.458   3.076  10.255  0.1692 -0.4124 -0.2754
  300TMC3     H 4522   1.355   3.134  10.058  1.3073  0.2185  2.3945
  300TMC3    H1 4523   1.095   2.935  10.341  3.4161  1.2064  1.5638
  300TMC3    H2 4524   0.952   3.260  10.103 -1.4384 -0.2332 -0.5809
  300TMC3    C7 4525   0.885   3.049  10.261 -0.3455 -0.3606 -0.8154
  300TMC3    C8 4526   1.187   3.308   9.994  0.2461 -0.0228  0.4788
  300TMC3    O1 4527   0.871   2.930  10.266 -0.3949 -0.8240 -0.5515
  300TMC3    O2 4528   1.143   3.419  10.021  0.1999 -0.2432  0.0236
  301MPD2     C 4529   3.042   4.246   1.391  0.7421  0.8244 -0.1873
  301MPD2    C1 4530   3.118   4.237   1.280  0.7886  0.0365  0.9622
  301MPD2    C2 4531   3.165   4.114   1.243 -1.1145 -0.6702 -0.1776
  301MPD2    C3 4532   3.131   4.003   1.313  0.0861  0.3579  0.7190
  301MPD2    C4 4533   3.064   4.014   1.427 -0.0259 -0.2713  0.0860
  301MPD2    C5 4534   3.022   4.135   1.462 -0.4587 -0.5109 -0.3156
  301MPD2     H 4535   3.221   4.104   1.151 -2.0655 -0.5404 -0.7676
  301MPD2    H1 4536   3.030   3.929   1.486 -1.8533  1.0493  0.9586
  301MPD2    H2 4537   3.020   4.341   1.439  0.4903 -0.9487  3.2670
  301MPD2    H3 4538   2.977   4.150   1.559 -0.6105 -0.4046 -0.4024
  301MPD2     N 4539   3.175   3.867   1.283 -1.0893  0.2006  0.0796
  301MPD2    H5 4540   3.150   3.789   1.344 -1.0779 -0.6381 -1.0006
  301MPD2    N1 4541   3.155   4.355   1.201 -0.2399  0.5704 -0.0278
  301MPD2    H7 4542   3.215   4.344   1.120  0.9346 -1.3049  1.0945
  302TMC3    C1 4543   3.256   3.694   1.152  0.4363  0.5024 -0.5489
  302TMC3    C2 4544   3.302   3.633   1.261 -0.2495  0.5444  0.0960
  302TMC3    C3 4545   3.351   3.507   1.239  0.4786  0.3116  0.9887
  302TMC3    C4 4546   3.253   3.646   1.023 -0.2332 -0.1552  0.1887
  302TMC3    C5 4547   3.297   3.517   1.011  0.0329  0.1797  0.7558
  302TMC3    C6 4548   3.351   3.447   1.118 -0.7147  0.0416 -0.0103
  302TMC3     C 4549   3.231   3.838   1.163 -0.1816 -0.5132 -0.2129
  302TMC3     O 4550   3.222   3.895   1.057 -0.1719  0.0293  0.0944
  302TMC3     H 4551   3.300   3.678   1.360 -1.5588 -1.1308  0.8205
  302TMC3    H1 4552   3.233   3.709   0.937 -1.9067  0.8236  1.2817
  302TMC3    H2 4553   3.411   3.358   1.098  1.1555  1.0674  1.0510
  302TMC3    C7 4554   3.348   3.471   0.884  0.1030  0.4508 -0.1742
  302TMC3    C8 4555   3.428   3.441   1.348 -0.3783  0.3570  0.2959
  302TMC3    O1 4556   3.390   3.356   0.877 -0.0170  0.0836 -0.8828
  302TMC3    O2 4557   3.494   3.518   1.415  0.1351 -0.6268 -0.0469
  303MPD2     C 4558   3.766   1.618  10.688 -0.0943 -0.2808 -0.3769
  303MPD2    C1 4559   3.887   1.558  10.717  0.0746 -0.0293  0.7001
  303MPD2    C2 4560   3.990   1.566  10.623  0.4968 -0.3278  0.0844
  303MPD2    C3 4561   3.970   1.636  10.505  0.0268  0.6190 -0.0291
  303MPD2    C4 4562   3.853   1.705  10.484  0.4230  0.6541  0.0132
  303MPD2    C5 4563   3.750   1.690  10.570 -0.5461 -0.1413 -0.0140
  303MPD2     H 4564   4.088   1.523  10.636  0.6366 -0.5764 -1.7872
  303MPD2    H1 4565   3.836   1.758  10.391  1.6895 -1.0299 -1.1864
  303MPD2    H2 4566   3.687   1.620  10.763  0.7331 -0.6881  0.4999
  303MPD2    H3 4567   3.659   1.746  10.550 -0.4184  0.0552 -0.0466
  303MPD2     N 4568   4.070   1.649  10.404 -0.5435  0.5646 -0.4029
  303MPD2    H5 4569   4.060   1.718  10.331 -2.6574  0.5823 -0.1067
  303MPD2    N1 4570   3.898   1.498  10.844  0.4119  0.0538  0.4737
  303MPD2    H7 4571   3.811   1.496  10.897 -1.0150  0.5050 -1.8328
  304TMC3    C1 4572   3.994   1.352  11.007  0.6927 -0.2669 -0.0464
  304TMC3    C2 4573   3.894   1.259  10.981 -0.2144 -0.5053  0.2892
  304TMC3    C3 4574   3.910   1.129  11.019  0.2137 -0.0479 -0.0160
  304TMC3    C4 4575   4.115   1.313  11.061 -0.0925 -0.3045  0.5388
  304TMC3    C5 4576   4.122   1.187  11.116  0.7186 -0.2268  0.1310
  304TMC3    C6 4577   4.019   1.102  11.095  0.5171  0.5248 -0.3964
  304TMC3     C 4578   4.013   1.434  10.890 -0.0628 -0.1389 -0.2927
  304TMC3     O 4579   4.132   1.456  10.856  0.5656 -0.1277  0.0569
  304TMC3     H 4580   3.820   1.275  10.903 -0.7234  0.1880  0.9088
  304TMC3    H1 4581   4.199   1.379  11.075  0.4860 -0.4463 -2.2906
  304TMC3    H2 4582   4.039   1.002  11.133 -1.1160 -0.8539 -3.1580
  304TMC3    C7 4583   4.257   1.138  11.087  0.6230 -0.2659  0.3133
  304TMC3    C8 4584   3.877   1.015  10.926 -0.8082 -0.6034 -0.2987
  304TMC3    O1 4585   4.356   1.206  11.118 -0.5661 -0.6231  0.2046
  304TMC3    O2 4586   3.966   0.926  10.928 -0.2300  0.5157 -0.7618
  305MPD2     C 4587   1.689   0.466  13.713 -0.2557 -0.0098 -0.3869
  305MPD2    C1 4588   1.685   0.337  13.757 -0.1553  0.1764 -0.1754
  305MPD2    C2 4589   1.665   0.244  13.659 -0.7648  0.4390 -0.3766
  305MPD2    C3 4590   1.657   0.278  13.526 -0.1889 -0.5282 -0.1373
  305MPD2    C4 4591   1.677   0.412  13.489  0.1659 -0.0602  0.5238
  305MPD2    C5 4592   1.690   0.501  13.585 -0.9418  0.4073 -0.3245
  305MPD2     H 4593   1.661   0.140  13.690  2.8371  0.8775  1.6164
  305MPD2    H1 4594   1.669   0.453  13.389  1.4212  0.3611  0.5991
  305MPD2    H2 4595   1.702   0.547  13.783  1.3288 -0.6652  0.0691
  305MPD2    H3 4596   1.700   0.605  13.559  2.5456  0.0225 -0.4178
  305MPD2     N 4597   1.659   0.182  13.425  0.4654 -0.0887  0.1989
  305MPD2    H5 4598   1.716   0.210  13.346  1.7553  1.0920  1.5466
  305MPD2    N1 4599   1.698   0.304  13.892 -0.4969  0.3929 -0.3345
  305MPD2    H7 4600   1.712   0.383  13.954  2.3823 -0.3181 -0.0710
  306TMC3    C1 4601   1.752   0.180  14.088  0.1833 -0.0097 -0.7262
  306TMC3    C2 4602   1.881   0.131  14.079 -0.3182 -0.2417  0.3825
  306TMC3    C3 4603   1.985   0.185  14.158 -0.8231  0.3348 -0.0279
  306TMC3    C4 4604   1.727   0.280  14.173  0.3336 -0.0392  0.6963
  306TMC3    C5 4605   1.824   0.333  14.249  0.1733  0.2911 -0.0788
  306TMC3    C6 4606   1.952   0.285  14.242 -0.4544  0.1067 -0.0753
  306TMC3     C 4607   1.700   0.176  13.952 -1.1502  0.2406  0.2585
  306TMC3     O 4608   1.692   0.062  13.907 -0.1251  0.0664 -0.3496
  306TMC3     H 4609   1.908   0.044  14.020  1.4128  2.0032 -2.0847
  306TMC3    H1 4610   1.627   0.319  14.185  0.5056  1.1440 -1.6794
  306TMC3    H2 4611   2.034   0.323  14.302  2.0804 -1.5157 -2.5171
  306TMC3    C7 4612   1.789   0.421  14.359  0.8472  0.5782 -0.2906
  306TMC3    C8 4613   2.121   0.134  14.161  0.8449 -0.2466  0.0791
  306TMC3    O1 4614   1.677   0.403  14.412 -0.7842  0.2195  0.1466
  306TMC3    O2 4615   2.143   0.011  14.141 -0.2218 -0.2671  0.3725
  307MPD2     C 4616   4.460   2.490   0.396 -0.9698 -0.4155  0.7180
  307MPD2    C1 4617   4.409   2.601   0.341  0.5965 -0.2128 -0.6136
  307MPD2    C2 4618   4.347   2.698   0.418  0.2052 -0.6350  0.4345
  307MPD2    C3 4619   4.341   2.689   0.549 -0.0426  0.0486 -0.0211
  307MPD2    C4 4620   4.397   2.576   0.608  0.2310 -0.0920 -0.5129
  307MPD2    C5 4621   4.454   2.481   0.531 -0.2496 -0.2909 -0.1638
  307MPD2     H 4622   4.299   2.778   0.363  0.8761 -1.9783 -2.0952
  307MPD2    H1 4623   4.393   2.557   0.715 -1.9251  1.9284 -0.2552
  307MPD2    H2 4624   4.511   2.412   0.340 -3.4845 -1.5689  0.0376
  307MPD2    H3 4625   4.491   2.386   0.569 -0.7478  0.1394  1.4002
  307MPD2     N 4626   4.261   2.782   0.621  0.7344 -0.4641 -0.0259
  307MPD2    H5 4627   4.217   2.852   0.562 -1.9159 -3.4576 -1.5951
  307MPD2    N1 4628   4.435   2.639   0.208 -0.5550 -0.4490 -0.0570
  307MPD2    H7 4629   4.380   2.716   0.171  0.9166  1.4842  1.7719
  308TMC3    C1 4630   3.892   2.877   0.813 -0.5026 -0.2317  0.2449
  308TMC3    C2 4631   3.907   3.014   0.794 -0.4966 -0.7096 -0.5881
  308TMC3    C3 4632   4.042   3.060   0.764 -0.1310  0.0709 -0.2305
  308TMC3    C4 4633   4.002   2.796   0.808  0.7022  0.6456 -1.1250
  308TMC3    C5 4634   4.125   2.851   0.790 -0.0257 -0.1492 -0.8124
  308TMC3    C6 4635   4.151   2.979   0.754  0.0112 -1.0388 -0.5249
  308TMC3     C 4636   3.764   2.817   0.830  0.0991  0.2685 -1.1714
  308TMC3     O 4637   3.771   2.704   0.875 -0.3097 -0.1480 -0.3895
  308TMC3     H 4638   3.830   3.087   0.816 -0.5635 -0.9117 -0.1404
  308TMC3    H1 4639   3.995   2.688   0.810  0.0757  0.6996 -0.2950
  308TMC3    H2 4640   4.252   3.010   0.733 -0.8761  0.3383 -2.6865
  308TMC3    C7 4641   4.226   2.762   0.750 -0.2425  0.2968  0.7794
  308TMC3    C8 4642   4.046   3.192   0.693  0.1290  0.0493  0.0996
  308TMC3    O1 4643   4.259   2.683   0.839 -0.8981  0.0342  0.0959
  308TMC3    O2 4644   3.937   3.238   0.670  0.1553 -0.3843 -0.1838
  309MPD2     C 4645   3.518   2.964  17.048 -0.0074  0.6095 -0.3732
  309MPD2    C1 4646   3.490   3.083  16.982  0.7567 -0.4093 -0.3603
  309MPD2    C2 4647   3.383   3.161  17.021 -0.1164 -0.6743 -0.4949
  309MPD2    C3 4648   3.296   3.106  17.111  0.2928 -0.1764  0.0419
  309MPD2    C4 4649   3.325   2.986  17.173 -0.2958 -0.0624  0.2200
  309MPD2    C5 4650   3.435   2.913  17.144  0.5345 -0.3628 -0.8158
  309MPD2     H 4651   3.366   3.261  16.981  0.9661 -0.0606  0.5950
  309MPD2    H1 4652   3.270   2.943  17.257 -1.1560  0.3976 -0.1072
  309MPD2    H2 4653   3.600   2.894  17.040 -0.9593 -0.8210  2.6157
  309MPD2    H3 4654   3.469   2.829  17.205 -2.8349 -1.0017  0.1769
  309MPD2     N 4655   3.174   3.175  17.148  0.3242 -0.0222 -0.2254
  309MPD2    H5 4656   3.122   3.127  17.220 -0.6637  0.5201 -0.5759
  309MPD2    N1 4657   3.582   3.133  16.887 -0.2417  0.1835 -0.0952
  309MPD2    H7 4658   3.550   3.216  16.837  2.5094  0.4160 -1.4379
  310TMC3    C1 4659   3.748   3.120  16.723 -0.0921 -0.2273  0.2266
  310TMC3    C2 4660   3.665   3.194  16.640 -0.0449 -0.3300 -0.1152
  310TMC3    C3 4661   3.705   3.209  16.508 -0.0576 -0.0794  0.2013
  310TMC3    C4 4662   3.871   3.077  16.684 -0.1078  0.5368 -0.0958
  310TMC3    C5 4663   3.913   3.107  16.558 -0.2826  0.3541  0.3411
  310TMC3    C6 4664   3.835   3.173  16.467 -0.1926 -0.2615  0.5679
  310TMC3     C 4665   3.702   3.075  16.851  0.0547 -0.1847  0.3162
  310TMC3     O 4666   3.771   2.983  16.889 -0.7343  0.2328 -0.4528
  310TMC3     H 4667   3.580   3.244  16.684 -1.1982 -0.4963 -2.1258
  310TMC3    H1 4668   3.943   3.037  16.756  0.0899 -1.5319 -1.4455
  310TMC3    H2 4669   3.874   3.174  16.366  0.4928  2.9001  0.8595
  310TMC3    C7 4670   4.040   3.049  16.516  0.2436  0.8600  0.1222
  310TMC3    C8 4671   3.625   3.275  16.408  0.7122  0.1831  0.1714
  310TMC3    O1 4672   4.065   2.941  16.565 -0.3103  0.1139 -0.1294
  310TMC3    O2 4673   3.686   3.335  16.318 -0.3616 -0.4273  0.0387
  311MPD2     C 4674   0.921   4.336  12.610 -0.2310  0.6249  0.5439
  311MPD2    C1 4675   0.934   4.447  12.684 -0.3141  0.1695  0.6090
  311MPD2    C2 4676   0.812   4.501  12.736  1.0265  0.4174 -0.1349
  311MPD2    C3 4677   0.690   4.453  12.697 -0.0960 -0.0035 -0.4964
  311MPD2    C4 4678   0.687   4.336  12.627 -0.3327  0.1934 -0.5571
  311MPD2    C5 4679   0.804   4.271  12.593 -0.0470  0.0251  0.3349
  311MPD2     H 4680   0.821   4.590  12.796  0.4800  0.0721  0.4577
  311MPD2    H1 4681   0.596   4.289  12.590 -0.4175 -0.0582 -0.0312
  311MPD2    H2 4682   1.007   4.284  12.572 -0.3613 -0.0943  1.2282
  311MPD2    H3 4683   0.807   4.176  12.541  2.1192  0.6201 -0.6409
  311MPD2     N 4684   0.582   4.528  12.735  0.0238  0.9480 -0.2711
  311MPD2    H5 4685   0.598   4.609  12.792 -0.7986 -0.7930  2.4226
  311MPD2    N1 4686   1.055   4.516  12.716 -0.0183  0.4928 -0.3996
  311MPD2    H7 4687   1.042   4.608  12.757 -0.6277  0.6041 -0.8436
  312TMC3    C1 4688   0.358   4.612  12.715 -0.3729  0.5495 -0.1766
  312TMC3    C2 4689   0.234   4.576  12.677  0.3689 -0.3996 -0.2850
  312TMC3    C3 4690   0.132   4.667  12.677 -0.4969 -0.3805 -0.0441
  312TMC3    C4 4691   0.392   0.023  12.730 -0.1124 -0.1803  0.1943
  312TMC3    C5 4692   0.279   0.114  12.742  0.0865  0.6580  0.0978
  312TMC3    C6 4693   0.147   0.078  12.713 -0.2834  0.0109  0.5075
  312TMC3     C 4694   0.453   4.501  12.688 -0.0931 -0.4185 -0.4168
  312TMC3     O 4695   0.403   4.397  12.641  0.9565 -0.0814 -0.0794
  312TMC3     H 4696   0.207   4.472  12.665 -1.3189  0.0314 -0.1956
  312TMC3    H1 4697   0.497   0.049  12.733  0.0480 -0.9116  0.8735
  312TMC3    H2 4698   0.072   0.142  12.758 -0.6466 -0.2851  0.3195
  312TMC3    C7 4699   0.302   0.242  12.813 -0.0701  0.2038  0.9126
  312TMC3    C8 4700   0.006   4.621  12.631 -0.0121  0.6315 -0.8602
  312TMC3    O1 4701   0.225   0.327  12.775  0.0046 -0.1525 -0.0557
  312TMC3    O2 4702   4.713   4.502  12.647  0.3607 -0.5711 -0.9469
  313MPD2     C 4703   1.026   4.206   9.881 -0.6068 -0.0375  0.0820
  313MPD2    C1 4704   1.025   4.084   9.946  0.3336 -0.6655  0.0521
  313MPD2    C2 4705   0.925   3.997   9.911 -1.0061 -0.1030  0.4916
  313MPD2    C3 4706   0.832   4.025   9.821 -0.4030 -0.1907  0.3562
  313MPD2    C4 4707   0.830   4.149   9.760  0.0012  0.8294 -1.0212
  313MPD2    C5 4708   0.931   4.235   9.793 -0.9311 -0.1002 -0.4224
  313MPD2     H 4709   0.919   3.910   9.976  1.1305 -1.6224 -1.3282
  313MPD2    H1 4710   0.749   4.168   9.691 -1.6056  0.6758  0.8378
  313MPD2    H2 4711   1.105   4.277   9.904  0.3863 -1.1153 -0.0355
  313MPD2    H3 4712   0.934   4.331   9.743 -2.3465  0.3067  0.2912
  313MPD2     N 4713   0.745   3.919   9.795  0.4549 -0.3175 -0.0677
  313MPD2    H5 4714   0.755   3.841   9.860 -0.8315 -0.6214 -0.2446
  313MPD2    N1 4715   1.104   4.048  10.056  0.4440  0.3030 -0.0917
  313MPD2    H7 4716   1.087   3.953  10.089  0.3033  0.1959 -0.4742
  314TMC3    C1 4717   1.212   4.075  10.262  0.4729 -0.4370  0.2179
  314TMC3    C2 4718   1.251   4.177  10.341 -0.0935  0.4630  0.1529
  314TMC3    C3 4719   1.178   4.196  10.456  0.7572  0.1714 -0.3080
  314TMC3    C4 4720   1.121   3.984  10.305 -0.5222  0.5184 -0.4529
  314TMC3    C5 4721   1.053   4.003  10.425  0.0892 -0.2928 -0.1009
  314TMC3    C6 4722   1.063   4.121  10.485 -0.2540  0.2086 -0.2001
  314TMC3     C 4723   1.192   4.124  10.126  0.3875 -0.3162 -0.4870
  314TMC3     O 4724   1.234   4.236  10.105  0.1972  0.4912  0.1135
  314TMC3     H 4725   1.325   4.241  10.294  0.8104 -0.6316  0.0972
  314TMC3    H1 4726   1.116   3.890  10.250  0.6315  0.0222  0.2912
  314TMC3    H2 4727   1.012   4.152  10.575 -1.7196 -0.9544 -0.6433
  314TMC3    C7 4728   0.918   3.965  10.402  0.1184 -0.0831 -0.5795
  314TMC3    C8 4729   1.229   4.283  10.557 -0.1369  0.9624 -0.0338
  314TMC3    O1 4730   0.858   3.899  10.485 -0.1318  0.0191  0.2485
  314TMC3    O2 4731   1.157   4.307  10.651  0.8149 -0.3703 -0.1419
  315MPD2     C 4732   0.059   3.116  16.851 -0.3534  0.2242  0.4105
  315MPD2    C1 4733   0.092   3.093  16.987  0.0063  0.2450 -0.6973
  315MPD2    C2 4734   0.033   3.171  17.085  0.0136  0.2881 -0.2638
  315MPD2    C3 4735   4.660   3.273  17.054 -0.1872  0.0625 -0.4428
  315MPD2    C4 4736   4.625   3.293  16.926 -0.3581  0.6871  0.0917
  315MPD2    C5 4737   4.676   3.208  16.828 -0.1104  0.2355  0.1544
  315MPD2     H 4738   0.070   3.158  17.186  0.5413  0.9013 -0.3748
  315MPD2    H1 4739   4.543   3.355  16.890 -1.1804 -0.4861 -0.0693
  315MPD2    H2 4740   0.091   3.051  16.770 -2.0844 -0.5444  0.3421
  315MPD2    H3 4741   4.650   3.228  16.725 -0.3724 -0.0041  0.1731
  315MPD2     N 4742   4.620   3.358  17.162 -0.5533 -0.6038 -0.1496
  315MPD2    H5 4743   4.631   3.322  17.256  1.0459  1.3523  0.4098
  315MPD2    N1 4744   0.175   2.977  17.023  0.5325  0.1156  0.0539
  315MPD2    H7 4745   0.171   2.933  17.114 -1.0818 -0.4594 -0.2991
  316TMC3    C1 4746   4.493   3.533  17.266 -0.0830  0.0219  0.0466
  316TMC3    C2 4747   4.462   3.436  17.364 -0.5955  0.0139  0.3175
  316TMC3    C3 4748   4.420   3.487  17.485  0.1259  0.7695  0.9610
  316TMC3    C4 4749   4.486   3.669  17.284  0.5560  0.4681  0.7486
  316TMC3    C5 4750   4.450   3.710  17.415 -0.2792 -0.3445  0.2794
  316TMC3    C6 4751   4.419   3.623  17.516 -1.1654 -0.4074 -0.5036
  316TMC3     C 4752   4.557   3.475  17.141 -0.1509  0.4778  0.0685
  316TMC3     O 4753   4.555   3.549  17.044 -0.2258  0.6146  0.6062
  316TMC3     H 4754   4.446   3.331  17.343 -0.1022  0.1638 -0.8070
  316TMC3    H1 4755   4.483   3.733  17.197 -0.1257 -1.9604 -1.0099
  316TMC3    H2 4756   4.383   3.650  17.615 -2.5118  0.2292 -1.1632
  316TMC3    C7 4757   4.490   3.838  17.458  0.0587  0.2963  0.1067
  316TMC3    C8 4758   4.379   3.385  17.582 -0.5129  0.6089  0.6183
  316TMC3    O1 4759   4.525   3.830  17.575  0.0449  0.1135 -0.5262
  316TMC3    O2 4760   4.275   3.396  17.645 -0.3176  0.2563 -0.3786
  317MPD2     C 4761   1.576   2.075  12.690  1.0461  0.7154  0.4068
  317MPD2    C1 4762   1.651   1.991  12.617 -0.8114 -0.0861  0.7573
  317MPD2    C2 4763   1.747   1.921  12.691 -0.7143 -0.5316  0.0235
  317MPD2    C3 4764   1.773   1.946  12.825 -0.9946 -1.2161  0.2143
  317MPD2    C4 4765   1.702   2.043  12.892 -0.2646 -0.2093  0.5910
  317MPD2    C5 4766   1.605   2.108  12.822 -0.0787  0.1372 -0.0117
  317MPD2     H 4767   1.792   1.839  12.637 -2.3942 -2.2217  1.1849
  317MPD2    H1 4768   1.711   2.069  12.997 -1.2066  0.7889  0.4261
  317MPD2    H2 4769   1.507   2.137  12.633  0.8481 -0.8265 -1.0390
  317MPD2    H3 4770   1.554   2.195  12.860  1.6562  1.7670 -1.4365
  317MPD2     N 4771   1.871   1.869  12.889 -0.4267  0.1168 -0.3691
  317MPD2    H5 4772   1.919   1.802  12.829  1.2499  1.4480 -0.4864
  317MPD2    N1 4773   1.641   1.973  12.482  0.0758  0.1489  0.4445
  317MPD2    H7 4774   1.705   1.904  12.443  1.4101  0.2315  2.4932
  318TMC3    C1 4775   2.021   1.790  13.043  0.0663  0.1503  0.1294
  318TMC3    C2 4776   2.007   1.663  12.997 -0.5328 -0.0606  0.2559
  318TMC3    C3 4777   2.105   1.567  13.035  0.5270  0.8112  0.8791
  318TMC3    C4 4778   2.129   1.826  13.120  0.1316  0.7099 -0.1259
  318TMC3    C5 4779   2.229   1.737  13.146  0.3297 -0.3946 -0.2277
  318TMC3    C6 4780   2.213   1.606  13.104 -0.1240  0.4497  0.3010
  318TMC3     C 4781   1.925   1.890  13.011 -0.0800  0.5296  0.1021
  318TMC3     O 4782   1.924   1.993  13.082  0.7252 -0.2319 -0.0493
  318TMC3     H 4783   1.933   1.632  12.924 -1.3121  0.0257  1.0103
  318TMC3    H1 4784   2.131   1.931  13.146 -3.0435  0.9769 -0.9965
  318TMC3    H2 4785   2.277   1.525  13.139  0.8027  0.5544 -1.1859
  318TMC3    C7 4786   2.340   1.785  13.226  0.2893  0.5493  0.0593
  318TMC3    C8 4787   2.093   1.425  12.996 -0.3985 -0.5642  0.1728
  318TMC3    O1 4788   2.332   1.892  13.286 -0.0190  0.4433  0.0322
  318TMC3    O2 4789   2.187   1.347  13.022 -0.3012 -0.1510  0.7465
  319MPD2     C 4790   3.339   2.922  16.433 -0.1280  0.5082  0.2432
  319MPD2    C1 4791   3.241   2.896  16.522 -0.1412  0.1563  0.2028
  319MPD2    C2 4792   3.120   2.952  16.504 -0.4919 -0.7275 -0.0502
  319MPD2    C3 4793   3.082   3.016  16.389 -0.1690  0.1148  0.1698
  319MPD2    C4 4794   3.179   3.022  16.291  0.6300  0.2893  0.2147
  319MPD2    C5 4795   3.306   2.971  16.307 -0.2418  0.0010 -0.1600
  319MPD2     H 4796   3.040   2.954  16.578 -0.6110 -0.5630 -0.1838
  319MPD2    H1 4797   3.165   3.068  16.194  1.6678  0.2163  0.0272
  319MPD2    H2 4798   3.444   2.899  16.445 -0.3073 -1.1985 -1.4081
  319MPD2    H3 4799   3.381   2.993  16.232  1.0009  1.2415  1.4667
  319MPD2     N 4800   2.952   3.066  16.359  0.6776 -0.2977 -0.3982
  319MPD2    H5 4801   2.923   3.074  16.262 -0.6280 -0.3585 -0.0123
  319MPD2    N1 4802   3.265   2.822  16.641  0.0770 -0.2033 -0.5139
  319MPD2    H7 4803   3.187   2.824  16.706  0.8424 -0.4244  0.4050
  320TMC3    C1 4804   2.732   3.082  16.421 -0.1168  0.3562  0.3294
  320TMC3    C2 4805   2.683   3.092  16.300 -0.4756  0.0290 -0.2260
  320TMC3    C3 4806   2.558   3.042  16.271  0.0518 -0.5379 -0.2861
  320TMC3    C4 4807   2.652   3.038  16.522  0.9684  0.4424 -0.7766
  320TMC3    C5 4808   2.531   2.988  16.496 -0.1666 -0.6124  0.2210
  320TMC3    C6 4809   2.481   2.989  16.368 -0.1177 -0.6994  0.6959
  320TMC3     C 4810   2.866   3.112  16.458 -0.2024  0.1765  0.1510
  320TMC3     O 4811   2.898   3.147  16.572  0.1811 -0.4023  0.1390
  320TMC3     H 4812   2.745   3.131  16.220 -2.3267  1.9702 -0.7305
  320TMC3    H1 4813   2.698   3.033  16.620 -1.0368 -1.2565  0.0794
  320TMC3    H2 4814   2.384   2.944  16.348  0.3904 -0.1744 -2.8568
  320TMC3    C7 4815   2.495   2.864  16.569 -0.2218  0.3737  0.0383
  320TMC3    C8 4816   2.492   3.132  16.175 -0.0746 -0.8125  0.2350
  320TMC3    O1 4817   2.452   2.768  16.506  0.0937 -0.4063 -0.0211
  320TMC3    O2 4818   2.557   3.226  16.136  0.1854  0.9739  0.4162
  321TMC3    C1 4819   3.359   2.713  16.822 -0.2736  0.6062 -0.4766
  321TMC3    C2 4820   3.437   2.598  16.834  0.4785  0.4532  0.1678
  321TMC3    C3 4821   3.390   2.498  16.910 -0.3525 -0.3535  0.1093
  321TMC3    C4 4822   3.234   2.723  16.886  0.0776  0.3500  0.1051
  321TMC3    C5 4823   3.184   2.622  16.955 -0.3862  0.8912  0.8185
  321TMC3    C6 4824   3.262   2.512  16.967 -0.7800  0.2966  0.9859
  321TMC3     C 4825   3.381   2.770  16.691 -0.1179  0.4761 -0.5903
  321TMC3     O 4826   3.493   2.765  16.647  0.5403 -0.1862  0.7479
  321TMC3     H 4827   3.536   2.593  16.791  0.3420  0.5124 -0.1497
  321TMC3    H1 4828   3.181   2.818  16.891 -0.5953 -0.0661  0.9222
  321TMC3    H2 4829   3.213   2.425  17.011 -1.7597 -0.0875 -0.8515
  321TMC3    C7 4830   3.139   2.675  17.085  0.6509  0.4524 -0.0114
  321TMC3    C8 4831   3.477   2.441  17.009 -0.1192 -0.5287  0.0577
  321TMC3    O1 4832   3.070   2.774  17.094  0.2202  0.1723  0.3805
  321TMC3    O2 4833   3.426   2.453  17.121 -0.0734 -0.1512  0.2643
  322MPD2     C 4834   1.767   4.171  13.211  0.5313 -0.3733  0.2779
  322MPD2    C1 4835   1.782   4.116  13.336 -0.3693 -0.2191  0.6659
  322MPD2    C2 4836   1.815   3.981  13.342  0.1359  1.0303  0.5647
  322MPD2    C3 4837   1.834   3.902  13.232  0.0488  0.0238  0.0095
  322MPD2    C4 4838   1.811   3.965  13.104 -0.2966 -0.4572 -0.4219
  322MPD2    C5 4839   1.772   4.095  13.099 -0.8077 -0.3906  0.3573
  322MPD2     H 4840   1.828   3.938  13.440 -0.0958 -0.4893 -0.0841
  322MPD2    H1 4841   1.837   3.913  13.013  1.5049 -0.9045  0.3584
  322MPD2    H2 4842   1.735   4.274  13.201  0.1585 -0.6284 -1.0703
  322MPD2    H3 4843   1.781   4.154  13.009 -0.1988  0.3732  0.9232
  322MPD2     N 4844   1.877   3.770  13.256  0.2586  0.0544  0.2323
  322MPD2    H5 4845   1.881   3.729  13.349 -1.1280 -0.6851 -0.0375
  322MPD2    N1 4846   1.759   4.203  13.444 -0.0876 -0.4579 -0.0630
  322MPD2    H7 4847   1.747   4.301  13.423 -0.9529 -0.7010 -0.7051
  323TMC3    C1 4848   1.755   4.275  13.673 -0.1161 -0.2972 -1.0918
  323TMC3    C2 4849   1.779   4.401  13.637 -0.8784 -0.3520 -0.3130
  323TMC3    C3 4850   1.811   4.486  13.737 -0.2117 -0.1399 -0.2273
  323TMC3    C4 4851   1.766   4.237  13.804  0.1979  0.3425 -0.4591
  323TMC3    C5 4852   1.795   4.324  13.901  0.4019 -0.1667  0.2782
  323TMC3    C6 4853   1.813   4.453  13.868 -0.4814 -0.4489  0.2252
  323TMC3     C 4854   1.740   4.171  13.577 -0.0550 -0.4163  0.6935
  323TMC3     O 4855   1.716   4.062  13.630  0.2229  0.5930  0.7300
  323TMC3     H 4856   1.766   4.441  13.537 -0.0318 -1.4591 -0.8680
  323TMC3    H1 4857   1.742   4.138  13.841  2.1563  1.2075  3.0736
  323TMC3    H2 4858   1.824   4.537  13.935  1.7996 -1.7451  1.4458
  323TMC3    C7 4859   1.835   4.272  14.038 -0.1927 -0.2590  0.3915
  323TMC3    C8 4860   1.867   4.615  13.699  0.4510  0.7040  0.9540
  323TMC3    O1 4861   1.827   4.151  14.059  0.4879 -0.1050 -0.8666
  323TMC3    O2 4862   1.843   4.652  13.585 -0.0765 -0.0446  0.3959
  324MPD2     C 4863   3.337   0.724  14.099  0.1223 -0.1545 -0.5611
  324MPD2    C1 4864   3.328   0.852  14.145  0.1747  0.5010  0.3331
  324MPD2    C2 4865   3.235   0.938  14.097 -0.3980 -0.0335  0.6036
  324MPD2    C3 4866   3.173   0.912  13.978  0.3317  0.1281 -0.1784
  324MPD2    C4 4867   3.180   0.781  13.928 -0.7135 -0.0966  0.6146
  324MPD2    C5 4868   3.259   0.685  13.990  0.0288  0.4009  1.3253
  324MPD2     H 4869   3.238   1.040  14.132  2.9513  0.6647 -1.6514
  324MPD2    H1 4870   3.113   0.744  13.851  0.4954 -1.0942  0.0454
  324MPD2    H2 4871   3.385   0.645  14.156 -0.2354  0.0502  0.0258
  324MPD2    H3 4872   3.252   0.584  13.953  2.2579  1.3649 -1.7643
  324MPD2     N 4873   3.076   1.007  13.924  0.1358 -0.2917  0.3124
  324MPD2    H5 4874   3.033   1.071  13.990  1.1389 -1.3981  2.0380
  324MPD2    N1 4875   3.410   0.900  14.246 -0.4915  0.1875 -0.2917
  324MPD2    H7 4876   3.387   0.995  14.272  1.1311  0.2981  0.7780
  325TMC3    C1 4877   2.922   1.118  13.761  0.5809  0.1638 -0.0070
  325TMC3    C2 4878   2.834   1.092  13.656 -0.0611 -0.5335 -0.2318
  325TMC3    C3 4879   2.702   1.131  13.671  0.8939 -0.0057 -0.3267
  325TMC3    C4 4880   2.887   1.200  13.862 -0.4611  0.3359 -0.0446
  325TMC3    C5 4881   2.758   1.246  13.871 -0.4287  0.2125  0.3532
  325TMC3    C6 4882   2.663   1.211  13.777  0.5377 -0.2823  0.5068
  325TMC3     C 4883   3.028   1.015  13.791 -0.7951  0.9513  0.0942
  325TMC3     O 4884   3.064   0.951  13.694  0.0889 -0.4287 -0.4405
  325TMC3     H 4885   2.873   1.049  13.565  1.7791 -1.2183  0.8750
  325TMC3    H1 4886   2.959   1.231  13.937  0.8355 -1.7373 -0.4282
  325TMC3    H2 4887   2.566   1.261  13.781  0.2623 -1.0535  3.1332
  325TMC3    C7 4888   2.738   1.347  13.977  0.7422 -0.6820  0.5745
  325TMC3    C8 4889   2.605   1.048  13.602  0.9268 -0.3586 -0.2914
  325TMC3    O1 4890   2.836   1.415  14.003 -0.1999  1.4110  0.1467
  325TMC3    O2 4891   2.641   0.986  13.498  0.5681  0.2181  0.4525
  326MPD2     C 4892   0.152   1.392  11.278  0.1774  0.1351  0.5278
  326MPD2    C1 4893   0.114   1.480  11.180 -0.2237  0.4560  0.5878
  326MPD2    C2 4894   0.182   1.602  11.181 -0.0666 -0.2341  0.4207
  326MPD2    C3 4895   0.302   1.618  11.249 -0.2077 -0.2864 -0.0985
  326MPD2    C4 4896   0.343   1.526  11.343  0.4141  0.8216 -0.2801
  326MPD2    C5 4897   0.263   1.417  11.357  0.8326 -0.3484 -0.0356
  326MPD2     H 4898   0.156   1.676  11.106  2.1244 -0.3057 -0.4110
  326MPD2    H1 4899   0.429   1.543  11.408 -0.2835 -0.3229  0.9304
  326MPD2    H2 4900   0.115   1.291  11.289  4.7483 -1.5603  0.6819
  326MPD2    H3 4901   0.289   1.344  11.433 -0.9499 -0.3024  0.6118
  326MPD2     N 4902   0.390   1.727  11.229 -0.3243 -0.5087  0.1943
  326MPD2    H5 4903   0.490   1.722  11.249 -0.9372  0.8305  3.5367
  326MPD2    N1 4904   0.012   1.461  11.091  0.4125 -0.2340  0.0756
  326MPD2    H7 4905   4.710   1.541  11.034 -0.6216  0.3247  1.2998
  327TMC3    C1 4906   4.616   1.328  10.943 -0.0411  0.4623 -0.6576
  327TMC3    C2 4907   4.534   1.431  10.900  0.8371 -0.5697 -0.3571
  327TMC3    C3 4908   4.496   1.432  10.766  0.3582  0.8293 -0.2305
  327TMC3    C4 4909   4.684   1.243  10.861 -0.1637  0.2222 -1.0983
  327TMC3    C5 4910   4.663   1.265  10.736 -0.1628  0.6199  0.4200
  327TMC3    C6 4911   4.559   1.343  10.688 -0.5695  0.1755 -0.5909
  327TMC3     C 4912   4.674   1.337  11.070  0.9052  0.5349  0.3538
  327TMC3     O 4913   4.704   1.228  11.110  0.3105 -0.7133  0.0789
  327TMC3     H 4914   4.503   1.511  10.966 -0.6606 -1.5168  0.0957
  327TMC3    H1 4915   0.014   1.154  10.892 -1.0755  0.7665  2.0001
  327TMC3    H2 4916   4.539   1.347  10.582  1.0302  1.9003 -0.8268
  327TMC3    C7 4917   0.073   1.299  10.673 -0.2543 -0.6195 -0.2381
  327TMC3    C8 4918   4.486   1.559  10.702  0.4132  0.0615 -0.3125
  327TMC3    O1 4919   0.070   1.329  10.553 -0.6625  0.4844 -0.0636
  327TMC3    O2 4920   4.582   1.595  10.632 -0.3770 -0.1003 -0.0712
  328MPD2     C 4921   2.787   2.168  17.263  0.1710  0.4466  0.2502
  328MPD2    C1 4922   2.689   2.072  17.277  0.1054 -0.2436  0.3046
  328MPD2    C2 4923   2.597   2.050  17.172  0.1840 -0.0109  0.6300
  328MPD2    C3 4924   2.603   2.133  17.059  0.1465 -0.4661  0.1482
  328MPD2    C4 4925   2.695   2.243  17.053 -0.0283  0.0190  0.2948
  328MPD2    C5 4926   2.794   2.249  17.152  0.4344  0.4934 -0.6550
  328MPD2     H 4927   2.529   1.966  17.166  0.0202  0.3444 -2.2445
  328MPD2    H1 4928   2.712   2.297  16.961 -0.2537  1.5705  1.1679
  328MPD2    H2 4929   2.859   2.173  17.344  2.4518  1.1886 -1.8238
  328MPD2    H3 4930   2.881   2.312  17.141 -0.0714  1.3705  0.4711
  328MPD2     N 4931   2.525   2.107  16.944  0.1281 -0.4068 -0.0574
  328MPD2    H5 4932   2.508   2.187  16.884  1.3217 -0.3907 -0.3753
  328MPD2    N1 4933   2.686   2.015  17.404  0.0204 -0.1114 -0.0783
  328MPD2    H7 4934   2.747   2.051  17.477  0.9517 -0.7582 -0.5402
  329TMC3    C1 4935   2.560   1.910  17.563 -0.9169  0.2878  0.6915
  329TMC3    C2 4936   2.497   2.030  17.577  0.3962 -0.0494 -0.0696
  329TMC3    C3 4937   2.360   2.042  17.592  0.7659  0.3226 -0.3166
  329TMC3    C4 4938   2.488   1.800  17.588 -0.3993  0.0890  0.0459
  329TMC3    C5 4939   2.352   1.809  17.607  0.6270 -0.1166 -0.0792
  329TMC3    C6 4940   2.282   1.927  17.608 -0.2965 -0.6981  0.5033
  329TMC3     C 4941   2.613   1.907  17.427 -0.0875  0.1847 -0.7913
  329TMC3     O 4942   2.545   1.838  17.357  0.5099 -0.3361 -0.0678
  329TMC3     H 4943   2.553   2.122  17.595  0.7764 -0.1129 -0.8911
  329TMC3    H1 4944   2.541   1.705  17.585 -0.3858  0.1875 -2.8107
  329TMC3    H2 4945   2.178   1.939  17.637 -0.7073 -0.7448 -0.9376
  329TMC3    C7 4946   2.287   1.683  17.646 -0.0472  0.1637 -0.4086
  329TMC3    C8 4947   2.297   2.168  17.556 -0.8546  0.0417 -0.5442
  329TMC3    O1 4948   2.366   1.589  17.659  0.1585 -0.2772  0.1417
  329TMC3    O2 4949   2.379   2.245  17.506 -0.0331  0.0049  0.3614
  330TMC3    C1 4950   1.042   0.713  10.055 -0.0095 -0.4131 -0.0168
  330TMC3    C2 4951   1.005   0.660   9.930  0.9062 -0.7327  0.0060
  330TMC3    C3 4952   0.973   0.527   9.919 -0.7879 -0.1144  0.1379
  330TMC3    C4 4953   1.040   0.633  10.165 -0.1955 -0.1813 -0.5292
  330TMC3    C5 4954   0.999   0.506  10.152 -1.0087  0.2170  0.0375
  330TMC3    C6 4955   0.968   0.451  10.030  0.2483  0.2417  0.2051
  330TMC3     C 4956   1.028   0.857  10.089 -0.3419  0.9147  0.2415
  330TMC3     O 4957   0.994   0.890  10.203 -0.1265  0.4907 -0.1202
  330TMC3     H 4958   1.002   0.726   9.844 -2.3229  0.8577  1.3030
  330TMC3    H1 4959   1.064   0.675  10.262 -1.7632  2.9621 -1.4786
  330TMC3    H2 4960   0.936   0.348  10.034 -0.9351  0.5787 -0.3011
  330TMC3    C7 4961   1.034   0.417  10.254 -0.4993 -0.3339  0.3793
  330TMC3    C8 4962   0.934   0.480   9.795  0.4945 -0.3338  0.0962
  330TMC3    O1 4963   1.022   0.463  10.368  0.0629 -0.5501  0.1330
  330TMC3    O2 4964   0.986   0.529   9.697  0.1743 -0.5254  0.5783
  331MPD2     C 4965   2.580   0.140  12.441  0.3057 -0.4421  0.6833
  331MPD2    C1 4966   2.689   0.164  12.358  0.5462 -0.7096  0.6442
  331MPD2    C2 4967   2.734   0.057  12.283  0.4582  0.5886  0.5480
  331MPD2    C3 4968   2.689   4.650  12.308  0.4721  0.1467 -0.1521
  331MPD2    C4 4969   2.598   4.626  12.403  0.1817 -0.8375  0.3003
  331MPD2    C5 4970   2.544   0.008  12.465 -0.2581 -0.3121 -0.8194
  331MPD2     H 4971   2.809   0.071  12.205  1.3489 -1.4102  1.0541
  331MPD2    H1 4972   2.579   4.527  12.442  0.9038 -0.7094  0.9735
  331MPD2    H2 4973   2.525   0.218  12.492  0.2732  0.0297 -0.0774
  331MPD2    H3 4974   2.473   4.709  12.543 -0.7609  1.4046 -0.7922
  331MPD2     N 4975   2.770   4.547  12.235  0.3625  0.0436  0.4864
  331MPD2    H5 4976   2.849   4.571  12.177  0.7091 -0.4643  0.7491
  331MPD2    N1 4977   2.735   0.298  12.350 -0.3668 -0.2234 -1.0057
  331MPD2    H7 4978   2.698   0.359  12.423 -2.3107 -2.1685 -0.3691
  332TMC3    C1 4979   2.846   4.340  12.194 -0.0500  0.5978 -0.3282
  332TMC3    C2 4980   2.892   4.386  12.072  0.1173 -0.4056 -0.5780
  332TMC3    C3 4981   3.021   4.344  12.047 -0.0071  0.0628 -0.1957
  332TMC3    C4 4982   2.906   4.246  12.270  0.5006 -0.4824  0.4034
  332TMC3    C5 4983   3.030   4.191  12.221  0.3512  0.4180  0.4054
  332TMC3    C6 4984   3.096   4.248  12.118 -0.0969 -0.0579  0.0786
  332TMC3     C 4985   2.743   4.412  12.251 -0.3526 -0.5613  0.0074
  332TMC3     O 4986   2.658   4.351  12.313  0.4174 -0.0186 -0.3583
  332TMC3     H 4987   2.839   4.452  12.004 -1.4973 -0.0101  1.0701
  332TMC3    H1 4988   2.864   4.208  12.363 -1.8413  0.0109 -0.4581
  332TMC3    H2 4989   3.199   4.219  12.099 -0.1436 -0.2449  0.1164
  332TMC3    C7 4990   3.088   4.082  12.302  0.5490 -0.1993 -0.7940
  332TMC3    C8 4991   3.094   4.393  11.929  0.1768 -0.4422 -0.3234
  332TMC3    O1 4992   3.013   4.013  12.370  0.5445  0.3923  0.0197
  332TMC3    O2 4993   3.213   4.429  11.944  0.0499  0.2025 -0.3878
  333MPD2     C 4994   3.438   4.380  10.891 -0.2171  0.2802 -0.0034
  333MPD2    C1 4995   3.492   4.277  10.820  0.5634  0.6867 -0.2002
  333MPD2    C2 4996   3.467   4.146  10.865  0.2525  0.9744 -0.0057
  333MPD2    C3 4997   3.394   4.118  10.977 -0.4590  0.0566 -0.1729
  333MPD2    C4 4998   3.335   4.220  11.040  0.1715  0.5078  0.2591
  333MPD2    C5 4999   3.368   4.348  11.004 -0.1058 -0.3725 -0.5352
  333MPD2     H 5000   3.498   4.061  10.804 -0.1519  2.7296 -2.6706
  333MPD2    H1 5001   3.276   4.203  11.129 -2.1118  0.7413 -1.2307
  333MPD2    H2 5002   3.451   4.482  10.859 -0.4392  0.3825  0.2282
  333MPD2    H3 5003   3.314   4.423  11.061  0.4548 -0.8621  0.6316
  333MPD2     N 5004   3.392   3.983  11.025 -0.7977  0.2275  0.8238
  333MPD2    H5 5005   3.447   3.921  10.965 -1.0408 -0.9422  1.8090
  333MPD2    N1 5006   3.575   4.303  10.706 -0.2850  0.0970 -0.3213
  333MPD2    H7 5007   3.579   4.398  10.673 -0.0434 -0.0383 -0.6882
  334TMC3    C1 5008   3.722   4.271  10.523 -0.1618 -0.2957  0.1634
  334TMC3    C2 5009   3.825   4.199  10.462  0.0238 -0.3510  0.0432
  334TMC3    C3 5010   3.900   4.265  10.368 -0.0808 -0.3073  0.1534
  334TMC3    C4 5011   3.679   4.389  10.469  0.0292 -0.5022  0.1448
  334TMC3    C5 5012   3.746   4.443  10.361  0.0381  0.4944  0.8672
  334TMC3    C6 5013   3.861   4.382  10.313 -0.2447  0.3387  0.1301
  334TMC3     C 5014   3.646   4.209  10.637 -0.3391 -0.2110  0.4164
  334TMC3     O 5015   3.647   4.091  10.648  0.2413 -0.0885 -0.3966
  334TMC3     H 5016   3.852   4.098  10.489 -1.2853 -0.5068  0.7826
  334TMC3    H1 5017   3.581   4.419  10.505  0.4045  0.9604 -0.0320
  334TMC3    H2 5018   3.910   4.444  10.239  0.9504 -1.4720 -0.6213
  334TMC3    C7 5019   3.713   4.578  10.306  0.4960 -0.1471 -0.6285
  334TMC3    C8 5020   4.028   4.210  10.330  0.2089  0.7286  0.1033
  334TMC3    O1 5021   3.705   4.599  10.187 -0.0685  0.1384 -0.1870
  334TMC3    O2 5022   4.037   4.091  10.311  0.3127 -0.7670  0.0316
  335TMC3    C1 5023   3.478   0.965  17.653  0.3433 -0.0836  0.2045
  335TMC3    C2 5024   3.351   1.014  17.661  0.7974  0.0171  0.3996
  335TMC3    C3 5025   3.332   1.148  17.642 -0.2243  0.6085  0.1500
  335TMC3    C4 5026   3.586   1.045  17.629 -0.0606  0.7585  1.0593
  335TMC3    C5 5027   3.567   1.178  17.606  0.1030 -0.4020  0.1390
  335TMC3    C6 5028   3.440   1.234  17.619  0.5619  0.5623  0.5133
  335TMC3     C 5029   3.495   0.822  17.690  0.1188 -0.1403  0.3072
  335TMC3     O 5030   3.404   0.756   0.047  0.3311 -0.5219  0.7377
  335TMC3     H 5031   3.268   0.952  17.691  0.5581  0.0757 -0.1379
  335TMC3    H1 5032   3.690   1.015  17.622 -1.0729 -2.1469 -1.4156
  335TMC3    H2 5033   3.418   1.331  17.576 -1.1020 -0.4607 -0.9667
  335TMC3    C7 5034   3.678   1.254  17.554  0.5533 -0.7170  0.1837
  335TMC3    C8 5035   3.207   1.208  17.607  0.0663  0.2931  0.0586
  335TMC3    O1 5036   3.751   1.197  17.477  0.2936  0.1502  0.1306
  335TMC3    O2 5037   3.205   1.331  17.599  0.3058  0.1291  0.5873
  336MPD2     C 5038   2.970   4.315  16.047 -0.0441  0.0290  0.2419
  336MPD2    C1 5039   2.901   4.265  15.938  0.1353  0.7619 -0.3741
  336MPD2    C2 5040   2.879   4.132  15.930  0.0710  0.5868 -0.7575
  336MPD2    C3 5041   2.924   4.037  16.013 -0.0079  0.4079  0.2291
  336MPD2    C4 5042   2.984   4.087  16.126 -0.0275 -0.4257 -0.2401
  336MPD2    C5 5043   3.018   4.220  16.141 -0.0749  0.2569 -0.2802
  336MPD2     H 5044   2.823   4.095  15.845 -0.6049 -2.0777  0.8634
  336MPD2    H1 5045   3.006   4.028  16.214 -1.6169  0.4467  0.7474
  336MPD2    H2 5046   3.006   4.416  16.060  0.7550 -0.1587 -0.5261
  336MPD2    H3 5047   3.067   4.259  16.230  3.8410 -1.0462 -1.8776
  336MPD2     N 5048   2.902   3.899  16.009  0.3151  0.3776  0.3969
  336MPD2    H5 5049   2.929   3.856  16.097  0.6657  0.7141  0.4552
  336MPD2    N1 5050   2.826   4.350  15.858  0.5863 -0.1331 -0.7660
  336MPD2    H7 5051   2.766   4.312  15.786 -0.6075  0.3620 -0.0353
  337TMC3    C1 5052   2.755   4.556  15.765  0.1033 -0.3849  0.5487
  337TMC3    C2 5053   2.638   4.493  15.733  0.1950  0.0659 -0.1352
  337TMC3    C3 5054   2.570   4.550  15.632 -0.4484  0.7482  0.4464
  337TMC3    C4 5055   2.806   4.667  15.714  0.2873 -0.1277 -0.2186
  337TMC3    C5 5056   2.732   4.720  15.615  0.8106 -0.0174  0.8485
  337TMC3    C6 5057   2.613   4.661  15.573 -0.3849  0.2723 -0.4803
  337TMC3     C 5058   2.846   4.488  15.855 -1.0044  0.2536  0.4212
  337TMC3     O 5059   2.941   4.561  15.889  0.7418  0.5396 -0.0233
  337TMC3     H 5060   2.603   4.409  15.793  0.1144  1.4898  1.8287
  337TMC3    H1 5061   2.879   0.015  15.753  1.5217 -0.3945 -2.0356
  337TMC3    H2 5062   2.561   4.696  15.485 -2.4789  1.1643  1.1190
  337TMC3    C7 5063   2.785   0.098  15.526 -0.3899 -0.5436 -0.0131
  337TMC3    C8 5064   2.440   4.497  15.598  0.1122 -0.9038  0.9826
  337TMC3    O1 5065   2.713   0.146  15.440 -0.6635  0.3274 -0.4311
  337TMC3    O2 5066   2.387   4.430  15.683 -0.7127 -0.5037  0.7408
  338MPD2     C 5067   2.688   3.519   0.885 -0.8823 -0.3562  0.1120
  338MPD2    C1 5068   2.700   3.501   0.752 -0.2078  0.6952  0.0299
  338MPD2    C2 5069   2.591   3.458   0.675 -0.1301  0.6031  0.6969
  338MPD2    C3 5070   2.469   3.441   0.736 -0.3962 -0.0854  0.6060
  338MPD2    C4 5071   2.459   3.459   0.876 -0.2804  0.1487  1.1765
  338MPD2    C5 5072   2.572   3.491   0.950 -0.5436 -0.0895  0.0433
  338MPD2     H 5073   2.602   3.441   0.569 -4.0181 -3.7218  1.0093
  338MPD2    H1 5074   2.365   3.444   0.928 -0.8368  0.4575  0.2470
  338MPD2    H2 5075   2.775   3.555   0.939 -1.4201  0.4496  0.4484
  338MPD2    H3 5076   2.573   3.508   1.057  4.3444 -0.1189 -0.0364
  338MPD2     N 5077   2.356   3.414   0.648  0.4201  0.1007  0.2894
  338MPD2    H5 5078   2.375   3.416   0.548  2.2096 -1.9747  0.5975
  338MPD2    N1 5079   2.822   3.507   0.676 -0.1471  0.3689 -0.2553
  338MPD2    H7 5080   2.819   3.498   0.575 -1.0184  3.3964 -0.5065
  339TMC3    C1 5081   2.150   3.351   0.571  0.0473 -0.3227 -0.0719
  339TMC3    C2 5082   2.135   3.217   0.535 -0.2103 -0.4026  0.1017
  339TMC3    C3 5083   2.162   3.183   0.405  0.1803  0.3822  0.4324
  339TMC3    C4 5084   2.180   3.446   0.478 -0.1171  0.1690 -0.6156
  339TMC3    C5 5085   2.207   3.404   0.349  0.1032  0.2426 -0.4009
  339TMC3    C6 5086   2.201   3.272   0.307 -0.0953 -0.1148 -0.7892
  339TMC3     C 5087   2.235   3.372   0.687  0.3396  0.2098  0.2213
  339TMC3     O 5088   2.189   3.331   0.794  0.0652 -0.2261  0.1572
  339TMC3     H 5089   2.128   3.146   0.617 -4.1047 -0.2579 -0.0833
  339TMC3    H1 5090   2.184   3.551   0.506  1.8598  0.2735 -1.3112
  339TMC3    H2 5091   2.221   3.237   0.206 -1.7677 -0.8936 -0.8427
  339TMC3    C7 5092   2.275   3.497   0.263 -0.0208 -0.6210 -0.1950
  339TMC3    C8 5093   2.199   3.042   0.379 -0.0162  0.5859 -0.2324
  339TMC3    O1 5094   2.263   3.609   0.310 -0.6984  0.5646 -0.1313
  339TMC3    O2 5095   2.271   3.025   0.282 -0.2861  0.2928 -0.0413
  340MPD2     C 5096   4.169   1.662   9.711 -0.2627  0.1339 -0.2003
  340MPD2    C1 5097   4.275   1.572   9.687  0.1472  0.3455 -0.5971
  340MPD2    C2 5098   4.391   1.626   9.619  0.3696 -0.2773  0.3016
  340MPD2    C3 5099   4.402   1.766   9.585  0.8754  0.1270 -0.8425
  340MPD2    C4 5100   4.291   1.845   9.607  0.1339 -0.6941  0.0590
  340MPD2    C5 5101   4.176   1.794   9.674  0.0414 -0.6850 -0.3758
  340MPD2     H 5102   4.472   1.560   9.592  1.7300  0.1052  3.4670
  340MPD2    H1 5103   4.301   1.952   9.596 -1.5071 -0.6453 -0.9849
  340MPD2    H2 5104   4.089   1.614   9.766  0.3144  1.1597  1.5502
  340MPD2    H3 5105   4.089   1.859   9.679  0.9202  0.5250 -0.8385
  340MPD2     N 5106   4.520   1.821   9.524 -0.4088  0.1949  0.0627
  340MPD2    H5 5107   4.503   1.913   9.486  0.5290  0.2326 -0.2623
  340MPD2    N1 5108   4.257   1.428   9.699 -0.2432  0.9093 -0.1182
  340MPD2    H7 5109   4.327   1.360   9.673  1.6830  2.8289  0.0740
  341TMC3    C1 5110   4.175   1.218   9.771  0.0348 -0.1336  0.3637
  341TMC3    C2 5111   4.079   1.146   9.845  0.0884 -0.7016 -0.0130
  341TMC3    C3 5112   4.086   1.012   9.850  0.1356 -0.3777 -1.0159
  341TMC3    C4 5113   4.277   1.150   9.710  0.2966 -0.9677  0.6188
  341TMC3    C5 5114   4.286   1.017   9.730 -0.1113  0.1755  0.0968
  341TMC3    C6 5115   4.195   0.941   9.799 -0.4641 -0.4074 -0.9384
  341TMC3     C 5116   4.156   1.364   9.761  0.5366  0.0333  1.0009
  341TMC3     O 5117   4.072   1.412   9.835  0.5132 -0.3295  0.0524
  341TMC3     H 5118   3.992   1.192   9.892  0.7681 -0.8699  1.4128
  341TMC3    H1 5119   4.358   1.199   9.657  1.0702 -0.6006  2.1511
  341TMC3    H2 5120   4.194   0.835   9.779 -0.4954 -1.0833  2.7353
  341TMC3    C7 5121   4.394   0.952   9.656 -0.2795 -0.0532 -0.2138
  341TMC3    C8 5122   3.961   0.946   9.889  0.1396  0.4508  0.1312
  341TMC3    O1 5123   4.451   1.002   9.558 -0.7312  0.1505 -0.6066
  341TMC3    O2 5124   3.865   1.020   9.892 -0.3518  0.0457  0.6909
  342MPD2     C 5125   1.253   0.349  16.670  0.1283  0.4499  1.0840
  342MPD2    C1 5126   1.211   0.286  16.782  0.5140 -0.1869  0.3863
  342MPD2    C2 5127   1.180   0.365  16.891 -0.8057 -0.3693  0.3575
  342MPD2    C3 5128   1.191   0.497  16.895 -0.5542  0.5685  0.1040
  342MPD2    C4 5129   1.222   0.562  16.777  0.3051  0.4490  0.0501
  342MPD2    C5 5130   1.251   0.484  16.666  0.0419 -0.1428  0.2797
  342MPD2     H 5131   1.137   0.306  16.971 -2.0969  0.2049  0.0793
  342MPD2    H1 5132   1.216   0.669  16.768  1.4970  0.6070  1.1249
  342MPD2    H2 5133   1.272   0.288  16.582  0.7235  1.6550  0.3641
  342MPD2    H3 5134   1.278   0.533  16.573  1.9235 -0.4305  0.6758
  342MPD2     N 5135   1.154   0.579  17.009  0.3547  0.1312  0.6378
  342MPD2    H5 5136   1.138   0.676  16.986  0.2859  0.6570  2.8706
  342MPD2    N1 5137   1.216   0.146  16.803 -0.5932 -0.3235  0.0608
  342MPD2    H7 5138   1.224   0.112  16.898 -0.4108  0.5610  0.3568
  343TMC3    C1 5139   1.243   4.646  16.762  0.9652 -0.0357  0.4109
  343TMC3    C2 5140   1.263   4.554  16.662  0.0723  0.7255 -0.1413
  343TMC3    C3 5141   1.278   4.424  16.704 -0.3792 -0.8684 -0.3518
  343TMC3    C4 5142   1.238   4.615  16.897 -0.4126  0.2154  0.2271
  343TMC3    C5 5143   1.253   4.481  16.929  0.2654  0.5085  0.2868
  343TMC3    C6 5144   1.263   4.381  16.837 -0.9736 -1.0919 -0.6807
  343TMC3     C 5145   1.208   0.053  16.708 -0.2758 -0.4960 -0.2634
  343TMC3     O 5146   1.184   0.056  16.585  0.0042  0.0090  0.7904
  343TMC3     H 5147   1.268   4.579  16.557 -0.5862 -0.1383 -0.3804
  343TMC3    H1 5148   1.241   4.689  16.976 -0.6232  1.8618 -1.2975
  343TMC3    H2 5149   1.289   4.284  16.876 -2.8479 -0.2905  2.5844
  343TMC3    C7 5150   1.224   4.451  17.072  0.0168 -0.0116 -0.6520
  343TMC3    C8 5151   1.331   4.332  16.606  0.6248 -0.4892 -0.5339
  343TMC3    O1 5152   1.226   4.543  17.154 -0.4788  0.0309  0.0115
  343TMC3    O2 5153   1.311   4.357  16.487 -0.5216  0.1472  0.5680
  344MPD2     C 5154   2.410   3.452  10.514  0.0655  0.0346 -0.1499
  344MPD2    C1 5155   2.285   3.497  10.468  0.4718  0.0237 -0.6886
  344MPD2    C2 5156   2.285   3.579  10.355 -0.6518 -0.1744  0.8346
  344MPD2    C3 5157   2.397   3.598  10.284 -0.3737 -0.0626  0.2300
  344MPD2    C4 5158   2.515   3.541  10.323 -0.9048 -0.6979 -0.6291
  344MPD2    C5 5159   2.516   3.462  10.432 -0.0175  0.2808 -0.5254
  344MPD2     H 5160   2.191   3.622  10.323 -0.1425  0.9777  0.9114
  344MPD2    H1 5161   2.603   3.558  10.262 -0.7833 -2.2810 -0.8746
  344MPD2    H2 5162   2.413   3.388  10.602  1.0622 -0.0457 -0.2429
  344MPD2    H3 5163   2.608   3.413  10.460  0.3566  1.5145  0.4592
  344MPD2     N 5164   2.410   3.671  10.170 -0.0618 -0.1631  0.0941
  344MPD2    H5 5165   2.501   3.699  10.134 -0.3063  0.6259  0.0901
  344MPD2    N1 5166   2.163   3.462  10.530 -0.4173  0.0262  0.0291
  344MPD2    H7 5167   2.079   3.490  10.481  0.7376  1.4691 -1.1372
  345TMC3    C1 5168   2.363   3.817  10.001 -0.4690 -0.6199 -0.0896
  345TMC3    C2 5169   2.497   3.850  10.012  0.0213 -0.6081  0.3265
  345TMC3    C3 5170   2.555   3.906   9.902 -0.5276 -0.1377 -0.1404
  345TMC3    C4 5171   2.286   3.841   9.896 -0.2010  0.2621 -0.0492
  345TMC3    C5 5172   2.349   3.895   9.784  0.2079  0.4184 -0.2100
  345TMC3    C6 5173   2.480   3.937   9.792  0.2960  0.7357 -0.7739
  345TMC3     C 5174   2.308   3.744  10.108  0.6881  0.0605  0.6585
  345TMC3     O 5175   2.187   3.745  10.126  0.6331  0.0951  0.0193
  345TMC3     H 5176   2.546   3.861  10.108 -0.2525  0.0504  0.3939
  345TMC3    H1 5177   2.181   3.822   9.913  0.3367 -0.3491  2.5876
  345TMC3    H2 5178   2.523   3.978   9.701 -0.1678 -0.3665 -1.4965
  345TMC3    C7 5179   2.269   3.971   9.701  0.4348  0.2956  0.6171
  345TMC3    C8 5180   2.669   4.004   9.922 -0.1405 -0.4187 -0.2877
  345TMC3    O1 5181   2.324   4.060   9.644  0.2814 -0.5569  0.5517
  345TMC3    O2 5182   2.663   4.110   9.858  0.1260 -0.1315  0.6227
  346MPD2     C 5183   1.685   0.881  13.722  0.8311  0.3353  0.1328
  346MPD2    C1 5184   1.775   0.974  13.694  0.4224 -0.7978  0.6140
  346MPD2    C2 5185   1.801   1.075  13.783  0.1117 -0.5845  0.5382
  346MPD2    C3 5186   1.732   1.081  13.900  0.5460 -0.0290 -0.5874
  346MPD2    C4 5187   1.636   0.988  13.928 -0.3100 -0.1051  0.0573
  346MPD2    C5 5188   1.610   0.889  13.835  0.8590  0.1633  0.9538
  346MPD2     H 5189   1.878   1.149  13.761 -1.7907  0.7915 -1.3954
  346MPD2    H1 5190   1.568   0.994  14.013  1.6334 -1.5577  1.7106
  346MPD2    H2 5191   1.655   0.803  13.653 -0.5783  2.7994 -2.0344
  346MPD2    H3 5192   1.526   0.822  13.853 -0.0917  1.0032 -0.4366
  346MPD2     N 5193   1.767   1.182  13.991  0.5498  0.1350  0.1131
  346MPD2    H5 5194   1.819   1.260  13.954  1.0279 -0.0387  0.4154
  346MPD2    N1 5195   1.853   0.984  13.574 -0.3823  0.5478 -0.2953
  346MPD2    H7 5196   1.928   1.053  13.576  0.1432 -0.0360  0.2374
  347TMC3    C1 5197   1.787   1.287  14.214 -0.2454 -0.2298  0.8226
  347TMC3    C2 5198   1.893   1.346  14.168  0.5230 -0.2346  0.6966
  347TMC3    C3 5199   1.987   1.387  14.259 -0.2756  0.1669 -0.4164
  347TMC3    C4 5200   1.746   1.290  14.343  0.3413 -0.7494  0.5413
  347TMC3    C5 5201   1.840   1.339  14.433 -0.7159 -0.3512  0.0803
  347TMC3    C6 5202   1.964   1.380  14.392 -0.4609  0.3622  0.3148
  347TMC3     C 5203   1.721   1.188  14.123  0.7838 -0.6823  0.2854
  347TMC3     O 5204   1.640   1.119  14.179  1.0058 -0.4095  0.5579
  347TMC3     H 5205   1.908   1.353  14.061 -1.5947  1.6308  0.5140
  347TMC3    H1 5206   1.654   1.247  14.382  0.3503 -0.8356  0.4664
  347TMC3    H2 5207   2.039   1.410  14.464  1.5328 -0.7229 -1.2887
  347TMC3    C7 5208   1.805   1.362  14.565 -0.6730  0.7449  0.3377
  347TMC3    C8 5209   2.122   1.382  14.206 -0.3645  0.7605  0.3623
  347TMC3    O1 5210   1.721   1.294  14.624 -0.2804 -0.1138  0.0809
  347TMC3    O2 5211   2.132   1.318  14.101 -0.4260  0.7136  0.0304
  348MPD2     C 5212   0.756   0.529  12.276  0.2195 -0.0850 -0.1036
  348MPD2    C1 5213   0.880   0.542  12.212 -0.5555 -0.0671 -0.4370
  348MPD2    C2 5214   0.892   0.628  12.106  0.1685 -0.2595 -0.1088
  348MPD2    C3 5215   0.782   0.680  12.048 -0.3077  0.4252  0.7724
  348MPD2    C4 5216   0.656   0.668  12.101  0.3983 -0.4724 -0.2097
  348MPD2    C5 5217   0.649   0.594  12.218  0.6270  0.3514 -0.2412
  348MPD2     H 5218   0.988   0.638  12.058 -0.6059 -2.7596 -2.1970
  348MPD2    H1 5219   0.564   0.711  12.063  0.7701  0.5581  0.0591
  348MPD2    H2 5220   0.748   0.471  12.367 -1.5685  1.8252  0.9267
  348MPD2    H3 5221   0.553   0.577  12.266  0.7619  1.2492  0.3415
  348MPD2     N 5222   0.806   0.754  11.929  0.0249  0.0667  0.1580
  348MPD2    H5 5223   0.901   0.781  11.907 -0.4937  0.2015 -1.9684
  348MPD2    N1 5224   1.000   0.472  12.244  0.0325  0.4178  0.2298
  348MPD2    H7 5225   1.078   0.499  12.185  1.1294  1.3618  2.1005
  349TMC3    C1 5226   1.143   0.306  12.329  0.1811 -0.4066 -0.7368
  349TMC3    C2 5227   1.147   0.170  12.353  0.4606 -0.5835 -0.1216
  349TMC3    C3 5228   1.209   0.088  12.262  0.1759 -0.0496 -0.0459
  349TMC3    C4 5229   1.215   0.357  12.225 -0.4173  0.2571  0.2793
  349TMC3    C5 5230   1.279   0.272  12.133  0.5388 -0.2664  0.5513
  349TMC3    C6 5231   1.279   0.138  12.151 -0.2855  0.1077 -0.4199
  349TMC3     C 5232   1.013   0.368  12.334  0.4177 -0.0923 -0.6426
  349TMC3     O 5233   0.923   0.318  12.402  0.5283 -0.2649 -0.0908
  349TMC3     H 5234   1.081   0.129  12.428 -1.1764  0.5768 -0.9159
  349TMC3    H1 5235   1.242   0.462  12.218 -1.3337  0.3799 -1.3631
  349TMC3    H2 5236   1.327   0.074  12.079  1.4097 -0.2282  1.0024
  349TMC3    C7 5237   1.241   0.312  12.000  0.0806 -0.1799  0.2836
  349TMC3    C8 5238   1.212   4.669  12.288 -0.6581  0.2839  0.0511
  349TMC3    O1 5239   1.145   0.260  11.946  0.6387  0.2435 -0.1097
  349TMC3    O2 5240   1.114   4.623  12.341  0.7618 -0.6604  0.7185
  350MPD2     C 5241   4.711   3.306   9.270  0.3014 -0.3046  0.3489
  350MPD2    C1 5242   0.068   3.234   9.362  0.4427  0.0860  0.1200
  350MPD2    C2 5243   0.172   3.287   9.428 -0.0503 -0.1155 -0.3619
  350MPD2    C3 5244   0.206   3.421   9.414  0.3206 -0.4480 -0.3145
  350MPD2    C4 5245   0.142   3.496   9.314 -0.7019 -0.2168 -1.3165
  350MPD2    C5 5246   0.036   3.438   9.249 -0.7299 -0.3594 -0.7364
  350MPD2     H 5247   0.236   3.228   9.494  0.8927  1.3024 -0.0119
  350MPD2    H1 5248   0.176   3.595   9.287  2.0716 -0.8451 -0.1029
  350MPD2    H2 5249   4.620   3.277   9.219  0.4338 -0.9517  0.4891
  350MPD2    H3 5250   4.715   3.491   9.165 -1.2280 -0.1728 -0.3559
  350MPD2     N 5251   0.299   3.476   9.500 -0.1450 -0.2641  0.5841
  350MPD2    H5 5252   0.337   3.413   9.570  0.1113 -1.5578 -0.7113
  350MPD2    N1 5253   0.032   3.106   9.405 -0.1200  0.0861  0.3738
  350MPD2    H7 5254   0.092   3.063   9.475  1.6665  0.8618 -0.6556
  351TMC3    C1 5255   4.663   2.894   9.406  0.5855 -0.5197 -0.8720
  351TMC3    C2 5256   0.057   2.842   9.464 -0.8189 -0.3329 -0.7090
  351TMC3    C3 5257   0.044   2.743   9.558  0.6094  0.0609 -0.2325
  351TMC3    C4 5258   4.545   2.842   9.438 -0.1341  0.3746 -0.1351
  351TMC3    C5 5259   4.538   2.742   9.526 -0.0364  0.1807 -0.1808
  351TMC3    C6 5260   4.647   2.696   9.597 -0.4420  0.4562  0.4001
  351TMC3     C 5261   4.655   3.029   9.356 -0.2870  0.0838  0.2693
  351TMC3     O 5262   4.553   3.069   9.302 -0.1436 -0.4263 -0.1366
  351TMC3     H 5263   0.155   2.879   9.436 -0.3598 -0.4306  0.7296
  351TMC3    H1 5264   4.453   2.884   9.399 -1.1324 -1.2066  0.5468
  351TMC3    H2 5265   4.639   2.603   9.652  2.2949 -0.1239 -0.2022
  351TMC3    C7 5266   4.405   2.686   9.574  0.2894  0.0146  0.1675
  351TMC3    C8 5267   0.165   2.696   9.627  0.2282 -0.0613  0.0136
  351TMC3    O1 5268   4.315   2.680   9.495 -0.3983  0.0477  0.2043
  351TMC3    O2 5269   0.270   2.709   9.569 -0.5755 -0.4092  0.1094
  352MPD2     C 5270   2.429   0.257   1.110 -0.3118 -0.2076  0.5388
  352MPD2    C1 5271   2.498   0.287   0.993 -0.4130  0.3383  0.1837
  352MPD2    C2 5272   2.622   0.230   0.980  0.2799 -0.0042 -0.7262
  352MPD2    C3 5273   2.678   0.144   1.073  1.5490 -0.6261 -0.4928
  352MPD2    C4 5274   2.604   0.122   1.189 -1.1334  0.1761 -0.3870
  352MPD2    C5 5275   2.481   0.172   1.206  0.2907 -0.0709  0.4685
  352MPD2     H 5276   2.670   0.248   0.884  0.4960  0.7221 -0.4817
  352MPD2    H1 5277   2.651   0.068   1.271 -1.9074 -1.0075 -0.7152
  352MPD2    H2 5278   2.330   0.301   1.115  0.7046  2.0512  1.0396
  352MPD2    H3 5279   2.424   0.142   1.293  1.1473 -4.4368 -0.4857
  352MPD2     N 5280   2.805   0.082   1.065 -0.4439  0.5277  0.3963
  352MPD2    H5 5281   2.826   0.029   1.149  0.3417  0.2755  0.0458
  352MPD2    N1 5282   2.438   0.376   0.899  0.5951  0.5240 -0.0023
  352MPD2    H7 5283   2.348   0.415   0.925 -0.6288 -1.3587 -1.3727
  353TMC3    C1 5284   3.025   0.023   1.000  0.3276 -0.2112  0.6437
  353TMC3    C2 5285   3.032   4.663   1.110  0.4941 -0.0059  0.1296
  353TMC3    C3 5286   3.128   4.576   1.118 -0.8221  0.4594  0.4126
  353TMC3    C4 5287   3.123   0.012   0.903 -0.4326 -0.3999 -1.0647
  353TMC3    C5 5288   3.225   4.649   0.924 -0.4545  0.2899  0.1013
  353TMC3    C6 5289   3.231   4.564   1.030 -0.5395  0.5745 -0.0162
  353TMC3     C 5290   2.901   0.096   0.969 -0.0709  0.2771 -0.0309
  353TMC3     O 5291   2.895   0.156   0.863 -0.2820 -0.1242 -0.3634
  353TMC3     H 5292   2.950   4.646   1.178  1.1703  1.0759  1.2216
  353TMC3    H1 5293   3.121   0.077   0.817 -2.6909  1.4928  0.3823
  353TMC3    H2 5294   3.308   4.487   1.033 -1.7388 -0.6382 -0.3087
  353TMC3    C7 5295   3.285   4.588   0.803  0.5706 -0.5779  0.2115
  353TMC3    C8 5296   3.116   4.485   1.233  0.9301  0.0410 -0.0196
  353TMC3    O1 5297   3.306   4.466   0.800 -0.0278  0.3810 -0.2759
  353TMC3    O2 5298   3.062   4.525   1.336 -0.3263 -0.2152  0.5468
  354TMC3    C1 5299   4.446   2.166  13.286  0.1748 -0.4997 -0.3322
  354TMC3    C2 5300   4.428   2.289  13.231 -0.0333 -0.6975  0.2074
  354TMC3    C3 5301   4.443   2.311  13.095  0.4470  0.4869 -0.1057
  354TMC3    C4 5302   4.466   2.060  13.199  0.5449  0.5377 -0.2398
  354TMC3    C5 5303   4.503   2.091  13.071 -0.6910 -0.1943 -0.0343
  354TMC3    C6 5304   4.480   2.215  13.013  0.1279 -0.2929  0.8428
  354TMC3     C 5305   4.428   2.146  13.430 -0.2093 -0.6316 -0.4279
  354TMC3     O 5306   4.437   2.024  13.461  0.4147  0.3996 -0.9938
  354TMC3     H 5307   4.409   2.383  13.282  1.4359 -1.0083  1.3318
  354TMC3    H1 5308   4.496   1.964  13.239 -2.3267 -0.2786 -0.0497
  354TMC3    H2 5309   4.510   2.236  12.911 -0.1321 -2.2114  0.3740
  354TMC3    C7 5310   4.513   1.978  12.977 -0.9244  0.1981 -0.2452
  354TMC3    C8 5311   4.449   2.446  13.043  0.9293  1.2001  0.3906
  354TMC3    O1 5312   4.458   1.877  13.013 -0.5188 -0.5995  0.2403
  354TMC3    O2 5313   4.387   2.471  12.942 -0.9174  0.0769  0.0389
  355MPD2     C 5314   0.002   2.723  11.248  0.0860 -0.2046 -0.2177
  355MPD2    C1 5315   0.094   2.806  11.193 -0.3453 -0.1759 -0.9091
  355MPD2    C2 5316   0.191   2.861  11.280  1.0367  0.4468  0.0555
  355MPD2    C3 5317   0.177   2.837  11.416  0.2306 -0.1674  0.5927
  355MPD2    C4 5318   0.075   2.758  11.468  0.1339 -0.5354  0.1622
  355MPD2    C5 5319   4.708   2.705  11.379  0.7372  0.4279  0.2009
  355MPD2     H 5320   0.266   2.934  11.251 -0.1117  1.0938 -1.2628
  355MPD2    H1 5321   0.062   2.739  11.574  1.6204 -0.8859  0.2820
  355MPD2    H2 5322   4.643   2.684  11.189  0.1239 -2.7545  1.4429
  355MPD2    H3 5323   4.619   2.653  11.412  1.4437 -1.0600 -0.2542
  355MPD2     N 5324   0.273   2.901  11.497  0.1161  0.2453 -0.2001
  355MPD2    H5 5325   0.339   2.968  11.457 -0.0703 -0.1910 -1.2470
  355MPD2    N1 5326   0.076   2.836  11.055 -0.0997 -0.0368  0.1290
  355MPD2    H7 5327   0.022   2.774  10.996 -1.3105  0.7864  0.3611
  356TMC3    C1 5328   0.421   2.934  11.672  0.2426 -0.5298  1.0228
  356TMC3    C2 5329   0.524   2.920  11.581 -0.3792 -0.4142 -0.5867
  356TMC3    C3 5330   0.644   2.969  11.616 -0.0141 -0.2683 -0.0895
  356TMC3    C4 5331   0.441   2.989  11.798  0.3023 -0.3852 -0.0346
  356TMC3    C5 5332   0.560   3.046  11.822  0.6379  1.0695 -0.6440
  356TMC3    C6 5333   0.663   3.040  11.730  0.3585 -0.0896 -0.6734
  356TMC3     C 5334   0.297   2.870  11.628 -0.1157  0.1955 -0.5656
  356TMC3     O 5335   0.243   2.791  11.708  0.1072 -0.3550  0.6329
  356TMC3     H 5336   0.513   2.867  11.487 -1.9791 -1.6099  0.2782
  356TMC3    H1 5337   0.361   2.982  11.870 -0.5368 -0.2338 -0.9435
  356TMC3    H2 5338   0.764   3.074  11.749  0.9606 -2.3544  0.1852
  356TMC3    C7 5339   0.578   3.118  11.951  0.1174 -0.4535  0.0050
  356TMC3    C8 5340   0.740   2.967  11.506 -0.4956  0.2558 -0.0952
  356TMC3    O1 5341   0.525   3.062  12.047  0.6695 -0.3041 -0.0671
  356TMC3    O2 5342   0.719   2.875  11.424  0.3516  0.1087 -0.6990
  357MPD2     C 5343   3.891   1.545   1.130 -0.4035  0.5590 -0.0954
  357MPD2    C1 5344   3.877   1.630   1.020 -0.5157  0.1259  0.7348
  357MPD2    C2 5345   3.750   1.631   0.968  0.2842 -0.3925 -0.1376
  357MPD2    C3 5346   3.647   1.562   1.032  0.1419  0.5111  0.1311
  357MPD2    C4 5347   3.673   1.473   1.134  0.6812 -0.2171  0.4658
  357MPD2    C5 5348   3.796   1.467   1.184 -0.2587 -0.5789  0.2237
  357MPD2     H 5349   3.734   1.679   0.872  0.1783 -1.2161 -0.5303
  357MPD2    H1 5350   3.598   1.420   1.191  1.0455 -0.2481  0.9097
  357MPD2    H2 5351   3.989   1.539   1.177 -0.2409 -1.5363 -0.7114
  357MPD2    H3 5352   3.818   1.406   1.271 -1.3924  1.4790  1.9570
  357MPD2     N 5353   3.514   1.570   0.989 -0.0246 -0.8422  0.0424
  357MPD2    H5 5354   3.445   1.507   1.029 -0.9379 -1.5612 -2.6856
  357MPD2    N1 5355   3.993   1.683   0.954  0.2432 -0.5573 -0.0285
  357MPD2    H7 5356   4.083   1.648   0.986  0.1626  0.8062  1.6873
  358TMC3    C1 5357   4.112   1.775   0.771  0.2226  0.2747 -0.0532
  358TMC3    C2 5358   4.120   1.842   0.653  0.3788 -0.6414 -0.2475
  358TMC3    C3 5359   4.240   1.856   0.593 -0.0879 -0.3043 -0.4055
  358TMC3    C4 5360   4.219   1.714   0.830  0.1311  0.0849  0.1433
  358TMC3    C5 5361   4.341   1.732   0.772 -0.4447  0.5369  0.1605
  358TMC3    C6 5362   4.349   1.786   0.648  0.2963  0.3284 -0.2528
  358TMC3     C 5363   3.988   1.762   0.843 -0.9982 -0.6257 -0.6863
  358TMC3     O 5364   3.895   1.808   0.780 -0.5609  0.4546 -0.7673
  358TMC3     H 5365   4.028   1.869   0.602  1.1571 -1.4496 -2.0971
  358TMC3    H1 5366   4.223   1.648   0.916  0.9415  1.3067  1.0379
  358TMC3    H2 5367   4.444   1.780   0.596  1.1706 -3.4655  1.7761
  358TMC3    C7 5368   4.465   1.701   0.837 -1.2223 -0.5508 -0.3276
  358TMC3    C8 5369   4.238   1.924   0.467 -0.4338 -0.8403 -0.5073
  358TMC3    O1 5370   4.556   1.661   0.770 -0.4892 -0.1798 -0.0687
  358TMC3    O2 5371   4.169   2.025   0.450 -0.2319  0.2254 -0.5685
  359MPD2     C 5372   0.464   1.749  12.394  0.0082 -0.0621  0.1033
  359MPD2    C1 5373   0.475   1.624  12.446 -0.0921 -0.2420 -0.2908
  359MPD2    C2 5374   0.358   1.553  12.477  0.0471 -0.1899 -0.1023
  359MPD2    C3 5375   0.233   1.598  12.454 -0.2639  0.0966  0.6357
  359MPD2    C4 5376   0.224   1.714  12.392  0.6350  0.1768  0.1927
  359MPD2    C5 5377   0.334   1.785  12.360 -0.6335 -0.3137  0.6164
  359MPD2     H 5378   0.370   1.451  12.514  1.7602  1.0654  2.7940
  359MPD2    H1 5379   0.130   1.754  12.356  0.9402  1.2782  0.6273
  359MPD2    H2 5380   0.551   1.809  12.370 -1.5716  1.6851 -1.1978
  359MPD2    H3 5381   0.319   1.871  12.295  0.6470 -0.6208 -0.0829
  359MPD2     N 5382   0.120   1.528  12.484  0.4026  0.2335  0.3356
  359MPD2    H5 5383   0.032   1.573  12.466 -0.5692 -2.3998 -1.4486
  359MPD2    N1 5384   0.601   1.559  12.458  0.1543 -0.2489  0.3934
  359MPD2    H7 5385   0.603   1.466  12.497  1.8407  0.8021  2.7993
  360TMC3    C1 5386   0.821   1.505  12.400  0.0621  0.3979 -0.4564
  360TMC3    C2 5387   0.929   1.559  12.340  0.1582 -1.1831  0.0157
  360TMC3    C3 5388   0.998   1.477  12.252 -0.5114  1.1284 -0.4210
  360TMC3    C4 5389   0.767   1.387  12.360  0.2789  0.2411  0.0877
  360TMC3    C5 5390   0.831   1.310  12.267 -0.2036  0.6104 -0.0336
  360TMC3    C6 5391   0.951   1.356  12.217  0.3811 -0.1061 -0.7765
  360TMC3     C 5392   0.729   1.607  12.425 -0.2113  0.4998 -0.3165
  360TMC3     O 5393   0.766   1.713  12.377  0.2362 -0.6640  0.0432
  360TMC3     H 5394   0.989   1.631  12.395  1.4766 -1.6091 -0.8711
  360TMC3    H1 5395   0.676   1.348  12.404  1.4325  0.3563  2.5632
  360TMC3    H2 5396   1.012   1.284  12.163 -0.2409 -0.0555 -1.5395
  360TMC3    C7 5397   0.744   1.224  12.190  0.2442  0.5351 -0.0126
  360TMC3    C8 5398   1.137   1.512  12.216  0.5572 -0.1463  0.2051
  360TMC3    O1 5399   0.667   1.148  12.244 -0.2026 -0.2445  0.5031
  360TMC3    O2 5400   1.192   1.589  12.288 -0.0359  0.1326  0.4727
  361MPD2     C 5401   2.202   4.656  16.296  0.3816  0.1030 -0.7604
  361MPD2    C1 5402   2.189   4.664  16.437  0.2621  0.1124 -0.4171
  361MPD2    C2 5403   2.293   4.629  16.512 -0.6275  0.0559 -0.1360
  361MPD2    C3 5404   2.417   4.585  16.453  0.6741 -0.7165 -0.2408
  361MPD2    C4 5405   2.425   4.569  16.314  0.8014  0.0341 -0.0761
  361MPD2    C5 5406   2.318   4.606  16.238 -0.6243  0.5634 -0.2508
  361MPD2     H 5407   2.293   4.638  16.620  0.5101  0.4304 -0.1729
  361MPD2    H1 5408   2.521   4.537  16.275  0.1032 -0.5077 -1.3426
  361MPD2    H2 5409   2.131   4.702  16.229 -0.4866 -2.8533 -1.8864
  361MPD2    H3 5410   2.328   4.602  16.130  0.5379 -0.0020 -0.1192
  361MPD2     N 5411   2.535   4.567  16.529 -0.6629 -0.0050  0.3538
  361MPD2    H5 5412   2.615   4.537  16.473  0.0771  1.9604  0.3672
  361MPD2    N1 5413   2.084   0.009  16.507 -0.4448  0.3022 -0.0362
  361MPD2    H7 5414   2.085   0.009  16.608 -2.4768 -1.2733  0.0054
  362TMC3    C1 5415   1.889   0.153  16.527  0.9606  0.3712 -0.3879
  362TMC3    C2 5416   1.909   0.165  16.664 -0.4456  0.0953 -0.0510
  362TMC3    C3 5417   1.863   0.269  16.729 -0.3582 -0.1172 -0.2865
  362TMC3    C4 5418   1.816   0.251  16.469 -0.1144 -0.1038  0.0087
  362TMC3    C5 5419   1.772   0.358  16.538  0.0097  0.5303  0.9630
  362TMC3    C6 5420   1.797   0.372  16.670  0.2003  0.3206 -0.5860
  362TMC3     C 5421   1.978   0.079  16.438  0.0125  0.2925 -0.3213
  362TMC3     O 5422   1.942   0.072  16.317 -0.1674  0.1975 -0.6029
  362TMC3     H 5423   1.968   0.090  16.714 -0.6940  0.8190  1.3386
  362TMC3    H1 5424   1.803   0.239  16.362 -3.4370  1.0233  0.2649
  362TMC3    H2 5425   1.758   0.458  16.723  1.8822  0.9231 -0.2994
  362TMC3    C7 5426   1.716   0.468  16.472 -0.1244 -0.3693 -0.2286
  362TMC3    C8 5427   1.874   0.263  16.873 -0.5695 -0.2210  0.7778
  362TMC3    O1 5428   1.710   0.574  16.538 -0.2999 -0.1333 -0.6409
  362TMC3    O2 5429   1.935   0.166  16.921 -0.5904  0.3316 -0.1479
  363TMC3    C1 5430   1.454   2.630   9.769 -0.2519  0.4729 -0.5305
  363TMC3    C2 5431   1.410   2.508   9.820  0.2975  0.1238  0.3252
  363TMC3    C3 5432   1.296   2.518   9.898 -0.3094 -0.5876 -0.0524
  363TMC3    C4 5433   1.387   2.745   9.790 -1.0147 -1.3456  0.4737
  363TMC3    C5 5434   1.271   2.744   9.857 -0.6502 -0.2705 -0.0434
  363TMC3    C6 5435   1.218   2.635   9.912  0.2795  0.5976 -0.3577
  363TMC3     C 5436   1.581   2.646   9.712 -0.2161  0.3416  0.3829
  363TMC3     O 5437   1.640   2.748   9.743  0.4153  0.6516  0.3095
  363TMC3     H 5438   1.463   2.415   9.801 -2.0172 -0.5347 -2.8906
  363TMC3    H1 5439   1.424   2.837   9.747 -1.7155 -0.4944  1.6869
  363TMC3    H2 5440   1.135   2.635   9.982  1.2281 -2.3121  0.7873
  363TMC3    C7 5441   1.197   2.870   9.862 -0.4432 -0.2312  0.2188
  363TMC3    C8 5442   1.250   2.400   9.957 -1.0531  0.0559 -0.0860
  363TMC3    O1 5443   1.264   2.968   9.829  0.4079 -0.4007  0.0394
  363TMC3    O2 5444   1.131   2.379   9.945  0.1873 -0.1923  0.4329
  364MPD2     C 5445   4.220   1.988  10.566  0.0717 -0.2632  0.5072
  364MPD2    C1 5446   4.347   1.936  10.532  0.4326  0.6208 -0.7104
  364MPD2    C2 5447   4.400   1.823  10.588 -0.1548  0.6341 -0.1516
  364MPD2    C3 5448   4.318   1.747  10.671 -0.9273 -0.4516 -0.0443
  364MPD2    C4 5449   4.199   1.801  10.716  0.2329 -0.2118  0.8166
  364MPD2    C5 5450   4.148   1.919  10.667 -0.7685  0.1700 -0.5553
  364MPD2     H 5451   4.497   1.784  10.560 -0.2831 -0.3736  0.7623
  364MPD2    H1 5452   4.139   1.749  10.789 -0.8014  2.7129  2.0661
  364MPD2    H2 5453   4.170   2.071  10.516  0.8905  0.1329  0.3398
  364MPD2    H3 5454   4.054   1.960  10.699 -0.7149  0.0877 -0.2875
  364MPD2     N 5455   4.365   1.622  10.722 -0.3129  0.2368 -0.6030
  364MPD2    H5 5456   4.302   1.586  10.793 -2.3708  1.5333 -1.7745
  364MPD2    N1 5457   4.419   2.010  10.438 -0.8011  0.5369  0.2198
  364MPD2    H7 5458   4.391   2.097  10.393 -0.8449  2.2510  3.5357
  365TMC3    C1 5459   4.557   2.065  10.267 -0.0882 -0.1925  0.4593
  365TMC3    C2 5460   4.636   2.017  10.163 -0.0053 -0.2131  0.1535
  365TMC3    C3 5461   4.683   2.103  10.073  0.0149 -0.2251 -0.1935
  365TMC3    C4 5462   4.540   2.196  10.281  0.0861  0.3712 -0.8345
  365TMC3    C5 5463   4.596   2.282  10.187  0.2855 -0.5779  0.2645
  365TMC3    C6 5464   4.660   2.233  10.077 -0.6950 -0.5094 -0.1278
  365TMC3     C 5465   4.539   1.979  10.381 -0.0231 -0.1916 -0.2889
  365TMC3     O 5466   4.608   1.881  10.390  0.0210  0.1419 -0.7353
  365TMC3     H 5467   4.639   1.909  10.153 -2.4387 -0.2485 -0.0084
  365TMC3    H1 5468   4.502   2.240  10.372  1.1391 -2.3077  0.9105
  365TMC3    H2 5469   4.698   2.299  10.000 -1.6928 -1.2430 -1.2640
  365TMC3    C7 5470   4.573   2.427  10.184 -0.4858  0.9435  0.3789
  365TMC3    C8 5471   0.057   2.050   9.977  0.3457 -0.1979 -0.0683
  365TMC3    O1 5472   4.624   2.498  10.098 -0.0033 -0.1223  0.4966
  365TMC3    O2 5473   0.067   2.112   9.872 -0.6885 -0.0449  0.0076
  366MPD2     C 5474   2.202   3.096  15.405 -0.1023 -0.3495  0.1959
  366MPD2    C1 5475   2.254   3.184  15.316  0.4214 -0.2151  0.1979
  366MPD2    C2 5476   2.329   3.134  15.210 -0.3894 -0.5940 -0.1864
  366MPD2    C3 5477   2.367   3.004  15.203  0.2024 -0.0423 -0.3562
  366MPD2    C4 5478   2.320   2.913  15.301  0.0703  0.1555 -0.5988
  366MPD2    C5 5479   2.233   2.965  15.399 -0.1915  0.1316 -0.4414
  366MPD2     H 5480   2.369   3.194  15.129  0.1012  1.3742  1.5136
  366MPD2    H1 5481   2.338   2.806  15.300  1.4103  0.3800 -0.9740
  366MPD2    H2 5482   2.133   3.135  15.480  1.2867  1.0290  0.7523
  366MPD2    H3 5483   2.186   2.899  15.471  0.9539  0.8931  0.9824
  366MPD2     N 5484   2.465   2.970  15.105 -0.5592  0.4691  0.5006
  366MPD2    H5 5485   2.490   3.042  15.038 -1.1522 -1.2619 -1.5508
  366MPD2    N1 5486   2.226   3.322  15.332  0.4515 -0.2574  0.3134
  366MPD2    H7 5487   2.186   3.357  15.419  0.3133 -0.5833  0.3836
  367TMC3    C1 5488   2.284   3.549  15.310  0.3863 -0.8306 -0.5558
  367TMC3    C2 5489   2.406   3.576  15.372  0.2671 -0.3008  0.2459
  367TMC3    C3 5490   2.465   3.695  15.350  0.2106 -0.2227 -0.2765
  367TMC3    C4 5491   2.232   3.645  15.226 -0.2869  0.1004 -0.4837
  367TMC3    C5 5492   2.296   3.766  15.206  0.0576 -1.0389 -0.7681
  367TMC3    C6 5493   2.414   3.799  15.271  0.0328  1.0446  0.1441
  367TMC3     C 5494   2.279   3.420  15.253  0.5272 -0.0022 -0.5828
  367TMC3     O 5495   2.278   3.422  15.131  0.1137  0.0279 -0.4810
  367TMC3     H 5496   2.462   3.497  15.420  0.6111  0.0984  0.5073
  367TMC3    H1 5497   2.133   3.621  15.190 -0.2755 -0.6433 -0.0188
  367TMC3    H2 5498   2.464   3.894  15.257 -0.7371  1.1801 -1.6665
  367TMC3    C7 5499   2.268   3.844  15.088 -0.8942 -0.4204  0.4875
  367TMC3    C8 5500   2.592   3.728  15.416 -0.4990  0.4090  0.8765
  367TMC3    O1 5501   2.294   3.961  15.092 -0.4646  0.2560  0.4424
  367TMC3    O2 5502   2.642   3.638  15.487 -0.6689 -0.0140 -0.1724
  368MPD2     C 5503   3.880   0.327  13.314 -0.4601 -0.5359  0.5142
  368MPD2    C1 5504   3.905   0.346  13.181 -0.7476 -0.5171 -0.0541
  368MPD2    C2 5505   4.035   0.347  13.140 -0.1158  0.2387 -0.6626
  368MPD2    C3 5506   4.141   0.321  13.228  0.2982 -1.0748 -0.4003
  368MPD2    C4 5507   4.110   0.316  13.361  0.0102  0.2929 -0.6699
  368MPD2    C5 5508   3.983   0.311  13.404 -0.3427 -0.1575  0.4851
  368MPD2     H 5509   4.051   0.359  13.034 -2.5847  2.8513 -0.7411
  368MPD2    H1 5510   4.194   0.313  13.429 -1.4418 -2.7467  0.9802
  368MPD2    H2 5511   3.778   0.329  13.351 -0.0582  0.6982  1.5520
  368MPD2    H3 5512   3.952   0.291  13.506 -0.5698  0.6173  0.5747
  368MPD2     N 5513   4.278   0.325  13.196 -0.0821  0.1508  0.1795
  368MPD2    H5 5514   4.346   0.308  13.269  0.2560 -0.8602 -0.3570
  368MPD2    N1 5515   3.808   0.368  13.083  0.2958  0.7096  0.0723
  368MPD2    H7 5516   3.848   0.394  12.994  0.1215 -3.3436 -1.1706
  369TMC3    C1 5517   3.596   0.440  13.000  0.2401  0.1248 -0.1850
  369TMC3    C2 5518   3.651   0.538  12.929 -0.2134  0.1351 -0.6422
  369TMC3    C3 5519   3.566   0.622  12.856 -0.4022  0.1288 -0.2180
  369TMC3    C4 5520   3.456   0.412  12.992 -0.0401  0.2934  0.3379
  369TMC3    C5 5521   3.382   0.500  12.910  0.2393  0.2467 -0.0199
  369TMC3    C6 5522   3.439   0.603  12.839 -0.0996 -0.3236 -0.0100
  369TMC3     C 5523   3.671   0.370  13.103 -0.1310  0.5697 -0.2325
  369TMC3     O 5524   3.610   0.318  13.197  0.6251 -0.5927 -0.2081
  369TMC3     H 5525   3.759   0.544  12.932 -0.2714  1.0336 -0.3978
  369TMC3    H1 5526   3.396   0.336  13.042  0.5828 -1.2451 -1.2496
  369TMC3    H2 5527   3.372   0.677  12.794  0.7722  0.2720 -0.3334
  369TMC3    C7 5528   3.238   0.480  12.916  0.2877 -0.5894 -0.2707
  369TMC3    C8 5529   3.627   0.742  12.803  0.2812  0.4421  0.7080
  369TMC3    O1 5530   3.196   0.396  12.997 -0.2916  0.1931  0.2864
  369TMC3    O2 5531   3.552   0.819  12.741  0.3329 -0.9315  0.0912
  370TMC3    C1 5532   3.491   1.285  16.297 -0.2076  0.9804  0.8964
  370TMC3    C2 5533   3.396   1.228  16.377  0.6166  0.5334  0.3534
  370TMC3    C3 5534   3.343   1.112  16.332  0.7057 -0.0720  0.2371
  370TMC3    C4 5535   3.515   1.244  16.170 -0.7127 -1.3646  0.2607
  370TMC3    C5 5536   3.462   1.122  16.135  0.2860 -0.1929  0.0128
  370TMC3    C6 5537   3.370   1.063  16.208  0.2278 -1.0426 -0.0833
  370TMC3     C 5538   3.553   1.409  16.352  0.3757  0.2791 -0.1741
  370TMC3     O 5539   3.538   1.424  16.468 -0.2398  0.0306  0.7656
  370TMC3     H 5540   3.378   1.259  16.479  0.9432  0.2849  0.4894
  370TMC3    H1 5541   3.592   1.296  16.113 -1.8966  0.2812  0.1509
  370TMC3    H2 5542   3.339   0.964  16.177 -2.5519  0.6664 -2.7653
  370TMC3    C7 5543   3.530   1.047  16.031 -0.0708  0.9765  0.7235
  370TMC3    C8 5544   3.355   1.006  16.434 -0.0248  0.0796  0.0676
  370TMC3    O1 5545   3.649   1.072  16.018  0.2292  0.9049 -0.1614
  370TMC3    O2 5546   3.420   0.907  16.402 -0.4397  0.2165  0.3840
  371TMC3    C1 5547   4.543   4.112  15.383  0.3064 -0.4943 -0.9946
  371TMC3    C2 5548   4.416   4.133  15.429  0.3636 -0.5599 -0.0330
  371TMC3    C3 5549   4.363   4.261  15.423 -0.5118 -0.5273 -0.4634
  371TMC3    C4 5550   4.624   4.227  15.357 -0.0304 -0.5729  0.2224
  371TMC3    C5 5551   4.570   4.352  15.355  0.4114 -0.0803 -0.3446
  371TMC3    C6 5552   4.436   4.366  15.374 -0.1186  0.0859 -0.5212
  371TMC3     C 5553   4.611   3.992  15.405 -0.3939 -0.4231 -0.1649
  371TMC3     O 5554   0.001   3.983  15.359 -0.3411 -0.4795 -0.2985
  371TMC3     H 5555   4.347   4.052  15.451 -1.0420  0.5232 -0.5225
  371TMC3    H1 5556   0.004   4.209  15.327  0.9083  2.5044  1.6368
  371TMC3    H2 5557   4.389   4.460  15.347  0.3870  0.4472 -0.1433
  371TMC3    C7 5558   4.624   4.457  15.280 -0.1125 -0.0102 -0.3571
  371TMC3    C8 5559   4.225   4.275  15.468  0.3348 -0.5405  0.0615
  371TMC3    O1 5560   4.545   4.513  15.206  0.1386 -0.3230 -0.0497
  371TMC3    O2 5561   4.146   4.182  15.479 -0.4393 -0.5666  0.4764
  372MPD2     C 5562   3.400   0.659  13.232 -0.2833 -0.1503 -0.0693
  372MPD2    C1 5563   3.525   0.671  13.277 -0.1515 -0.6010  0.1786
  372MPD2    C2 5564   3.569   0.581  13.370 -0.3322 -0.4439  0.3315
  372MPD2    C3 5565   3.483   0.484  13.419 -0.2534 -0.6251  0.2468
  372MPD2    C4 5566   3.366   0.458  13.356 -0.3255  0.4980 -0.1468
  372MPD2    C5 5567   3.325   0.554  13.271 -0.2303  0.2011 -0.5790
  372MPD2     H 5568   3.673   0.585  13.401 -0.0572 -1.2499 -0.4760
  372MPD2    H1 5569   3.307   0.371  13.382  1.5030 -0.7183 -0.0542
  372MPD2    H2 5570   3.362   0.732  13.162 -1.0658  2.2053  2.8250
  372MPD2    H3 5571   3.227   0.553  13.226 -0.3948  0.0824 -0.2171
  372MPD2     N 5572   3.538   0.405  13.517  0.3824 -1.1451  0.2160
  372MPD2    H5 5573   3.609   0.450  13.574  1.2116  0.0027 -1.7038
  372MPD2    N1 5574   3.612   0.777  13.232 -0.5940 -0.0672 -0.0631
  372MPD2    H7 5575   3.705   0.775  13.272 -0.5538 -0.0654 -0.1550
  373TMC3    C1 5576   3.600   0.216  13.643 -0.5679 -0.4078 -0.4232
  373TMC3    C2 5577   3.617   0.290  13.758  0.5729 -0.2457  0.5519
  373TMC3    C3 5578   3.674   0.229  13.864 -0.0239  0.1620 -0.6803
  373TMC3    C4 5579   3.633   0.078  13.642 -0.1579 -0.3080  0.1615
  373TMC3    C5 5580   3.711   0.026  13.742 -0.1100 -0.1563  0.7363
  373TMC3    C6 5581   3.724   0.102  13.859 -0.6446  0.3159 -0.3189
  373TMC3     C 5582   3.519   0.269  13.532 -0.0167  0.2478  0.3296
  373TMC3     O 5583   3.453   0.196  13.463 -0.2369 -0.0466  0.3188
  373TMC3     H 5584   3.562   0.383  13.765 -1.3968 -1.3500 -0.0339
  373TMC3    H1 5585   3.621   0.024  13.549 -0.0425 -1.0323  0.5661
  373TMC3    H2 5586   3.774   0.066  13.948  0.2455  0.4581 -0.7568
  373TMC3    C7 5587   3.818   4.666  13.695  0.5042 -0.1493  0.2384
  373TMC3    C8 5588   3.709   0.320  13.973 -0.0168 -0.9664 -0.3031
  373TMC3    O1 5589   3.815   4.652  13.576  0.1793  0.2534 -0.2905
  373TMC3    O2 5590   3.668   0.436  13.953 -0.1365  0.6786  0.2065
  374TMC3    C1 5591   0.467   0.489   9.512  0.5606  0.3021  0.0425
  374TMC3    C2 5592   0.517   0.565   9.612 -0.5183  0.2066  0.2729
  374TMC3    C3 5593   0.643   0.610   9.582  0.6386 -0.7175  0.0773
  374TMC3    C4 5594   0.525   0.454   9.390 -0.0582 -0.3097 -0.2008
  374TMC3    C5 5595   0.656   0.496   9.377  0.2881 -0.3956  0.3024
  374TMC3    C6 5596   0.713   0.578   9.465 -0.7024  0.6777  0.3327
  374TMC3     C 5597   0.348   0.409   9.539  0.1877 -0.4058 -0.3125
  374TMC3     O 5598   0.287   0.360   9.446 -0.7350 -0.0381  0.5045
  374TMC3     H 5599   0.461   0.600   9.698  0.6377  0.1941  1.0325
  374TMC3    H1 5600   0.478   0.373   9.336  1.5075 -0.9177 -0.6302
  374TMC3    H2 5601   0.811   0.618   9.444 -0.0827 -1.4919 -1.0129
  374TMC3    C7 5602   0.720   0.486   9.251 -0.1437  0.0401 -0.1490
  374TMC3    C8 5603   0.709   0.716   9.663  0.6416  0.2149 -0.4023
  374TMC3    O1 5604   0.815   0.564   9.234 -0.8988  0.4667  0.2581
  374TMC3    O2 5605   0.790   0.785   9.607  0.0288 -0.2809  0.0214
  375MPD2     C 5606   0.004   1.687  16.806  0.1444 -0.3588  0.4565
  375MPD2    C1 5607   4.611   1.633  16.744 -0.7459 -0.2658 -0.1744
  375MPD2    C2 5608   4.608   1.587  16.616 -0.1396  0.2816 -0.4946
  375MPD2    C3 5609   0.003   1.594  16.544 -0.3858 -0.2850 -0.6677
  375MPD2    C4 5610   0.117   1.650  16.605 -0.6067 -0.1320 -0.1727
  375MPD2    C5 5611   0.114   1.711  16.730  0.4595  0.1573 -0.1384
  375MPD2     H 5612   4.525   1.527  16.581  0.4217 -0.2087 -0.9769
  375MPD2    H1 5613   0.207   1.662  16.546 -0.0620 -2.8336  0.1256
  375MPD2    H2 5614   0.009   1.722  16.909  1.3481 -1.1352  0.6669
  375MPD2    H3 5615   0.203   1.755  16.772  2.0230 -1.9485 -1.2284
  375MPD2     N 5616   0.023   1.530  16.416  0.1775  0.2744 -0.2819
  375MPD2    H5 5617   0.114   1.543  16.373 -0.5462  1.8105 -1.3276
  375MPD2    N1 5618   4.495   1.613  16.821  0.1044 -0.1887  0.0018
  375MPD2    H7 5619   4.407   1.585  16.780 -0.5241  1.0120  0.5157
  376TMC3    C1 5620   0.006   1.366  16.261  0.0842  0.2537 -1.2115
  376TMC3    C2 5621   0.104   1.281  16.303  0.0691  0.0422 -0.2631
  376TMC3    C3 5622   0.127   1.163  16.236 -0.8283  0.6201 -0.0231
  376TMC3    C4 5623   4.654   1.339  16.154 -0.4503  0.6731 -0.0006
  376TMC3    C5 5624   4.685   1.227  16.072 -1.3452 -0.6032 -0.1330
  376TMC3    C6 5625   0.063   1.139  16.110 -0.4908 -0.3637  0.4107
  376TMC3     C 5626   4.658   1.451  16.348  0.3128 -0.0390  0.0323
  376TMC3     O 5627   4.538   1.441  16.364  1.0145  0.6869  0.0596
  376TMC3     H 5628   0.158   1.304  16.394 -0.5764  0.7352 -0.0462
  376TMC3    H1 5629   4.570   1.405  16.134 -0.9199 -0.2609 -1.1080
  376TMC3    H2 5630   0.099   1.053  16.055  2.4347  1.0179  0.1497
  376TMC3    C7 5631   4.649   1.242  15.930  0.5914 -0.6024 -0.5023
  376TMC3    C8 5632   0.248   1.083  16.261 -0.4473  0.0334  0.1576
  376TMC3    O1 5633   4.583   1.344  15.901 -0.8660 -0.2187  0.0478
  376TMC3    O2 5634   0.295   1.030  16.161  0.2357  0.3657  0.2649
  377MPD2     C 5635   2.544   1.177  12.310 -0.4755 -0.6183 -0.2346
  377MPD2    C1 5636   2.606   1.060  12.356 -0.1047 -0.5975 -0.6104
  377MPD2    C2 5637   2.541   0.955  12.419  0.0256  0.5682  0.0363
  377MPD2    C3 5638   2.403   0.975  12.438 -0.0740  0.1440  0.6885
  377MPD2    C4 5639   2.341   1.091  12.391  0.5160 -0.0745 -0.6222
  377MPD2    C5 5640   2.407   1.183  12.325  0.1066 -0.0020  0.5905
  377MPD2     H 5641   2.594   0.870  12.460  2.3981  2.7928  1.5960
  377MPD2    H1 5642   2.237   1.102  12.419  0.5274 -0.2091 -0.5321
  377MPD2    H2 5643   2.583   1.247  12.237  2.3157 -1.8607  0.0459
  377MPD2    H3 5644   2.347   1.264  12.285 -1.0523 -0.6711  0.9503
  377MPD2     N 5645   2.315   0.880  12.488  0.0014  0.1176  0.3678
  377MPD2    H5 5646   2.217   0.909  12.484  0.2093  0.7823  0.0358
  377MPD2    N1 5647   2.745   1.055  12.335 -0.3809  0.0641  0.4650
  377MPD2    H7 5648   2.786   1.132  12.283  0.4782 -1.2838 -0.8508
  378TMC3    C1 5649   3.056   1.043  12.101  0.2264 -0.2152 -0.0372
  378TMC3    C2 5650   2.945   1.041  12.177 -0.6026  0.1876 -0.2098
  378TMC3    C3 5651   2.953   0.989  12.307 -0.3472  0.1488 -0.6902
  378TMC3    C4 5652   3.175   0.992  12.132  0.7088 -0.0900  0.0513
  378TMC3    C5 5653   3.182   0.953  12.269  1.0458  0.2741 -0.3358
  378TMC3    C6 5654   3.079   0.944  12.357  0.6736 -0.3892  0.2723
  378TMC3     C 5655   3.032   1.089  11.963 -1.0308 -0.3809 -0.4279
  378TMC3     O 5656   2.942   1.167  11.944  0.1572 -0.2166  0.5530
  378TMC3     H 5657   2.855   1.082  12.133 -0.6258  1.0915  0.6726
  378TMC3    H1 5658   3.266   1.013  12.077  0.8464 -1.4070 -0.2230
  378TMC3    H2 5659   3.084   0.896  12.454 -0.8869 -0.0871  0.5101
  378TMC3    C7 5660   3.317   0.927  12.321 -0.3081  0.1361  0.1429
  378TMC3    C8 5661   2.830   0.960  12.382 -0.5513  0.7574 -0.2419
  378TMC3    O1 5662   3.338   0.957  12.438 -0.0398  0.4401  0.3724
  378TMC3    O2 5663   2.824   0.868  12.458  0.6984  0.0254  0.3411
  379MPD2     C 5664   3.175   3.460  16.239 -0.1325 -0.9799 -0.0456
  379MPD2    C1 5665   3.304   3.486  16.197  0.2781  0.5179  0.2162
  379MPD2    C2 5666   3.408   3.430  16.266  0.2217 -0.0187  0.0934
  379MPD2    C3 5667   3.387   3.347  16.372 -0.3048  0.0141 -0.8724
  379MPD2    C4 5668   3.251   3.322  16.399  0.2492 -0.1447  0.4967
  379MPD2    C5 5669   3.143   3.384  16.342 -0.2393 -0.4280 -0.0105
  379MPD2     H 5670   3.513   3.433  16.237  0.0313  0.8855 -0.4981
  379MPD2    H1 5671   3.229   3.254  16.480  0.9226 -1.7947 -0.7072
  379MPD2    H2 5672   3.092   3.499  16.181 -0.1640 -1.7317 -0.4984
  379MPD2    H3 5673   3.047   3.358  16.384 -0.6273 -0.8450 -1.1814
  379MPD2     N 5674   3.491   3.278  16.437 -0.2396 -0.2397  0.2600
  379MPD2    H5 5675   3.464   3.222  16.517 -2.7615  0.3673 -0.1463
  379MPD2    N1 5676   3.317   3.564  16.080  0.4744 -0.4590 -0.7073
  379MPD2    H7 5677   3.227   3.595  16.045  0.8572 -0.5978 -1.8022
  380TMC3    C1 5678   3.410   3.677  15.895 -0.5514 -0.0258  0.2729
  380TMC3    C2 5679   3.510   3.661  15.803 -0.9666 -0.5395 -0.0531
  380TMC3    C3 5680   3.490   3.708  15.677 -0.3002  0.9935 -0.2620
  380TMC3    C4 5681   3.289   3.730  15.854  0.1895 -0.2611 -0.3655
  380TMC3    C5 5682   3.271   3.771  15.722  0.2031 -0.0499  0.6938
  380TMC3    C6 5683   3.371   3.757  15.628  0.6413  0.5629 -0.7388
  380TMC3     C 5684   3.433   3.609  16.023  1.0568 -0.7069 -0.0602
  380TMC3     O 5685   3.547   3.571  16.055 -0.0433  0.7143 -0.2602
  380TMC3     H 5686   3.608   3.624  15.833 -0.3976  0.4961 -0.6397
  380TMC3    H1 5687   3.206   3.737  15.924  1.4959 -3.4567  1.5040
  380TMC3    H2 5688   3.351   3.813  15.537 -1.7427 -3.7128 -2.8357
  380TMC3    C7 5689   3.184   3.886  15.700 -0.4502  0.1560 -0.1622
  380TMC3    C8 5690   3.598   3.746  15.584 -0.3802  0.7132 -0.8013
  380TMC3    O1 5691   3.236   3.998  15.700 -0.4075  0.2274 -0.4185
  380TMC3    O2 5692   3.561   3.804  15.484 -0.6577  0.4829 -0.4519
  381TMC3    C1 5693   3.240   0.640  16.255  0.0124 -0.5779  0.1369
  381TMC3    C2 5694   3.368   0.629  16.204  0.5589  0.4936 -0.5307
  381TMC3    C3 5695   3.466   0.625  16.298  0.4821 -0.4359  0.2108
  381TMC3    C4 5696   3.215   0.600  16.380  0.4348 -0.5523  0.6379
  381TMC3    C5 5697   3.319   0.561  16.456 -0.5508  0.3960 -0.1797
  381TMC3    C6 5698   3.449   0.570  16.421  0.6380  0.2412 -0.7629
  381TMC3     C 5699   3.125   0.688  16.177 -0.1639  0.2603 -0.5245
  381TMC3     O 5700   3.030   0.734  16.237  0.9808  0.7752 -0.0634
  381TMC3     H 5701   3.391   0.671  16.107 -0.7634 -0.7207 -1.3704
  381TMC3    H1 5702   3.111   0.584  16.406 -0.3580 -2.3454 -3.6416
  381TMC3    H2 5703   3.531   0.523  16.476  1.3094 -1.2069 -2.9880
  381TMC3    C7 5704   3.283   0.476  16.565  0.0359  0.1394 -0.1739
  381TMC3    C8 5705   3.600   0.641  16.243  0.5606  0.1894 -0.2339
  381TMC3    O1 5706   3.354   0.377  16.584  0.5077 -0.2367 -0.3798
  381TMC3    O2 5707   3.616   0.647  16.123  0.4823  0.2506  0.1018
  382MPD2     C 5708   2.215   3.147  16.796 -0.8259 -0.8797 -0.7051
  382MPD2    C1 5709   2.225   3.140  16.933 -0.1629 -0.1177  0.1722
  382MPD2    C2 5710   2.249   3.014  16.989 -0.5286  0.4547  0.2146
  382MPD2    C3 5711   2.262   2.905  16.909 -0.1757  0.4620 -0.2737
  382MPD2    C4 5712   2.236   2.915  16.774 -0.0579  0.1529 -0.6000
  382MPD2    C5 5713   2.214   3.031  16.715  0.1556 -0.3236 -0.4197
  382MPD2     H 5714   2.260   2.996  17.095 -3.4648  0.3474  0.5029
  382MPD2    H1 5715   2.233   2.834  16.702  3.4320  0.7296 -1.4331
  382MPD2    H2 5716   2.192   3.244  16.753  0.8495 -0.6390 -1.0950
  382MPD2    H3 5717   2.202   3.045  16.608 -0.4037 -0.0770 -0.3287
  382MPD2     N 5718   2.310   2.779  16.955 -0.0446 -0.3872  0.5587
  382MPD2    H5 5719   2.313   2.708  16.882 -0.3887 -2.7595  2.8896
  382MPD2    N1 5720   2.254   3.247  17.027 -0.0790  0.5203  0.1118
  382MPD2    H7 5721   2.289   3.212  17.116  2.0459  0.7792 -0.6234
  383TMC3    C1 5722   2.410   2.622  17.104 -0.1151  0.0286 -0.0414
  383TMC3    C2 5723   2.325   2.520  17.095 -0.8819 -0.0318 -0.6948
  383TMC3    C3 5724   2.355   2.400  17.151  0.0324  0.5142 -0.3830
  383TMC3    C4 5725   2.525   2.619  17.173 -0.7190  0.0541  0.4261
  383TMC3    C5 5726   2.544   2.502  17.250  0.2328  0.1503  0.5056
  383TMC3    C6 5727   2.463   2.388  17.232  0.2582 -0.2204  0.8898
  383TMC3     C 5728   2.347   2.748  17.085  0.2179 -0.3635  1.0312
  383TMC3     O 5729   2.352   2.814  17.188 -0.0336  0.3211  0.3925
  383TMC3     H 5730   2.237   2.537  17.035 -0.9715 -2.9579 -1.3509
  383TMC3    H1 5731   2.590   2.705  17.188 -0.9220  0.0050  1.6562
  383TMC3    H2 5732   2.485   2.300  17.292 -0.2826  0.7043  2.4554
  383TMC3    C7 5733   2.658   2.502  17.337  0.0227 -0.4271  0.0810
  383TMC3    C8 5734   2.256   2.290  17.122 -0.1080 -0.2414  0.1590
  383TMC3    O1 5735   2.745   2.583  17.326  0.2159 -0.5559 -0.4035
  383TMC3    O2 5736   2.169   2.321  17.042 -0.4522  0.3468  0.2408
  384MPD2     C 5737   3.867   3.982  11.398 -0.8077 -0.9088  0.7087
  384MPD2    C1 5738   3.931   3.949  11.513  0.3019 -0.0998  0.3485
  384MPD2    C2 5739   4.042   3.863  11.512  0.1149 -0.4264 -0.1293
  384MPD2    C3 5740   4.084   3.806  11.393 -0.1794 -0.6190  0.0287
  384MPD2    C4 5741   4.013   3.831  11.280 -0.2459 -0.5709  0.2639
  384MPD2    C5 5742   3.912   3.923  11.283  0.1891 -0.0709 -0.0615
  384MPD2     H 5743   4.090   3.842  11.607 -0.6558 -1.4562  0.0254
  384MPD2    H1 5744   4.044   3.801  11.181 -1.7441 -2.1753  0.2727
  384MPD2    H2 5745   3.786   4.054  11.396  1.3801  1.5180  0.3763
  384MPD2    H3 5746   3.862   3.949  11.190  2.4644 -0.6178 -1.4396
  384MPD2     N 5747   4.189   3.712  11.399 -0.4994  0.0664 -0.1214
  384MPD2    H5 5748   4.234   3.692  11.488  0.0838 -1.8267 -0.8231
  384MPD2    N1 5749   3.891   3.991  11.638 -0.0002 -0.1670 -0.5923
  384MPD2    H7 5750   3.954   3.959  11.711  0.3929  0.0417 -0.8424
  385TMC3    C1 5751   4.317   3.516  11.370 -0.2403 -0.1914 -0.2250
  385TMC3    C2 5752   4.270   3.389  11.384  0.3133 -0.5122 -0.9642
  385TMC3    C3 5753   4.294   3.328  11.508 -0.0283 -0.4673 -0.1978
  385TMC3    C4 5754   4.386   3.575  11.473  0.1573 -0.6041  0.8825
  385TMC3    C5 5755   4.405   3.509  11.597 -0.0396  0.2354 -0.1595
  385TMC3    C6 5756   4.346   3.383  11.611 -0.1742  0.2206 -0.1484
  385TMC3     C 5757   4.213   3.607  11.312  0.1161  0.0431  0.0062
  385TMC3     O 5758   4.151   3.586  11.205  0.5833 -0.3021 -0.3081
  385TMC3     H 5759   4.210   3.352  11.302 -0.6733  1.8429 -1.2918
  385TMC3    H1 5760   4.411   3.680  11.468 -1.3542 -0.2153  1.5694
  385TMC3    H2 5761   4.339   3.342  11.711  1.7084 -0.2256 -0.2071
  385TMC3    C7 5762   4.376   3.599  11.703  0.2717  0.9416  0.3242
  385TMC3    C8 5763   4.215   3.214  11.537  1.0324  0.4005  0.4619
  385TMC3    O1 5764   4.331   3.709  11.678  0.3692 -0.4237 -0.1390
  385TMC3    O2 5765   4.173   3.207  11.650  0.4283  0.0761  0.2751
  386TMC3    C1 5766   4.436   1.108  11.713 -1.0011 -0.0103 -0.1190
  386TMC3    C2 5767   4.399   1.029  11.611  0.4407 -0.0388 -0.1830
  386TMC3    C3 5768   4.266   1.047  11.567 -0.6847  0.2437  0.9734
  386TMC3    C4 5769   4.356   1.196  11.778  0.2393 -0.4566  0.3757
  386TMC3    C5 5770   4.226   1.212  11.728 -0.2086 -0.3144  0.5591
  386TMC3    C6 5771   4.179   1.127  11.631 -0.2813 -0.2587 -0.6892
  386TMC3     C 5772   4.554   1.068  11.788 -0.6243 -0.0219  0.1314
  386TMC3     O 5773   4.637   1.153  11.816 -0.0095 -0.0638  0.3216
  386TMC3     H 5774   4.465   0.949  11.580  1.1926  0.8349 -0.8277
  386TMC3    H1 5775   4.406   1.258  11.851 -1.5398  0.1616  1.0739
  386TMC3    H2 5776   4.082   1.145  11.586 -0.8861 -0.1755  0.6425
  386TMC3    C7 5777   4.135   1.291  11.798  0.5390  0.5697 -0.4978
  386TMC3    C8 5778   4.212   0.951  11.477  0.3063 -0.6106 -0.1358
  386TMC3    O1 5779   4.163   1.325  11.912  0.4337  0.2019 -0.0916
  386TMC3    O2 5780   4.089   0.938  11.470 -0.1361 -0.4834 -0.4090
  387MPD2     C 5781   1.939   0.461   8.801  0.4634 -0.3151 -0.3015
  387MPD2    C1 5782   1.915   0.455   8.938  0.6848  0.1579 -0.3952
  387MPD2    C2 5783   1.905   0.331   8.995 -0.0926 -0.1031 -0.1783
  387MPD2    C3 5784   1.918   0.208   8.930 -0.0797  0.0073  0.1648
  387MPD2    C4 5785   1.941   0.218   8.797 -0.0266 -0.6379 -0.2367
  387MPD2    C5 5786   1.952   0.341   8.730 -0.7943 -0.2915  0.5077
  387MPD2     H 5787   1.879   0.337   9.100  0.3065  2.3617 -0.2226
  387MPD2    H1 5788   1.947   0.129   8.736 -0.9886  0.9491 -2.6774
  387MPD2    H2 5789   1.959   0.554   8.748  2.1923 -2.2351 -2.9980
  387MPD2    H3 5790   1.983   0.347   8.626 -1.9028 -2.3894  0.0647
  387MPD2     N 5791   1.902   0.089   8.997 -0.1323  0.2538 -0.0876
  387MPD2    H5 5792   1.898   0.107   9.097  0.3080 -0.6507  0.0985
  387MPD2    N1 5793   1.916   0.571   9.016 -0.8198 -0.5339 -0.3438
  387MPD2    H7 5794   1.901   0.560   9.116  2.1401 -1.5682 -0.0327
  388TMC3    C1 5795   1.982   0.787   9.087  0.2033  0.2088 -0.3930
  388TMC3    C2 5796   2.061   0.893   9.054 -0.5060  0.3798  0.2910
  388TMC3    C3 5797   2.145   0.954   9.151 -0.8654  0.2031  0.0624
  388TMC3    C4 5798   1.990   0.734   9.215  0.4521 -0.2190 -0.3294
  388TMC3    C5 5799   2.078   0.785   9.303 -0.4375  0.5913 -0.1799
  388TMC3    C6 5800   2.157   0.899   9.275  0.3584  0.0509 -0.4921
  388TMC3     C 5801   1.961   0.698   8.978 -0.6314 -0.1864 -0.2575
  388TMC3     O 5802   1.973   0.741   8.862  0.1339  0.1883 -0.1000
  388TMC3     H 5803   2.068   0.925   8.950 -0.6071  3.0294  1.0946
  388TMC3    H1 5804   1.918   0.662   9.254  1.2158 -0.5493  0.4823
  388TMC3    H2 5805   2.230   0.925   9.350 -1.3506 -2.2260  1.9603
  388TMC3    C7 5806   2.131   0.704   9.410  0.0794  0.0261 -0.2444
  388TMC3    C8 5807   2.236   1.058   9.103 -0.2029  0.0544 -0.1316
  388TMC3    O1 5808   2.207   0.746   9.499  0.0485 -0.7206 -0.1266
  388TMC3    O2 5809   2.235   1.085   8.984  0.2093 -0.2509  0.3250
  389MPD2     C 5810   1.664   4.140  10.479 -0.5657  0.3073 -0.3618
  389MPD2    C1 5811   1.588   4.056  10.402 -0.5202  0.3237  0.6114
  389MPD2    C2 5812   1.481   3.979  10.462 -0.1317 -0.2582 -0.2667
  389MPD2    C3 5813   1.463   3.988  10.602  0.2074  0.0707  0.4091
  389MPD2    C4 5814   1.548   4.068  10.673  0.2840  0.3940 -0.7052
  389MPD2    C5 5815   1.646   4.146  10.615 -0.5522 -0.7355 -0.6247
  389MPD2     H 5816   1.421   3.912  10.402  0.4117 -1.6319  0.7373
  389MPD2    H1 5817   1.536   4.081  10.780 -0.0137  1.7411 -0.8999
  389MPD2    H2 5818   1.735   4.211  10.438  0.9748 -1.9733 -1.6691
  389MPD2    H3 5819   1.705   4.212  10.676 -1.7022  0.2087 -0.5329
  389MPD2     N 5820   1.363   3.915  10.675 -0.1750  0.1765  0.1740
  389MPD2    H5 5821   1.359   3.930  10.776  1.0404  0.5159  0.1768
  389MPD2    N1 5822   1.621   4.042  10.263 -0.0439  0.0153  0.2784
  389MPD2    H7 5823   1.704   4.097  10.242 -1.8666  2.0352 -1.6257
  390TMC3    C1 5824   1.177   3.767  10.708 -0.1190 -0.0802 -0.1689
  390TMC3    C2 5825   1.081   3.681  10.644 -0.1460 -0.6138 -0.2232
  390TMC3    C3 5826   0.992   3.617  10.718  0.5270 -0.3321 -0.1745
  390TMC3    C4 5827   1.187   3.779  10.841  0.0930  0.0279 -0.3188
  390TMC3    C5 5828   1.087   3.713  10.915 -0.7464 -0.1051 -0.5287
  390TMC3    C6 5829   0.990   3.626  10.858 -0.2530  0.7788  0.5557
  390TMC3     C 5830   1.278   3.817  10.620 -0.4779  0.0210  0.4882
  390TMC3     O 5831   1.271   3.769  10.508  0.2895 -0.2789  0.3402
  390TMC3     H 5832   1.075   3.664  10.537  3.5523 -1.4368 -0.2903
  390TMC3    H1 5833   1.268   3.829  10.891  2.3462 -3.1865 -0.7440
  390TMC3    H2 5834   0.929   3.557  10.916 -0.0549 -1.0316 -1.3760
  390TMC3    C7 5835   1.070   3.749  11.056 -0.0929  0.5678 -0.0956
  390TMC3    C8 5836   0.862   3.567  10.672 -0.1478  0.1930 -0.2609
  390TMC3    O1 5837   1.169   3.798  11.112 -0.6274 -0.4914  0.3222
  390TMC3    O2 5838   0.867   3.460  10.614 -0.4384  0.1275 -0.0670
  391MPD2     C 5839   0.471   0.600  11.239 -0.0037 -0.2542  0.3900
  391MPD2    C1 5840   0.551   0.716  11.229  0.1152 -0.1393 -0.4709
  391MPD2    C2 5841   0.587   0.764  11.102  0.4402  0.1354 -0.0286
  391MPD2    C3 5842   0.538   0.701  10.989 -0.5659  0.3337  0.4006
  391MPD2    C4 5843   0.462   0.589  11.004 -0.0599  0.2479  0.2349
  391MPD2    C5 5844   0.425   0.537  11.128 -0.0202 -0.3632  0.1419
  391MPD2     H 5845   0.665   0.838  11.086  1.9532 -1.2538  0.8374
  391MPD2    H1 5846   0.431   0.531  10.918 -2.5261 -1.3586  2.2134
  391MPD2    H2 5847   0.455   0.546  11.331  2.1380  3.4143  2.9070
  391MPD2    H3 5848   0.372   0.442  11.133 -0.4374 -0.1298  0.2097
  391MPD2     N 5849   0.576   0.754  10.864  0.2794 -0.6126 -0.3395
  391MPD2    H5 5850   0.635   0.836  10.862  0.6406 -0.9134 -2.0926
  391MPD2    N1 5851   0.611   0.759  11.352  0.5016 -0.1115 -0.0738
  391MPD2    H7 5852   0.606   0.699  11.434  1.0214 -1.9935 -1.4527
  392TMC3    C1 5853   0.621   0.769  10.633  0.3938 -0.3564  0.2581
  392TMC3    C2 5854   0.570   0.760  10.507  0.5019 -0.0101  0.0928
  392TMC3    C3 5855   0.639   0.825  10.412  0.1269  0.0701 -0.3386
  392TMC3    C4 5856   0.748   0.817  10.659  0.2689  0.1827 -0.1210
  392TMC3    C5 5857   0.823   0.871  10.558 -0.2387  0.2828  0.1115
  392TMC3    C6 5858   0.764   0.875  10.432  0.1985  0.1134  0.0719
  392TMC3     C 5859   0.545   0.703  10.735  0.1166  1.0828  0.2943
  392TMC3     O 5860   0.458   0.623  10.705 -0.1856  0.4547  0.0933
  392TMC3     H 5861   0.465   0.737  10.495  0.2394  0.4720  1.4354
  392TMC3    H1 5862   0.789   0.810  10.759 -2.3327  1.2381  1.0070
  392TMC3    H2 5863   0.828   0.918  10.354 -0.1142 -0.1998 -0.3574
  392TMC3    C7 5864   0.965   0.906  10.587  0.2052 -0.4890  0.6092
  392TMC3    C8 5865   0.581   0.836  10.280 -0.6504 -0.2814 -0.1324
  392TMC3    O1 5866   0.988   0.906  10.705  0.5730 -0.1116 -0.1218
  392TMC3    O2 5867   0.477   0.765  10.259 -0.2563  0.0868  0.0373
  393TMC3    C1 5868   4.392   3.341  10.006  0.0083  0.1624 -0.5914
  393TMC3    C2 5869   4.292   3.279  10.071 -0.2620  0.1160  0.2290
  393TMC3    C3 5870   4.314   3.229  10.190 -0.0284 -0.2755 -0.2837
  393TMC3    C4 5871   4.510   3.358  10.075  1.3573  0.4289  0.8187
  393TMC3    C5 5872   4.533   3.299  10.200 -0.0719  0.5667  0.5343
  393TMC3    C6 5873   4.431   3.231  10.260 -0.2673  0.0805  0.3841
  393TMC3     C 5874   4.386   3.371   9.869 -0.0320  0.1326  0.4049
  393TMC3     O 5875   4.470   3.445   9.820  0.0486 -0.2831 -0.4940
  393TMC3     H 5876   4.201   3.250  10.020 -0.9429 -0.4967  1.8012
  393TMC3    H1 5877   4.597   3.401  10.026  1.5307  0.2444  0.9650
  393TMC3    H2 5878   4.436   3.174  10.352  4.4580  0.5321  0.4237
  393TMC3    C7 5879   4.658   3.230  10.197 -0.0069  0.2340 -0.0858
  393TMC3    C8 5880   4.219   3.135  10.253 -0.1573  0.3670 -0.4174
  393TMC3    O1 5881   4.647   3.111  10.220 -0.3112  0.7765 -0.0540
  393TMC3    O2 5882   4.151   3.060  10.180 -0.0939  0.2319  0.1148
  394TMC3    C1 5883   1.638   3.954  10.044  0.0285 -0.5954 -0.5397
  394TMC3    C2 5884   1.599   3.852   9.960  0.4396 -0.2580  0.7785
  394TMC3    C3 5885   1.613   3.873   9.823  0.2432 -0.5781  0.3801
  394TMC3    C4 5886   1.707   4.069   9.998  0.5872  0.3273 -0.1573
  394TMC3    C5 5887   1.724   4.080   9.857 -0.0868  0.4690 -0.1923
  394TMC3    C6 5888   1.688   3.976   9.777  0.1007 -0.4110 -0.0043
  394TMC3     C 5889   1.560   3.961  10.166 -0.5618  0.2904 -0.2321
  394TMC3     O 5890   1.462   3.885  10.175 -0.1281  0.0707  0.1226
  394TMC3     H 5891   1.542   3.766   9.993 -0.0066 -0.6806 -1.1319
  394TMC3    H1 5892   1.732   4.151  10.064 -1.1343  0.3584  0.4524
  394TMC3    H2 5893   1.695   3.990   9.670 -0.3198  0.6572  0.1075
  394TMC3    C7 5894   1.789   4.206   9.811  0.3773  0.1669 -0.5127
  394TMC3    C8 5895   1.570   3.768   9.733  0.1774  0.5794  0.1566
  394TMC3    O1 5896   1.831   4.280   9.900 -0.4141 -0.1458  0.1299
  394TMC3    O2 5897   1.607   3.779   9.617  0.0809  0.4826 -0.1277
  395TMC3    C1 5898   1.031   1.374  15.279  0.4472 -0.3961  0.9384
  395TMC3    C2 5899   0.999   1.268  15.196  0.7383 -0.1039  0.1730
  395TMC3    C3 5900   0.991   1.290  15.059  0.1091 -0.4148  0.0122
  395TMC3    C4 5901   1.053   1.500  15.224  0.9321  0.2822  0.1430
  395TMC3    C5 5902   1.031   1.521  15.093 -0.1449 -0.2034  0.2322
  395TMC3    C6 5903   1.013   1.413  15.011 -0.0081  0.1015  0.2437
  395TMC3     C 5904   0.983   1.367  15.416 -1.0033  0.3195  0.8421
  395TMC3     O 5905   0.954   1.478  15.463 -0.0543 -0.1573  0.3720
  395TMC3     H 5906   0.994   1.167  15.235 -0.2301  0.0759  0.5253
  395TMC3    H1 5907   1.078   1.580  15.292 -0.4611 -0.7293  1.8645
  395TMC3    H2 5908   0.985   1.431  14.907  1.0357 -0.7995 -0.1934
  395TMC3    C7 5909   1.064   1.650  15.034 -0.2729  0.7206  0.2117
  395TMC3    C8 5910   0.915   1.202  14.978  0.0280  0.6910 -0.7861
  395TMC3    O1 5911   1.096   1.733  15.114  0.6532  0.0903 -0.3970
  395TMC3    O2 5912   0.944   1.164  14.865  0.2255  0.8629  0.5952
  396MPD2     C 5913   0.749   2.289  17.175 -0.1786  0.1099  0.1224
  396MPD2    C1 5914   0.880   2.287  17.211 -1.0282  0.4017 -0.3321
  396MPD2    C2 5915   0.961   2.380  17.147  0.2370 -0.2673 -0.0694
  396MPD2    C3 5916   0.909   2.477  17.059  0.0329  0.2701 -0.8266
  396MPD2    C4 5917   0.772   2.483  17.031 -0.7124  0.6472 -0.3196
  396MPD2    C5 5918   0.693   2.389  17.093 -0.6804 -0.4162 -0.0413
  396MPD2     H 5919   1.068   2.383  17.164  0.1031  4.0942  0.1164
  396MPD2    H1 5920   0.727   2.555  16.964  1.1542  1.9646 -0.1452
  396MPD2    H2 5921   0.686   2.216  17.224 -1.1344 -0.6115 -2.1852
  396MPD2    H3 5922   0.586   2.378  17.079 -0.7566  1.1885 -0.6880
  396MPD2     N 5923   1.003   2.569  17.002 -0.3426  0.0860 -0.4156
  396MPD2    H5 5924   1.089   2.579  17.055 -0.0293 -1.3094 -0.6635
  396MPD2    N1 5925   0.928   2.181  17.289 -0.0159 -0.1587 -0.7180
  396MPD2    H7 5926   0.865   2.106  17.317 -0.6245  0.2241 -1.0459
  397TMC3    C1 5927   1.064   2.025  17.392 -0.0666  0.0330  0.5120
  397TMC3    C2 5928   1.195   1.990  17.373 -0.2080  0.3963  0.1453
  397TMC3    C3 5929   1.222   1.861  17.346 -0.3575  0.7600 -0.1915
  397TMC3    C4 5930   0.963   1.934  17.367 -0.2147 -0.3766 -0.1773
  397TMC3    C5 5931   0.999   1.807  17.324  0.0765  0.2693  1.0208
  397TMC3    C6 5932   1.130   1.763  17.325 -0.2433 -0.5487 -0.2655
  397TMC3     C 5933   1.053   2.158  17.327  0.0830 -0.4964 -0.0791
  397TMC3     O 5934   1.157   2.219  17.293  0.3931  0.3776  0.6238
  397TMC3     H 5935   1.280   2.048  17.408  0.5194 -0.2756 -0.5178
  397TMC3    H1 5936   0.857   1.948  17.389 -0.4516  0.1362 -1.6823
  397TMC3    H2 5937   1.167   1.663  17.306  1.0104 -0.5285  2.0052
  397TMC3    C7 5938   0.897   1.711  17.263 -0.8317  0.1941  0.3759
  397TMC3    C8 5939   1.349   1.810  17.384  0.1480  0.0537  0.4985
  397TMC3    O1 5940   0.939   1.641  17.172 -0.0075 -0.1385 -0.0214
  397TMC3    O2 5941   1.342   1.724  17.472  0.2559  0.0058 -0.5541
  398MPD2     C 5942   3.213   3.161   0.211 -0.3355  0.4431 -0.0152
  398MPD2    C1 5943   3.339   3.138   0.271 -0.4784  0.0311  0.5643
  398MPD2    C2 5944   3.444   3.227   0.243  0.3876  0.7199 -0.4859
  398MPD2    C3 5945   3.429   3.328   0.151 -0.0605  0.4595 -0.4137
  398MPD2    C4 5946   3.307   3.336   0.087 -0.0300 -0.8005 -0.4639
  398MPD2    C5 5947   3.198   3.263   0.127  0.8086 -1.0980 -0.3468
  398MPD2     H 5948   3.537   3.208   0.295 -0.8864  0.2035  1.5950
  398MPD2    H1 5949   3.284   3.416   0.017 -2.1178  1.5788  2.9167
  398MPD2    H2 5950   3.128   3.096   0.228 -0.6432  1.4083  2.0804
  398MPD2    H3 5951   3.107   3.272   0.068 -0.0726 -0.5586  1.0940
  398MPD2     N 5952   3.540   3.409   0.111 -0.3328 -0.4192 -0.6118
  398MPD2    H5 5953   3.635   3.391   0.144 -0.2964 -1.1725 -1.1355
  398MPD2    N1 5954   3.358   3.032   0.362 -0.1256 -0.0848  0.4422
  398MPD2    H7 5955   3.452   3.018   0.398  0.1297  1.4003  0.3641
  399TMC3    C1 5956   3.341   2.818   0.449  0.3289  0.7546 -0.5505
  399TMC3    C2 5957   3.475   2.794   0.415  0.1375 -0.4423  0.0233
  399TMC3    C3 5958   3.523   2.684   0.472  0.0002  0.0057  0.5628
  399TMC3    C4 5959   3.265   2.729   0.528 -0.3738  0.2666 -0.5509
  399TMC3    C5 5960   3.322   2.615   0.576 -0.3466  0.2713 -0.9870
  399TMC3    C6 5961   3.459   2.596   0.553  0.7670 -0.4554 -0.4633
  399TMC3     C 5962   3.274   2.926   0.379 -1.1268 -0.8335  0.3866
  399TMC3     O 5963   3.154   2.922   0.358  0.8794 -0.3978  0.0310
  399TMC3     H 5964   3.525   2.857   0.343 -0.6269  2.5677  2.1341
  399TMC3    H1 5965   3.165   2.762   0.552 -0.5186 -1.8056  1.6846
  399TMC3    H2 5966   3.508   2.507   0.591  1.7476  0.7312  1.0846
  399TMC3    C7 5967   3.252   2.536   0.670 -0.5931 -0.1226  0.0995
  399TMC3    C8 5968   3.665   2.671   0.456  0.4199  0.2315  0.3324
  399TMC3    O1 5969   3.129   2.534   0.662 -0.3271  0.0333  0.0296
  399TMC3    O2 5970   3.711   2.743   0.363  0.3701 -0.0631  0.4374
  400TMC3    C1 5971   2.377   2.000  16.808 -0.0092 -0.4124  0.3242
  400TMC3    C2 5972   2.334   1.877  16.759  0.2746  0.6105  0.2490
  400TMC3    C3 5973   2.227   1.865  16.675  0.0124  0.3406 -0.1482
  400TMC3    C4 5974   2.289   2.107  16.796 -0.6548 -0.3575  0.6113
  400TMC3    C5 5975   2.179   2.090  16.714 -0.1523 -0.0566 -0.2048
  400TMC3    C6 5976   2.153   1.975  16.649  1.0205  0.1805  0.8118
  400TMC3     C 5977   2.470   1.989  16.914 -0.1682  0.0662 -0.8643
  400TMC3     O 5978   2.482   1.879  16.964  0.5957  0.0825 -0.0866
  400TMC3     H 5979   2.398   1.790  16.768  0.2447  0.5766  0.1279
  400TMC3    H1 5980   2.321   2.210  16.796 -2.4800  0.2117  1.3239
  400TMC3    H2 5981   2.065   1.961  16.587  1.1550 -0.8381  0.8550
  400TMC3    C7 5982   2.098   2.210  16.674 -0.4122 -0.7930 -0.4848
  400TMC3    C8 5983   2.154   1.737  16.713  0.2946 -0.0214 -0.3732
  400TMC3    O1 5984   2.045   2.207  16.565  0.4990  0.2112 -0.5160
  400TMC3    O2 5985   2.205   1.679  16.806  0.1934 -0.0226  0.6221
  401MPD2     C 5986   0.438   0.281   0.536  0.1225 -0.4781 -0.2311
  401MPD2    C1 5987   0.540   0.230   0.620  0.3288 -0.5828 -0.1503
  401MPD2    C2 5988   0.559   0.095   0.648 -0.2244  0.0266  1.2908
  401MPD2    C3 5989   0.484   0.005   0.582  0.8435 -0.7331  0.2467
  401MPD2    C4 5990   0.394   0.054   0.489 -0.0106 -0.1100 -0.1675
  401MPD2    C5 5991   0.362   0.186   0.475  0.5050  0.4157 -0.0881
  401MPD2     H 5992   0.636   0.060   0.715  0.9425  1.9676  0.9613
  401MPD2    H1 5993   0.336   4.719   0.418 -0.1116 -1.5829  1.0979
  401MPD2    H2 5994   0.427   0.388   0.520 -0.4497 -0.8078 -2.1175
  401MPD2    H3 5995   0.293   0.213   0.395 -1.7092 -0.5167  1.5249
  401MPD2     N 5996   0.504   4.590   0.603  0.0083  0.5087  0.6647
  401MPD2    H5 5997   0.581   4.563   0.663 -1.1921  0.8505  2.3501
  401MPD2    N1 5998   0.621   0.315   0.694  0.3596 -0.1211  0.0560
  401MPD2    H7 5999   0.684   0.262   0.753  2.7396  1.8862 -0.7413
  402TMC3    C1 6000   0.460   4.359   0.599  0.5002  0.8030 -0.1469
  402TMC3    C2 6001   0.522   4.347   0.717  0.6431 -0.6198  0.6899
  402TMC3    C3 6002   0.610   4.235   0.732 -0.2225 -0.0834 -0.5020
  402TMC3    C4 6003   0.470   4.260   0.502  0.1912 -0.8448 -0.2482
  402TMC3    C5 6004   0.554   4.157   0.525  0.7228  0.1363  0.0394
  402TMC3    C6 6005   0.621   4.138   0.640 -0.6588  0.3720  0.1661
  402TMC3     C 6006   0.420   4.494   0.553 -0.9075 -0.0782 -0.2618
  402TMC3     O 6007   0.334   4.498   0.461 -0.1595 -0.2288  0.1490
  402TMC3     H 6008   0.520   4.426   0.791 -1.0933 -0.5832  0.5966
  402TMC3    H1 6009   0.420   4.265   0.406 -0.2231 -0.8952 -0.0329
  402TMC3    H2 6010   0.672   4.042   0.647 -1.5832 -0.1495 -0.3823
  402TMC3    C7 6011   0.591   4.076   0.411 -0.3087 -0.3130 -0.1664
  402TMC3    C8 6012   0.639   4.194   0.869 -0.1692  0.2966 -0.4468
  402TMC3    O1 6013   0.637   3.964   0.430 -0.2971 -0.0636  0.5390
  402TMC3    O2 6014   0.658   4.073   0.882  0.2370  0.6768 -0.6238
  403MPD2     C 6015   3.598   3.857  13.345  0.4509  0.2310 -0.5342
  403MPD2    C1 6016   3.610   3.756  13.437 -0.0854  0.6309 -0.6277
  403MPD2    C2 6017   3.732   3.746  13.505 -0.8265  0.5093  0.1045
  403MPD2    C3 6018   3.832   3.833  13.487  0.1426 -0.5150  0.1123
  403MPD2    C4 6019   3.828   3.924  13.381 -0.3808 -0.4399 -0.1234
  403MPD2    C5 6020   3.708   3.942  13.315 -0.7337 -0.2982 -0.8151
  403MPD2     H 6021   3.747   3.662  13.572  0.6822 -0.4621 -1.4549
  403MPD2    H1 6022   3.914   3.987  13.362 -2.3609  1.7327 -1.9701
  403MPD2    H2 6023   3.503   3.866  13.294 -0.5158 -0.2703  1.1719
  403MPD2    H3 6024   3.700   4.018  13.238  0.5545  1.1033  0.4447
  403MPD2     N 6025   3.954   3.820  13.564  0.3912  0.5557  0.2877
  403MPD2    H5 6026   3.948   3.745  13.632  0.2051  1.1224  0.8953
  403MPD2    N1 6027   3.514   3.661  13.442  0.2744  0.3271 -0.1907
  403MPD2    H7 6028   3.443   3.659  13.370 -0.1741 -0.2755  0.2666
  404TMC3    C1 6029   3.426   3.443  13.485 -0.0795 -0.8458 -0.1191
  404TMC3    C2 6030   3.418   3.345  13.584  0.2053  0.3580 -0.1456
  404TMC3    C3 6031   3.449   3.223  13.551 -0.1193  0.8471 -0.1460
  404TMC3    C4 6032   3.451   3.410  13.355 -0.3622  0.1972  0.4163
  404TMC3    C5 6033   3.496   3.282  13.330 -0.1723  0.0277 -0.2337
  404TMC3    C6 6034   3.498   3.183  13.424  0.4989  0.9991  0.1496
  404TMC3     C 6035   3.508   3.553  13.531  0.1675  0.3674 -0.8431
  404TMC3     O 6036   3.576   3.531  13.634 -0.5234  0.1979 -0.2985
  404TMC3     H 6037   3.416   3.372  13.690 -0.9088 -0.2163 -0.0204
  404TMC3    H1 6038   3.450   3.478  13.271 -1.6826  0.2190  0.4437
  404TMC3    H2 6039   3.517   3.078  13.405 -0.5410  1.1947 -1.9605
  404TMC3    C7 6040   3.532   3.259  13.194 -0.5000  0.1776 -0.3002
  404TMC3    C8 6041   3.514   3.153  13.666 -0.2465 -0.2940 -0.3289
  404TMC3    O1 6042   3.601   3.344  13.138 -0.0402  0.0894 -0.1977
  404TMC3    O2 6043   3.626   3.115  13.641  0.0756  0.0947 -0.2236
  405MPD2     C 6044   4.130   4.010  14.722 -0.0654  0.6527  0.5655
  405MPD2    C1 6045   4.024   3.959  14.659 -0.6022 -0.2887 -0.0328
  405MPD2    C2 6046   3.976   4.018  14.549 -0.3873  0.4531  0.3617
  405MPD2    C3 6047   4.021   4.147  14.511 -0.1394  0.6424 -0.1120
  405MPD2    C4 6048   4.121   4.202  14.585  0.1555  0.1087  0.1755
  405MPD2    C5 6049   4.172   4.136  14.690  0.2067 -0.1698  0.1759
  405MPD2     H 6050   3.900   3.971  14.487 -0.4319  1.8989 -0.6840
  405MPD2    H1 6051   4.166   4.295  14.552  1.3558  0.0453  1.6532
  405MPD2    H2 6052   4.173   3.955  14.805  0.4841  0.1508 -0.0540
  405MPD2    H3 6053   4.250   4.180  14.751 -0.0427  0.2865  0.1700
  405MPD2     N 6054   3.959   4.207  14.396 -0.1279 -0.3095  0.8230
  405MPD2    H5 6055   3.905   4.143  14.340 -1.7480 -0.9365  3.0785
  405MPD2    N1 6056   3.957   3.840  14.687 -0.0750  0.3084 -0.1722
  405MPD2    H7 6057   3.888   3.802  14.623 -0.1433  0.0419  0.0560
  406TMC3    C1 6058   3.697   4.480  14.174  0.1423 -0.6030  0.1796
  406TMC3    C2 6059   3.650   4.378  14.094  0.6385 -0.4111 -0.4564
  406TMC3    C3 6060   3.728   4.265  14.094  0.2745 -0.5598 -0.4275
  406TMC3    C4 6061   3.820   4.479  14.236 -0.4464  0.3763 -0.7552
  406TMC3    C5 6062   3.894   4.364  14.239 -0.2548 -0.7262  0.2890
  406TMC3    C6 6063   3.843   4.256  14.167 -0.3476 -0.1218 -0.6151
  406TMC3     C 6064   3.621   4.603  14.163 -0.1134 -0.3366  0.8056
  406TMC3     O 6065   3.679   4.709  14.175 -0.5119  0.2686 -0.5345
  406TMC3     H 6066   3.563   4.379  14.030 -1.4571  0.9717  2.3833
  406TMC3    H1 6067   3.846   4.558  14.305 -0.3769  0.0202 -0.3709
  406TMC3    H2 6068   3.909   4.171  14.152 -0.4496 -0.5193  1.1747
  406TMC3    C7 6069   3.965   4.337  14.365 -0.5816  0.1404 -0.1367
  406TMC3    C8 6070   3.661   4.149  14.046  0.3153 -0.8377  0.6746
  406TMC3    O1 6071   4.013   4.432  14.419  0.1207  0.0397  0.1929
  406TMC3    O2 6072   3.578   4.162  13.956  0.1690 -0.8340 -0.0436
  407MPD2     C 6073   2.015   1.363   9.130 -0.3327  0.0359  0.7916
  407MPD2    C1 6074   2.129   1.383   9.204 -0.1113 -0.3089 -0.4610
  407MPD2    C2 6075   2.133   1.321   9.322  0.3056 -0.0287  0.2104
  407MPD2    C3 6076   2.042   1.240   9.371 -0.1577  0.0959 -0.4607
  407MPD2    C4 6077   1.920   1.233   9.311  0.3812 -0.6370  0.0351
  407MPD2    C5 6078   1.909   1.297   9.190  0.5896 -0.6239 -0.4287
  407MPD2     H 6079   2.228   1.335   9.371 -0.7467  0.9998  1.9511
  407MPD2    H1 6080   1.839   1.169   9.343 -1.0676 -0.1458 -2.6200
  407MPD2    H2 6081   2.005   1.405   9.030  0.1070  1.6994  1.4397
  407MPD2    H3 6082   1.820   1.265   9.136  1.1617 -0.1947 -1.6032
  407MPD2     N 6083   2.061   1.160   9.491 -0.2227  0.5311 -0.3574
  407MPD2    H5 6084   1.981   1.123   9.541  0.2774 -1.4519 -1.0511
  407MPD2    N1 6085   2.245   1.458   9.174  0.6879 -0.4498 -0.3485
  407MPD2    H7 6086   2.323   1.454   9.239 -0.5866  1.0985  1.2904
  408TMC3    C1 6087   2.392   1.624   9.094 -0.0608  1.1199 -0.0959
  408TMC3    C2 6088   2.354   1.755   9.089 -0.1875 -0.1192  0.1023
  408TMC3    C3 6089   2.399   1.842   9.187  0.1515 -0.0757  0.2488
  408TMC3    C4 6090   2.456   1.577   9.202 -0.0080 -0.1876  0.4598
  408TMC3    C5 6091   2.482   1.657   9.304  0.1550 -0.3368 -0.8164
  408TMC3    C6 6092   2.461   1.791   9.303  0.3004 -0.1807  0.1598
  408TMC3     C 6093   2.272   1.537   9.070  0.5488  0.3395 -0.3368
  408TMC3     O 6094   2.207   1.571   8.972  0.1668  0.0086 -0.5916
  408TMC3     H 6095   2.309   1.797   8.999 -1.0275  2.8083  1.8859
  408TMC3    H1 6096   2.490   1.474   9.198  0.3821 -0.0311 -0.2107
  408TMC3    H2 6097   2.498   1.858   9.379  1.0461 -0.3488 -0.0516
  408TMC3    C7 6098   2.477   1.599   9.435  0.4220 -0.0210 -0.1167
  408TMC3    C8 6099   2.435   1.981   9.154  0.2538 -0.0441  0.8969
  408TMC3    O1 6100   2.480   1.476   9.444  0.0283 -0.3878  0.1093
  408TMC3    O2 6101   2.444   2.002   9.037 -0.2011  0.1844  0.0167
  409MPD2     C 6102   1.357   1.107  16.846  0.0848  0.3976  0.0627
  409MPD2    C1 6103   1.418   1.165  16.959  0.2054 -0.1251 -0.5755
  409MPD2    C2 6104   1.467   1.295  16.946  0.4901 -0.7622  0.1652
  409MPD2    C3 6105   1.455   1.362  16.828 -0.5926  0.0103  1.1848
  409MPD2    C4 6106   1.381   1.307  16.727 -0.1655  0.3560  0.3925
  409MPD2    C5 6107   1.333   1.181  16.738 -0.1312  0.3018  0.0893
  409MPD2     H 6108   1.514   1.345  17.030  0.4239 -0.7706  0.2065
  409MPD2    H1 6109   1.366   1.357  16.632 -0.6588  0.3798  0.4784
  409MPD2    H2 6110   1.312   1.008  16.848 -3.0834  1.8140 -1.3625
  409MPD2    H3 6111   1.275   1.144  16.654  0.6113 -0.4473 -0.0904
  409MPD2     N 6112   1.489   1.496  16.806 -0.1942 -0.0297 -0.1485
  409MPD2    H5 6113   1.443   1.522  16.720  0.5907  0.1358 -0.5117
  409MPD2    N1 6114   1.432   1.102  17.083  0.0928 -0.4802 -0.3009
  409MPD2    H7 6115   1.465   1.153  17.164 -1.3003  1.1406 -0.7584
  410TMC3    C1 6116   1.596   1.709  16.837  0.0963 -0.4961  0.1237
  410TMC3    C2 6117   1.674   1.793  16.915  0.3121 -0.2823  0.6723
  410TMC3    C3 6118   1.751   1.889  16.850 -0.0820 -0.1055 -0.1898
  410TMC3    C4 6119   1.606   1.721  16.702  0.7884 -0.4239 -0.7167
  410TMC3    C5 6120   1.670   1.823  16.650 -0.2724  0.2915  0.8382
  410TMC3    C6 6121   1.748   1.906  16.719 -0.0246 -0.4850  0.8195
  410TMC3     C 6122   1.550   1.586  16.898  0.3800  0.5343 -0.0663
  410TMC3     O 6123   1.588   1.561  17.013 -0.0684 -0.1086 -0.7407
  410TMC3     H 6124   1.678   1.774  17.022 -2.4151  2.2323  1.2147
  410TMC3    H1 6125   1.537   1.670  16.636  0.0016  0.7125 -0.7687
  410TMC3    H2 6126   1.812   1.975  16.665  1.8023 -2.9098 -0.1226
  410TMC3    C7 6127   1.645   1.834  16.506  0.2485 -0.2860 -0.2318
  410TMC3    C8 6128   1.865   1.948  16.918 -0.5286  0.1921 -0.2410
  410TMC3    O1 6129   1.602   1.735  16.439 -0.0765  0.2151  0.2203
  410TMC3    O2 6130   1.895   2.060  16.879  0.1027 -0.0378  0.2989
  411MPD2     C 6131   1.498   2.685  14.530 -0.4949  0.4272 -1.0382
  411MPD2    C1 6132   1.422   2.671  14.642 -0.2311  0.2310 -0.7219
  411MPD2    C2 6133   1.333   2.566  14.649  0.2425  0.2910  0.2723
  411MPD2    C3 6134   1.330   2.467  14.554 -0.5192 -0.1901  0.0920
  411MPD2    C4 6135   1.430   2.466  14.454 -0.7109  0.4806  0.5034
  411MPD2    C5 6136   1.498   2.583  14.436 -0.2614 -0.3919  0.3865
  411MPD2     H 6137   1.259   2.558  14.728 -1.3503  0.0349 -1.2484
  411MPD2    H1 6138   1.441   2.400  14.369 -3.1578 -0.5949  1.0100
  411MPD2    H2 6139   1.564   2.771  14.526 -0.2481  0.2398 -1.0014
  411MPD2    H3 6140   1.562   2.600  14.350  0.2667 -0.5055  0.7538
  411MPD2     N 6141   1.237   2.361  14.547 -0.2355  0.0685  0.0021
  411MPD2    H5 6142   1.241   2.308  14.460 -1.5948 -2.4770  1.4855
  411MPD2    N1 6143   1.409   2.787  14.730  0.3825 -1.0077  0.2777
  411MPD2    H7 6144   1.461   2.872  14.712 -2.4967  1.1776  2.3851
  412TMC3    C1 6145   1.037   2.245  14.558 -0.5321  0.0116  0.2092
  412TMC3    C2 6146   0.925   2.217  14.629  0.1375  0.5529  0.7767
  412TMC3    C3 6147   0.841   2.115  14.576 -0.2364  0.2791  0.2968
  412TMC3    C4 6148   1.050   2.207  14.424 -0.2642 -0.8963 -0.2835
  412TMC3    C5 6149   0.958   2.123  14.370  0.1059 -0.4756  0.0439
  412TMC3    C6 6150   0.850   2.080  14.447  0.2753 -0.2105  0.0135
  412TMC3     C 6151   1.128   2.341  14.620 -0.6697  0.3213  0.3148
  412TMC3     O 6152   1.087   2.407  14.716 -0.0830 -0.0277 -0.3226
  412TMC3     H 6153   0.900   2.274  14.718 -0.4267 -1.2648  1.7921
  412TMC3    H1 6154   1.120   2.251  14.354 -2.4628  0.5439 -1.5575
  412TMC3    H2 6155   0.789   2.011  14.390  1.8582 -0.3584 -1.5285
  412TMC3    C7 6156   0.889   2.179  14.254 -0.6123 -0.1872 -0.1812
  412TMC3    C8 6157   0.700   2.120  14.612  0.6822  0.9225 -0.0900
  412TMC3    O1 6158   0.769   2.195  14.272  0.2377 -0.3589 -0.6917
  412TMC3    O2 6159   0.657   2.110  14.725 -0.1629  0.3622 -0.2133
  413MPD2     C 6160   2.998   0.877  15.007  0.8041 -0.5693 -0.7897
  413MPD2    C1 6161   2.934   0.782  14.932  0.2451  0.1232  0.2081
  413MPD2    C2 6162   2.980   0.655  14.923  0.6900 -0.0007  0.3476
  413MPD2    C3 6163   3.100   0.618  14.980 -0.1690  0.1159 -0.2924
  413MPD2    C4 6164   3.157   0.704  15.074 -0.2848 -0.0486  0.5288
  413MPD2    C5 6165   3.110   0.837  15.080 -0.7260  0.0712  0.0964
  413MPD2     H 6166   2.926   0.587  14.858 -0.0563  0.0092  0.9538
  413MPD2    H1 6167   3.253   0.686  15.121  0.8929  3.2725 -0.6108
  413MPD2    H2 6168   2.972   0.982  15.004  0.4446 -0.6240  0.3503
  413MPD2    H3 6169   3.156   0.912  15.143  1.4910  0.7787 -2.3670
  413MPD2     N 6170   3.154   0.491  14.941  0.3943  0.5502 -0.0906
  413MPD2    H5 6171   3.104   0.437  14.871  0.8537 -1.0885  0.8349
  413MPD2    N1 6172   2.823   0.831  14.862 -0.0167 -0.0777  0.1592
  413MPD2    H7 6173   2.816   0.933  14.866  0.9538 -0.1212  2.4483
  414TMC3    C1 6174   3.301   0.301  14.951 -0.4558  0.8775  0.8006
  414TMC3    C2 6175   3.371   0.221  15.032  0.3615 -0.5380 -0.4678
  414TMC3    C3 6176   3.390   0.093  14.997 -0.0038 -0.0511  0.2431
  414TMC3    C4 6177   3.270   0.267  14.822  0.0428  0.5968  0.0040
  414TMC3    C5 6178   3.303   0.138  14.791  0.3192 -0.0035  0.4662
  414TMC3    C6 6179   3.354   0.051  14.876  0.5384 -0.2180  0.2304
  414TMC3     C 6180   3.260   0.430  15.010 -0.1082 -0.5985 -0.3152
  414TMC3     O 6181   3.333   0.468  15.100 -1.0929 -0.3657  0.3523
  414TMC3     H 6182   3.394   0.256  15.133 -0.6033 -1.9956  0.2523
  414TMC3    H1 6183   3.206   0.328  14.759 -1.9819 -1.6443 -0.1136
  414TMC3    H2 6184   3.373   4.670  14.850  1.2757  0.3333 -1.3849
  414TMC3    C7 6185   3.246   0.090  14.663  0.2170  0.2720 -0.2367
  414TMC3    C8 6186   3.499   0.024  15.054  0.6533  0.4989 -0.0936
  414TMC3    O1 6187   3.131   0.126  14.648 -0.3074 -0.0915  0.5603
  414TMC3    O2 6188   3.513   4.629  15.028 -0.2492 -0.1553  0.0422
  415TMC3    C1 6189   4.275   1.606  10.286 -0.6893 -0.0064  0.6590
  415TMC3    C2 6190   4.275   1.735  10.236 -0.7419 -0.8514 -0.1672
  415TMC3    C3 6191   4.319   1.748  10.107  0.3037 -0.0056  0.6801
  415TMC3    C4 6192   4.326   1.497  10.220  0.1504 -0.6721 -0.2383
  415TMC3    C5 6193   4.371   1.524  10.094 -0.6889 -0.0680 -0.4851
  415TMC3    C6 6194   4.355   1.642  10.027 -0.5887 -0.1936  0.6466
  415TMC3     C 6195   4.187   1.578  10.402  0.2034  1.0285  0.3292
  415TMC3     O 6196   4.212   1.469  10.454 -0.1052 -0.5575  0.2350
  415TMC3     H 6197   4.256   1.816  10.305  1.5334 -0.3413 -0.1682
  415TMC3    H1 6198   4.339   1.406  10.279 -2.6554 -0.4446  0.7341
  415TMC3    H2 6199   4.399   1.657   9.929 -1.9087  0.0597  0.0881
  415TMC3    C7 6200   4.433   1.416  10.019 -0.3603  0.0830  0.3402
  415TMC3    C8 6201   4.306   1.884  10.051 -0.5645 -0.0496 -0.5394
  415TMC3    O1 6202   4.497   1.438   9.920 -0.3170  0.2699  0.1572
  415TMC3    O2 6203   4.245   1.964  10.125 -0.2882  0.5212  0.3362
  416MPD2     C 6204   0.795   1.964  11.699  0.2893 -0.1544 -0.1325
  416MPD2    C1 6205   0.710   1.954  11.596  0.8824  0.0643 -0.0792
  416MPD2    C2 6206   0.737   1.870  11.495 -0.2536  0.7438  0.0991
  416MPD2    C3 6207   0.852   1.802  11.502  0.4035  0.3321 -0.3020
  416MPD2    C4 6208   0.950   1.823  11.595  0.1208  0.5156  0.4170
  416MPD2    C5 6209   0.916   1.902  11.699  0.7231 -0.6507 -0.0048
  416MPD2     H 6210   0.660   1.844  11.423 -0.4814 -0.9590  0.9642
  416MPD2    H1 6211   1.024   1.749  11.623 -0.5072 -0.5382 -0.6606
  416MPD2    H2 6212   0.781   2.014  11.794 -1.6180 -1.5441  0.3146
  416MPD2    H3 6213   0.981   1.903  11.786 -2.0646 -0.1480  2.0870
  416MPD2     N 6214   0.874   1.696  11.416  0.1371  0.4260 -0.0028
  416MPD2    H5 6215   0.963   1.651  11.432 -1.2964 -2.3285  0.3183
  416MPD2    N1 6216   0.596   2.036  11.611  0.2522 -0.0671  0.1645
  416MPD2    H7 6217   0.592   2.089  11.698 -2.6674 -0.6700  0.3938
  417TMC3    C1 6218   0.384   2.146  11.528  0.2784 -0.4158  0.6910
  417TMC3    C2 6219   0.361   2.196  11.652  0.1197 -0.2937  0.1603
  417TMC3    C3 6220   0.240   2.250  11.676 -0.4450 -0.0721 -0.8024
  417TMC3    C4 6221   0.285   2.139  11.431 -0.2857  0.6711 -0.0410
  417TMC3    C5 6222   0.163   2.191  11.461 -0.5674  0.0048  0.3323
  417TMC3    C6 6223   0.139   2.256  11.582  0.0791  0.1354  0.2570
  417TMC3     C 6224   0.490   2.041  11.522 -0.0040  0.7480  0.4933
  417TMC3     O 6225   0.464   1.958  11.437  0.0114 -0.5516  0.1930
  417TMC3     H 6226   0.439   2.197  11.727 -0.2254  0.3777  0.5094
  417TMC3    H1 6227   0.317   2.104  11.334  0.9676  0.0727  0.5830
  417TMC3    H2 6228   0.046   2.309  11.598  0.0426  0.2694 -0.3789
  417TMC3    C7 6229   0.091   2.231  11.338  0.0359  0.7760  0.4019
  417TMC3    C8 6230   0.204   2.290  11.812 -0.2166  0.1271 -0.0511
  417TMC3    O1 6231   0.153   2.238  11.231  0.1978 -0.5335 -0.2984
  417TMC3    O2 6232   0.110   2.367  11.820 -1.0553 -0.1385 -1.0257
  418TMC3    C1 6233   3.861   3.465  17.588 -0.1555 -0.1671 -0.6102
  418TMC3    C2 6234   3.736   3.528  17.590  0.2754  0.1787 -0.4245
  418TMC3    C3 6235   3.674   3.558   0.016  0.6424 -0.0157 -0.3484
  418TMC3    C4 6236   3.934   3.443   0.010 -0.0487 -0.3305 -0.5260
  418TMC3    C5 6237   3.870   3.473   0.127 -0.0031 -0.0389 -0.2378
  418TMC3    C6 6238   3.744   3.526   0.132 -0.0929 -0.2906  0.2758
  418TMC3     C 6239   3.920   3.420  17.464  0.3524  0.4052  0.1518
  418TMC3     O 6240   3.922   3.503  17.376 -0.3672 -0.3499 -0.1761
  418TMC3     H 6241   3.682   3.545  17.498  0.3135 -0.7447 -0.6231
  418TMC3    H1 6242   4.020   3.377   0.003  0.7030  0.7378 -1.3043
  418TMC3    H2 6243   3.700   3.536   0.231  1.6388 -0.4025  1.0596
  418TMC3    C7 6244   3.938   3.461   0.253 -0.0352  0.0432 -0.2665
  418TMC3    C8 6245   3.539   3.517   0.026 -0.5041  0.4262 -0.0710
  418TMC3    O1 6246   3.871   3.450   0.356  0.2122  0.2057  0.8107
  418TMC3    O2 6247   3.448   3.568  17.651 -0.1360 -0.4447 -0.0955
  419MPD2     C 6248   2.324   1.964  12.066  0.5011  0.3788 -0.0617
  419MPD2    C1 6249   2.404   1.943  12.182 -0.1584 -0.3166 -0.0664
  419MPD2    C2 6250   2.341   1.957  12.309  0.6422 -0.7139 -0.5526
  419MPD2    C3 6251   2.211   1.998  12.322  1.2505  0.3673  0.1730
  419MPD2    C4 6252   2.132   2.020  12.206  0.0593 -0.0400  0.5372
  419MPD2    C5 6253   2.191   2.005  12.081 -0.3413 -0.8156 -0.2831
  419MPD2     H 6254   2.395   1.935  12.401  0.1272 -2.3234 -0.6367
  419MPD2    H1 6255   2.027   2.044  12.204 -0.2106 -1.1071  2.0816
  419MPD2    H2 6256   2.361   1.952  11.965  0.2122 -4.1010  0.3726
  419MPD2    H3 6257   2.134   2.004  11.989 -0.3360 -0.1438 -0.2927
  419MPD2     N 6258   2.167   2.035  12.455  0.0028  0.2901  0.7650
  419MPD2    H5 6259   2.248   2.039  12.516  0.4954 -1.2488  0.1944
  419MPD2    N1 6260   2.536   1.900  12.180 -0.1683  0.3206 -0.0418
  419MPD2    H7 6261   2.574   1.877  12.271 -1.4378 -1.6931 -0.0130
  420TMC3    C1 6262   2.028   2.138  12.620  0.3932 -0.2488  0.5647
  420TMC3    C2 6263   1.916   2.211  12.641 -0.3785 -0.3902  0.4713
  420TMC3    C3 6264   1.910   2.296  12.748  0.8210 -0.7565  0.1397
  420TMC3    C4 6265   2.128   2.136  12.716  0.4795  0.0364 -0.3743
  420TMC3    C5 6266   2.106   2.205  12.838 -0.2503 -0.1885 -0.7567
  420TMC3    C6 6267   2.005   2.297  12.852  0.6859 -0.0773  0.8867
  420TMC3     C 6268   2.038   2.063  12.491  0.7631  0.5678 -0.3732
  420TMC3     O 6269   1.941   2.054  12.420  0.2777  0.5672  0.3781
  420TMC3     H 6270   1.846   2.226  12.560  0.6202 -0.6436 -0.4444
  420TMC3    H1 6271   2.217   2.075  12.711  0.0702 -0.8401  3.0912
  420TMC3    H2 6272   1.995   2.366  12.935 -2.4186  3.4628 -2.4684
  420TMC3    C7 6273   2.199   2.187  12.944 -0.5681  0.1577 -0.2780
  420TMC3    C8 6274   1.793   2.377  12.771 -0.3962  0.0583  0.0031
  420TMC3    O1 6275   2.240   2.072  12.960  0.3300 -0.4448  0.6309
  420TMC3    O2 6276   1.730   2.411  12.671  0.8954 -0.2422 -0.4119
  421TMC3    C1 6277   4.140   3.881  13.692  0.8732 -0.0527 -0.8327
  421TMC3    C2 6278   4.175   3.982  13.775 -0.8322 -0.5717  0.4267
  421TMC3    C3 6279   4.179   3.948  13.905 -0.5255 -0.0552 -0.6922
  421TMC3    C4 6280   4.116   3.757  13.744 -0.1073 -0.4304 -0.5745
  421TMC3    C5 6281   4.120   3.739  13.871  0.0365 -0.4525 -0.5914
  421TMC3    C6 6282   4.141   3.835  13.960  0.4476 -0.4431 -0.2067
  421TMC3     C 6283   4.052   3.918  13.581  0.0667  0.0767 -0.1425
  421TMC3     O 6284   4.056   4.025  13.515  0.4258  0.0119 -0.4139
  421TMC3     H 6285   4.200   4.080  13.735  0.9621 -2.4204 -2.9401
  421TMC3    H1 6286   4.122   3.677  13.671  0.2033 -1.2583  0.3670
  421TMC3    H2 6287   4.161   3.801  14.062 -1.0652 -2.5471 -0.6069
  421TMC3    C7 6288   4.208   3.631  13.897 -0.3837 -0.1556  0.6615
  421TMC3    C8 6289   4.184   4.051  14.005 -0.4303 -0.5214 -0.1773
  421TMC3    O1 6290   4.312   3.623  13.841 -0.7944  0.1006 -0.1900
  421TMC3    O2 6291   4.130   4.032  14.114 -0.2684  0.0707  0.1076
  422TMC3    C1 6292   1.480   4.642  12.614 -0.3509  0.2967 -0.2682
  422TMC3    C2 6293   1.455   0.044  12.669  0.0191 -0.3862 -0.2461
  422TMC3    C3 6294   1.352   0.053  12.762 -0.5569 -0.4110 -0.0183
  422TMC3    C4 6295   1.401   4.537  12.646  0.0166 -0.0044 -0.4249
  422TMC3    C5 6296   1.293   4.554  12.726  0.6514 -0.4536  0.4108
  422TMC3    C6 6297   1.269   4.672  12.793 -0.0903  0.0273 -0.4912
  422TMC3     C 6298   1.609   4.624  12.546  0.1189 -0.0017  0.9773
  422TMC3     O 6299   1.674   4.721  12.511  0.1363  0.3262  0.0944
  422TMC3     H 6300   1.530   0.122  12.660 -0.1894 -0.1505  0.0594
  422TMC3    H1 6301   1.405   4.436  12.605 -0.0497 -0.2288  0.1258
  422TMC3    H2 6302   1.188   4.679  12.865 -0.3303 -1.4344 -0.6095
  422TMC3    C7 6303   1.181   4.462  12.701  0.7285 -0.7567  0.1986
  422TMC3    C8 6304   1.323   0.195  12.800  0.0122 -0.9945 -0.7235
  422TMC3    O1 6305   1.200   4.353  12.651 -0.4119 -0.3256  0.1000
  422TMC3    O2 6306   1.377   0.284  12.734  0.6685  0.9700  0.1749
  423MPD2     C 6307   2.541   0.886   0.230  0.1893  1.0796 -0.0637
  423MPD2    C1 6308   2.547   0.747   0.239 -0.6004  0.0255  1.0530
  423MPD2    C2 6309   2.631   0.687   0.148  0.0658  0.7777  0.1704
  423MPD2    C3 6310   2.710   0.758   0.057  0.0706  0.0081  0.1552
  423MPD2    C4 6311   2.696   0.899   0.052  0.4641 -0.6398  0.1526
  423MPD2    C5 6312   2.607   0.961   0.135 -0.2768  0.5692 -0.0464
  423MPD2     H 6313   2.635   0.579   0.151  0.3415  0.7689 -0.4283
  423MPD2    H1 6314   2.747   0.965  17.677 -1.7475  1.1173  0.2070
  423MPD2    H2 6315   2.486   0.945   0.302 -0.4083 -2.1522  2.1255
  423MPD2    H3 6316   2.584   1.067   0.130  1.5683  0.8708 -2.0285
  423MPD2     N 6317   2.796   0.705  17.662  0.5198  0.0060 -0.3486
  423MPD2    H5 6318   2.851   0.769  17.606 -0.4375  1.1074 -0.0190
  423MPD2    N1 6319   2.483   0.663   0.331  0.4599 -0.3828 -0.4599
  423MPD2    H7 6320   2.514   0.566   0.337  0.4740 -0.2886  0.9224
  424TMC3    C1 6321   2.342   0.587   0.494 -0.1156  0.6122 -0.0894
  424TMC3    C2 6322   2.428   0.515   0.570  0.3604 -0.2632  0.5038
  424TMC3    C3 6323   2.376   0.456   0.690 -0.1007  0.0126  0.1362
  424TMC3    C4 6324   2.216   0.606   0.538  0.1350  0.3655  0.2247
  424TMC3    C5 6325   2.168   0.539   0.649 -0.5039 -0.4174  0.0636
  424TMC3    C6 6326   2.246   0.458   0.728  0.2418  0.3351 -0.0702
  424TMC3     C 6327   2.379   0.696   0.406 -0.0039  0.7021 -0.1083
  424TMC3     O 6328   2.319   0.799   0.409  0.4122  0.0716  0.1516
  424TMC3     H 6329   2.528   0.506   0.531 -0.0507  0.0871 -0.6331
  424TMC3    H1 6330   2.157   0.685   0.493  0.1923  0.3149  0.0613
  424TMC3    H2 6331   2.210   0.403   0.814 -2.7883  0.1611 -1.4667
  424TMC3    C7 6332   2.030   0.552   0.689 -0.0483  0.1371 -0.0576
  424TMC3    C8 6333   2.479   0.399   0.772 -0.2381  0.1044  0.6703
  424TMC3    O1 6334   1.964   0.601   0.601  0.2544 -0.3246  0.3264
  424TMC3    O2 6335   2.590   0.376   0.726  0.1027 -0.5164  0.6880
  425MPD2     C 6336   1.440   0.276   0.026 -0.7010  0.1886 -1.1825
  425MPD2    C1 6337   1.435   0.251  17.586 -0.1812  0.0044  0.3869
  425MPD2    C2 6338   1.335   0.314  17.509  0.0438  0.0343 -0.7829
  425MPD2    C3 6339   1.241   0.400  17.572  0.3939 -0.4782  0.0138
  425MPD2    C4 6340   1.258   0.425   0.014  0.4294 -0.0295  0.4866
  425MPD2    C5 6341   1.353   0.356   0.087  0.3184 -0.5692 -0.0717
  425MPD2     H 6342   1.313   0.306  17.403 -0.3617 -0.9301 -0.6260
  425MPD2    H1 6343   1.199   0.499   0.067  0.7362 -0.0244  0.8227
  425MPD2    H2 6344   1.513   0.223   0.085 -0.5156  2.2494  0.4504
  425MPD2    H3 6345   1.363   0.374   0.194 -0.0091 -1.8369  0.1720
  425MPD2     N 6346   1.139   0.457  17.490  0.2968 -0.9537 -0.3293
  425MPD2    H5 6347   1.135   0.434  17.392 -0.9158  1.9835 -0.9644
  425MPD2    N1 6348   1.535   0.160  17.538  0.2361  0.2585 -0.2287
  425MPD2    H7 6349   1.607   0.130  17.604  1.6086  2.2829 -0.8194
  426TMC3    C1 6350   1.655   0.029  17.370  0.2272  0.0424  0.0098
  426TMC3    C2 6351   1.674   0.013  17.233  0.1707 -0.4176  0.5464
  426TMC3    C3 6352   1.765   4.638  17.193  0.8023 -0.2658 -0.0237
  426TMC3    C4 6353   1.699   4.671  17.464  0.2852 -0.1447  0.6052
  426TMC3    C5 6354   1.779   4.570  17.425 -0.6030 -0.7921 -0.0453
  426TMC3    C6 6355   1.818   4.550  17.297 -0.0559  0.5661 -0.3819
  426TMC3     C 6356   1.550   0.127  17.401 -0.1928  0.5299 -0.2702
  426TMC3     O 6357   1.473   0.146  17.309  0.1851 -0.4577  0.5478
  426TMC3     H 6358   1.619   0.070  17.159 -0.5968 -3.5041 -1.2934
  426TMC3    H1 6359   1.664   4.684  17.566  0.4997  1.0375  0.5246
  426TMC3    H2 6360   1.891   4.477  17.263 -0.1446  0.4569 -0.3405
  426TMC3    C7 6361   1.840   4.484  17.525 -0.3028 -0.5598 -0.3804
  426TMC3    C8 6362   1.778   4.590  17.058 -0.1551 -0.0045 -0.2062
  426TMC3    O1 6363   1.915   4.397  17.480 -0.6428 -0.0068 -0.4930
  426TMC3    O2 6364   1.842   4.487  17.044 -0.5383  0.6630  0.5338
  427MPD2     C 6365   0.424   2.697  15.192  0.2051  0.0474 -1.1698
  427MPD2    C1 6366   0.373   2.609  15.281 -0.0268 -0.6940  0.1815
  427MPD2    C2 6367   0.238   2.606  15.314 -0.5174 -0.9063 -1.0873
  427MPD2    C3 6368   0.153   2.706  15.264  0.6343  0.6196 -0.1587
  427MPD2    C4 6369   0.208   2.804  15.184  0.1741  0.3528 -0.0389
  427MPD2    C5 6370   0.340   2.798  15.154  0.4065  0.3462  0.4752
  427MPD2     H 6371   0.192   2.515  15.352 -0.4834 -0.8858 -0.9966
  427MPD2    H1 6372   0.138   2.866  15.130 -0.4248  0.9151  1.3892
  427MPD2    H2 6373   0.526   2.699  15.156  0.0134  0.2693 -1.6853
  427MPD2    H3 6374   0.386   2.873  15.091  1.4633 -1.1849 -0.5967
  427MPD2     N 6375   0.017   2.705  15.293 -0.0134 -0.7896  0.8883
  427MPD2    H5 6376   4.682   2.770  15.241 -0.1222 -2.2534 -0.8337
  427MPD2    N1 6377   0.455   2.503  15.325 -0.5097  0.0824  0.2263
  427MPD2    H7 6378   0.418   2.446  15.400 -1.7485  2.9281  1.7831
  428TMC3    C1 6379   0.654   2.381  15.358 -0.2844 -0.1962  0.9805
  428TMC3    C2 6380   0.579   2.277  15.415 -0.0391  0.0160 -0.3432
  428TMC3    C3 6381   0.646   2.189  15.491 -0.5545 -0.4444  0.3072
  428TMC3    C4 6382   0.786   2.390  15.377 -0.2476  0.3569  0.0032
  428TMC3    C5 6383   0.855   2.303  15.462 -0.2170 -0.8367  0.7933
  428TMC3    C6 6384   0.783   2.206  15.527 -0.3448  0.5401  0.2085
  428TMC3     C 6385   0.589   2.478  15.273  0.2103 -0.4319  0.4294
  428TMC3     O 6386   0.662   2.537  15.192 -0.0538 -0.0066 -0.3073
  428TMC3     H 6387   0.473   2.260  15.398  0.1790 -0.5352 -1.1442
  428TMC3    H1 6388   0.843   2.468  15.328  0.1710  0.3818  0.5303
  428TMC3    H2 6389   0.830   2.124  15.581 -0.5262  0.1579 -0.2130
  428TMC3    C7 6390   1.000   2.309  15.493  1.0928 -0.5178  0.1305
  428TMC3    C8 6391   0.586   2.058  15.535 -0.8475 -0.2114 -0.1346
  428TMC3    O1 6392   1.034   2.234  15.585  0.0501  0.1013  0.7764
  428TMC3    O2 6393   0.638   2.006  15.627  0.4805 -0.0780  0.3670
  429MPD2     C 6394   1.359   2.322  17.595 -0.0526 -0.2542  0.4429
  429MPD2    C1 6395   1.485   2.296  17.554  0.1939 -0.4318 -0.1682
  429MPD2    C2 6396   1.553   2.384  17.478  0.5907  0.9004 -0.1139
  429MPD2    C3 6397   1.489   2.496  17.429  0.0483 -0.3207  0.3099
  429MPD2    C4 6398   1.356   2.519  17.454  0.1598  0.0752 -0.2791
  429MPD2    C5 6399   1.290   2.425  17.535  0.7063 -0.2497  0.5683
  429MPD2     H 6400   1.649   2.367  17.432  0.9341  0.9348  0.5922
  429MPD2    H1 6401   1.298   2.591  17.399  0.5017 -0.1371 -0.9204
  429MPD2    H2 6402   1.298   2.259  17.659 -0.8479 -0.9413 -0.9904
  429MPD2    H3 6403   1.188   2.440  17.571  1.3255  0.9952  1.8252
  429MPD2     N 6404   1.570   2.577  17.343 -0.1908 -0.4885 -0.0713
  429MPD2    H5 6405   1.658   2.540  17.310 -0.2704 -1.6320  0.9945
  429MPD2    N1 6406   1.557   2.182  17.605  0.0901  0.6890  0.0356
  429MPD2    H7 6407   1.655   2.179  17.580 -0.2443  2.3650 -1.4302
  430TMC3    C1 6408   1.654   2.771  17.236 -0.2755  0.1869  0.5604
  430TMC3    C2 6409   1.629   2.888  17.166 -0.0996  0.6136 -0.2376
  430TMC3    C3 6410   1.728   2.951  17.097  0.6558  0.6455 -0.3555
  430TMC3    C4 6411   1.784   2.726  17.238 -0.3855 -0.1069  0.7050
  430TMC3    C5 6412   1.880   2.786  17.161  0.1129  0.0251  0.1060
  430TMC3    C6 6413   1.854   2.906  17.096 -1.0296  0.0689 -0.4660
  430TMC3     C 6414   1.544   2.706  17.314  0.0805  0.1991  0.1483
  430TMC3     O 6415   1.445   2.765  17.355 -0.6148  0.3086  0.3702
  430TMC3     H 6416   1.526   2.912  17.146 -0.1973  0.7423  0.4129
  430TMC3    H1 6417   1.811   2.628  17.277 -0.0509 -0.5522 -0.6216
  430TMC3    H2 6418   1.924   2.969  17.041 -1.0495 -0.5006 -1.1394
  430TMC3    C7 6419   1.950   2.690  17.082 -1.1228  0.0101 -0.1658
  430TMC3    C8 6420   1.686   2.961  16.962  0.4437 -0.3662 -0.1691
  430TMC3    O1 6421   1.980   2.581  17.135  0.2749 -0.2769 -0.0925
  430TMC3    O2 6422   1.591   2.896  16.922  0.1407 -0.1816  0.0504
  431MPD2     C 6423   2.942   2.127  12.816  0.4414 -0.2752  0.5082
  431MPD2    C1 6424   2.959   2.220  12.705  0.1083 -0.5229 -0.4835
  431MPD2    C2 6425   2.972   2.177  12.576  0.1637  0.5981  0.1126
  431MPD2    C3 6426   2.974   2.042  12.549 -0.0483 -0.0480  0.2370
  431MPD2    C4 6427   2.942   1.948  12.649  0.5509  0.0800 -0.0200
  431MPD2    C5 6428   2.940   1.992  12.779 -0.4311  0.0628 -0.1045
  431MPD2     H 6429   2.986   2.246  12.494 -0.7473  0.5978 -0.0343
  431MPD2    H1 6430   2.932   1.843  12.626  0.4971  0.5502 -2.1863
  431MPD2    H2 6431   2.931   2.154  12.920  2.3402  2.3529 -0.0022
  431MPD2    H3 6432   2.914   1.923  12.858 -0.5989  0.5296  0.2512
  431MPD2     N 6433   2.971   2.003  12.418 -0.1963 -0.2849  0.1182
  431MPD2    H5 6434   2.937   1.910  12.398 -2.0598  0.1306  1.3411
  431MPD2    N1 6435   2.952   2.358  12.721  0.3130 -0.5913  0.1970
  431MPD2    H7 6436   2.984   2.417  12.645  0.1359  0.3471  0.8422
  432TMC3    C1 6437   2.936   2.011  12.187 -0.5797 -0.4618 -0.5506
  432TMC3    C2 6438   2.996   2.024  12.066 -0.1189 -0.1353 -0.5388
  432TMC3    C3 6439   2.938   1.968  11.960  0.0035  0.0764 -0.5690
  432TMC3    C4 6440   2.814   1.956  12.195 -0.0581 -0.2276  0.0106
  432TMC3    C5 6441   2.756   1.909  12.074 -0.0002 -0.1291  0.7297
  432TMC3    C6 6442   2.819   1.904  11.957 -0.1466 -0.2916 -0.4181
  432TMC3     C 6443   2.994   2.077  12.313 -0.0087 -0.1453  0.4976
  432TMC3     O 6444   3.068   2.171  12.298  0.0277 -0.5000 -0.3638
  432TMC3     H 6445   3.095   2.068  12.055  1.4583 -2.8363  2.7499
  432TMC3    H1 6446   2.745   1.980  12.275 -2.2122 -1.5010 -1.4697
  432TMC3    H2 6447   2.773   1.874  11.864 -1.2111 -0.5172  0.1771
  432TMC3    C7 6448   2.611   1.900  12.069 -0.0423  0.6255 -0.6169
  432TMC3    C8 6449   2.981   2.003  11.831 -0.2938  0.6110 -0.5955
  432TMC3    O1 6450   2.576   1.871  11.954 -0.1426 -0.4642 -0.4647
  432TMC3    O2 6451   2.901   1.992  11.739 -0.1834 -0.1559  0.5650
  433MPD2     C 6452   1.628   1.036  10.780 -0.5533 -0.1294  0.2601
  433MPD2    C1 6453   1.533   0.937  10.806  0.1141  0.2992  0.1859
  433MPD2    C2 6454   1.469   0.929  10.929 -0.8002 -0.3689  0.9048
  433MPD2    C3 6455   1.503   1.017  11.029 -0.1647 -0.3333 -0.1158
  433MPD2    C4 6456   1.607   1.113  11.003 -0.4897 -0.3914 -0.6258
  433MPD2    C5 6457   1.665   1.114  10.883 -0.4764 -0.2101 -0.4080
  433MPD2     H 6458   1.401   0.848  10.951  0.8619 -1.6836  1.2036
  433MPD2    H1 6459   1.635   1.186  11.078  0.3226 -0.9919 -0.3508
  433MPD2    H2 6460   1.679   1.048  10.686 -0.0650  0.0828  0.5535
  433MPD2    H3 6461   1.734   1.196  10.871  0.7855 -1.4104 -1.3940
  433MPD2     N 6462   1.451   1.001  11.158  0.0660 -1.0398  0.5107
  433MPD2    H5 6463   1.377   0.932  11.159 -0.0998 -0.8799 -0.8149
  433MPD2    N1 6464   1.498   0.846  10.705 -1.2272  0.0546  0.2549
  433MPD2    H7 6465   1.545   0.846  10.615 -3.8236 -2.8083 -1.1007
  434TMC3    C1 6466   1.428   0.633  10.618  0.2094  0.5973  0.7883
  434TMC3    C2 6467   1.430   0.512  10.677  0.3577 -0.1396  0.1193
  434TMC3    C3 6468   1.478   0.409  10.600  0.2295  0.1176 -0.4644
  434TMC3    C4 6469   1.451   0.652  10.486 -0.1833 -0.1714 -0.5389
  434TMC3    C5 6470   1.475   0.537  10.411  0.5005  0.8676  0.5949
  434TMC3    C6 6471   1.507   0.422  10.468  0.2651 -0.3572  0.9224
  434TMC3     C 6472   1.409   0.743  10.715  0.4191 -0.4564  0.6943
  434TMC3     O 6473   1.330   0.711  10.801  0.3688 -0.2918  0.2044
  434TMC3     H 6474   1.412   0.505  10.783  3.1223 -0.1001  0.6021
  434TMC3    H1 6475   1.449   0.752  10.443  2.4115 -0.0880 -0.4614
  434TMC3    H2 6476   1.515   0.333  10.408  0.6741  0.2594  0.0543
  434TMC3    C7 6477   1.432   0.556  10.273 -0.4527 -0.1791  0.4050
  434TMC3    C8 6478   1.549   0.302  10.666  0.3909  0.0602 -0.9308
  434TMC3    O1 6479   1.358   0.649  10.252  0.6995  0.0312 -0.2540
  434TMC3    O2 6480   1.512   0.274  10.778 -0.1248  0.0359 -0.0347
  435MPD2     C 6481   3.522   1.000  15.327  0.7525 -0.9266  0.0271
  435MPD2    C1 6482   3.513   1.010  15.465  0.2535  0.4065 -0.0335
  435MPD2    C2 6483   3.620   0.986  15.548 -0.3743  0.0656  0.3479
  435MPD2    C3 6484   3.741   0.950  15.495  0.0433 -0.3822 -0.4725
  435MPD2    C4 6485   3.750   0.953  15.357  0.2364 -0.5334  0.5135
  435MPD2    C5 6486   3.644   0.987  15.274  0.7477  0.6696  0.6151
  435MPD2     H 6487   3.597   0.982  15.654  0.3934  0.7753  0.5449
  435MPD2    H1 6488   3.834   0.938  15.290  1.4911 -0.4019  2.0281
  435MPD2    H2 6489   3.446   1.005  15.249 -0.1177 -2.8362  0.7515
  435MPD2    H3 6490   3.655   1.011  15.169 -0.3807 -0.3405  0.2667
  435MPD2     N 6491   3.845   0.893  15.568 -0.7911  0.1364  0.0338
  435MPD2    H5 6492   3.827   0.872  15.665 -1.5567 -0.3327 -0.2087
  435MPD2    N1 6493   3.383   1.038  15.524  0.3554 -0.5138 -0.0776
  435MPD2    H7 6494   3.385   1.034  15.626  0.2752 -0.2867 -0.0645
  436TMC3    C1 6495   3.058   1.112  15.750 -0.4195 -0.2507 -0.0169
  436TMC3    C2 6496   3.166   1.125  15.666  0.2030  0.2584 -0.2603
  436TMC3    C3 6497   3.157   1.077  15.538 -0.3650  0.2164 -0.0207
  436TMC3    C4 6498   2.940   1.064  15.694 -0.0554  0.3125 -0.2858
  436TMC3    C5 6499   2.929   1.035  15.560  1.1364  0.3909  0.2426
  436TMC3    C6 6500   3.042   1.045  15.478  0.0608 -0.2009 -0.3472
  436TMC3     C 6501   3.075   1.101  15.897  0.2127 -0.0415  0.4345
  436TMC3     O 6502   3.187   1.101  15.945  0.6910 -0.5357  0.1778
  436TMC3     H 6503   3.261   1.158  15.705  0.0377  2.0404 -1.3396
  436TMC3    H1 6504   2.846   1.043  15.744  0.6280  0.4458  1.0479
  436TMC3    H2 6505   3.038   1.010  15.376 -3.3370  0.1513 -0.3490
  436TMC3    C7 6506   2.802   1.013  15.501  0.4365 -0.1749 -0.9974
  436TMC3    C8 6507   3.268   1.059  15.456  0.2896  0.1912  0.1522
  436TMC3    O1 6508   2.711   1.065  15.569 -0.3858 -0.4971  0.0194
  436TMC3    O2 6509   3.249   1.060  15.333  0.4290  0.2406 -0.0782
  437TMC3    C1 6510   1.942   3.041  12.548  1.0464  0.3646 -0.2091
  437TMC3    C2 6511   1.826   3.099  12.585  1.1795 -0.8999  0.0699
  437TMC3    C3 6512   1.800   3.221  12.529  0.2077 -0.5516 -0.3011
  437TMC3    C4 6513   2.024   3.094  12.445 -0.1080 -0.5134  0.1710
  437TMC3    C5 6514   1.984   3.211  12.380  0.2419  0.1379  0.0344
  437TMC3    C6 6515   1.872   3.276  12.425  0.4534  0.2457 -0.1479
  437TMC3     C 6516   2.013   2.945  12.635 -0.6118  0.4686  0.5171
  437TMC3     O 6517   2.128   2.922  12.602  0.1305  0.7270 -0.2760
  437TMC3     H 6518   1.761   3.050  12.657 -0.0956 -0.0128 -0.4759
  437TMC3    H1 6519   2.112   3.042  12.411  0.8180  0.9149  0.3921
  437TMC3    H2 6520   1.835   3.368  12.382 -2.0540 -0.7196 -0.0542
  437TMC3    C7 6521   2.061   3.286  12.283 -0.2546 -0.2147 -0.8063
  437TMC3    C8 6522   1.685   3.286  12.576 -0.2259 -0.1420 -0.2962
  437TMC3    O1 6523   1.994   3.350  12.203 -0.3521  0.6015 -0.3885
  437TMC3    O2 6524   1.636   3.232  12.675  0.0946  0.5183 -0.4004
  438MPD2     C 6525   4.391   4.019  16.744  0.4876  0.2947  0.0766
  438MPD2    C1 6526   4.412   3.911  16.836  0.2513  0.6842 -0.4950
  438MPD2    C2 6527   4.340   3.917  16.950  0.1165 -0.3222  0.1076
  438MPD2    C3 6528   4.256   4.030  16.980 -0.3428 -0.1831 -0.2003
  438MPD2    C4 6529   4.244   4.133  16.888 -0.0630  0.3959  0.3254
  438MPD2    C5 6530   4.304   4.113  16.771  0.2472 -0.0442 -0.1116
  438MPD2     H 6531   4.351   3.842  17.028  1.1323  0.9028  1.1320
  438MPD2    H1 6532   4.181   4.221  16.900  0.6012  0.7593  1.1882
  438MPD2    H2 6533   4.432   4.030  16.645  2.4023 -0.3832  0.8047
  438MPD2    H3 6534   4.295   4.180  16.686 -2.1893  0.2506  0.3677
  438MPD2     N 6535   4.191   4.046  17.103  0.4462  0.5119  0.8786
  438MPD2    H5 6536   4.121   4.119  17.103 -1.2946 -1.1282 -0.5781
  438MPD2    N1 6537   4.497   3.797  16.812  0.1629 -0.1168  0.0290
  438MPD2    H7 6538   4.513   3.737  16.892 -0.3338 -0.0690  0.1640
  439TMC3    C1 6539   4.661   3.663  16.696  0.2678  0.2223  0.3145
  439TMC3    C2 6540   4.700   3.607  16.573  0.5777  0.4012  0.5579
  439TMC3    C3 6541   0.084   3.525  16.568  0.8133 -0.1974  0.0024
  439TMC3    C4 6542   0.005   3.636  16.818 -0.0595 -0.3814 -0.0856
  439TMC3    C5 6543   0.122   3.562  16.805  0.4084  0.5026  0.1254
  439TMC3    C6 6544   0.162   3.504  16.681 -0.1611  0.2427  0.1799
  439TMC3     C 6545   4.568   3.778  16.695 -0.1382  0.2027 -1.2127
  439TMC3     O 6546   4.547   3.827  16.590  0.0366 -0.5304  0.0341
  439TMC3     H 6547   4.653   3.645  16.482 -2.9033 -1.2510  1.6704
  439TMC3    H1 6548   4.695   3.691  16.905 -0.3456  0.3064 -0.6252
  439TMC3    H2 6549   0.249   3.440  16.670 -0.2452  0.4083 -1.4883
  439TMC3    C7 6550   0.223   3.568  16.913  0.1073  0.8180 -0.0269
  439TMC3    C8 6551   0.127   3.444  16.454  0.4179  0.1967  0.6832
  439TMC3    O1 6552   0.336   3.527  16.888 -0.4746  0.1538  0.6450
  439TMC3    O2 6553   0.226   3.369  16.460 -0.1624  0.4861 -0.0809
  440MPD2     C 6554   3.349   4.200  14.644  0.4528  1.2021  0.5571
  440MPD2    C1 6555   3.381   4.273  14.759 -0.2345  0.5209  0.3613
  440MPD2    C2 6556   3.509   4.266  14.810  0.7460 -0.3114  0.5679
  440MPD2    C3 6557   3.600   4.181  14.750 -0.1017  0.0314  0.2435
  440MPD2    C4 6558   3.562   4.093  14.651  0.4560  0.1553  0.1078
  440MPD2    C5 6559   3.440   4.112  14.589  0.2163  0.3773 -0.3672
  440MPD2     H 6560   3.523   4.315  14.905  1.1428  2.5619 -0.9594
  440MPD2    H1 6561   3.641   4.033  14.606  1.3236  0.7488  0.8256
  440MPD2    H2 6562   3.244   4.209  14.619  0.5102  0.1935 -0.0604
  440MPD2    H3 6563   3.411   4.049  14.506 -1.3568  1.1739 -0.4182
  440MPD2     N 6564   3.731   4.169  14.802  0.4576 -0.3597 -0.6624
  440MPD2    H5 6565   3.778   4.084  14.773  3.5066  1.2896 -0.5718
  440MPD2    N1 6566   3.276   4.342  14.828 -0.4290 -0.6384 -0.2145
  440MPD2    H7 6567   3.291   4.364  14.926  1.7449  0.2286 -0.7454
  441TMC3    C1 6568   3.932   4.208  14.910 -0.2476 -0.1831  0.2827
  441TMC3    C2 6569   4.013   4.313  14.949  0.5589  0.0279 -0.0659
  441TMC3    C3 6570   4.063   4.317  15.078 -0.0411  0.2173  0.1462
  441TMC3    C4 6571   3.908   4.103  14.995 -0.3512  0.3849  0.0330
  441TMC3    C5 6572   3.947   4.118  15.130  0.0671 -0.7864  0.1493
  441TMC3    C6 6573   4.036   4.214  15.167 -0.0142  0.1892  0.5306
  441TMC3     C 6574   3.809   4.257  14.865  0.1141 -0.5268 -0.2298
  441TMC3     O 6575   3.770   4.362  14.916 -0.6004 -0.0950  0.3032
  441TMC3     H 6576   4.034   4.394  14.880  1.6602  0.5514  0.8807
  441TMC3    H1 6577   3.836   4.025  14.971  0.1291 -0.1536  0.3697
  441TMC3    H2 6578   4.061   4.218  15.273  0.1502 -1.6297  0.5673
  441TMC3    C7 6579   3.901   4.018  15.226  0.1012 -0.2284  0.2156
  441TMC3    C8 6580   4.055   4.445  15.133  0.0718 -0.4324  0.7838
  441TMC3    O1 6581   3.806   3.954  15.192 -0.0524 -0.0959  0.2930
  441TMC3    O2 6582   4.139   4.476  15.216 -0.1695  0.1491 -0.0231
  442MPD2     C 6583   1.470   0.114  15.993 -0.1250  0.6582  0.7095
  442MPD2    C1 6584   1.339   0.071  15.977  0.1570 -0.7541  0.3427
  442MPD2    C2 6585   1.309   4.668  15.920 -0.8039  0.5047  0.4773
  442MPD2    C3 6586   1.414   4.586  15.884  0.4217 -0.1181 -0.6612
  442MPD2    C4 6587   1.538   4.629  15.912  0.9886 -0.2277  0.0849
  442MPD2    C5 6588   1.571   0.026  15.974 -0.5913 -0.4604 -0.2763
  442MPD2     H 6589   1.207   4.638  15.900 -0.5190 -1.7303  2.3362
  442MPD2    H1 6590   1.616   4.558  15.887  0.0131 -1.4346  0.4662
  442MPD2    H2 6591   1.502   0.209  16.035  0.0185  0.1712  1.7137
  442MPD2    H3 6592   1.668   0.051  16.014 -1.0787 -1.7718  1.7244
  442MPD2     N 6593   1.407   4.460  15.815  0.2942 -0.4755  0.0206
  442MPD2    H5 6594   1.497   4.416  15.795  1.8185  1.4576  2.6259
  442MPD2    N1 6595   1.231   0.158  16.008  0.5328  0.7347 -0.1242
  442MPD2    H7 6596   1.136   0.142  15.978  0.7705  0.7432 -0.8975
  443TMC3    C1 6597   1.119   0.338  16.099 -0.2749 -0.6757 -0.2178
  443TMC3    C2 6598   1.054   0.368  15.980  0.1372 -0.1777  0.6480
  443TMC3    C3 6599   0.927   0.425  15.988  0.3840  0.5236 -0.2790
  443TMC3    C4 6600   1.067   0.359  16.222 -0.2581 -0.6318  0.4498
  443TMC3    C5 6601   0.934   0.406  16.224  0.4649  0.0285  0.4906
  443TMC3    C6 6602   0.863   0.438  16.108 -0.1716  0.0427 -0.6689
  443TMC3     C 6603   1.245   0.266  16.095  0.5453 -0.1274  1.0014
  443TMC3     O 6604   1.335   0.301  16.170  0.0642  1.0612 -0.5160
  443TMC3     H 6605   1.092   0.336  15.884  0.6207 -1.7788  1.3529
  443TMC3    H1 6606   1.119   0.332  16.313 -0.1813  1.2357  0.9511
  443TMC3    H2 6607   0.757   0.459  16.116 -0.5039 -1.3576 -1.4570
  443TMC3    C7 6608   0.857   0.326  16.320 -0.6782  0.6950 -0.0477
  443TMC3    C8 6609   0.839   0.393  15.876  0.6410  0.2707 -0.0774
  443TMC3    O1 6610   0.764   0.257  16.282  0.5546 -0.1802 -0.4089
  443TMC3    O2 6611   0.768   0.303  15.900 -0.3066 -0.3055 -0.0780
  444MPD2     C 6612   1.502   4.148  16.448  0.5311  0.2448 -0.9022
  444MPD2    C1 6613   1.520   4.169  16.581 -0.3567  0.2166 -0.1687
  444MPD2    C2 6614   1.629   4.118  16.643  0.8366  0.3602 -0.7908
  444MPD2    C3 6615   1.716   4.041  16.577 -0.3944 -0.8932  0.6418
  444MPD2    C4 6616   1.709   4.033  16.441  0.4470  0.7009  0.7405
  444MPD2    C5 6617   1.597   4.078  16.382  0.5280 -0.5590  0.1731
  444MPD2     H 6618   1.641   4.127  16.750 -0.6900  2.2624 -0.7798
  444MPD2    H1 6619   1.770   3.968  16.379 -0.6290 -1.0396  1.4845
  444MPD2    H2 6620   1.427   4.182  16.378  2.1178 -0.1707 -2.7958
  444MPD2    H3 6621   1.583   4.064  16.275 -0.0940 -0.9490  0.3026
  444MPD2     N 6622   1.830   3.990  16.641  0.1555 -0.2955  0.0566
  444MPD2    H5 6623   1.820   3.964  16.739  4.0588  0.7857  0.7584
  444MPD2    N1 6624   1.431   4.247  16.663 -0.0354  0.4480 -0.2403
  444MPD2    H7 6625   1.457   4.267  16.759 -1.0936  0.8131 -0.0190
  445TMC3    C1 6626   1.978   3.804  16.637  0.4118 -1.1131  0.5954
  445TMC3    C2 6627   1.940   3.766  16.760  0.5322 -0.2361 -0.1240
  445TMC3    C3 6628   1.967   3.642  16.799  1.2231 -0.5697  0.4909
  445TMC3    C4 6629   2.044   3.721  16.554  0.1319 -0.3761  0.3574
  445TMC3    C5 6630   2.065   3.594  16.601 -0.1298  0.0288  0.6912
  445TMC3    C6 6631   2.025   3.547  16.718 -0.4555  0.6454  0.1366
  445TMC3     C 6632   1.940   3.929  16.574  0.3496 -0.8479  0.0701
  445TMC3     O 6633   1.993   3.959  16.466  0.4755 -0.0860  0.2420
  445TMC3     H 6634   1.897   3.839  16.827  1.3114  1.1403 -1.1057
  445TMC3    H1 6635   2.085   3.750  16.458 -2.6491  0.9367 -0.4439
  445TMC3    H2 6636   2.043   3.445  16.750  1.6240  0.2869 -2.1266
  445TMC3    C7 6637   2.178   3.524  16.543 -0.2579  0.0723  0.3242
  445TMC3    C8 6638   1.942   3.607  16.939  0.8690  0.3195  0.4513
  445TMC3    O1 6639   2.186   3.537  16.423  0.4015 -0.2062  0.1905
  445TMC3    O2 6640   1.940   3.486  16.959  0.1613 -0.0755  0.3275
  446MPD2     C 6641   1.558   0.585  11.159 -0.1185 -0.4387 -0.0579
  446MPD2    C1 6642   1.562   0.505  11.047 -0.8498 -0.0369  0.4510
  446MPD2    C2 6643   1.673   0.493  10.973 -0.6562  0.0871 -1.0203
  446MPD2    C3 6644   1.786   0.565  11.008  0.1666  0.0060 -0.4256
  446MPD2    C4 6645   1.790   0.637  11.123 -0.4032 -1.0427  0.4916
  446MPD2    C5 6646   1.672   0.650  11.195  0.4664 -0.0741  0.2862
  446MPD2     H 6647   1.674   0.429  10.885  1.7200 -1.8364  0.4102
  446MPD2    H1 6648   1.877   0.700  11.137 -0.5595  0.0541 -3.4803
  446MPD2    H2 6649   1.477   0.594  11.230 -0.3539 -0.2944 -0.3462
  446MPD2    H3 6650   1.673   0.695  11.294 -2.1575  1.2894 -0.3430
  446MPD2     N 6651   1.896   0.573  10.925  0.1147 -0.0738  0.1382
  446MPD2    H5 6652   1.983   0.614  10.955 -1.2657  0.7090  3.0517
  446MPD2    N1 6653   1.457   0.414  11.010  0.0966  0.8208  0.2931
  446MPD2    H7 6654   1.486   0.345  10.942 -1.0971  1.6528 -1.0611
  447TMC3    C1 6655   2.016   0.494  10.747  0.4841 -0.5097  0.3397
  447TMC3    C2 6656   2.030   0.481  10.612  0.5542  0.0764  0.0023
  447TMC3    C3 6657   2.159   0.436  10.574  0.6344  0.1872 -0.1661
  447TMC3    C4 6658   2.106   0.449  10.840 -0.0271 -0.3951  0.7103
  447TMC3    C5 6659   2.229   0.403  10.794 -0.0201 -0.2361  0.1992
  447TMC3    C6 6660   2.259   0.397  10.660  0.4117 -0.1986 -0.0468
  447TMC3     C 6661   1.887   0.532  10.794  0.0502 -0.6417 -0.0486
  447TMC3     O 6662   1.788   0.550  10.722 -0.2530 -0.2184 -0.2812
  447TMC3     H 6663   1.971   0.548  10.551 -0.4428  0.5779  1.5145
  447TMC3    H1 6664   2.074   0.427  10.942 -1.7517 -0.7739  0.0761
  447TMC3    H2 6665   2.360   0.389  10.620  0.4436  1.3579 -0.2780
  447TMC3    C7 6666   2.345   0.382  10.880 -0.1055  0.5293 -0.4790
  447TMC3    C8 6667   2.186   0.477  10.434 -0.7347 -0.2635 -0.7962
  447TMC3    O1 6668   2.434   0.302  10.842  0.2142  0.2048  0.3402
  447TMC3    O2 6669   2.086   0.512  10.368  0.4953 -0.0625 -0.7283
  448TMC3    C1 6670   0.579   0.671  17.158  0.4006 -0.0097 -1.3633
  448TMC3    C2 6671   0.524   0.570  17.080 -0.0163 -0.4037  0.0636
  448TMC3    C3 6672   0.412   0.520  17.140 -0.0344  0.3130  0.0205
  448TMC3    C4 6673   0.543   0.699  17.281 -0.0510 -0.0073 -0.0105
  448TMC3    C5 6674   0.436   0.639  17.342 -0.2291  0.6749 -0.5451
  448TMC3    C6 6675   0.367   0.554  17.264  0.2169  0.2700  0.5050
  448TMC3     C 6676   0.686   0.751  17.102 -0.9389  0.1387  0.8179
  448TMC3     O 6677   0.719   0.845  17.173  1.0816 -1.0270  0.5465
  448TMC3     H 6678   0.554   0.551  16.978  0.9391 -1.9918  0.6408
  448TMC3    H1 6679   0.589   0.780  17.336 -1.0305 -0.3779  1.3617
  448TMC3    H2 6680   0.272   0.510  17.294 -1.0496  1.8923 -1.0753
  448TMC3    C7 6681   0.378   0.686  17.466 -0.0813 -0.3558 -0.0229
  448TMC3    C8 6682   0.346   0.415  17.060  0.3004 -0.1152  0.4244
  448TMC3    O1 6683   0.437   0.781  17.513  0.1517  0.0037  0.0663
  448TMC3    O2 6684   0.420   0.336  16.999 -0.0828 -0.2909 -0.5886
  449MPD2     C 6685   0.929   3.588  13.721  0.0502 -0.1438  0.6002
  449MPD2    C1 6686   0.830   3.548  13.643 -0.0328 -0.1150 -0.7670
  449MPD2    C2 6687   0.753   3.443  13.683  0.0132  0.2593  0.1452
  449MPD2    C3 6688   0.768   3.390  13.807  0.4095  0.1549  0.2584
  449MPD2    C4 6689   0.859   3.449  13.901 -0.2109 -0.5027  0.1810
  449MPD2    C5 6690   0.935   3.551  13.854  0.2133 -0.3093 -1.2176
  449MPD2     H 6691   0.668   3.414  13.622  0.0907  2.5606 -1.0492
  449MPD2    H1 6692   0.875   3.410  14.001 -0.7408 -0.4702  0.2783
  449MPD2    H2 6693   1.004   3.660  13.690 -1.5979  0.0398 -2.9378
  449MPD2    H3 6694   1.004   3.603  13.919 -1.3267 -0.6977  0.7346
  449MPD2     N 6695   0.697   3.270  13.832 -0.0027  0.0295  0.4545
  449MPD2    H5 6696   0.639   3.235  13.756 -0.0858 -1.6354  1.2853
  449MPD2    N1 6697   0.808   3.595  13.508  0.5647 -0.4100 -0.7957
  449MPD2    H7 6698   0.730   3.550  13.461  1.1252 -1.4375 -0.7381
  450TMC3    C1 6699   0.851   3.647  13.287  0.1023  0.0191 -0.0633
  450TMC3    C2 6700   0.945   3.575  13.216  0.4788  0.1164 -0.0570
  450TMC3    C3 6701   0.892   3.493  13.121 -0.3364 -0.2981  0.6153
  450TMC3    C4 6702   0.715   3.619  13.277 -0.2564 -0.2271 -0.2619
  450TMC3    C5 6703   0.666   3.527  13.187 -0.1398 -0.5410 -0.5049
  450TMC3    C6 6704   0.758   3.464  13.109 -0.2381  0.8543 -0.7912
  450TMC3     C 6705   0.892   3.667  13.430 -0.6562  0.5103  0.3780
  450TMC3     O 6706   1.003   3.711  13.454  0.1189  0.1666  0.0684
  450TMC3     H 6707   1.049   3.594  13.241  0.1200 -0.1341  1.6692
  450TMC3    H1 6708   0.645   3.678  13.334  0.4906 -0.1981  0.6164
  450TMC3    H2 6709   0.725   3.401  13.028  1.5364 -0.5231 -0.4418
  450TMC3    C7 6710   0.570   3.446  13.250 -0.4429 -0.6560  0.9178
  450TMC3    C8 6711   0.973   3.386  13.079 -0.4106 -0.0224 -0.2950
  450TMC3    O1 6712   0.567   3.469  13.370 -0.2547 -0.0017  0.3326
  450TMC3    O2 6713   0.913   3.280  13.059 -0.2054  0.2740  0.0859
  451MPD2     C 6714   1.470   1.426   0.839 -0.1706  0.2095  0.6375
  451MPD2    C1 6715   1.535   1.519   0.754  0.4200 -1.0785 -0.4551
  451MPD2    C2 6716   1.641   1.475   0.675 -0.0397 -0.1757  0.1375
  451MPD2    C3 6717   1.685   1.345   0.695 -0.1599 -1.3629 -0.3800
  451MPD2    C4 6718   1.627   1.263   0.790  0.1086  0.0061  0.6507
  451MPD2    C5 6719   1.511   1.299   0.853 -0.0374  0.4101  0.1515
  451MPD2     H 6720   1.695   1.536   0.603 -0.8859  0.8668  0.3892
  451MPD2    H1 6721   1.663   1.161   0.802 -2.7852 -1.1038  0.1091
  451MPD2    H2 6722   1.384   1.461   0.896 -1.5497 -1.4507 -0.4049
  451MPD2    H3 6723   1.462   1.239   0.929 -0.4333  1.1509  0.4876
  451MPD2     N 6724   1.785   1.278   0.627 -1.0132  0.0781  0.7528
  451MPD2    H5 6725   1.806   1.185   0.660 -0.7048  0.5049  1.7723
  451MPD2    N1 6726   1.500   1.662   0.756  0.4577  0.2036  0.0252
  451MPD2    H7 6727   1.427   1.686   0.822 -0.6406  2.7279 -2.0832
  452TMC3    C1 6728   1.993   1.244   0.529  0.1117 -0.4561  0.1689
  452TMC3    C2 6729   1.995   1.129   0.604  0.6239  0.3290 -0.0469
  452TMC3    C3 6730   2.113   1.093   0.671 -0.5937 -0.6516  0.2301
  452TMC3    C4 6731   2.109   1.310   0.498 -0.5610 -0.1645  0.4295
  452TMC3    C5 6732   2.220   1.274   0.569 -0.3211 -0.0219 -0.7494
  452TMC3    C6 6733   2.226   1.177   0.660  0.1796  0.2512 -0.0985
  452TMC3     C 6734   1.882   1.336   0.543 -0.4462  0.1841 -1.0217
  452TMC3     O 6735   1.897   1.449   0.492  0.2285 -0.6000 -0.6990
  452TMC3     H 6736   1.907   1.065   0.605  0.1779  0.9166 -2.4284
  452TMC3    H1 6737   2.102   1.404   0.445 -1.9601 -0.6026 -0.1700
  452TMC3    H2 6738   2.319   1.158   0.712 -0.2825  2.1014  1.4064
  452TMC3    C7 6739   2.298   1.392   0.594 -0.0156  0.6111 -0.1083
  452TMC3    C8 6740   2.080   1.018   0.799  0.2366 -0.2883 -0.7733
  452TMC3    O1 6741   2.323   1.413   0.708  0.4995 -0.0464  0.2089
  452TMC3    O2 6742   1.965   0.975   0.814  0.3575 -0.1487  0.1622
  453TMC3    C1 6743   3.523   4.450  11.550 -0.4946 -0.0952  0.2267
  453TMC3    C2 6744   3.420   4.365  11.594  0.1907 -0.4338  0.2758
  453TMC3    C3 6745   3.390   4.266  11.505  0.2283 -0.7073 -0.5032
  453TMC3    C4 6746   3.589   4.439  11.427  0.5770  0.4845  0.3240
  453TMC3    C5 6747   3.545   4.338  11.343  0.2998 -0.0499  0.9037
  453TMC3    C6 6748   3.445   4.257  11.386  0.1497 -0.9918  0.2460
  453TMC3     C 6749   3.589   4.532  11.645  0.1318 -0.4093 -0.0225
  453TMC3     O 6750   3.699   4.572  11.608 -0.0090  0.5408 -0.5289
  453TMC3     H 6751   3.382   4.362  11.695  0.0437  0.0992  0.2370
  453TMC3    H1 6752   3.665   4.507  11.393  0.8257  0.2366  0.3876
  453TMC3    H2 6753   3.420   4.175  11.320 -1.3753 -0.5060  0.2013
  453TMC3    C7 6754   3.640   4.271  11.255 -0.2290 -0.1204 -0.7514
  453TMC3    C8 6755   3.348   4.138  11.568  0.1783 -0.4971 -0.0719
  453TMC3    O1 6756   3.619   4.157  11.219 -0.4364 -0.1369 -0.2670
  453TMC3    O2 6757   3.258   4.148  11.652 -0.1437  0.0670 -0.2186
  454MPD2     C 6758   2.421   3.763  16.278 -0.2094 -0.1285  0.0213
  454MPD2    C1 6759   2.448   3.868  16.187 -0.7631 -0.0480  0.4266
  454MPD2    C2 6760   2.434   3.991  16.229  0.0060 -0.4611 -0.4597
  454MPD2    C3 6761   2.375   4.014  16.351 -0.4632 -0.4438 -0.1256
  454MPD2    C4 6762   2.360   3.912  16.445 -0.5952 -0.4585 -0.3358
  454MPD2    C5 6763   2.396   3.789  16.404 -0.3460 -0.3661  0.2718
  454MPD2     H 6764   2.428   4.065  16.150  1.4411 -0.3661 -0.4757
  454MPD2    H1 6765   2.312   3.919  16.543 -0.2918  2.3458 -0.3851
  454MPD2    H2 6766   2.417   3.659  16.249  0.0328 -0.9895  3.0834
  454MPD2    H3 6767   2.377   3.700  16.464  1.8772  0.4619  2.1996
  454MPD2     N 6768   2.316   4.141  16.384 -0.0455  0.1547 -0.2602
  454MPD2    H5 6769   2.257   4.139  16.467 -0.0296 -0.8448 -0.2710
  454MPD2    N1 6770   2.454   3.842  16.044  0.0412  0.0554  0.8414
  454MPD2    H7 6771   2.457   3.921  15.981 -1.5681  0.1946  0.9524
  455TMC3    C1 6772   2.155   4.285  16.305 -0.6999 -0.3661  0.5427
  455TMC3    C2 6773   2.109   4.314  16.425 -0.2742  1.2133 -0.1332
  455TMC3    C3 6774   1.974   4.313  16.434 -0.1068 -0.7663  0.1002
  455TMC3    C4 6775   2.075   4.263  16.190 -0.4486 -0.3575  0.4798
  455TMC3    C5 6776   1.937   4.256  16.204 -0.7462  0.5121 -0.3038
  455TMC3    C6 6777   1.893   4.266  16.335  0.3331  0.2845 -0.0671
  455TMC3     C 6778   2.291   4.242  16.293  0.0778  0.0806  0.0731
  455TMC3     O 6779   2.349   4.263  16.188 -0.0842 -0.0694 -0.1854
  455TMC3     H 6780   2.168   4.338  16.513  1.0557  0.6027 -0.8623
  455TMC3    H1 6781   2.116   4.262  16.089 -0.5314 -1.3362  0.4586
  455TMC3    H2 6782   1.787   4.251  16.349  0.5686 -2.2793 -1.0463
  455TMC3    C7 6783   1.899   4.143  16.125  0.2761  0.1170 -0.0736
  455TMC3    C8 6784   1.907   4.374  16.551  0.2629 -0.6387 -0.4412
  455TMC3    O1 6785   1.793   4.144  16.063  1.1159 -0.1197  1.1169
  455TMC3    O2 6786   1.954   4.341  16.659 -0.7365  0.8173  0.4767
  456MPD2     C 6787   4.634   4.021  16.150  0.2836  0.3803 -0.4568
  456MPD2    C1 6788   0.008   3.953  16.223  0.3138 -0.1618 -0.0305
  456MPD2    C2 6789   0.047   3.996  16.348  0.0965  0.1497  0.2827
  456MPD2    C3 6790   4.719   4.110  16.394 -0.1607 -0.2048 -0.8048
  456MPD2    C4 6791   4.630   4.183  16.319  0.0772 -0.2225  0.1753
  456MPD2    C5 6792   4.582   4.139  16.197 -0.1809 -0.0971 -0.7474
  456MPD2     H 6793   0.116   3.934  16.403  1.0862  1.7152  0.8260
  456MPD2    H1 6794   4.601   4.282  16.354 -1.0898 -0.2411 -0.7101
  456MPD2    H2 6795   4.627   3.994  16.045 -1.1989 -1.2214  0.0577
  456MPD2    H3 6796   4.513   4.192  16.133  0.1563  1.8510  0.4679
  456MPD2     N 6797   0.057   4.156  16.516  1.0836  0.0314 -0.0975
  456MPD2    H5 6798   0.108   4.094  16.578 -1.2735 -0.0803  1.7620
  456MPD2    N1 6799   0.065   3.848  16.152 -0.2030 -0.3776  0.2746
  456MPD2    H7 6800   0.039   3.841  16.054 -1.2540 -0.3477  0.5472
  457TMC3    C1 6801   0.131   4.328  16.674 -0.4210  0.1567 -0.1092
  457TMC3    C2 6802   0.167   4.464  16.684  0.4170 -0.2210  0.5111
  457TMC3    C3 6803   0.153   4.521  16.808  0.0846 -0.1268  0.9431
  457TMC3    C4 6804   0.092   4.248  16.783  0.0631 -0.8249  0.3238
  457TMC3    C5 6805   0.054   4.322  16.897 -0.0177 -0.2161  0.6670
  457TMC3    C6 6806   0.095   4.455  16.911  0.7187  0.1472  0.7047
  457TMC3     C 6807   0.058   4.292  16.546  0.0931 -0.4565  0.2220
  457TMC3     O 6808   0.048   4.386  16.468  0.0361 -0.4402  0.2304
  457TMC3     H 6809   0.189   4.529  16.601 -2.2790  0.7874  0.6012
  457TMC3    H1 6810   0.046   4.151  16.768  0.5756 -0.8286 -1.1655
  457TMC3    H2 6811   0.086   4.501  17.008 -1.6332 -0.3033  0.7087
  457TMC3    C7 6812   0.003   4.242  17.010  0.4636 -0.0836  0.2771
  457TMC3    C8 6813   0.167   4.667  16.817 -0.6414 -0.0189  0.4337
  457TMC3    O1 6814   4.718   4.118  16.991 -0.0653  0.1201 -0.2813
  457TMC3    O2 6815   0.259   0.005  16.759 -0.5042  0.4178  0.2264
  458MPD2     C 6816   2.495   3.496  12.096  0.4453 -1.0592 -0.3772
  458MPD2    C1 6817   2.527   3.410  12.194 -0.0302 -1.0701 -0.3406
  458MPD2    C2 6818   2.428   3.320  12.243  0.1446 -0.2721 -0.3543
  458MPD2    C3 6819   2.300   3.333  12.203  0.3369  0.4351 -0.4887
  458MPD2    C4 6820   2.276   3.422  12.102  0.0410  0.4996  0.3491
  458MPD2    C5 6821   2.366   3.507  12.051 -0.3223 -0.4268 -0.0705
  458MPD2     H 6822   2.450   3.250  12.322 -4.9791 -2.0646 -0.5221
  458MPD2    H1 6823   2.178   3.424  12.055  0.5927  0.9571 -0.7659
  458MPD2    H2 6824   2.568   3.557  12.045 -2.8739  1.6578 -1.8747
  458MPD2    H3 6825   2.346   3.573  11.967  3.0680 -0.9149 -1.2582
  458MPD2     N 6826   2.198   3.274  12.290  0.2195  0.2770 -0.0417
  458MPD2    H5 6827   2.227   3.203  12.356  0.8650 -1.6116 -2.3629
  458MPD2    N1 6828   2.665   3.405  12.248  0.6262 -0.6823  0.7851
  458MPD2    H7 6829   2.736   3.468  12.212 -0.7232  0.0742 -0.5600
  459TMC3    C1 6830   2.867   3.345  12.366  0.3471  0.2849 -0.6185
  459TMC3    C2 6831   2.947   3.426  12.291  0.2731 -0.9194 -0.5844
  459TMC3    C3 6832   3.066   3.455  12.344  0.0977  0.7725 -0.0713
  459TMC3    C4 6833   2.911   3.292  12.483 -0.2172 -0.1910 -0.3712
  459TMC3    C5 6834   3.036   3.311  12.526 -0.6895 -0.3173  0.6012
  459TMC3    C6 6835   3.116   3.401  12.461 -0.0992  0.4467  0.0687
  459TMC3     C 6836   2.725   3.327  12.347 -0.3302  0.2561  0.5568
  459TMC3     O 6837   2.661   3.248  12.419 -0.0738  0.4649 -0.4335
  459TMC3     H 6838   2.911   3.462  12.195  0.4061 -0.2470 -0.3787
  459TMC3    H1 6839   2.848   3.225  12.540  3.3317 -1.9611  1.4582
  459TMC3    H2 6840   3.219   3.413  12.493 -0.1137  1.4988 -0.2643
  459TMC3    C7 6841   3.064   3.262  12.661 -0.1583 -0.6194  0.1041
  459TMC3    C8 6842   3.164   3.526  12.262 -0.2911  0.0962 -0.0029
  459TMC3    O1 6843   2.995   3.169  12.694  0.3026  0.3230 -0.0030
  459TMC3    O2 6844   3.285   3.507  12.276 -0.6567 -0.0619 -0.8242
  460MPD2     C 6845   2.498   0.481  10.249 -0.1110  0.2909 -0.0735
  460MPD2    C1 6846   2.363   0.512  10.278 -0.3662 -0.2298  0.3997
  460MPD2    C2 6847   2.297   0.589  10.180  1.0301 -0.5090 -0.4270
  460MPD2    C3 6848   2.365   0.644  10.068  0.2626 -0.1729 -0.6501
  460MPD2    C4 6849   2.500   0.612  10.052  0.3837 -0.3971 -0.0152
  460MPD2    C5 6850   2.563   0.528  10.143  0.1909  1.5047  0.0834
  460MPD2     H 6851   2.194   0.624  10.185  1.0123 -0.5995 -0.1316
  460MPD2    H1 6852   2.557   0.665   9.976 -1.8424  0.5838 -1.0094
  460MPD2    H2 6853   2.555   0.416  10.314  1.2157  0.6784 -0.8636
  460MPD2    H3 6854   2.665   0.497  10.127  0.3774  2.8405 -1.2715
  460MPD2     N 6855   2.286   0.733   9.980 -0.5265 -0.0152 -0.0120
  460MPD2    H5 6856   2.193   0.754  10.014 -0.6444  0.1506 -0.4403
  460MPD2    N1 6857   2.319   0.459  10.402 -0.0207 -0.1037  0.2451
  460MPD2    H7 6858   2.381   0.437  10.479  3.7899 -0.5331 -2.9862
  461TMC3    C1 6859   2.248   0.921   9.839  0.7357  0.3813  0.2061
  461TMC3    C2 6860   2.259   0.964   9.708  0.3993  0.3806  0.1183
  461TMC3    C3 6861   2.180   1.072   9.677  0.0279  0.9848 -0.4925
  461TMC3    C4 6862   2.164   0.979   9.931  0.4253  0.3663  0.5559
  461TMC3    C5 6863   2.079   1.079   9.896 -0.0543 -0.6623 -0.2779
  461TMC3    C6 6864   2.094   1.137   9.768  0.0168  0.1735 -0.0862
  461TMC3     C 6865   2.335   0.798   9.869 -0.3938 -0.3024 -0.1231
  461TMC3     O 6866   2.449   0.781   9.826 -0.0317  0.2803  0.1026
  461TMC3     H 6867   2.334   0.927   9.640 -1.5788 -0.0904 -1.7990
  461TMC3    H1 6868   2.161   0.935  10.030  0.7772 -0.4788  0.1885
  461TMC3    H2 6869   2.035   1.224   9.744 -0.2961 -0.4017 -1.3915
  461TMC3    C7 6870   2.000   1.146  10.000  0.5539 -0.5844 -0.2530
  461TMC3    C8 6871   2.183   1.124   9.545  0.4290  0.3709  0.1110
  461TMC3    O1 6872   1.993   1.268   9.991  0.1279  0.6698  0.0379
  461TMC3    O2 6873   2.289   1.125   9.480 -0.0669  0.2559  0.3726
  462TMC3    C1 6874   1.363   2.623   0.196  0.6330  0.7610  0.1767
  462TMC3    C2 6875   1.481   2.640   0.122 -0.5442 -0.0208  1.0250
  462TMC3    C3 6876   1.564   2.527   0.116  0.2689  0.6811 -0.2569
  462TMC3    C4 6877   1.340   2.503   0.260 -0.2731  0.8650 -0.2482
  462TMC3    C5 6878   1.432   2.399   0.260 -0.2841 -0.3586  0.5455
  462TMC3    C6 6879   1.551   2.411   0.190 -0.2612 -0.1756  1.1512
  462TMC3     C 6880   1.286   2.739   0.216 -0.4208  0.2522  0.0782
  462TMC3     O 6881   1.331   2.849   0.189 -0.4612 -0.2789  0.0601
  462TMC3     H 6882   1.504   2.738   0.083  0.0207  0.1842  1.8677
  462TMC3    H1 6883   1.248   2.488   0.315  1.0602 -1.5727  1.3015
  462TMC3    H2 6884   1.615   2.325   0.176 -2.3412 -1.4241 -0.6337
  462TMC3    C7 6885   1.406   2.272   0.316  0.2365 -0.3125  0.1665
  462TMC3    C8 6886   1.676   2.539   0.024 -0.1442  0.7596 -0.4882
  462TMC3    O1 6887   1.485   2.175   0.295  0.4989 -0.4419 -0.3320
  462TMC3    O2 6888   1.675   2.639  17.647  0.3829  0.4614  0.4703
  463MPD2     C 6889   2.841   0.284   1.880 -0.3336 -0.1217  0.5178
  463MPD2    C1 6890   2.725   0.295   1.808  0.6810  0.2107 -0.2940
  463MPD2    C2 6891   2.728   0.321   1.675 -0.9656  0.0040  0.4270
  463MPD2    C3 6892   2.845   0.333   1.606  0.2672  0.5377 -0.1456
  463MPD2    C4 6893   2.961   0.314   1.678  1.0076  0.0139  0.5059
  463MPD2    C5 6894   2.960   0.281   1.813 -0.7052 -0.3962 -0.2362
  463MPD2     H 6895   2.635   0.347   1.627  0.9792  0.4365 -3.1326
  463MPD2    H1 6896   3.053   0.317   1.621  0.7942 -0.1540  0.1521
  463MPD2    H2 6897   2.849   0.261   1.985 -0.2949 -1.1619  0.2833
  463MPD2    H3 6898   3.052   0.263   1.867 -0.0146 -1.1983 -1.6878
  463MPD2     N 6899   2.854   0.368   1.469 -0.7659 -0.2813  0.4177
  463MPD2    H5 6900   2.943   0.378   1.422 -0.4128 -0.6295  0.9978
  463MPD2    N1 6901   2.592   0.288   1.868 -0.1244 -0.5760 -0.2438
  463MPD2    H7 6902   2.509   0.286   1.809 -1.1803 -0.1289  1.2412
  464TMC3    C1 6903   2.427   0.262   2.027  0.6582 -0.0130  0.2930
  464TMC3    C2 6904   2.339   0.300   1.928 -0.3558 -0.0996  0.7361
  464TMC3    C3 6905   2.204   0.314   1.968  0.1053  0.2523 -0.2107
  464TMC3    C4 6906   2.388   0.224   2.153 -0.1669  0.3113  0.4980
  464TMC3    C5 6907   2.255   0.234   2.186  0.9918  0.0391  1.0845
  464TMC3    C6 6908   2.167   0.277   2.092 -0.0124 -0.2908  0.3311
  464TMC3     C 6909   2.573   0.266   2.002  0.3769  0.3172 -0.1711
  464TMC3     O 6910   2.642   0.265   2.107  0.5129  0.1618  0.0947
  464TMC3     H 6911   2.361   0.313   1.823 -1.9826 -2.1045  0.1449
  464TMC3    H1 6912   2.455   0.202   2.236 -1.1166  1.2312  1.5245
  464TMC3    H2 6913   2.064   0.279   2.125  0.6627 -0.3962  2.4648
  464TMC3    C7 6914   2.196   0.138   2.277 -1.1652 -0.1487 -1.3213
  464TMC3    C8 6915   2.109   0.301   1.855  0.6120 -0.2783 -0.2717
  464TMC3    O1 6916   2.173   0.174   2.391 -0.4210 -0.1357 -0.6038
  464TMC3    O2 6917   2.161   0.295   1.739 -0.1171 -0.1716 -0.1701
  465MPD2     C 6918   4.463   4.480  16.704 -0.1314 -0.0289 -0.1151
  465MPD2    C1 6919   4.352   4.456  16.781  0.1946 -0.0227 -0.1945
  465MPD2    C2 6920   4.232   4.417  16.718 -0.7801  0.1499 -0.6354
  465MPD2    C3 6921   4.221   4.406  16.578  0.6081  0.5969 -0.6117
  465MPD2    C4 6922   4.344   4.419  16.504  0.1111 -0.2060  0.2068
  465MPD2    C5 6923   4.464   4.458  16.570 -0.0707 -0.4191  0.5631
  465MPD2     H 6924   4.148   4.393  16.782 -0.5990  1.4295  0.0731
  465MPD2    H1 6925   4.339   4.420  16.396 -0.2473 -0.4011  0.2215
  465MPD2    H2 6926   4.553   4.521  16.748  0.3447 -0.5264 -0.6206
  465MPD2    H3 6927   4.556   4.483  16.518  0.0672  0.8335  1.4121
  465MPD2     N 6928   4.094   4.389  16.514 -0.0921 -0.5098 -0.4949
  465MPD2    H5 6929   4.014   4.382  16.576 -0.3858 -0.1009 -0.8305
  465MPD2    N1 6930   4.345   4.465  16.923 -0.2699 -0.2647 -1.2799
  465MPD2    H7 6931   4.251   4.459  16.961 -0.1069  0.7706 -0.7140
  466TMC3    C1 6932   3.725   4.247  16.385 -0.0598  0.0226 -0.0929
  466TMC3    C2 6933   3.681   4.302  16.265  0.6148 -0.3316  0.2022
  466TMC3    C3 6934   3.754   4.392  16.191 -0.0148 -0.5731  0.2051
  466TMC3    C4 6935   3.849   4.295  16.435 -0.0891 -0.1085 -0.2956
  466TMC3    C5 6936   3.915   4.388  16.359 -0.5272 -0.0113  0.7609
  466TMC3    C6 6937   3.878   4.426  16.234  0.5316 -0.1471 -0.6699
  466TMC3     C 6938   3.631   4.171  16.469 -0.2269  0.4560  0.6197
  466TMC3     O 6939   3.659   4.143  16.585  0.1103  0.9315 -0.1471
  466TMC3     H 6940   3.587   4.277  16.216  1.2928 -0.0552 -1.2570
  466TMC3    H1 6941   3.886   4.262  16.532 -1.1412  0.3411  0.2468
  466TMC3    H2 6942   3.933   4.498  16.174 -1.7528  0.9935 -1.3917
  466TMC3    C7 6943   4.058   4.396  16.383 -0.4096  0.2208  0.3109
  466TMC3    C8 6944   3.680   4.507  16.149 -1.2698 -0.1926 -0.2992
  466TMC3    O1 6945   4.133   4.422  16.286  0.2843 -0.0235 -0.1688
  466TMC3    O2 6946   3.569   4.490  16.103 -0.1161  0.4943 -0.5429
  467TMC3    C1 6947   4.685   2.785  13.571  0.6362  0.3529 -0.2946
  467TMC3    C2 6948   4.655   2.916  13.588 -0.4088  0.3604  0.7625
  467TMC3    C3 6949   4.543   2.965  13.536 -0.0007 -0.7822 -0.4566
  467TMC3    C4 6950   4.586   2.693  13.534  0.4274  0.7620 -0.3121
  467TMC3    C5 6951   4.466   2.745  13.516 -0.0053 -0.4594  0.0946
  467TMC3    C6 6952   4.441   2.879  13.505  0.0436 -0.1697 -0.2285
  467TMC3     C 6953   0.102   2.748  13.594 -0.8799  0.0034 -0.1188
  467TMC3     O 6954   0.176   2.843  13.624  0.5218 -0.0336  0.8377
  467TMC3     H 6955   0.020   2.978  13.605  0.4277 -1.0301  1.4642
  467TMC3    H1 6956   4.600   2.586  13.540 -3.4243  0.2253 -0.9056
  467TMC3    H2 6957   4.340   2.911  13.482 -0.0911 -0.9227 -0.6594
  467TMC3    C7 6958   4.344   2.660  13.499 -0.2017  0.0661 -0.0416
  467TMC3    C8 6959   4.564   3.077  13.445 -0.9729  0.2777 -0.0407
  467TMC3    O1 6960   4.352   2.561  13.430 -0.0527 -0.6954  0.3579
  467TMC3    O2 6961   4.666   3.146  13.465  0.4026  0.5948 -1.0774
  468MPD2     C 6962   3.660   0.362  10.371 -0.5379  0.2281  0.6181
  468MPD2    C1 6963   3.680   0.305  10.499  0.0128  0.7629 -0.1825
  468MPD2    C2 6964   3.697   0.168  10.509 -0.5134  0.8092  0.2474
  468MPD2    C3 6965   3.706   0.086  10.394 -0.5755  0.2409 -0.3897
  468MPD2    C4 6966   3.694   0.152  10.272 -0.1623 -0.1636  0.4735
  468MPD2    C5 6967   3.674   0.282  10.254  0.9513  0.4742  0.3984
  468MPD2     H 6968   3.718   0.117  10.602 -0.3707 -1.2894 -0.9464
  468MPD2    H1 6969   3.679   0.108  10.174 -1.9311  1.8102 -0.1422
  468MPD2    H2 6970   3.656   0.469  10.355 -0.6313  0.2271  0.6343
  468MPD2    H3 6971   3.669   0.326  10.155 -2.9325 -0.6049  0.0753
  468MPD2     N 6972   3.714   4.675  10.409  0.4336  0.4348  0.2682
  468MPD2    H5 6973   3.718   4.644  10.506 -3.0118 -1.3585 -0.1487
  468MPD2    N1 6974   3.689   0.378  10.623 -0.6658 -0.1260 -0.4621
  468MPD2    H7 6975   3.724   0.326  10.702  2.5676 -1.2345 -2.6328
  469TMC3    C1 6976   3.670   0.563  10.770  0.4809 -0.1048  0.5846
  469TMC3    C2 6977   3.787   0.535  10.833 -0.1688 -0.3044  0.2759
  469TMC3    C3 6978   3.814   0.603  10.945 -0.4735 -0.2220 -0.3901
  469TMC3    C4 6979   3.584   0.657  10.817 -0.0625 -0.2183  0.7286
  469TMC3    C5 6980   3.621   0.732  10.926 -1.0253  0.0646 -0.0128
  469TMC3    C6 6981   3.735   0.701  10.994  0.7972  0.0586 -0.9479
  469TMC3     C 6982   3.629   0.498  10.642  0.7200  0.2974  0.1451
  469TMC3     O 6983   3.544   0.557  10.577 -0.1028  0.2810  0.3817
  469TMC3     H 6984   3.854   0.467  10.782 -0.2557 -0.9170  0.9694
  469TMC3    H1 6985   3.496   0.681  10.758  1.5383  1.5553 -0.9412
  469TMC3    H2 6986   3.770   0.770  11.070 -0.6072  0.2706 -0.5015
  469TMC3    C7 6987   3.535   0.836  10.983  0.2272  0.5859 -0.5872
  469TMC3    C8 6988   3.961   0.595  10.980 -1.1024  0.3928 -0.0184
  469TMC3    O1 6989   3.437   0.877  10.919  0.8059 -0.3488 -0.0270
  469TMC3    O2 6990   4.027   0.513  10.921 -0.1024 -0.1424  0.1381
  470TMC3    C1 6991   0.468   0.903   0.472 -0.5209  0.1021 -0.7351
  470TMC3    C2 6992   0.459   1.040   0.479  0.7341  0.1367 -1.0027
  470TMC3    C3 6993   0.428   1.099   0.595  0.2559 -0.4645  0.8976
  470TMC3    C4 6994   0.455   0.819   0.579 -1.3196 -0.2189 -0.0685
  470TMC3    C5 6995   0.410   0.882   0.693 -0.3324 -0.2564 -0.9836
  470TMC3    C6 6996   0.405   1.021   0.706  0.2899 -0.7221  0.2621
  470TMC3     C 6997   0.484   0.847   0.337 -0.5038  0.1113  0.1995
  470TMC3     O 6998   0.533   0.920   0.251  0.1603  0.1709  0.0324
  470TMC3     H 6999   0.493   1.090   0.390 -2.1502  0.1090 -2.1341
  470TMC3    H1 7000   0.453   0.711   0.573 -1.9841 -0.2126  0.0243
  470TMC3    H2 7001   0.382   1.069   0.801  2.5549 -1.0236  0.9642
  470TMC3    C7 7002   0.417   0.804   0.818  0.2330 -0.4363  0.6546
  470TMC3    C8 7003   0.400   1.238   0.610  0.1501 -0.7627  0.5098
  470TMC3    O1 7004   0.456   0.863   0.916 -0.0404 -0.6136 -0.5214
  470TMC3    O2 7005   0.389   1.290   0.720 -0.5591 -0.4423  0.0169
  471MPD2     C 7006   1.847   3.083  16.488  0.0186  0.0983 -0.1851
  471MPD2    C1 7007   1.759   2.983  16.533 -0.1940  0.5080 -0.1508
  471MPD2    C2 7008   1.717   2.983  16.665 -0.2847 -0.2777 -0.5151
  471MPD2    C3 7009   1.772   3.065  16.757  0.0184  0.2324 -0.1878
  471MPD2    C4 7010   1.866   3.157  16.715 -0.8024  0.5348 -0.1854
  471MPD2    C5 7011   1.898   3.172  16.583 -0.1048  0.3191  0.1815
  471MPD2     H 7012   1.646   2.908  16.698 -0.1789  0.0408  0.4271
  471MPD2    H1 7013   1.913   3.227  16.782  0.5375 -1.0391  0.5338
  471MPD2    H2 7014   1.879   3.091  16.385 -0.6915  0.9750 -0.3362
  471MPD2    H3 7015   1.966   3.250  16.552 -0.8109  0.7385 -0.3108
  471MPD2     N 7016   1.763   3.050  16.896  0.0502  0.1165 -0.4655
  471MPD2    H5 7017   1.821   3.112  16.952  1.6637 -3.4739  1.8489
  471MPD2    N1 7018   1.701   2.890  16.446  0.4916  0.7168  0.0422
  471MPD2    H7 7019   1.631   2.825  16.481  1.8436 -1.1766 -0.7719
  472TMC3    C1 7020   1.685   2.759  16.245  0.1860  0.1415  0.4084
  472TMC3    C2 7021   1.566   2.772  16.184 -0.0222 -0.1479 -0.2808
  472TMC3    C3 7022   1.507   2.660  16.128  0.1435 -0.1190  0.0738
  472TMC3    C4 7023   1.752   2.640  16.236 -0.6947 -0.4160  0.8019
  472TMC3    C5 7024   1.706   2.539  16.161 -0.4003 -0.0109  0.0341
  472TMC3    C6 7025   1.578   2.547  16.107  0.0737 -0.3645 -0.3645
  472TMC3     C 7026   1.749   2.865  16.323  0.4794 -0.1644 -1.0383
  472TMC3     O 7027   1.853   2.910  16.270  0.4417  0.4470 -0.0537
  472TMC3     H 7028   1.502   2.853  16.217  1.7634  0.8784  0.6658
  472TMC3    H1 7029   1.851   2.625  16.277 -0.1967  1.7539  0.4344
  472TMC3    H2 7030   1.532   2.455  16.074 -0.9178  0.8375 -2.3308
  472TMC3    C7 7031   1.751   2.406  16.203 -0.1478  0.1739  0.5416
  472TMC3    C8 7032   1.383   2.619  16.191 -0.5276  0.3004  0.3616
  472TMC3    O1 7033   1.810   2.397  16.309 -0.0077  0.5187  0.2417
  472TMC3    O2 7034   1.382   2.505  16.228  0.6453 -0.1808 -0.3510
  473MPD2     C 7035   1.206   0.234  13.945  0.1219 -0.3452  0.7414
  473MPD2    C1 7036   1.315   0.281  13.881  0.0542  0.5007  0.6693
  473MPD2    C2 7037   1.388   0.377  13.947 -0.0662  0.2133  0.1814
  473MPD2    C3 7038   1.345   0.430  14.071 -0.0783  0.1455  0.2574
  473MPD2    C4 7039   1.228   0.385  14.127  0.0419  0.1918 -0.2848
  473MPD2    C5 7040   1.159   0.289  14.057  0.0958  0.6878  0.0181
  473MPD2     H 7041   1.473   0.426  13.901  0.6068 -0.9148  0.2253
  473MPD2    H1 7042   1.203   0.416  14.228  0.9431 -1.0390  0.3114
  473MPD2    H2 7043   1.152   0.148  13.905 -1.5947  1.6510 -1.2355
  473MPD2    H3 7044   1.071   0.249  14.106 -0.9273  1.9225 -0.8159
  473MPD2     N 7045   1.408   0.537  14.139 -1.0216 -0.0317  0.0644
  473MPD2    H5 7046   1.358   0.557  14.226 -0.0531  0.0977  0.5927
  473MPD2    N1 7047   1.346   0.239  13.752  0.1000 -0.1226 -0.2243
  473MPD2    H7 7048   1.417   0.286  13.697 -1.1063  0.5684 -1.2123
  474TMC3    C1 7049   1.575   0.686  14.204  0.2880 -0.2545  0.6830
  474TMC3    C2 7050   1.481   0.754  14.274 -0.3476 -0.0787  0.3017
  474TMC3    C3 7051   1.509   0.853  14.359 -0.7669 -0.0737 -0.2122
  474TMC3    C4 7052   1.703   0.737  14.207  0.5196  0.5572 -0.1373
  474TMC3    C5 7053   1.739   0.840  14.296 -0.1149 -0.7687 -0.7572
  474TMC3    C6 7054   1.638   0.901  14.371 -0.3386 -0.2734 -0.0017
  474TMC3     C 7055   1.536   0.583  14.111  0.5269 -0.7412 -0.6239
  474TMC3     O 7056   1.626   0.536  14.040 -0.3025 -0.0089  0.2552
  474TMC3     H 7057   1.377   0.723  14.278  0.4155 -2.6435  0.1649
  474TMC3    H1 7058   1.786   0.686  14.158  0.3071 -0.7964  0.9024
  474TMC3    H2 7059   1.653   0.976  14.448 -0.2675  1.2977 -1.5320
  474TMC3    C7 7060   1.878   0.890  14.311 -0.0155 -0.1903  0.0770
  474TMC3    C8 7061   1.399   0.948  14.390  0.4569  0.1048  0.0120
  474TMC3    O1 7062   1.966   0.835  14.249 -0.3442  0.1672  0.1408
  474TMC3    O2 7063   1.303   0.907  14.456 -0.2044 -0.0995  0.3967
  475MPD2     C 7064   0.405   3.179  10.001  0.4389 -0.0636  0.3179
  475MPD2    C1 7065   0.379   3.311  10.010 -0.5418 -0.3620 -0.1861
  475MPD2    C2 7066   0.256   3.349  10.073  0.4499  1.0146  0.6061
  475MPD2    C3 7067   0.163   3.258  10.118  0.0875 -0.0359 -0.4448
  475MPD2    C4 7068   0.193   3.127  10.104 -0.1837  0.3570  0.3522
  475MPD2    C5 7069   0.310   3.091  10.041 -0.9872 -0.0255  0.3378
  475MPD2     H 7070   0.222   3.451  10.062  0.6534  1.1342  1.0787
  475MPD2    H1 7071   0.114   3.054  10.114  0.1634 -0.1299 -0.5344
  475MPD2    H2 7072   0.495   3.138   9.956  0.7502  0.8458  0.1155
  475MPD2    H3 7073   0.326   2.988  10.012 -3.3289 -0.3698  0.2634
  475MPD2     N 7074   0.041   3.307  10.164 -0.0927  0.3819  0.4888
  475MPD2    H5 7075   0.031   3.407  10.159  3.0702  0.6919  0.3962
  475MPD2    N1 7076   0.455   3.408   9.944 -0.5105 -0.0978 -0.0920
  475MPD2    H7 7077   0.522   3.375   9.875 -1.8463 -1.5450 -0.7039
  476TMC3    C1 7078   0.478   3.609   9.833  0.1003  0.1983  0.5451
  476TMC3    C2 7079   0.420   3.559   9.718 -0.2682 -0.2768 -0.4327
  476TMC3    C3 7080   0.428   3.630   9.607 -0.4021 -0.0725 -0.1965
  476TMC3    C4 7081   0.542   3.727   9.836  0.3888  0.1513 -0.6375
  476TMC3    C5 7082   0.556   3.799   9.717 -0.2054 -0.1411  0.3397
  476TMC3    C6 7083   0.489   3.756   9.604  0.5029  0.1652 -0.3719
  476TMC3     C 7084   0.447   3.545   9.954  0.1637  0.3894  0.1684
  476TMC3     O 7085   0.396   3.610  10.038  0.3037  0.4201 -0.2463
  476TMC3     H 7086   0.346   3.480   9.726  1.1085 -1.4901  0.5586
  476TMC3    H1 7087   0.571   3.772   9.930 -3.9196  1.5130  0.0280
  476TMC3    H2 7088   0.497   3.804   9.507  0.6337  1.0650  0.0797
  476TMC3    C7 7089   0.643   3.913   9.704 -0.4293  0.3472  0.0427
  476TMC3    C8 7090   0.337   3.607   9.501 -0.2624  0.5242 -0.0934
  476TMC3    O1 7091   0.618   3.984   9.609  0.7455 -0.0216  0.4336
  476TMC3    O2 7092   0.307   3.699   9.431 -0.1943 -0.6805 -0.0451
  477MPD2     C 7093   2.542   0.016  11.548  0.0625  0.4038 -0.7156
  477MPD2    C1 7094   2.420   4.673  11.570 -1.1101  0.3165  0.5344
  477MPD2    C2 7095   2.424   4.561  11.657 -0.0452 -0.4685 -0.2757
  477MPD2    C3 7096   2.536   4.514  11.716  0.2164 -0.0608 -0.1124
  477MPD2    C4 7097   2.654   4.595  11.700 -0.0527  0.7218  0.2973
  477MPD2    C5 7098   2.654   4.695  11.610 -0.4256  0.9324 -0.7385
  477MPD2     H 7099   2.325   4.523  11.682  0.1392 -0.6243  0.2146
  477MPD2    H1 7100   2.744   4.572  11.755  0.2739  0.6593 -0.2642
  477MPD2    H2 7101   2.561   0.096  11.477  2.0586  1.7014  1.2886
  477MPD2    H3 7102   2.746   0.024  11.586  0.9876 -2.3726 -2.3489
  477MPD2     N 7103   2.526   4.395  11.798  0.0159  0.4023  0.4710
  477MPD2    H5 7104   2.432   4.361  11.817  0.6256 -0.3860  2.1250
  477MPD2    N1 7105   2.302   4.713  11.504 -0.3804 -0.4139 -0.3023
  477MPD2    H7 7106   2.309   0.056  11.427  0.5089 -0.0165  0.1111
  478TMC3    C1 7107   2.077   0.000  11.428 -0.3661  0.3247  0.1226
  478TMC3    C2 7108   1.955   0.029  11.481 -1.1072 -0.5260 -0.5550
  478TMC3    C3 7109   1.874   0.107  11.407 -0.3368  0.7418 -0.1289
  478TMC3    C4 7110   2.108   0.031  11.294  0.0540 -0.5988 -0.6403
  478TMC3    C5 7111   2.024   0.117  11.225 -0.0493  0.2025 -0.2886
  478TMC3    C6 7112   1.909   0.162  11.284  0.4721  0.5166  0.6310
  478TMC3     C 7113   2.173   4.674  11.526 -0.1291 -0.4288  0.5515
  478TMC3     O 7114   2.120   4.601  11.611 -0.3971 -0.5895  0.3519
  478TMC3     H 7115   1.913   4.708  11.571  2.0914 -1.1536  0.6214
  478TMC3    H1 7116   2.198   4.723  11.242 -0.8377 -0.6032 -2.1953
  478TMC3    H2 7117   1.850   0.234  11.228  1.3419  1.0232  0.3616
  478TMC3    C7 7118   2.041   0.129  11.084 -0.1663 -0.5247  0.1933
  478TMC3    C8 7119   1.733   0.110  11.447  0.1022  0.3068  1.2346
  478TMC3    O1 7120   2.159   0.105  11.042 -0.0801 -0.3718  0.3352
  478TMC3    O2 7121   1.678   0.012  11.486  0.8409 -0.2467  0.5517
  479MPD2     C 7122   1.254   2.529  15.334  0.0650 -0.3562  0.6292
  479MPD2    C1 7123   1.212   2.440  15.433  1.0252 -0.4391 -0.2054
  479MPD2    C2 7124   1.290   2.407  15.539  0.0479  0.6950 -0.0649
  479MPD2    C3 7125   1.411   2.477  15.559 -0.7563  0.0571  1.0097
  479MPD2    C4 7126   1.454   2.567  15.467  0.1695 -0.3563  0.1705
  479MPD2    C5 7127   1.372   2.595  15.359  0.3636  0.7012  0.1077
  479MPD2     H 7128   1.253   2.341  15.617 -0.0753  2.2880  1.2315
  479MPD2    H1 7129   1.547   2.623  15.470  0.5901 -0.9579 -1.2485
  479MPD2    H2 7130   1.192   2.543  15.246 -0.7514 -0.3826  1.2068
  479MPD2    H3 7131   1.405   2.668  15.287  1.7673 -1.3613 -1.3580
  479MPD2     N 7132   1.494   2.467  15.667 -0.1821  0.0002 -0.5533
  479MPD2    H5 7133   1.580   2.520  15.661 -0.7192  0.9131 -0.0933
  479MPD2    N1 7134   1.072   2.400  15.417 -0.7567 -0.0937 -0.7559
  479MPD2    H7 7135   1.013   2.436  15.342  1.1607  0.1074 -2.1565
  480TMC3    C1 7136   1.171   2.289  15.954 -0.3072  0.0889 -0.1748
  480TMC3    C2 7137   1.085   2.395  15.942 -0.0086 -0.8667  0.1217
  480TMC3    C3 7138   1.126   2.508  15.878 -0.0478 -0.3216 -0.7585
  480TMC3    C4 7139   1.299   2.297  15.909  0.4015  0.5595  0.0993
  480TMC3    C5 7140   1.338   2.413  15.846  0.3336 -1.0060  0.8039
  480TMC3    C6 7141   1.257   2.522  15.827  0.2176  0.3196  0.0933
  480TMC3     C 7142   1.117   2.158  15.985  0.1594  0.1977 -0.6342
  480TMC3     O 7143   1.195   2.062  16.005 -0.4011  0.5144  0.2670
  480TMC3     H 7144   0.990   2.388  15.994 -0.2308  0.8855 -0.0659
  480TMC3    H1 7145   1.366   2.212  15.915  0.4904  0.5682 -0.8119
  480TMC3    H2 7146   1.299   2.612  15.785  0.3590  0.5309  0.6938
  480TMC3    C7 7147   1.471   2.402  15.784  0.7074 -0.0040  0.0811
  480TMC3    C8 7148   1.017   2.574  15.810  0.3921  0.1222  0.0564
  480TMC3    O1 7149   1.561   2.373  15.862 -0.5118  0.5807 -1.1391
  480TMC3    O2 7150   0.904   2.533  15.829 -0.0806 -0.5354  0.0531
  481MPD2     C 7151   3.004   2.083  13.925 -0.2040 -0.0527 -0.2460
  481MPD2    C1 7152   2.904   1.990  13.944 -0.3910  0.5700 -0.1658
  481MPD2    C2 7153   2.876   1.944  14.074 -0.2476  0.4650  0.3866
  481MPD2    C3 7154   2.939   1.999  14.184  0.1780 -0.0677 -0.0472
  481MPD2    C4 7155   3.036   2.093  14.166 -0.8245  0.0106  0.6736
  481MPD2    C5 7156   3.062   2.133  14.039 -0.0735  0.4483  0.2470
  481MPD2     H 7157   2.795   1.873  14.085 -0.7707  0.8246 -1.1166
  481MPD2    H1 7158   3.089   2.144  14.246  0.2210  0.5926 -0.3795
  481MPD2    H2 7159   3.011   2.120  13.823  0.1486 -0.9835 -0.5694
  481MPD2    H3 7160   3.120   2.222  14.021  1.1160 -0.2327  0.7056
  481MPD2     N 7161   2.902   1.967  14.316 -0.4088  0.1337  1.0001
  481MPD2    H5 7162   2.957   2.006  14.392  2.4456  2.8263 -2.4542
  481MPD2    N1 7163   2.835   1.942  13.834 -0.5165 -0.3801  0.6739
  481MPD2    H7 7164   2.854   1.997  13.751 -1.5159 -0.7334  0.2146
  482TMC3    C1 7165   2.627   1.871  13.735 -0.1238 -0.1426 -0.2162
  482TMC3    C2 7166   2.512   1.796  13.739 -0.3555  0.8450 -0.0247
  482TMC3    C3 7167   2.402   1.826  13.661 -0.0965  0.6519  0.1485
  482TMC3    C4 7168   2.617   1.996  13.670 -0.0466 -0.0754 -0.4210
  482TMC3    C5 7169   2.503   2.024  13.607 -0.1164 -0.0970 -0.0107
  482TMC3    C6 7170   2.396   1.941  13.590 -0.2920 -0.3753 -0.0032
  482TMC3     C 7171   2.735   1.850  13.836  0.1069  0.6844 -0.5468
  482TMC3     O 7172   2.705   1.752  13.905  0.1001  0.2247  0.3005
  482TMC3     H 7173   2.497   1.705  13.794  0.6664  1.9379  2.0547
  482TMC3    H1 7174   2.705   2.059  13.669  1.5682 -2.3039  0.6310
  482TMC3    H2 7175   2.316   1.957  13.518  0.1041 -0.4743 -0.4639
  482TMC3    C7 7176   2.505   2.146  13.519  0.3987  0.5695 -0.3311
  482TMC3    C8 7177   2.313   1.719  13.628 -0.6119  0.1620 -0.7479
  482TMC3    O1 7178   2.582   2.232  13.561  0.7239  0.0645 -0.3606
  482TMC3    O2 7179   2.346   1.599  13.648 -0.3241 -0.3054 -0.6161
  483TMC3    C1 7180   0.742   0.494   0.768 -0.1885  0.3262 -0.2168
  483TMC3    C2 7181   0.789   0.617   0.746  0.3474 -0.5946  0.9329
  483TMC3    C3 7182   0.869   0.678   0.839 -0.5273 -0.5923  0.3265
  483TMC3    C4 7183   0.747   0.437   0.892 -0.1418 -0.5289 -0.5505
  483TMC3    C5 7184   0.829   0.495   0.982  0.2247 -0.3032  0.1847
  483TMC3    C6 7185   0.887   0.614   0.961 -0.6607  1.4815  0.2155
  483TMC3     C 7186   0.632   0.449   0.681 -0.1932  0.4386  0.4735
  483TMC3     O 7187   0.596   0.525   0.594 -0.1461  0.0099  0.3263
  483TMC3     H 7188   0.796   0.651   0.643  4.4335 -0.8005  1.1328
  483TMC3    H1 7189   0.681   0.358   0.925  0.2820 -0.7283 -0.1873
  483TMC3    H2 7190   0.934   0.671   1.041  2.6372 -0.7016 -0.2000
  483TMC3    C7 7191   0.817   0.445   1.118 -0.1887  0.0218 -0.7376
  483TMC3    C8 7192   0.923   0.805   0.806 -0.0920 -0.6160  0.2625
  483TMC3    O1 7193   0.756   0.344   1.132  0.2887 -0.7248  0.1802
  483TMC3    O2 7194   0.916   0.839   0.689  0.1947 -0.6229 -0.5429
  484MPD2     C 7195   3.062   3.822  12.059 -0.0854 -0.8127  0.2445
  484MPD2    C1 7196   3.154   3.731  12.111  0.2887  0.0474 -0.4963
  484MPD2    C2 7197   3.289   3.757  12.093 -0.1058 -0.1154 -0.2786
  484MPD2    C3 7198   3.332   3.876  12.028  0.3067  0.3080 -0.0073
  484MPD2    C4 7199   3.234   3.958  11.976 -0.3455  0.5703 -0.3769
  484MPD2    C5 7200   3.095   3.935  11.999 -0.0209 -0.0953 -0.3290
  484MPD2     H 7201   3.360   3.687  12.135  0.6350  0.2294 -0.9488
  484MPD2    H1 7202   3.262   4.050  11.925  1.3155  0.0404 -0.4142
  484MPD2    H2 7203   2.956   3.804  12.067 -0.3720  1.3060  1.1481
  484MPD2    H3 7204   3.017   4.003  11.967 -0.8328  0.1953  2.3112
  484MPD2     N 7205   3.461   3.922  12.009  0.1849 -0.1628  1.1918
  484MPD2    H5 7206   3.475   4.014  11.968  0.6646 -1.0498 -0.6453
  484MPD2    N1 7207   3.098   3.631  12.194 -0.2955 -0.3103  0.6459
  484MPD2    H7 7208   2.998   3.628  12.211 -0.5237 -0.0070 -0.6920
  485TMC3    C1 7209   3.693   3.894  11.962  0.3644 -0.5235  0.5102
  485TMC3    C2 7210   3.812   3.881  12.024 -0.1109  0.4745 -0.1881
  485TMC3    C3 7211   3.915   3.963  11.978 -0.4321 -0.3143  0.4038
  485TMC3    C4 7212   3.672   3.993  11.867  0.0249 -0.2816 -0.5800
  485TMC3    C5 7213   3.774   4.073  11.822 -0.1781  0.5821  0.1938
  485TMC3    C6 7214   3.898   4.052  11.875  0.1665  0.2778  0.2651
  485TMC3     C 7215   3.574   3.836  12.030 -0.4510 -0.4364  0.3351
  485TMC3     O 7216   3.577   3.719  12.071 -0.4842 -0.5866 -1.0120
  485TMC3     H 7217   3.813   3.821  12.114 -1.4336 -0.3269 -0.7015
  485TMC3    H1 7218   3.580   3.991  11.811  0.5501 -0.9807 -1.4068
  485TMC3    H2 7219   3.983   4.107  11.834  0.4537  0.4700  1.1337
  485TMC3    C7 7220   3.783   4.071  11.678 -0.7809  0.1122 -0.4177
  485TMC3    C8 7221   4.037   3.886  11.957 -0.3279 -0.3734 -0.4198
  485TMC3    O1 7222   3.692   4.102  11.605  0.2561 -0.3597  0.1276
  485TMC3    O2 7223   4.077   3.905  11.840  0.3327  0.3699  0.2395
  486MPD2     C 7224   0.529   2.712  12.992 -0.4682 -0.2464 -0.5528
  486MPD2    C1 7225   0.492   2.655  12.873  0.0047 -0.5732  0.2164
  486MPD2    C2 7226   0.427   2.724  12.772  0.7611  0.6857  0.4336
  486MPD2    C3 7227   0.409   2.862  12.785  0.2038  0.4879 -0.3210
  486MPD2    C4 7228   0.467   2.922  12.902  0.7013 -0.1716 -0.0923
  486MPD2    C5 7229   0.520   2.849  12.996  0.4912  0.2319 -0.3921
  486MPD2     H 7230   0.393   2.676  12.681  1.9314 -1.2398  1.0194
  486MPD2    H1 7231   0.454   3.029  12.916  0.7822 -0.1867  0.0955
  486MPD2    H2 7232   0.576   2.667  13.079  0.7868 -0.5649 -1.3915
  486MPD2    H3 7233   0.566   2.890  13.085 -1.4226  0.0377  0.6723
  486MPD2     N 7234   0.343   2.939  12.688 -0.5135  0.9077  0.0930
  486MPD2    H5 7235   0.334   2.884  12.603  0.1855 -1.4886  1.5654
  486MPD2    N1 7236   0.514   2.518  12.865 -0.2810 -0.7257 -0.3921
  486MPD2    H7 7237   0.560   2.474  12.945 -0.4232 -0.9162 -0.4148
  487TMC3    C1 7238   0.533   2.299  12.781  0.6496 -0.0278  1.0480
  487TMC3    C2 7239   0.498   2.204  12.683  0.4949 -0.7398 -0.2711
  487TMC3    C3 7240   0.494   2.070  12.710 -0.5709 -0.2127 -0.5237
  487TMC3    C4 7241   0.565   2.259  12.908  0.3818  0.9862 -0.2283
  487TMC3    C5 7242   0.558   2.121  12.936  0.7422 -0.2079 -0.3894
  487TMC3    C6 7243   0.534   2.027  12.838  0.7419 -0.2679  0.3117
  487TMC3     C 7244   0.491   2.434  12.760  0.4756  0.0741  0.1827
  487TMC3     O 7245   0.434   2.462  12.657 -0.0303  0.1582  0.2424
  487TMC3     H 7246   0.450   2.239  12.593  1.2947  1.3196  0.1154
  487TMC3    H1 7247   0.565   2.311  13.003 -1.1159 -0.4661  0.5749
  487TMC3    H2 7248   0.507   1.924  12.862  0.6014 -0.1975  0.4561
  487TMC3    C7 7249   0.507   2.096  13.067 -0.1596 -0.0620 -0.0658
  487TMC3    C8 7250   0.367   2.020  12.674 -0.6582 -0.7724  0.6716
  487TMC3    O1 7251   0.579   2.126  13.158  0.0584 -0.4354 -0.7751
  487TMC3    O2 7252   0.295   2.094  12.610  0.0766  0.0371 -0.5126
  488MPD2     C 7253   0.859   4.139  16.061  0.3447  0.6392 -0.0959
  488MPD2    C1 7254   0.792   4.248  16.017  0.6869  0.1679 -1.3794
  488MPD2    C2 7255   0.711   4.310  16.111  0.2116  0.4154 -0.6615
  488MPD2    C3 7256   0.708   4.263  16.243 -0.2339  0.8588 -0.9067
  488MPD2    C4 7257   0.784   4.158  16.277 -0.1675 -0.4102 -0.2031
  488MPD2    C5 7258   0.852   4.095  16.185 -0.4907  1.0218 -0.4976
  488MPD2     H 7259   0.651   4.396  16.085 -1.7690 -0.4958  0.8679
  488MPD2    H1 7260   0.782   4.112  16.375 -0.1485 -2.9927 -1.4242
  488MPD2    H2 7261   0.931   4.096  15.993 -0.0248 -2.6308  1.5545
  488MPD2    H3 7262   0.893   3.997  16.207  2.1749  2.0264 -1.0971
  488MPD2     N 7263   0.622   4.328  16.337 -0.0543  0.7882  0.6483
  488MPD2    H5 7264   0.579   4.418  16.317  0.0891  0.9165  0.9051
  488MPD2    N1 7265   0.806   4.312  15.890 -0.0053  0.5761  0.3801
  488MPD2    H7 7266   0.770   4.407  15.880  1.5906  1.2818  1.3759
  489TMC3    C1 7267   0.538   4.373  16.555  0.3076  0.2075  0.0520
  489TMC3    C2 7268   0.535   4.510  16.531  0.2482  0.3683  0.8109
  489TMC3    C3 7269   0.521   4.601  16.634  0.1533  0.1044  0.1512
  489TMC3    C4 7270   0.519   4.325  16.679  0.7789  0.2598  0.8436
  489TMC3    C5 7271   0.506   4.414  16.783 -0.2381  0.0188 -0.2839
  489TMC3    C6 7272   0.508   4.551  16.761  0.1364  0.2281  0.6687
  489TMC3     C 7273   0.592   4.275  16.460  0.3355  0.2897 -0.0600
  489TMC3     O 7274   0.600   4.156  16.501  0.4584 -0.0683  0.4751
  489TMC3     H 7275   0.558   4.550  16.432 -0.8607 -0.0842  0.3659
  489TMC3    H1 7276   0.491   4.222  16.701 -0.3995 -0.0122 -1.9686
  489TMC3    H2 7277   0.484   4.622  16.840  1.5531  1.4858 -0.0449
  489TMC3    C7 7278   0.459   4.357  16.908 -0.1759  0.2573 -0.7962
  489TMC3    C8 7279   0.556   0.014  16.608 -0.1303  0.0122 -0.0151
  489TMC3    O1 7280   0.418   4.242  16.912 -0.7574 -0.3052 -0.0565
  489TMC3    O2 7281   0.554   0.043  16.486  0.5191  0.2272  0.1060
  490MPD2     C 7282   1.354   4.039  17.610 -0.1098 -0.1214  0.1364
  490MPD2    C1 7283   1.391   3.916  17.658 -0.3484 -0.0125 -0.1209
  490MPD2    C2 7284   1.503   3.908   0.049  0.5906 -0.2039  0.3040
  490MPD2    C3 7285   1.587   4.024   0.073 -0.8523 -0.2494 -0.0984
  490MPD2    C4 7286   1.550   4.142   0.012 -0.8786 -0.3120  0.9568
  490MPD2    C5 7287   1.436   4.148  17.632 -0.3603 -0.2828 -0.0661
  490MPD2     H 7288   1.524   3.807   0.083 -3.1053 -0.4702  1.7834
  490MPD2    H1 7289   1.611   4.231   0.021 -3.4107  1.3496  1.4871
  490MPD2    H2 7290   1.270   4.047  17.542  2.5947  3.2290 -2.7727
  490MPD2    H3 7291   1.406   4.244  17.592 -0.3977  1.0495  3.2176
  490MPD2     N 7292   1.707   4.013   0.147  0.5238  0.4332 -0.3075
  490MPD2    H5 7293   1.767   4.095   0.149  1.1567  0.0066 -1.9799
  490MPD2    N1 7294   1.323   3.790  17.630  0.2629  0.1801  0.0324
  490MPD2    H7 7295   1.377   3.710  17.662 -0.3504  0.3749  1.5583
  491TMC3    C1 7296   1.138   3.650  17.589  0.4830 -0.7766  0.4264
  491TMC3    C2 7297   1.018   3.613  17.638  0.4041 -1.0001 -0.0895
  491TMC3    C3 7298   0.992   3.478  17.645 -0.8706 -0.1503  0.0780
  491TMC3    C4 7299   1.235   3.562  17.539 -0.1215 -0.9962  0.1957
  491TMC3    C5 7300   1.200   3.426  17.544  0.4934  0.1557  0.1735
  491TMC3    C6 7301   1.079   3.382  17.600  0.2071 -0.5937  0.2003
  491TMC3     C 7302   1.188   3.785  17.598  0.8376 -0.1272 -0.6388
  491TMC3     O 7303   1.099   3.870  17.597 -0.2046 -0.3045 -0.5518
  491TMC3     H 7304   0.958   3.687  17.690  1.4174 -0.0150 -0.3132
  491TMC3    H1 7305   1.319   3.602  17.484  0.4579 -1.8307  0.4883
  491TMC3    H2 7306   1.057   3.276  17.599 -0.4761 -0.4486  0.3127
  491TMC3    C7 7307   1.237   3.340  17.434 -0.6036 -0.5156  0.1709
  491TMC3    C8 7308   0.868   3.421   0.010  0.4187 -0.3839 -0.7012
  491TMC3    O1 7309   1.193   3.228  17.421 -0.1842 -0.9759  0.0743
  491TMC3    O2 7310   0.843   3.307  17.673  0.2690  0.0004  0.0519
  492MPD2     C 7311   1.993   3.456  11.321 -0.3479  0.4896  0.2299
  492MPD2    C1 7312   1.889   3.402  11.242  0.5725 -0.3681  0.1923
  492MPD2    C2 7313   1.778   3.341  11.307 -0.2886 -0.1224 -0.0557
  492MPD2    C3 7314   1.766   3.351  11.444 -0.2487  0.2298  0.7794
  492MPD2    C4 7315   1.872   3.406  11.518  0.4845  0.1850 -0.5813
  492MPD2    C5 7316   1.990   3.453  11.462 -0.0334 -0.6248  1.1417
  492MPD2     H 7317   1.696   3.293  11.255  1.2164 -1.3306 -1.3044
  492MPD2    H1 7318   1.859   3.419  11.625 -0.5900  0.4105 -0.7418
  492MPD2    H2 7319   2.080   3.500  11.272 -0.7706  0.8658 -0.1919
  492MPD2    H3 7320   2.059   3.511  11.523  0.9153  1.3224 -1.7817
  492MPD2     N 7321   1.645   3.321  11.514  0.5720  0.3815  0.6789
  492MPD2    H5 7322   1.638   3.338  11.614 -1.5856 -3.7752  1.2187
  492MPD2    N1 7323   1.906   3.410  11.104  0.6196 -0.7064 -0.4970
  492MPD2    H7 7324   1.988   3.461  11.072 -0.4291  0.9473 -0.5080
  493TMC3    C1 7325   1.866   3.384  10.868  0.0449 -0.9243 -0.0724
  493TMC3    C2 7326   1.999   3.377  10.834 -0.0869  0.0014  0.7188
  493TMC3    C3 7327   2.030   3.365  10.698  0.1060  0.5890 -0.7029
  493TMC3    C4 7328   1.765   3.383  10.778  0.0639 -1.0207  0.2125
  493TMC3    C5 7329   1.798   3.368  10.644 -0.0131  0.3637 -0.2618
  493TMC3    C6 7330   1.928   3.364  10.603  0.1689  0.7573  0.1134
  493TMC3     C 7331   1.819   3.366  11.002  0.1793 -0.5234  0.6321
  493TMC3     O 7332   1.711   3.313  11.012 -0.2656  0.5135  0.2392
  493TMC3     H 7333   2.075   3.390  10.911  3.1255  2.3827 -2.8970
  493TMC3    H1 7334   1.660   3.385  10.802  0.2374  0.7893  0.7994
  493TMC3    H2 7335   1.954   3.365  10.498  0.5670 -0.0472  0.2060
  493TMC3    C7 7336   1.714   3.268  10.584  0.1626  0.1383  0.2006
  493TMC3    C8 7337   2.159   3.406  10.659  0.4407 -0.0889  0.0655
  493TMC3    O1 7338   1.691   3.269  10.465  0.0621  0.1568  0.2218
  493TMC3    O2 7339   2.250   3.401  10.743 -0.3240  0.0362  0.2269
  494TMC3    C1 7340   2.392   0.032   0.495  0.7631  0.0708 -0.5208
  494TMC3    C2 7341   2.434   4.624   0.461 -0.2555 -0.4158 -0.3940
  494TMC3    C3 7342   2.474   4.608   0.333 -0.2884 -0.8332 -0.0383
  494TMC3    C4 7343   2.374   0.126   0.408  0.3412  0.2680 -0.1912
  494TMC3    C5 7344   2.411   0.106   0.278 -0.5966 -0.3076  0.3543
  494TMC3    C6 7345   2.464   4.708   0.242 -0.5188  0.5849  0.1927
  494TMC3     C 7346   2.329   0.051   0.623  0.6921  0.0097 -0.1740
  494TMC3     O 7347   2.238   0.131   0.618  0.7649  0.2586  0.2012
  494TMC3     H 7348   2.450   4.551   0.540 -0.2041  0.2029  0.1688
  494TMC3    H1 7349   2.347   0.226   0.440  0.9459  0.3063  0.2075
  494TMC3    H2 7350   2.493   4.692   0.139 -1.3536 -0.1377  0.0625
  494TMC3    C7 7351   2.406   0.217   0.182 -0.6252  0.4659  0.8125
  494TMC3    C8 7352   2.565   4.503   0.303  0.0368 -0.4835  0.0182
  494TMC3    O1 7353   2.477   0.202   0.082 -0.3706  0.3417 -0.2238
  494TMC3    O2 7354   2.653   4.530   0.220 -0.1838 -0.6284  0.3913
  495TMC3    C1 7355   1.324   2.906  14.892 -0.3671  0.1125 -0.4190
  495TMC3    C2 7356   1.223   2.921  14.797  0.0597 -0.2846  0.9624
  495TMC3    C3 7357   1.100   2.903  14.840  0.0048 -0.0572  0.3038
  495TMC3    C4 7358   1.293   2.900  15.029 -0.1074 -0.6908 -0.7449
  495TMC3    C5 7359   1.162   2.902  15.064  0.7272  0.1017 -0.0148
  495TMC3    C6 7360   1.065   2.898  14.970 -0.2590 -0.4516 -0.6515
  495TMC3     C 7361   1.354   2.771  14.852 -0.0026 -0.6246 -0.0878
  495TMC3     O 7362   1.327   2.671  14.920 -0.2589  0.5129  0.1155
  495TMC3     H 7363   1.242   2.954  14.695  1.5460 -0.5123  1.1601
  495TMC3    H1 7364   1.372   2.870  15.097  1.0813  2.1045 -0.9205
  495TMC3    H2 7365   0.960   2.891  14.997 -0.5685  1.9173 -1.2374
  495TMC3    C7 7366   1.135   2.860  15.203  0.4575 -0.5161  0.0629
  495TMC3    C8 7367   1.015   2.839  14.748  0.1546 -0.2242 -0.9457
  495TMC3    O1 7368   1.222   2.868  15.284 -0.2333 -0.1653 -0.4802
  495TMC3    O2 7369   0.898   2.871  14.755  0.2952 -0.4682 -0.3159
  496MPD2     C 7370   2.973   2.438  15.009 -0.4145  0.1378  0.2818
  496MPD2    C1 7371   3.030   2.476  15.129 -0.7213  0.1424  0.9912
  496MPD2    C2 7372   2.956   2.532  15.223  0.4810 -0.2556  0.5585
  496MPD2    C3 7373   2.823   2.553  15.201 -0.4794 -0.4009 -0.6767
  496MPD2    C4 7374   2.764   2.513  15.082  0.0713  0.1443  0.4448
  496MPD2    C5 7375   2.843   2.446  14.988  0.5481  0.8806 -0.0582
  496MPD2     H 7376   2.994   2.559  15.320  0.8290 -2.1198  0.9260
  496MPD2    H1 7377   2.659   2.537  15.066  0.1587 -0.2648 -0.7964
  496MPD2    H2 7378   3.036   2.393  14.934 -0.0269 -0.6533  1.0878
  496MPD2    H3 7379   2.802   2.412  14.893 -0.9438 -1.5937  1.4904
  496MPD2     N 7380   2.736   2.612  15.295 -0.2784  0.1733  0.0791
  496MPD2    H5 7381   2.643   2.637  15.264  0.0660 -0.1315 -1.2182
  496MPD2    N1 7382   3.175   2.459  15.146 -0.3148 -0.4849  0.7544
  496MPD2    H7 7383   3.227   2.442  15.061 -1.1366  1.0705 -0.0576
  497TMC3    C1 7384   2.661   2.655  15.521  0.2799 -0.2609  0.2048
  497TMC3    C2 7385   2.533   2.623  15.479 -0.3872 -0.8142  0.1737
  497TMC3    C3 7386   2.441   2.592  15.577 -0.3953  0.1760 -0.2511
  497TMC3    C4 7387   2.685   2.669  15.658 -0.4833 -0.9752 -0.5206
  497TMC3    C5 7388   2.595   2.635  15.754 -0.0317  0.3188 -0.1108
  497TMC3    C6 7389   2.460   2.596  15.714 -0.4693 -0.6176 -0.1875
  497TMC3     C 7390   2.771   2.639  15.429  0.0878  0.3742 -0.4868
  497TMC3     O 7391   2.881   2.661  15.477 -0.0470 -0.0229 -0.2228
  497TMC3     H 7392   2.509   2.616  15.373  1.8459 -1.0694 -0.3184
  497TMC3    H1 7393   2.785   2.696  15.691 -1.2227  1.7335 -0.4925
  497TMC3    H2 7394   2.390   2.554  15.785  1.2528 -1.1423  1.1839
  497TMC3    C7 7395   2.620   2.628  15.901 -0.1307  0.1363  0.1485
  497TMC3    C8 7396   2.310   2.537  15.535 -0.6494  0.1451  0.2552
  497TMC3    O1 7397   2.522   2.615  15.975 -0.1497 -0.3909 -0.0525
  497TMC3    O2 7398   2.312   2.509  15.416 -0.5367 -0.4627 -0.0540
  498MPD2     C 7399   4.362   2.255   9.720 -0.4131  0.0292  0.2317
  498MPD2    C1 7400   4.481   2.178   9.720  0.9193  0.0065 -0.7110
  498MPD2    C2 7401   4.485   2.058   9.784  0.9659  0.3560  0.2799
  498MPD2    C3 7402   4.382   2.031   9.872 -0.1254 -0.4389  0.5468
  498MPD2    C4 7403   4.276   2.122   9.884 -0.2420  0.2690 -0.3103
  498MPD2    C5 7404   4.263   2.227   9.804  0.9045  0.2482  0.3922
  498MPD2     H 7405   4.567   1.987   9.778  0.5726 -0.0189 -0.6133
  498MPD2    H1 7406   4.186   2.099   9.940 -0.6684  1.4376 -0.5310
  498MPD2    H2 7407   4.342   2.337   9.653 -0.4437 -0.8139 -0.7897
  498MPD2    H3 7408   4.176   2.292   9.804  2.5497  2.4773 -0.1390
  498MPD2     N 7409   4.383   1.909   9.938  0.1223 -0.4849  0.7435
  498MPD2    H5 7410   4.457   1.843   9.913  0.7673  0.8502 -0.8771
  498MPD2    N1 7411   4.587   2.201   9.634 -0.2347  0.0665 -0.0470
  498MPD2    H7 7412   4.665   2.135   9.643  0.8580  1.2526 -0.8061
  499TMC3    C1 7413   0.018   2.327   9.506  0.0517  0.2909 -0.3026
  499TMC3    C2 7414   0.118   2.253   9.560 -0.0265  0.1639 -0.3461
  499TMC3    C3 7415   0.243   2.289   9.519  0.2321  0.0780  0.3005
  499TMC3    C4 7416   0.035   2.434   9.415  0.7537  0.0064  0.0534
  499TMC3    C5 7417   0.164   2.463   9.375  0.1754  0.0201  0.1811
  499TMC3    C6 7418   0.267   2.393   9.424 -0.1334  0.5687  0.1238
  499TMC3     C 7419   4.603   2.316   9.565  0.4230 -0.4003  0.3784
  499TMC3     O 7420   4.526   2.406   9.531  0.6606 -0.1607  0.1099
  499TMC3     H 7421   0.112   2.190   9.648 -1.1323 -1.2821 -1.4601
  499TMC3    H1 7422   4.669   2.490   9.389 -0.2361 -0.6487  2.0778
  499TMC3    H2 7423   0.364   2.436   9.402 -0.5057  1.3516  0.0098
  499TMC3    C7 7424   0.197   2.565   9.273  0.1986  0.4979 -0.1547
  499TMC3    C8 7425   0.346   2.183   9.534 -0.1089 -0.4512 -0.0100
  499TMC3    O1 7426   0.316   2.594   9.253 -0.0753 -0.0816 -0.0531
  499TMC3    O2 7427   0.314   2.082   9.589  0.6943 -0.0338 -0.1686
  500MPD2     C 7428   1.035   4.689  10.057 -0.2825  0.8759 -0.2378
  500MPD2    C1 7429   1.051   4.625   9.933 -0.2971  0.0417 -0.3106
  500MPD2    C2 7430   0.945   4.604   9.844  1.2996  0.4575 -0.8241
  500MPD2    C3 7431   0.817   4.630   9.888 -0.2323  0.5013  0.6056
  500MPD2    C4 7432   0.798   4.696  10.014  0.3466  1.0315  1.0471
  500MPD2    C5 7433   0.907   0.003  10.094 -0.5365  0.1263  0.1127
  500MPD2     H 7434   0.968   4.566   9.745 -0.1751 -0.6827 -0.7242
  500MPD2    H1 7435   0.702   0.014  10.043 -0.5876 -0.2637 -0.2231
  500MPD2    H2 7436   1.114   4.709  10.128 -2.1018 -2.1803  2.6088
  500MPD2    H3 7437   0.897   0.044  10.193  2.1858 -2.4549  1.4534
  500MPD2     N 7438   0.700   4.597   9.819  1.0393 -0.2388  0.1435
  500MPD2    H5 7439   0.613   4.613   9.869  0.8572 -1.3213  0.1898
  500MPD2    N1 7440   1.185   4.591   9.899 -0.1606  0.2725 -0.2880
  500MPD2    H7 7441   1.206   4.559   9.805 -3.1953 -1.7473 -0.2732
  501TMC3    C1 7442   1.418   4.560   9.903 -0.1821  0.5675  0.3336
  501TMC3    C2 7443   1.465   4.662   9.819  0.7474  0.3434  0.1100
  501TMC3    C3 7444   1.600   4.690   9.841  0.1504 -0.3438 -0.3745
  501TMC3    C4 7445   1.500   4.490   9.988  0.2098  0.0367 -0.1927
  501TMC3    C5 7446   1.627   4.530  10.008 -0.3502 -0.1962 -0.8795
  501TMC3    C6 7447   1.684   4.623   9.925 -0.4730  0.8154  0.1204
  501TMC3     C 7448   1.299   4.598   9.977 -0.3560  0.2895 -0.1077
  501TMC3     O 7449   1.318   4.614  10.095  0.1174  0.4980 -0.3333
  501TMC3     H 7450   1.398   0.002   9.761 -0.4544 -1.3948 -0.4035
  501TMC3    H1 7451   1.453   4.420  10.057  0.4518 -0.2654 -0.3380
  501TMC3    H2 7452   1.784   4.663   9.939  0.3009 -1.5371  1.2290
  501TMC3    C7 7453   1.707   4.465  10.114  0.4324  0.7854  0.6279
  501TMC3    C8 7454   1.640   0.108   9.840 -0.0239  0.2774 -0.8740
  501TMC3    O1 7455   1.667   4.364  10.166 -0.0170  0.2756  0.0017
  501TMC3    O2 7456   1.738   0.152   9.893 -0.1414  0.0552 -0.0673
  502TMC3    C1 7457   0.805   3.575  15.057 -0.0756  0.8985  0.1380
  502TMC3    C2 7458   0.787   3.653  14.949  0.3125 -0.1152  0.1095
  502TMC3    C3 7459   0.685   3.628  14.862 -0.0513  0.0823 -0.2238
  502TMC3    C4 7460   0.713   3.477  15.085 -0.2149 -0.2561  0.3791
  502TMC3    C5 7461   0.613   3.453  14.997 -0.9525  0.0318 -0.2003
  502TMC3    C6 7462   0.598   3.524  14.878  0.0418  0.2172 -0.2662
  502TMC3     C 7463   0.908   3.604  15.160 -0.2602  0.7785 -0.2539
  502TMC3     O 7464   1.024   3.634  15.132 -0.4672 -0.1887  0.2708
  502TMC3     H 7465   0.865   3.723  14.920 -1.5781  2.6668  1.7622
  502TMC3    H1 7466   0.731   3.409  15.168  0.1881  0.4883  0.9010
  502TMC3    H2 7467   0.521   3.492  14.809  1.5447 -0.4365 -1.6388
  502TMC3    C7 7468   0.504   3.365  15.031 -0.5176  0.6205 -0.1012
  502TMC3    C8 7469   0.704   3.674  14.728  0.6161 -0.1006  0.9677
  502TMC3    O1 7470   0.544   3.255  15.069 -0.1477  0.4787  0.7240
  502TMC3    O2 7471   0.774   3.775  14.723  0.1221  0.2615 -0.3368
  503MPD2     C 7472   2.562   3.896  16.723  0.9674  0.7027 -0.0481
  503MPD2    C1 7473   2.678   3.928  16.781 -0.2350 -0.2759  0.0294
  503MPD2    C2 7474   2.743   3.830  16.863 -0.3811  0.7960 -0.2341
  503MPD2    C3 7475   2.685   3.705  16.884  0.1959 -0.0634 -0.0393
  503MPD2    C4 7476   2.566   3.675  16.816 -0.4875  0.0464 -0.2518
  503MPD2    C5 7477   2.507   3.771  16.736 -0.2292 -0.1868  0.4330
  503MPD2     H 7478   2.829   3.871  16.915 -1.3726  3.0023 -0.3371
  503MPD2    H1 7479   2.530   3.573  16.818  2.3837 -0.9544  0.5408
  503MPD2    H2 7480   2.503   3.964  16.663 -1.4565  0.0030  1.5692
  503MPD2    H3 7481   2.416   3.746  16.682 -0.2451  1.1425 -0.1523
  503MPD2     N 7482   2.750   3.609  16.962  0.3885 -0.4396  0.1718
  503MPD2    H5 7483   2.847   3.636  16.979  1.3535 -2.5808 -1.9613
  503MPD2    N1 7484   2.735   4.057  16.777  0.5877  0.8788 -0.1525
  503MPD2    H7 7485   2.815   4.081  16.835 -0.0340  1.9397  0.2797
  504TMC3    C1 7486   2.790   3.406  17.093 -0.0104  0.5048  0.4473
  504TMC3    C2 7487   2.731   3.323  17.179  0.0168 -0.2533 -0.0223
  504TMC3    C3 7488   2.811   3.273  17.278  0.2186 -0.2317  0.4312
  504TMC3    C4 7489   2.925   3.416  17.079  0.1372  0.2890 -0.2597
  504TMC3    C5 7490   3.003   3.343  17.162 -0.4855 -0.4933  0.6129
  504TMC3    C6 7491   2.951   3.278  17.271 -0.7977  0.3681  0.0950
  504TMC3     C 7492   2.698   3.482  17.004 -0.6025  0.0488  0.0646
  504TMC3     O 7493   2.596   3.416  16.972  0.1683 -0.0963  0.4762
  504TMC3     H 7494   2.627   3.295  17.172 -0.0793  0.4588 -1.5089
  504TMC3    H1 7495   2.969   3.467  16.994  2.0948  2.1438  1.8620
  504TMC3    H2 7496   3.004   3.226  17.350  1.3702  3.3240  0.5873
  504TMC3    C7 7497   3.127   3.298  17.102  0.0090  0.0683 -0.0766
  504TMC3    C8 7498   2.754   3.194  17.388  0.2901 -0.0538 -0.1672
  504TMC3    O1 7499   3.170   3.366  17.011  0.6467 -0.6721  0.5076
  504TMC3    O2 7500   2.642   3.150  17.372  0.0767  0.2741  0.1682
  505MPD2     C 7501   3.696   0.842  10.469  0.4934  0.6644  0.1303
  505MPD2    C1 7502   3.821   0.822  10.532 -0.4075  0.4676  0.0993
  505MPD2    C2 7503   3.845   0.876  10.654 -0.1430  0.0424  0.2066
  505MPD2    C3 7504   3.753   0.964  10.715  0.6356  0.4311  0.9614
  505MPD2    C4 7505   3.637   0.990  10.650 -0.1211 -0.2018  1.4112
  505MPD2    C5 7506   3.607   0.916  10.535  0.4702  0.0759  0.1072
  505MPD2     H 7507   3.944   0.860  10.696 -0.8020 -0.1004  1.6912
  505MPD2    H1 7508   3.563   1.058  10.690 -2.1814 -1.4029 -0.3457
  505MPD2    H2 7509   3.661   0.793  10.378  0.5422  1.4601 -0.3143
  505MPD2    H3 7510   3.510   0.925  10.487 -0.7356  0.5188  2.6354
  505MPD2     N 7511   3.778   1.039  10.839  0.1614 -0.4726  0.5378
  505MPD2    H5 7512   3.711   1.112  10.862  0.4320 -0.6114  1.7804
  505MPD2    N1 7513   3.911   0.734  10.467 -0.7756  0.5823  0.2466
  505MPD2    H7 7514   3.891   0.692  10.376  0.3684 -0.6019  0.5429
  506TMC3    C1 7515   4.111   0.598  10.436 -0.3901 -0.6779 -0.1458
  506TMC3    C2 7516   4.137   0.656  10.318 -0.0140  0.0382  0.1026
  506TMC3    C3 7517   4.268   0.679  10.282  0.5243 -0.1261  0.0453
  506TMC3    C4 7518   4.215   0.568  10.522  0.1679  0.5630  0.4305
  506TMC3    C5 7519   4.344   0.589  10.482  0.0994 -0.0984 -0.0018
  506TMC3    C6 7520   4.371   0.636  10.362 -0.2765  0.5845  0.9008
  506TMC3     C 7521   4.018   0.675  10.525  0.2374 -0.0007 -0.3650
  506TMC3     O 7522   4.080   0.696  10.628  0.0640 -0.2113  0.6305
  506TMC3     H 7523   4.059   0.698  10.255  0.3091 -0.2734 -0.5041
  506TMC3    H1 7524   4.195   0.519  10.616 -0.6638  0.0116 -0.0330
  506TMC3    H2 7525   4.474   0.657  10.333  0.0831 -0.0070  1.7715
  506TMC3    C7 7526   4.427   0.651  10.578 -0.2952  0.1430  0.5028
  506TMC3    C8 7527   4.279   0.799  10.196 -0.9626 -0.7288 -0.1975
  506TMC3    O1 7528   4.549   0.652  10.566  0.0424 -0.2518  0.5677
  506TMC3    O2 7529   4.180   0.872  10.203 -0.1284 -0.3649  0.7312
  507TMC3    C1 7530   3.615   3.741  14.845  0.0729  0.2477  0.6160
  507TMC3    C2 7531   3.584   3.676  14.724 -0.3514 -0.0760 -0.7554
  507TMC3    C3 7532   3.679   3.624  14.646 -0.1105 -0.8531 -0.9246
  507TMC3    C4 7533   3.747   3.748  14.889  0.1318 -0.2574  0.6521
  507TMC3    C5 7534   3.838   3.690  14.805 -0.0847  0.5573  0.5404
  507TMC3    C6 7535   3.808   3.624  14.690 -0.4662 -0.9760  0.3593
  507TMC3     C 7536   3.519   3.839  14.896 -0.2248  0.4033 -1.3200
  507TMC3     O 7537   3.410   3.841  14.845  0.2359  0.8844  0.1305
  507TMC3     H 7538   3.480   3.657  14.704 -1.4878  3.1418  2.1143
  507TMC3    H1 7539   3.778   3.815  14.969  1.9691  1.8372 -1.8141
  507TMC3    H2 7540   3.884   3.574  14.631  1.0537  2.8519 -0.9548
  507TMC3    C7 7541   3.953   3.778  14.808 -0.6715  0.7595  0.5034
  507TMC3    C8 7542   3.687   3.685  14.517  0.1334  0.0097 -0.2441
  507TMC3    O1 7543   4.007   3.818  14.907  0.0785  0.1134  0.0604
  507TMC3    O2 7544   3.794   3.739  14.493 -0.7923  0.2670 -0.1570
  508MPD2     C 7545   0.031   1.044  15.642  0.5003  0.1541 -0.4955
  508MPD2    C1 7546   4.707   1.153  15.709 -0.4637 -0.2351 -0.5347
  508MPD2    C2 7547   4.679   1.259  15.629 -0.4300  0.2870 -1.1610
  508MPD2    C3 7548   4.682   1.251  15.489  0.5145  0.0974 -0.3883
  508MPD2    C4 7549   0.010   1.136  15.431 -0.6958  0.1652  0.8262
  508MPD2    C5 7550   0.036   1.028  15.506  0.1480 -0.2762 -0.3763
  508MPD2     H 7551   4.653   1.356  15.669 -2.6320 -0.0669 -1.7138
  508MPD2    H1 7552   0.033   1.116  15.327  0.3742 -2.1784  1.5244
  508MPD2    H2 7553   0.056   0.953  15.694 -1.7230 -0.5309 -0.6004
  508MPD2    H3 7554   0.078   0.937  15.464  0.2937 -0.2995 -0.1810
  508MPD2     N 7555   4.634   1.359  15.410 -0.6564 -0.2448 -0.1466
  508MPD2    H5 7556   4.606   1.440  15.463 -0.9005  0.3898 -1.2346
  508MPD2    N1 7557   4.705   1.149  15.851 -0.2375  0.0517 -0.1538
  508MPD2    H7 7558   0.017   1.063  15.891 -0.6096  0.3880  0.8807
  509TMC3    C1 7559   4.446   1.677  15.325  1.1687 -0.1114 -0.2597
  509TMC3    C2 7560   4.504   1.756  15.233  0.6195  0.6480 -0.4052
  509TMC3    C3 7561   4.610   1.713  15.166 -0.2134  0.4026 -0.0555
  509TMC3    C4 7562   4.476   1.545  15.323  0.2382 -0.5931 -0.2416
  509TMC3    C5 7563   4.574   1.493  15.238 -0.0967 -0.4582 -0.6498
  509TMC3    C6 7564   4.648   1.581  15.169  0.0079  0.0522 -0.2102
  509TMC3     C 7565   4.426   1.727  15.457  0.2433 -0.1116 -0.1481
  509TMC3     O 7566   4.461   1.661  15.551  0.6355 -0.0961  0.4661
  509TMC3     H 7567   4.470   1.856  15.214 -0.6979  0.0843 -1.0088
  509TMC3    H1 7568   4.433   1.483  15.400 -1.6642  1.5372  0.4042
  509TMC3    H2 7569   0.019   1.553  15.121 -0.6256 -0.4826 -1.1366
  509TMC3    C7 7570   4.633   1.365  15.274 -0.0349 -1.2201  0.2519
  509TMC3    C8 7571   4.708   1.818  15.140  0.3137 -0.1262  0.0149
  509TMC3    O1 7572   4.710   1.304  15.197  0.2551  0.2270  0.0796
  509TMC3    O2 7573   0.061   1.805  15.046 -0.4614  0.3301  0.2660
  510MPD2     C 7574   2.458   3.228  14.461 -0.1803 -0.0954 -0.0223
  510MPD2    C1 7575   2.495   3.129  14.550 -0.0979 -0.2473 -0.2228
  510MPD2    C2 7576   2.630   3.115  14.571  0.2392 -0.3457 -0.7344
  510MPD2    C3 7577   2.728   3.197  14.513  0.9568 -0.0609 -0.2261
  510MPD2    C4 7578   2.681   3.289  14.424  0.6168  0.4269 -0.3689
  510MPD2    C5 7579   2.553   3.310  14.401 -0.0343 -0.5231  0.0483
  510MPD2     H 7580   2.666   3.050  14.649  1.3946  0.8061 -0.2902
  510MPD2    H1 7581   2.741   3.369  14.383  1.0990  0.9133  1.2840
  510MPD2    H2 7582   2.355   3.260  14.450 -0.2183 -0.6437 -1.2652
  510MPD2    H3 7583   2.520   3.392  14.339  2.7593  0.5167 -0.0726
  510MPD2     N 7584   2.863   3.184  14.548  0.1413 -0.7749  0.2665
  510MPD2    H5 7585   2.890   3.120  14.623  1.5593 -2.6578 -1.8404
  510MPD2    N1 7586   2.400   3.049  14.618 -0.2924  0.2164 -0.3386
  510MPD2    H7 7587   2.304   3.078  14.604  0.2586  2.2997  0.3160
  511TMC3    C1 7588   2.311   2.848  14.709  0.3460 -0.0149  0.0745
  511TMC3    C2 7589   2.216   2.916  14.785 -0.2425  0.5218 -0.0067
  511TMC3    C3 7590   2.113   2.838  14.838 -0.0645  0.6705 -0.1663
  511TMC3    C4 7591   2.314   2.712  14.689  0.0546 -0.7994  0.0843
  511TMC3    C5 7592   2.212   2.640  14.744  0.8205  0.2954 -0.1134
  511TMC3    C6 7593   2.112   2.698  14.816  0.2008  0.1356 -0.2536
  511TMC3     C 7594   2.430   2.920  14.665  0.0632 -0.0192  0.4779
  511TMC3     O 7595   2.535   2.855  14.658  0.0810 -0.5590  0.2356
  511TMC3     H 7596   2.236   3.017  14.817 -0.2201  0.8390 -1.0281
  511TMC3    H1 7597   2.390   2.660  14.632  0.7489 -0.4626  0.7058
  511TMC3    H2 7598   2.023   2.641  14.843  0.4809 -0.0717  0.2266
  511TMC3    C7 7599   2.190   2.516  14.676  0.6175 -0.5132  0.0039
  511TMC3    C8 7600   2.032   2.910  14.936 -0.0516 -0.2384 -0.6846
  511TMC3    O1 7601   2.226   2.500  14.561 -0.0008 -0.6449  0.1937
  511TMC3    O2 7602   2.036   3.032  14.936  0.3259 -0.3873  0.5217
  512TMC3    C1 7603   1.072   2.189  13.027  0.1987 -0.3745  0.0886
  512TMC3    C2 7604   1.187   2.179  13.105  0.4757  0.7980  0.3868
  512TMC3    C3 7605   1.214   2.060  13.168 -0.1356  0.2716  0.5681
  512TMC3    C4 7606   0.980   2.089  13.019 -0.8047 -0.5667  0.2492
  512TMC3    C5 7607   1.007   1.973  13.085  0.2896 -0.4042  0.7694
  512TMC3    C6 7608   1.122   1.959  13.161  0.1048 -0.0220  0.5473
  512TMC3     C 7609   1.038   2.328  12.985 -0.5186  0.5613 -0.6690
  512TMC3     O 7610   1.094   2.425  13.036  0.4574  0.5439 -0.1558
  512TMC3     H 7611   1.264   2.254  13.118  1.6931 -0.2421 -0.8650
  512TMC3    H1 7612   0.885   2.114  12.973 -1.6460 -0.9830  1.7681
  512TMC3    H2 7613   1.145   1.872  13.222  1.1175 -0.4158 -0.3963
  512TMC3    C7 7614   0.925   1.865  13.047  0.6831  0.3893 -0.6526
  512TMC3    C8 7615   1.345   2.035  13.218 -0.2727 -0.3793  0.7840
  512TMC3    O1 7616   0.811   1.886  13.004  0.5548 -0.1391 -0.2084
  512TMC3    O2 7617   1.384   1.921  13.187  0.0371 -0.1128 -0.6062
  513MPD2     C 7618   3.202   2.083  13.069 -0.3463 -0.8426 -0.1854
  513MPD2    C1 7619   3.205   2.224  13.061  0.1795 -0.6576 -0.3820
  513MPD2    C2 7620   3.187   2.302  13.177 -0.7397  0.6488  0.3236
  513MPD2    C3 7621   3.175   2.239  13.299  0.0599 -0.1898  0.1803
  513MPD2    C4 7622   3.168   2.104  13.304  0.5382 -0.1459 -0.3785
  513MPD2    C5 7623   3.185   2.025  13.188 -0.1320  0.2471 -0.0224
  513MPD2     H 7624   3.211   2.407  13.166  1.5042 -0.1544 -2.3946
  513MPD2    H1 7625   3.158   2.047  13.396  0.0667  0.0057 -0.3369
  513MPD2    H2 7626   3.212   2.032  12.974 -2.6983 -0.1884 -0.7910
  513MPD2    H3 7627   3.180   1.919  13.206 -0.7130 -0.1331 -2.4466
  513MPD2     N 7628   3.184   2.321  13.415  0.5627  0.1944  0.2240
  513MPD2    H5 7629   3.181   2.420  13.397 -0.1251 -0.2667 -2.1877
  513MPD2    N1 7630   3.235   2.295  12.943 -0.2824  0.6825  0.0357
  513MPD2    H7 7631   3.222   2.395  12.945 -0.6480  0.6381 -0.3237
  514TMC3    C1 7632   3.329   2.346  12.736 -0.2326  0.0045 -0.0634
  514TMC3    C2 7633   3.446   2.318  12.673 -0.2233 -0.3078 -0.6235
  514TMC3    C3 7634   3.540   2.414  12.651  0.2977 -0.4928  0.2538
  514TMC3    C4 7635   3.297   2.474  12.764 -0.4743  0.7819  0.6293
  514TMC3    C5 7636   3.398   2.570  12.754  0.6182  0.5441  0.3040
  514TMC3    C6 7637   3.517   2.541  12.701  0.2603  0.3674 -0.1689
  514TMC3     C 7638   3.282   2.243  12.828  0.6190  0.5164 -0.1016
  514TMC3     O 7639   3.318   2.131  12.794 -0.0256 -0.4068  0.2532
  514TMC3     H 7640   3.475   2.215  12.654  3.1984  0.4935  0.1746
  514TMC3    H1 7641   3.197   2.499  12.798 -0.5090 -0.9769  1.8479
  514TMC3    H2 7642   3.592   2.616  12.683 -0.5624  0.9306 -1.2113
  514TMC3    C7 7643   3.405   2.634  12.886  0.4866  1.0004  1.0280
  514TMC3    C8 7644   3.630   2.398  12.543  0.6351  0.0828 -0.4594
  514TMC3    O1 7645   3.323   2.593  12.962  0.0533  0.0181  0.2134
  514TMC3    O2 7646   3.654   2.499  12.482 -1.0267 -0.3159  0.0257
  515MPD2     C 7647   1.233   4.174  14.892 -0.6087 -0.2264  0.1564
  515MPD2    C1 7648   1.306   4.134  14.780  0.4313 -0.3520 -0.7883
  515MPD2    C2 7649   1.422   4.198  14.742  0.0144 -0.0645 -0.0842
  515MPD2    C3 7650   1.468   4.303  14.817 -0.3012  0.2431 -0.3824
  515MPD2    C4 7651   1.402   4.338  14.933  0.3319  0.4389 -0.6392
  515MPD2    C5 7652   1.283   4.278  14.966 -0.4336  0.4832 -0.1708
  515MPD2     H 7653   1.481   4.154  14.663  0.7696  0.9622 -0.0958
  515MPD2    H1 7654   1.446   4.419  14.991  2.0189  0.7363 -2.3303
  515MPD2    H2 7655   1.143   4.129  14.933  0.5376 -2.6142  0.0310
  515MPD2    H3 7656   1.229   4.310  15.054 -0.7681 -1.7297  0.4383
  515MPD2     N 7657   1.596   4.367  14.796 -0.5260  0.1184  0.1237
  515MPD2    H5 7658   1.617   4.443  14.860 -0.1279 -0.2026  0.3697
  515MPD2    N1 7659   1.256   4.027  14.698 -0.0153  0.0069  0.6169
  515MPD2    H7 7660   1.317   4.011  14.619 -2.0005 -1.6755 -0.5540
  516TMC3    C1 7661   1.122   3.839  14.630 -0.0976 -0.2890  0.1228
  516TMC3    C2 7662   1.158   3.864  14.498 -0.6305 -0.2107 -0.0760
  516TMC3    C3 7663   1.170   3.755  14.416 -0.0302  0.2212  0.0909
  516TMC3    C4 7664   1.078   3.716  14.671  0.0616  0.4738  0.1423
  516TMC3    C5 7665   1.084   3.612  14.584  0.5604  0.3882  0.3769
  516TMC3    C6 7666   1.134   3.626  14.458  0.1747  0.3430  0.0881
  516TMC3     C 7667   1.157   3.930  14.741 -0.7219 -0.0974  0.2333
  516TMC3     O 7668   1.125   3.912  14.858 -0.3762  0.6139 -0.5341
  516TMC3     H 7669   1.188   3.965  14.473  1.8406 -0.9726 -0.1517
  516TMC3    H1 7670   1.039   3.697  14.770  0.2342 -0.7944 -0.0384
  516TMC3    H2 7671   1.131   3.550  14.381  0.8772 -0.2888  0.6860
  516TMC3    C7 7672   1.021   3.486  14.629  0.0661 -0.0705 -0.7577
  516TMC3    C8 7673   1.141   3.778  14.274  0.5727  0.3993 -0.1112
  516TMC3    O1 7674   0.977   3.407  14.542  0.0236 -0.3625  0.9231
  516TMC3    O2 7675   1.073   3.696  14.209  0.4493 -0.0638 -0.2990
  517MPD2     C 7676   1.089   1.234  17.368 -0.4487  0.0375  0.4746
  517MPD2    C1 7677   1.105   1.139  17.468 -0.9015  0.2730 -0.1859
  517MPD2    C2 7678   1.140   1.178  17.602  0.4020 -0.3785  0.1268
  517MPD2    C3 7679   1.154   1.310  17.634 -0.4023  0.1121 -0.1877
  517MPD2    C4 7680   1.155   1.402  17.526 -0.2632  0.4722  0.5169
  517MPD2    C5 7681   1.114   1.367  17.397 -0.5542  0.3066 -0.6331
  517MPD2     H 7682   1.134   1.109  17.686  0.1415  0.2191  0.5937
  517MPD2    H1 7683   1.188   1.504  17.545 -0.6641  0.6072  0.4953
  517MPD2    H2 7684   1.063   1.203  17.267  0.2763 -2.4069  1.0209
  517MPD2    H3 7685   1.094   1.442  17.322 -1.0525 -0.5515 -1.3587
  517MPD2     N 7686   1.184   1.367   0.069 -0.2787 -0.1623  0.2940
  517MPD2    H5 7687   1.176   1.468   0.078 -1.7840 -0.5559  3.5031
  517MPD2    N1 7688   1.086   1.000  17.450 -0.3006 -0.1655 -0.1790
  517MPD2    H7 7689   1.104   0.939  17.530 -1.4698 -0.7192 -0.3373
  518TMC3    C1 7690   1.047   0.808  17.326 -0.5328 -0.1035  0.9328
  518TMC3    C2 7691   1.075   0.745  17.209  0.3512 -0.8499 -0.2427
  518TMC3    C3 7692   1.050   0.609  17.217 -0.9486  0.2770  0.2220
  518TMC3    C4 7693   1.007   0.742  17.441  0.2071 -0.0612 -0.6668
  518TMC3    C5 7694   0.971   0.610  17.434  0.0992  0.1140  0.8845
  518TMC3    C6 7695   0.997   0.542  17.322 -0.0880 -1.0620  0.8295
  518TMC3     C 7696   1.076   0.949  17.322 -0.0998  0.5890 -0.3998
  518TMC3     O 7697   1.087   0.993  17.212 -0.0420  0.0847  0.0363
  518TMC3     H 7698   1.101   0.801  17.120  2.0240  0.2550  0.9195
  518TMC3    H1 7699   0.988   0.794  17.533  2.2644  1.8995 -1.3612
  518TMC3    H2 7700   0.975   0.437  17.308 -0.7434 -0.8239  0.0617
  518TMC3    C7 7701   1.048   0.549  17.541 -0.2950 -0.2764  1.1271
  518TMC3    C8 7702   1.120   0.521  17.129 -0.3740  0.8016 -0.2766
  518TMC3    O1 7703   1.026   0.591  17.652  0.5434 -0.1477 -0.6871
  518TMC3    O2 7704   1.148   0.407  17.164  0.0963  0.0797  0.6445
  519MPD2     C 7705   2.642   4.197  14.221 -0.2060  0.3668  0.0641
  519MPD2    C1 7706   2.554   4.096  14.179 -0.4782  0.9093  0.1101
  519MPD2    C2 7707   2.593   3.963  14.190 -0.5999 -0.0809 -1.0513
  519MPD2    C3 7708   2.715   3.936  14.243  0.0525  0.5592  0.0955
  519MPD2    C4 7709   2.796   4.038  14.284  0.4312 -0.2200  0.1925
  519MPD2    C5 7710   2.763   4.166  14.269 -0.1667  0.0877  0.4831
  519MPD2     H 7711   2.540   3.884  14.139  1.4993 -0.6396 -2.3603
  519MPD2    H1 7712   2.896   4.015  14.318 -0.0165 -1.7035  0.5478
  519MPD2    H2 7713   2.616   4.301  14.205  1.7995  1.2971  2.9230
  519MPD2    H3 7714   2.831   4.245  14.299 -0.5326  0.5096  0.1972
  519MPD2     N 7715   2.766   3.807  14.238  0.5637 -0.4712  0.1817
  519MPD2    H5 7716   2.864   3.804  14.265  1.1963  2.0167 -1.8226
  519MPD2    N1 7717   2.441   4.141  14.111 -0.1340 -0.2131 -0.2221
  519MPD2    H7 7718   2.426   4.240  14.095  0.3207 -0.2275 -0.7043
  520TMC3    C1 7719   2.783   3.585  14.167  0.1508 -0.1469  0.4699
  520TMC3    C2 7720   2.744   3.530  14.052 -0.0142 -0.5614 -0.1945
  520TMC3    C3 7721   2.837   3.451  13.982  0.2426  0.0229  0.2790
  520TMC3    C4 7722   2.912   3.572  14.205  0.5225  0.2663  0.1580
  520TMC3    C5 7723   3.000   3.503  14.136  0.4736  0.0441  0.5288
  520TMC3    C6 7724   2.969   3.443  14.020 -0.4472  0.7171  0.2027
  520TMC3     C 7725   2.699   3.691  14.207  0.5505 -0.2229  0.0752
  520TMC3     O 7726   2.580   3.673  14.202  0.3197  0.3505 -0.2131
  520TMC3     H 7727   2.642   3.540  14.018  0.7001  1.1335 -1.8209
  520TMC3    H1 7728   2.943   3.605  14.303 -2.4820 -0.1571  1.2594
  520TMC3    H2 7729   3.046   3.393  13.961  0.8782  2.0170  0.8343
  520TMC3    C7 7730   3.137   3.478  14.186 -0.4239 -0.1835 -0.2365
  520TMC3    C8 7731   2.805   3.384  13.851  0.5569 -0.2790  0.0950
  520TMC3    O1 7732   3.164   3.487  14.307 -0.1285  0.1563  0.1285
  520TMC3    O2 7733   2.896   3.321  13.799 -0.0434 -0.0647  0.4157
  521MPD2     C 7734   3.742   1.612  17.620  0.5136 -0.2531 -0.0466
  521MPD2    C1 7735   3.764   1.486  17.572  0.3387  0.0542 -0.9392
  521MPD2    C2 7736   3.877   1.460  17.494 -0.3870  0.0807  0.0833
  521MPD2    C3 7737   3.947   1.571  17.444 -0.0848  0.8568 -1.3368
  521MPD2    C4 7738   3.914   1.700  17.480  0.2005  0.2861 -0.8377
  521MPD2    C5 7739   3.814   1.712  17.574 -0.4411  0.3919  0.2927
  521MPD2     H 7740   3.894   1.360  17.454  1.6238  0.3606  0.2727
  521MPD2    H1 7741   3.966   1.789  17.444  1.7031 -0.4393 -0.4522
  521MPD2    H2 7742   3.665   1.630   0.001 -0.3554 -0.7178 -0.8378
  521MPD2    H3 7743   3.806   1.813  17.613  0.9963  0.8345 -0.5607
  521MPD2     N 7744   4.040   1.545  17.344 -0.2049 -0.3251 -0.1518
  521MPD2    H5 7745   4.055   1.448  17.320 -2.2661 -0.1284 -2.2502
  521MPD2    N1 7746   3.676   1.386  17.603 -0.0338 -0.1350  0.0795
  521MPD2    H7 7747   3.598   1.409  17.664 -1.4405 -0.8866 -1.4301
  522TMC3    C1 7748   4.177   1.579  17.155 -0.2434 -0.2374 -0.2127
  522TMC3    C2 7749   4.287   1.643  17.107  0.0031  0.3333 -0.0768
  522TMC3    C3 7750   4.339   1.599  16.988 -0.9985  0.0664  0.3531
  522TMC3    C4 7751   4.112   1.481  17.089 -0.7093  0.1287  0.3354
  522TMC3    C5 7752   4.166   1.437  16.976 -0.1609  0.8266  0.3271
  522TMC3    C6 7753   4.282   1.493  16.922  0.0159  0.4049 -0.2531
  522TMC3     C 7754   4.120   1.634  17.273  0.2705  0.1884  0.6575
  522TMC3     O 7755   4.141   1.754  17.281  0.2732 -0.3280 -0.3300
  522TMC3     H 7756   4.320   1.735  17.153  0.8255  2.3715 -4.8160
  522TMC3    H1 7757   4.018   1.438  17.123  0.4960 -0.5461  2.8504
  522TMC3    H2 7758   4.313   1.449  16.827 -2.6305 -0.2881 -0.7857
  522TMC3    C7 7759   4.110   1.317  16.898  0.1480  0.0678  0.4972
  522TMC3    C8 7760   4.470   1.661  16.945  0.5083 -0.0918  0.3604
  522TMC3    O1 7761   4.168   1.295  16.792 -0.0959 -0.0410 -0.0106
  522TMC3    O2 7762   4.528   1.739  17.018 -1.0142 -0.3789  0.0055
  523MPD2     C 7763   1.947   1.039  10.344 -1.0511 -0.2899 -1.2075
  523MPD2    C1 7764   1.952   1.128  10.239 -0.0476  0.0035  0.5635
  523MPD2    C2 7765   1.940   1.257  10.273  1.6262 -0.1257  0.1110
  523MPD2    C3 7766   1.919   1.301  10.404 -0.3545  0.4488 -0.2800
  523MPD2    C4 7767   1.907   1.210  10.505 -0.6793  0.4458 -0.4266
  523MPD2    C5 7768   1.917   1.077  10.476  0.1085  0.3482  0.2175
  523MPD2     H 7769   1.947   1.333  10.196  0.0257  0.0153  0.0984
  523MPD2    H1 7770   1.909   1.244  10.607 -0.9226 -0.9191  0.0272
  523MPD2    H2 7771   1.967   0.934  10.329 -0.0856 -0.6078  2.3330
  523MPD2    H3 7772   1.912   0.999  10.552 -1.6373 -1.0542 -1.3545
  523MPD2     N 7773   1.908   1.438  10.439  0.1655 -0.0512 -0.0503
  523MPD2    H5 7774   1.891   1.449  10.539 -2.7500 -2.2000 -0.3153
  523MPD2    N1 7775   1.980   1.071  10.115 -0.0348  0.5080 -0.4231
  523MPD2    H7 7776   2.008   0.974  10.107  1.5383  0.8151  1.1815
  524TMC3    C1 7777   1.846   1.673  10.419  0.1750 -0.8338 -0.6990
  524TMC3    C2 7778   1.876   1.702  10.545  0.6433 -0.4387  0.1907
  524TMC3    C3 7779   1.820   1.808  10.602 -1.2053  0.1026 -0.6345
  524TMC3    C4 7780   1.756   1.751  10.341  0.1199 -0.7242  0.6270
  524TMC3    C5 7781   1.708   1.862  10.398  0.5205  0.4170  0.4991
  524TMC3    C6 7782   1.733   1.889  10.531 -0.1149 -0.2077 -0.6214
  524TMC3     C 7783   1.894   1.552  10.354 -0.1791  0.2348  0.0559
  524TMC3     O 7784   1.866   1.543  10.235 -0.4776 -0.0224 -0.2941
  524TMC3     H 7785   1.961   1.652  10.589  0.3080  0.1889  1.5610
  524TMC3    H1 7786   1.725   1.727  10.240  0.4159 -1.0518  0.6135
  524TMC3    H2 7787   1.661   1.957  10.575 -0.8658 -0.6409 -1.1794
  524TMC3    C7 7788   1.569   1.891  10.366  0.2655 -0.6869 -0.1995
  524TMC3    C8 7789   1.900   1.862  10.713  0.3581  0.8343 -0.4515
  524TMC3    O1 7790   1.485   1.800  10.377 -0.3730 -0.4301  0.1445
  524TMC3    O2 7791   2.012   1.889  10.696  0.8343  0.7386 -0.7885
  525MPD2     C 7792   4.091   3.517  14.531 -0.2745 -0.1797 -0.8475
  525MPD2    C1 7793   4.178   3.584  14.620  0.4313 -0.7200 -0.4802
  525MPD2    C2 7794   4.247   3.696  14.573  0.2983 -0.7421 -0.6308
  525MPD2    C3 7795   4.248   3.719  14.442  0.0650  0.8274 -1.0360
  525MPD2    C4 7796   4.160   3.662  14.350  0.4321 -0.4038  0.8529
  525MPD2    C5 7797   4.084   3.565  14.400  0.5235 -0.1734  0.1363
  525MPD2     H 7798   4.299   3.757  14.646  1.0201 -0.2456 -1.5661
  525MPD2    H1 7799   4.157   3.678  14.243  0.5022 -1.0019  0.7654
  525MPD2    H2 7800   4.038   3.425  14.553  1.0291 -0.6882  0.1353
  525MPD2    H3 7801   4.035   3.499  14.329  1.2327  0.6660 -1.1273
  525MPD2     N 7802   4.333   3.825  14.393 -0.4363  0.1269 -0.3390
  525MPD2    H5 7803   4.369   3.884  14.467  0.8299 -0.0627 -0.8078
  525MPD2    N1 7804   4.199   3.535  14.748 -0.8114 -0.2559 -0.1317
  525MPD2    H7 7805   4.274   3.581  14.798  0.2280  1.1430 -2.9919
  526TMC3    C1 7806   4.254   3.366  14.896 -0.2391 -0.1668  0.4040
  526TMC3    C2 7807   4.207   3.271  14.990 -0.0748  0.1566 -0.0900
  526TMC3    C3 7808   4.305   3.188  15.035  0.2150  0.2366  0.4128
  526TMC3    C4 7809   4.388   3.377  14.861 -0.0798 -0.0742  0.4229
  526TMC3    C5 7810   4.473   3.277  14.901 -0.4386  0.3548  0.2280
  526TMC3    C6 7811   4.432   3.189  14.997 -0.8262 -0.2349  0.0615
  526TMC3     C 7812   4.154   3.419  14.806 -0.8510  0.4883 -1.1846
  526TMC3     O 7813   4.040   3.377  14.792 -0.7881 -0.3230  0.0020
  526TMC3     H 7814   4.102   3.265  15.016  0.9631 -2.2485  3.6811
  526TMC3    H1 7815   4.427   3.442  14.783 -0.2483  1.7115  1.8243
  526TMC3    H2 7816   4.496   3.108  15.030  0.9569  1.1163 -0.0754
  526TMC3    C7 7817   4.609   3.286  14.853  0.4029 -0.6551  0.1523
  526TMC3    C8 7818   4.269   3.095  15.143  0.2176 -0.7931 -0.7461
  526TMC3    O1 7819   4.655   3.404  14.844 -0.2285 -0.2226 -0.0424
  526TMC3    O2 7820   4.337   2.997  15.163  0.4362 -0.4534 -0.4020
  527MPD2     C 7821   1.656   0.642   1.034  0.0303  0.3323 -0.3517
  527MPD2    C1 7822   1.762   0.579   1.097 -0.3364  0.7541  0.5548
  527MPD2    C2 7823   1.878   0.550   1.028 -0.1077 -0.1181 -0.1350
  527MPD2    C3 7824   1.880   0.558   0.890 -1.1165 -0.7785 -0.0963
  527MPD2    C4 7825   1.769   0.616   0.827  0.1309 -0.1411 -0.1171
  527MPD2    C5 7826   1.662   0.661   0.899  0.3236  0.1042  0.3063
  527MPD2     H 7827   1.961   0.510   1.084  0.8699 -0.3697 -1.7688
  527MPD2    H1 7828   1.768   0.656   0.726 -0.3550 -0.1431 -0.1107
  527MPD2    H2 7829   1.567   0.681   1.083 -0.2829  0.0810 -0.7224
  527MPD2    H3 7830   1.581   0.707   0.844  1.2710 -0.6087 -1.6918
  527MPD2     N 7831   2.006   0.527   0.825 -0.3591  0.1716 -0.4548
  527MPD2    H5 7832   2.074   0.479   0.883 -1.0035 -1.1049 -0.7493
  527MPD2    N1 7833   1.768   0.557   1.237 -0.4889  0.2191  0.0470
  527MPD2    H7 7834   1.857   0.525   1.273 -0.1233  0.5825 -0.5530
  528TMC3    C1 7835   1.729   0.609   1.459 -0.4306  0.4507 -0.2456
  528TMC3    C2 7836   1.865   0.610   1.479 -0.3761  0.3444  0.7003
  528TMC3    C3 7837   1.905   0.566   1.600 -0.0933 -0.3428 -0.0234
  528TMC3    C4 7838   1.639   0.577   1.554  0.0805 -0.5505  0.1715
  528TMC3    C5 7839   1.682   0.563   1.682 -0.2302  0.1981  0.4291
  528TMC3    C6 7840   1.817   0.560   1.704  0.7415  0.3013  0.2373
  528TMC3     C 7841   1.669   0.598   1.323 -0.0723  0.2951 -0.5183
  528TMC3     O 7842   1.559   0.641   1.304  0.4533 -0.1990 -0.4449
  528TMC3     H 7843   1.935   0.635   1.400 -0.7198 -0.8323  0.0182
  528TMC3    H1 7844   1.532   0.572   1.538 -0.0515 -1.0953  1.2062
  528TMC3    H2 7845   1.844   0.518   1.800  0.2597 -2.7245 -0.9539
  528TMC3    C7 7846   1.584   0.569   1.789  0.6113  0.3112 -0.2812
  528TMC3    C8 7847   2.043   0.595   1.631 -0.4680  1.3433  0.5766
  528TMC3    O1 7848   1.468   0.536   1.760  0.1608 -0.2578 -0.2564
  528TMC3    O2 7849   2.107   0.600   1.529 -0.3738  0.2639 -0.2061
  529MPD2     C 7850   0.327   4.571   0.968 -0.4851 -0.2061  0.2807
  529MPD2    C1 7851   0.252   4.486   0.891  0.2762  0.4056 -0.1637
  529MPD2    C2 7852   0.176   4.538   0.784  0.6699  0.1787  0.0514
  529MPD2    C3 7853   0.183   4.671   0.749 -0.0535  0.4565  0.7583
  529MPD2    C4 7854   0.268   0.031   0.826  0.2225 -0.6719 -0.0961
  529MPD2    C5 7855   0.337   4.703   0.929 -0.2406 -0.0022  0.3908
  529MPD2     H 7856   0.122   4.469   0.720 -2.5440  2.2608  0.5436
  529MPD2    H1 7857   0.280   0.135   0.795 -2.5923 -0.4179 -0.4042
  529MPD2    H2 7858   0.392   4.543   1.051 -0.5904  1.3234  0.8789
  529MPD2    H3 7859   0.387   0.054   0.990  0.3284 -0.8165  0.9019
  529MPD2     N 7860   0.111   0.002   0.646 -0.1773 -0.0122 -0.1677
  529MPD2    H5 7861   0.128   0.102   0.637  0.4495 -0.1412 -0.4196
  529MPD2    N1 7862   0.236   4.351   0.922  0.1814 -0.2698  0.1935
  529MPD2    H7 7863   0.202   4.290   0.849 -1.4852  3.0305 -1.8119
  530TMC3    C1 7864   0.249   4.141   1.006  0.0184 -0.3161 -0.4592
  530TMC3    C2 7865   0.339   4.043   1.040 -0.3724 -0.3416 -0.3410
  530TMC3    C3 7866   0.291   3.921   1.066  0.4507 -0.2179 -0.4038
  530TMC3    C4 7867   0.117   4.118   1.010  0.0802  0.7066 -0.1799
  530TMC3    C5 7868   0.076   3.993   1.045 -0.2571  0.3523 -0.1320
  530TMC3    C6 7869   0.155   3.886   1.060  0.2084 -0.2270  0.2156
  530TMC3     C 7870   0.287   4.283   1.028  0.8624  0.4934 -0.1577
  530TMC3     O 7871   0.360   4.322   1.118 -0.2588 -0.1209 -0.5504
  530TMC3     H 7872   0.446   4.061   1.043 -0.4328 -0.1485  0.9470
  530TMC3    H1 7873   0.049   4.203   1.004 -1.3902 -0.1026  4.5398
  530TMC3    H2 7874   0.125   3.789   1.098 -1.0841  0.8023  1.8250
  530TMC3    C7 7875   4.660   3.983   1.068 -0.3464  0.6340 -0.2127
  530TMC3    C8 7876   0.389   3.837   1.123  0.2722 -0.6413  0.1292
  530TMC3    O1 7877   4.590   4.082   1.051 -0.2007  0.1236  0.2521
  530TMC3    O2 7878   0.480   3.890   1.188 -0.2750  0.2213  0.3707
  531MPD2     C 7879   3.676   2.820  13.282 -0.3158  0.2692 -0.7816
  531MPD2    C1 7880   3.573   2.729  13.280 -0.7919  0.9555 -0.0254
  531MPD2    C2 7881   3.529   2.674  13.161  0.7923 -0.2529 -0.1849
  531MPD2    C3 7882   3.573   2.736  13.041  0.7040 -0.7481 -0.2355
  531MPD2    C4 7883   3.678   2.822  13.041 -0.3772 -0.2851 -0.1849
  531MPD2    C5 7884   3.728   2.863  13.160  1.4069 -0.4058  0.7946
  531MPD2     H 7885   3.460   2.590  13.161  1.6909 -0.9996 -1.1199
  531MPD2    H1 7886   3.714   2.869  12.951 -1.3999  1.0767  0.1313
  531MPD2    H2 7887   3.724   2.856  13.372  0.6807  0.1734 -1.2807
  531MPD2    H3 7888   3.804   2.940  13.168  1.6228 -0.3673 -1.3753
  531MPD2     N 7889   3.529   2.694  12.914 -0.1947 -0.1422  0.2461
  531MPD2    H5 7890   3.581   2.732  12.836 -1.8895  0.4215 -0.6251
  531MPD2    N1 7891   3.513   2.697  13.405  0.1519 -0.6734 -0.1308
  531MPD2    H7 7892   3.559   2.732  13.489 -0.9884 -0.2147  0.3050
  532TMC3    C1 7893   3.352   2.601  13.558  0.5232  0.7894  0.1224
  532TMC3    C2 7894   3.242   2.527  13.553  0.1483 -0.4194 -0.5064
  532TMC3    C3 7895   3.229   2.411  13.625 -0.2077 -0.0960  0.0268
  532TMC3    C4 7896   3.447   2.575  13.655 -0.2947 -0.2495 -0.3794
  532TMC3    C5 7897   3.431   2.463  13.734 -0.2871 -0.7035  0.6968
  532TMC3    C6 7898   3.333   2.373  13.705  0.1869 -0.1328 -0.6661
  532TMC3     C 7899   3.388   2.637  13.422  0.4364  0.3083 -0.4662
  532TMC3     O 7900   3.301   2.610  13.338  0.1555  0.5913 -0.0722
  532TMC3     H 7901   3.156   2.559  13.496 -0.8031 -2.6337 -0.3444
  532TMC3    H1 7902   3.541   2.627  13.659 -0.6206  0.2052  1.2091
  532TMC3    H2 7903   3.328   2.281  13.763 -0.2093 -0.5369 -1.3486
  532TMC3    C7 7904   3.554   2.408  13.791  0.1233  0.2468  0.4116
  532TMC3    C8 7905   3.176   2.298  13.549  0.4052 -0.1082  0.0404
  532TMC3    O1 7906   3.627   2.489  13.847  0.1611 -0.2645  0.0036
  532TMC3    O2 7907   3.176   2.188  13.602 -0.4519 -0.0506 -0.2364
  533TMC3    C1 7908   4.424   3.987  14.262 -0.4448  0.2316 -0.3073
  533TMC3    C2 7909   4.535   3.998  14.178 -0.5565 -0.0532  0.3288
  533TMC3    C3 7910   4.654   4.053  14.238 -0.3606  0.2980 -0.2081
  533TMC3    C4 7911   4.424   4.055  14.385 -0.1620  0.0734  0.1382
  533TMC3    C5 7912   4.540   4.109  14.433  0.0099 -0.2350 -0.6497
  533TMC3    C6 7913   4.655   4.112  14.359  0.1633 -0.4618 -0.3621
  533TMC3     C 7914   4.368   3.856  14.265 -0.8859  0.9353  0.2268
  533TMC3     O 7915   4.369   3.792  14.166  0.4524 -0.2308  0.2057
  533TMC3     H 7916   4.548   3.934  14.091 -1.1036 -0.5075  0.5781
  533TMC3    H1 7917   4.340   4.051  14.454  0.0474 -0.0409  0.3833
  533TMC3    H2 7918   0.024   4.150  14.402  0.1150  0.3264 -0.9643
  533TMC3    C7 7919   4.570   4.060  14.561  0.7156 -0.4680 -0.4157
  533TMC3    C8 7920   0.058   4.077  14.163  0.3800 -0.0791  0.5317
  533TMC3    O1 7921   4.528   3.945  14.576 -0.6107 -0.1266 -0.0140
  533TMC3    O2 7922   0.156   4.096  14.235 -0.2560  0.4094  0.0186
  534MPD2     C 7923   1.942   0.014   2.340  0.0954  0.5876  0.4867
  534MPD2    C1 7924   2.015   4.715   2.228 -0.3740  0.0817  0.6823
  534MPD2    C2 7925   1.959   4.629   2.131  0.4625  0.1972  0.3131
  534MPD2    C3 7926   1.829   4.590   2.144  0.5197 -0.3178 -0.1398
  534MPD2    C4 7927   1.754   4.620   2.248 -0.3212  0.1613 -0.7225
  534MPD2    C5 7928   1.814   4.690   2.347 -0.3908 -0.5953 -0.4058
  534MPD2     H 7929   2.016   4.614   2.040  0.5019  0.9725  0.2129
  534MPD2    H1 7930   1.651   4.592   2.264 -0.1461 -1.1285 -1.8726
  534MPD2    H2 7931   1.977   0.065   2.429  2.0653 -0.5538  0.3526
  534MPD2    H3 7932   1.759   4.713   2.437 -0.7180 -0.6191 -0.6018
  534MPD2     N 7933   1.753   4.531   2.040 -0.5026  0.2579 -0.4156
  534MPD2    H5 7934   1.660   4.506   2.074  0.5313 -2.0827  0.7005
  534MPD2    N1 7935   2.126   0.059   2.195 -0.0828 -0.3464 -0.4743
  534MPD2    H7 7936   2.179   0.050   2.109  1.6474  0.8804  0.4611
  535TMC3    C1 7937   1.686   4.468   1.819  0.2716 -0.3464 -0.5459
  535TMC3    C2 7938   1.566   4.430   1.872  0.3098 -0.5057 -0.4180
  535TMC3    C3 7939   1.459   4.438   1.794 -0.2014 -0.3078 -1.1488
  535TMC3    C4 7940   1.696   4.515   1.700  0.7597 -0.5051  0.1186
  535TMC3    C5 7941   1.583   4.511   1.623  0.4186  0.3352  0.4835
  535TMC3    C6 7942   1.458   4.481   1.668  0.1914 -0.5649 -0.5596
  535TMC3     C 7943   1.794   4.517   1.905  0.6719  0.0134 -0.3639
  535TMC3     O 7944   1.896   4.561   1.851 -0.8209 -0.0623  0.5590
  535TMC3     H 7945   1.565   4.404   1.977  0.0866 -2.0112 -0.7877
  535TMC3    H1 7946   1.781   4.572   1.665  0.4285  0.0777  0.2572
  535TMC3    H2 7947   1.371   4.471   1.603  1.1299 -1.6718 -1.6509
  535TMC3    C7 7948   1.613   4.522   1.475  0.2139  0.2104 -0.3619
  535TMC3    C8 7949   1.372   4.323   1.802  0.0729 -1.1154  0.1240
  535TMC3    O1 7950   1.728   4.502   1.435  0.1346 -0.4577  0.1327
  535TMC3    O2 7951   1.281   4.322   1.720  0.1833 -0.7719  1.0679
  536MPD2     C 7952   1.414   3.059  16.322  0.3391 -0.2395  0.7912
  536MPD2    C1 7953   1.285   3.030  16.375  0.2521  0.1073 -0.2545
  536MPD2    C2 7954   1.171   3.065  16.295 -0.0325  0.6042  0.4122
  536MPD2    C3 7955   1.183   3.148  16.186 -0.2086  0.1848 -0.1659
  536MPD2    C4 7956   1.308   3.167  16.133 -0.2277  0.2758 -0.0827
  536MPD2    C5 7957   1.421   3.126  16.204 -0.0617  0.3310 -0.4920
  536MPD2     H 7958   1.072   3.039  16.330  0.1131 -2.9306 -1.8177
  536MPD2    H1 7959   1.320   3.234  16.049 -1.8070 -0.4559 -0.8794
  536MPD2    H2 7960   1.501   3.042  16.385 -0.7801 -0.8295  2.1888
  536MPD2    H3 7961   1.519   3.157  16.170 -0.6802  1.1160 -1.5459
  536MPD2     N 7962   1.068   3.202  16.123  0.1840  0.5997 -0.1464
  536MPD2    H5 7963   1.081   3.228  16.026  2.0389  0.3233  0.0129
  536MPD2    N1 7964   1.284   2.962  16.500 -1.1292  0.0275 -0.0369
  536MPD2    H7 7965   1.375   2.949  16.543 -0.8904 -0.2519 -0.6315
  537TMC3    C1 7966   1.205   2.855  16.685  0.4181  0.3999 -0.5165
  537TMC3    C2 7967   1.270   2.925  16.783  0.4739 -0.2420 -0.4546
  537TMC3    C3 7968   1.244   2.898  16.916  1.2040  0.5759  0.0258
  537TMC3    C4 7969   1.107   2.759  16.724 -0.1270 -0.0297 -0.6022
  537TMC3    C5 7970   1.084   2.732  16.853  0.6173  0.1185  0.3131
  537TMC3    C6 7971   1.153   2.797  16.954 -0.5936 -0.5534  0.1376
  537TMC3     C 7972   1.171   2.915  16.562 -0.1760  0.9465 -0.1064
  537TMC3     O 7973   1.051   2.912  16.532  0.7969 -0.3946  0.1845
  537TMC3     H 7974   1.329   3.013  16.759 -0.7015 -0.0058 -2.5113
  537TMC3    H1 7975   1.048   2.713  16.646  0.1565 -0.4605 -0.5690
  537TMC3    H2 7976   1.142   2.765  17.057 -0.3234 -0.3337  0.2340
  537TMC3    C7 7977   0.984   2.636  16.887  0.4020 -0.7273  0.5548
  537TMC3    C8 7978   1.276   2.995  17.011 -0.1858  0.2655 -0.3230
  537TMC3    O1 7979   0.899   2.611  16.802  0.1054 -0.0973 -0.8786
  537TMC3    O2 7980   1.247   2.968  17.124  0.0071 -0.4205  0.0901
  538TMC3    C1 7981   2.502   1.205  10.450 -0.7283 -0.2033  0.5495
  538TMC3    C2 7982   2.563   1.313  10.388 -0.0785  0.6723 -0.5828
  538TMC3    C3 7983   2.522   1.436  10.420 -1.0529  0.3541 -0.1876
  538TMC3    C4 7984   2.383   1.220  10.519  0.2872 -0.4538  0.3470
  538TMC3    C5 7985   2.338   1.347  10.536 -0.5415  0.1397  0.2302
  538TMC3    C6 7986   2.410   1.453  10.495  0.1618  0.1900  0.1922
  538TMC3     C 7987   2.593   1.114  10.514  0.3010 -0.8635 -0.2085
  538TMC3     O 7988   2.690   1.082  10.452  0.2496 -0.2833 -0.0935
  538TMC3     H 7989   2.647   1.300  10.321 -1.2642 -2.5296 -1.4773
  538TMC3    H1 7990   2.331   1.137  10.564  2.2553 -1.3930  0.8946
  538TMC3    H2 7991   2.375   1.555  10.509 -0.1002  0.1008  0.1957
  538TMC3    C7 7992   2.241   1.364  10.642  0.4093  0.0987  0.4089
  538TMC3    C8 7993   2.624   1.546  10.393 -0.7109 -0.3677  0.0740
  538TMC3    O1 7994   2.167   1.269  10.672 -0.8301 -0.0036  0.2728
  538TMC3    O2 7995   2.722   1.510  10.330 -0.1953  0.4690 -0.2040
  539MPD2     C 7996   1.452   0.198  11.425 -0.1975 -0.8123  0.3278
  539MPD2    C1 7997   1.554   0.286  11.447 -0.6225  0.6475  0.2904
  539MPD2    C2 7998   1.534   0.421  11.467  0.0049 -0.0654 -0.1710
  539MPD2    C3 7999   1.398   0.466  11.467 -0.5352 -0.2087 -0.2761
  539MPD2    C4 8000   1.303   0.376  11.438  0.6399  0.1580  0.1726
  539MPD2    C5 8001   1.322   0.244  11.421 -0.6070  0.1343 -0.3037
  539MPD2     H 8002   1.617   0.490  11.472  0.0354 -0.1509  0.5446
  539MPD2    H1 8003   1.203   0.409  11.412  0.3557 -1.2733 -0.5447
  539MPD2    H2 8004   1.463   0.090  11.422  2.0574 -0.6292  2.0542
  539MPD2    H3 8005   1.251   0.163  11.405  0.2951 -0.3042 -2.0696
  539MPD2     N 8006   1.369   0.602  11.469 -0.3652  0.3518  1.2112
  539MPD2    H5 8007   1.275   0.630  11.440 -0.1915 -0.6571 -0.2924
  539MPD2    N1 8008   1.688   0.241  11.429 -0.2763  0.6431  0.1916
  539MPD2    H7 8009   1.759   0.312  11.415  0.5249 -0.1376  0.3260
  540TMC3    C1 8010   1.410   0.828  11.536  0.7285 -0.1990  0.4785
  540TMC3    C2 8011   1.412   0.886  11.408 -0.7216 -0.5182  0.5825
  540TMC3    C3 8012   1.425   1.019  11.392 -0.8581  0.4000  0.5519
  540TMC3    C4 8013   1.418   0.909  11.646  0.1703  0.0626 -0.2777
  540TMC3    C5 8014   1.441   1.040  11.632  0.6388 -0.5654  1.2339
  540TMC3    C6 8015   1.439   1.093  11.507 -0.8560 -0.2438  0.1175
  540TMC3     C 8016   1.444   0.688  11.549 -0.4539  0.1195 -0.4417
  540TMC3     O 8017   1.520   0.648  11.639  0.3957  0.3216  0.4995
  540TMC3     H 8018   1.424   0.825  11.320 -0.2958  1.3817 -0.6888
  540TMC3    H1 8019   1.429   0.858  11.741  0.0987 -1.3988 -1.0593
  540TMC3    H2 8020   1.438   1.201  11.503 -1.2149 -0.2310  0.5930
  540TMC3    C7 8021   1.386   1.124  11.735 -0.0688  0.3557  0.1343
  540TMC3    C8 8022   1.478   1.076  11.270 -0.2916  0.2307 -0.4620
  540TMC3    O1 8023   1.291   1.077  11.797  0.1055  0.5430  0.0906
  540TMC3    O2 8024   1.524   1.186  11.282 -0.5082  0.1007 -0.1600
  541MPD2     C 8025   4.645   2.724  13.183  0.4889  0.5396 -0.2413
  541MPD2    C1 8026   4.580   2.651  13.091  0.4614 -0.5204  0.5163
  541MPD2    C2 8027   4.603   2.686  12.961 -0.2179 -0.0489 -0.0880
  541MPD2    C3 8028   4.670   2.801  12.924 -0.6856  1.1674  0.1608
  541MPD2    C4 8029   4.710   2.888  13.024  0.4760  0.2943 -0.1937
  541MPD2    C5 8030   4.699   2.847  13.152  0.0516 -0.2815  0.3021
  541MPD2     H 8031   4.555   2.623  12.887  0.9264 -0.1950 -0.7136
  541MPD2    H1 8032   0.037   2.981  12.998 -0.8961  0.6155 -1.7107
  541MPD2    H2 8033   4.653   2.695  13.287  2.4057 -0.7258 -0.7526
  541MPD2    H3 8034   0.021   2.903  13.234 -1.7202 -0.3145  1.2797
  541MPD2     N 8035   4.682   2.821  12.789 -0.2499  0.6295 -0.1025
  541MPD2    H5 8036   4.683   2.915  12.751  1.1835  0.1163 -1.3379
  541MPD2    N1 8037   4.515   2.533  13.132 -0.3528 -0.2628 -0.2740
  541MPD2    H7 8038   4.540   2.500  13.225 -0.0705  0.8188  0.0296
  542TMC3    C1 8039   4.720   2.749  12.566  0.4745  0.5614 -0.2476
  542TMC3    C2 8040   0.067   2.671  12.475  0.3395  0.1819 -0.3683
  542TMC3    C3 8041   0.025   2.671  12.342 -0.7333 -1.0598  0.3499
  542TMC3    C4 8042   4.621   2.836  12.524  0.3204  0.1667 -0.0919
  542TMC3    C5 8043   4.593   2.837  12.394 -0.2691 -0.8167  0.3326
  542TMC3    C6 8044   4.644   2.749  12.303 -0.2450  0.8727 -0.1775
  542TMC3     C 8045   0.010   2.728  12.708 -0.1092 -0.4637 -0.7645
  542TMC3     O 8046   0.077   2.635  12.753  0.3822  0.7633 -0.0463
  542TMC3     H 8047   0.155   2.622  12.516  0.3181  0.1567 -0.3529
  542TMC3    H1 8048   4.573   2.906  12.591  0.9813 -0.2451  0.8057
  542TMC3    H2 8049   4.617   2.760  12.199  0.2088 -0.0110 -0.3863
  542TMC3    C7 8050   4.511   2.951  12.357  0.4155  0.3222 -0.3816
  542TMC3    C8 8051   0.080   2.586  12.245 -0.9201 -0.4620 -0.3465
  542TMC3    O1 8052   4.546   3.058  12.407  0.3961 -0.1289 -0.4493
  542TMC3    O2 8053   0.065   2.622  12.127  0.1751 -0.3335 -0.2490
  543TMC3    C1 8054   4.097   3.974  17.304 -0.3086  0.5218 -0.2614
  543TMC3    C2 8055   3.967   3.968  17.260  0.0742 -1.4555  0.0561
  543TMC3    C3 8056   3.872   3.900  17.336  0.3471  0.3633 -0.1320
  543TMC3    C4 8057   4.129   3.905  17.415 -0.7153 -0.6453 -0.8318
  543TMC3    C5 8058   4.038   3.834  17.492 -0.1051 -0.3260 -0.5884
  543TMC3    C6 8059   3.904   3.837  17.453  0.4539 -0.3768  0.0350
  543TMC3     C 8060   4.201   3.958  17.206 -0.2574  0.5608  0.7149
  543TMC3     O 8061   4.286   3.876  17.231 -0.5728 -0.0424 -0.3222
  543TMC3     H 8062   3.935   4.025  17.174  2.4263  1.7285  1.3297
  543TMC3    H1 8063   4.223   3.920  17.467 -2.8114  0.3092  2.6639
  543TMC3    H2 8064   3.840   3.763  17.501  0.3389 -0.8000 -0.7656
  543TMC3    C7 8065   4.065   3.811  17.632  0.1363  0.2067  0.1644
  543TMC3    C8 8066   3.775   3.823  17.262 -0.1498  0.6042  0.5229
  543TMC3    O1 8067   4.184   3.791  17.668  0.0308  0.4297 -0.1613
  543TMC3    O2 8068   3.808   3.807  17.152 -0.1166  0.0758 -0.1534
  544MPD2     C 8069   3.305   3.646  17.183  0.2020 -0.3697  0.1529
  544MPD2    C1 8070   3.423   3.632  17.114  0.5304 -0.2314  0.3791
  544MPD2    C2 8071   3.540   3.704  17.148 -0.6994 -0.0323 -0.1645
  544MPD2    C3 8072   3.538   3.776  17.269 -0.3848  0.8484  0.8218
  544MPD2    C4 8073   3.415   3.794  17.333  0.3191 -0.6770  0.2959
  544MPD2    C5 8074   3.296   3.736  17.288  0.0598 -0.1320  0.0055
  544MPD2     H 8075   3.631   3.689  17.090  1.4853  2.1824  2.6637
  544MPD2    H1 8076   3.400   3.855  17.422  0.9897 -0.9128  0.5681
  544MPD2    H2 8077   3.223   3.584  17.150 -0.7983  0.6612  0.6880
  544MPD2    H3 8078   3.201   3.737  17.341 -0.7188 -2.0874 -1.3640
  544MPD2     N 8079   3.650   3.828  17.324 -0.2178 -0.7180  0.1753
  544MPD2    H5 8080   3.641   3.882  17.409 -1.1094 -0.5773 -0.0033
  544MPD2    N1 8081   3.423   3.537  17.006  0.2890 -0.3355 -0.1260
  544MPD2    H7 8082   3.337   3.522  16.954  0.3842 -0.5000 -0.2393
  545TMC3    C1 8083   3.638   3.454  17.029 -0.3998  0.1900 -0.1113
  545TMC3    C2 8084   3.756   3.440  16.960 -0.7608 -0.1033  0.4567
  545TMC3    C3 8085   3.851   3.358  17.018  0.6409 -0.1415 -0.0521
  545TMC3    C4 8086   3.618   3.386  17.142 -0.3109 -0.1320 -0.0239
  545TMC3    C5 8087   3.720   3.310  17.196 -0.3332  0.5408  0.2476
  545TMC3    C6 8088   3.832   3.271  17.121 -0.0980  0.2684  0.3744
  545TMC3     C 8089   3.529   3.492  16.946  0.0991 -0.2799 -0.6778
  545TMC3     O 8090   3.541   3.434  16.841 -0.4039 -0.0731  0.4269
  545TMC3     H 8091   3.778   3.496  16.870 -1.5261 -0.5881 -0.0355
  545TMC3    H1 8092   3.518   3.374  17.184 -0.9772 -0.8317 -1.8234
  545TMC3    H2 8093   3.921   3.221  17.158 -0.1090 -0.3387 -0.4163
  545TMC3    C7 8094   3.684   3.231  17.316 -0.4281  0.8459  0.3745
  545TMC3    C8 8095   3.958   3.317  16.934 -0.4233 -0.2350 -0.1168
  545TMC3    O1 8096   3.600   3.277  17.392  0.8984 -0.3991 -0.0935
  545TMC3    O2 8097   3.997   3.201  16.939  0.1490  0.3511  0.3968
  546MPD2     C 8098   1.056   4.135  17.448  0.6144  0.1445 -0.0320
  546MPD2    C1 8099   1.062   4.061  17.331 -0.0743 -0.1006 -0.3107
  546MPD2    C2 8100   1.103   4.126  17.215  0.1707 -0.1232 -0.0152
  546MPD2    C3 8101   1.138   4.267  17.213 -0.2871  0.7165 -0.0152
  546MPD2    C4 8102   1.139   4.336  17.337 -0.3755 -0.2686 -0.0562
  546MPD2    C5 8103   1.089   4.268  17.444  0.4839  0.1880 -0.0332
  546MPD2     H 8104   1.117   4.080  17.117  1.1397  0.5323 -0.1870
  546MPD2    H1 8105   1.160   4.442  17.344  2.3539 -0.9588  1.8524
  546MPD2    H2 8106   1.035   4.089  17.544  0.8787 -0.4799 -0.2694
  546MPD2    H3 8107   1.065   4.329  17.530  0.9458  0.7213 -0.2814
  546MPD2     N 8108   1.172   4.325  17.089  0.5594 -0.6528  0.2630
  546MPD2    H5 8109   1.162   4.268  17.006  0.6575 -0.3882  0.0733
  546MPD2    N1 8110   1.026   3.923  17.333  0.4297 -0.3037  0.8442
  546MPD2    H7 8111   0.990   3.890  17.422 -0.9072 -1.9617 -0.3094
  547TMC3    C1 8112   0.951   3.719  17.289  0.5816 -0.4245  0.6895
  547TMC3    C2 8113   0.838   3.739  17.363  1.1997  0.2337 -0.0837
  547TMC3    C3 8114   0.759   3.632  17.404 -0.1712  0.4046 -1.2959
  547TMC3    C4 8115   0.982   3.591  17.246 -0.3024 -0.1712  0.0586
  547TMC3    C5 8116   0.909   3.487  17.289  0.0166  0.0262 -0.4303
  547TMC3    C6 8117   0.795   3.504  17.362 -0.8669 -0.5004  0.2359
  547TMC3     C 8118   1.023   3.824  17.235 -0.0358  0.8613 -0.5943
  547TMC3     O 8119   1.070   3.822  17.119  0.6697 -0.0222  0.0029
  547TMC3     H 8120   0.796   3.838  17.377  0.3097 -0.3575  1.3416
  547TMC3    H1 8121   1.076   3.577  17.194 -0.1440 -1.0954  0.6092
  547TMC3    H2 8122   0.738   3.418  17.396  0.3651 -2.2138 -2.0385
  547TMC3    C7 8123   0.927   3.348  17.242 -0.4186 -0.3196 -0.4911
  547TMC3    C8 8124   0.614   3.658  17.427 -1.2488 -0.3666 -0.1063
  547TMC3    O1 8125   0.886   3.264  17.321  0.3845 -0.4067 -0.4513
  547TMC3    O2 8126   0.577   3.748  17.502 -0.2035  0.6091  0.8161
  548MPD2     C 8127   0.703   4.454  12.225 -0.2898  0.0549 -0.0873
  548MPD2    C1 8128   0.643   4.335  12.256  0.0607  0.3227  0.6991
  548MPD2    C2 8129   0.728   4.219  12.257 -1.0775  0.3600  0.0083
  548MPD2    C3 8130   0.858   4.228  12.215  0.0564 -0.1367 -0.4355
  548MPD2    C4 8131   0.913   4.347  12.183 -0.2297  0.4654  0.7144
  548MPD2    C5 8132   0.834   4.460  12.191 -0.0709  0.2331 -1.2019
  548MPD2     H 8133   0.683   4.123  12.280 -3.3700  1.6097  0.7683
  548MPD2    H1 8134   1.012   4.363  12.144 -0.0929 -0.0118  0.8775
  548MPD2    H2 8135   0.649   4.546  12.208 -0.3020  0.2103  0.7668
  548MPD2    H3 8136   0.864   4.556  12.153 -1.1905  0.2298 -2.0886
  548MPD2     N 8137   0.933   4.113  12.180  1.1435 -0.5148  0.2299
  548MPD2    H5 8138   0.909   4.019  12.211  2.1670 -0.3285  1.5754
  548MPD2    N1 8139   0.507   4.348  12.274 -0.1878  0.4621 -0.1809
  548MPD2    H7 8140   0.465   4.434  12.242  1.4110  1.4434  0.3571
  549TMC3    C1 8141   0.289   4.276  12.357  0.0341  0.3867  0.7234
  549TMC3    C2 8142   0.229   4.387  12.289  0.2485  0.5385 -0.7682
  549TMC3    C3 8143   0.092   4.402  12.293  0.2465  0.0306 -0.3820
  549TMC3    C4 8144   0.220   4.189  12.438 -0.3808  0.0555  0.1908
  549TMC3    C5 8145   0.088   4.213  12.441 -0.9323  0.5355 -0.4502
  549TMC3    C6 8146   0.023   4.317  12.378 -0.2167 -0.0594 -0.4903
  549TMC3     C 8147   0.432   4.254  12.341 -0.1584 -0.3098 -0.2210
  549TMC3     O 8148   0.471   4.144  12.383 -0.3385 -0.3849 -0.3955
  549TMC3     H 8149   0.297   4.448  12.230  0.2120  1.0653 -0.2682
  549TMC3    H1 8150   0.265   4.109  12.494  0.9180  1.7382  1.5673
  549TMC3    H2 8151   4.640   4.327  12.399 -0.1722 -1.0227  0.1697
  549TMC3    C7 8152   0.004   4.102  12.492  0.7468  0.3201  0.0423
  549TMC3    C8 8153   0.026   4.520  12.240 -0.3619 -0.6138 -0.0832
  549TMC3    O1 8154   4.606   4.127  12.499 -0.4874 -0.5050  0.5198
  549TMC3    O2 8155   4.630   4.513  12.196 -1.0171 -0.0829 -0.0201
  550TMC3    C1 8156   4.598   1.898  12.064 -0.1428  0.4911 -0.0037
  550TMC3    C2 8157   4.612   1.998  12.167  0.1056 -0.2256 -0.1572
  550TMC3    C3 8158   4.642   2.124  12.127 -0.0665  0.1785 -0.9530
  550TMC3    C4 8159   4.597   1.931  11.928 -0.8463 -0.0881  0.1619
  550TMC3    C5 8160   4.629   2.059  11.897 -0.9439 -0.3493  0.1621
  550TMC3    C6 8161   4.664   2.151  11.992 -0.0825  0.7695 -0.1150
  550TMC3     C 8162   4.505   1.803  12.113  0.2184  0.6661 -0.2889
  550TMC3     O 8163   4.523   1.758  12.225  0.6172  0.5351  0.1390
  550TMC3     H 8164   4.592   1.972  12.270  2.9050 -0.9107  0.2273
  550TMC3    H1 8165   4.558   1.863  11.853 -0.9322  1.1679 -0.9127
  550TMC3    H2 8166   4.672   2.252  11.953  0.2745  1.2667  1.2366
  550TMC3    C7 8167   4.553   2.119  11.792  0.1326  0.0140  1.0234
  550TMC3    C8 8168   4.613   2.239  12.205  0.1557 -0.1635  0.0171
  550TMC3    O1 8169   4.468   2.041  11.753 -0.0695 -0.2563 -0.1425
  550TMC3    O2 8170   4.554   2.328  12.137  0.0576 -0.0171  0.1929
  551TMC3    C1 8171   1.617   4.526  13.195  0.3299 -0.0217  0.2308
  551TMC3    C2 8172   1.736   4.543  13.122  0.5217  0.7587 -0.0261
  551TMC3    C3 8173   1.820   4.649  13.162 -0.8733 -0.7520  0.5763
  551TMC3    C4 8174   1.593   4.594  13.310  0.6447 -1.1400 -0.8218
  551TMC3    C5 8175   1.682   4.695  13.336  0.1212 -0.2680  0.3955
  551TMC3    C6 8176   1.794   4.722  13.271  1.1241 -0.3500 -0.2920
  551TMC3     C 8177   1.516   4.444  13.133 -0.5856 -0.0993  0.8013
  551TMC3     O 8178   1.537   4.419  13.014 -0.0591 -0.5189 -0.3033
  551TMC3     H 8179   1.766   4.469  13.049  1.2548  0.7280  0.3032
  551TMC3    H1 8180   1.503   4.583  13.369  0.4169  1.3621 -0.7017
  551TMC3    H2 8181   1.854   0.084  13.302 -0.3188  1.8633 -3.5928
  551TMC3    C7 8182   1.629   0.054  13.447  0.6814  0.7313 -0.0350
  551TMC3    C8 8183   1.948   4.662  13.090 -0.2848 -0.2878 -0.2764
  551TMC3    O1 8184   1.560   0.004  13.533 -0.3828 -0.1164 -0.3000
  551TMC3    O2 8185   1.991   4.566  13.028  0.4562 -0.9539 -0.5906
  552MPD2     C 8186   3.635   2.280  14.168  1.0238 -0.3728 -0.2146
  552MPD2    C1 8187   3.631   2.143  14.182  0.1891 -0.5139  0.3695
  552MPD2    C2 8188   3.724   2.076  14.258  0.6854  0.3674 -0.6546
  552MPD2    C3 8189   3.836   2.134  14.310 -0.0354  0.5372  0.2860
  552MPD2    C4 8190   3.842   2.272  14.292  0.3437  0.0978  0.4722
  552MPD2    C5 8191   3.745   2.340  14.229 -1.0098  0.0463 -0.2482
  552MPD2     H 8192   3.717   1.968  14.267 -2.4518  0.6586  0.3542
  552MPD2    H1 8193   3.925   2.329  14.331  0.6676 -0.1597  0.1681
  552MPD2    H2 8194   3.555   2.332  14.119 -0.8138 -2.6851  0.3229
  552MPD2    H3 8195   3.762   2.446  14.220 -0.0089 -0.2108 -1.5339
  552MPD2     N 8196   3.933   2.064  14.388 -0.2858  0.3729  0.0612
  552MPD2    H5 8197   4.014   2.116  14.418  0.9466 -0.3510 -2.0219
  552MPD2    N1 8198   3.522   2.066  14.132  0.2252  0.0426 -0.3061
  552MPD2    H7 8199   3.521   1.971  14.166 -1.4312  0.4450  0.7744
  553TMC3    C1 8200   3.339   1.991  14.004  0.0293 -0.1507 -0.0262
  553TMC3    C2 8201   3.306   1.996  13.869 -0.0644  1.0041 -1.0341
  553TMC3    C3 8202   3.262   1.887  13.800 -0.1753  0.2343 -0.3398
  553TMC3    C4 8203   3.320   1.875  14.074 -1.3845  0.0377 -0.2010
  553TMC3    C5 8204   3.273   1.763  14.008  0.2543  0.0612 -0.2005
  553TMC3    C6 8205   3.250   1.771  13.876  0.6776 -0.6534  0.1444
  553TMC3     C 8206   3.413   2.107  14.051  0.3321  0.5171  0.0857
  553TMC3     O 8207   3.385   2.217  14.003 -0.6069  0.2471 -0.2350
  553TMC3     H 8208   3.339   2.082  13.812  1.3964  0.6775 -0.6844
  553TMC3    H1 8209   3.345   1.872  14.180  1.4396  2.8156 -0.7858
  553TMC3    H2 8210   3.233   1.676  13.825 -2.9255  0.7417 -1.2779
  553TMC3    C7 8211   3.344   1.642  14.039  0.7901  0.2872  0.6532
  553TMC3    C8 8212   3.328   1.870  13.677 -0.1626 -0.1356  0.1723
  553TMC3    O1 8213   3.281   1.540  14.054  0.0232 -0.1255  0.3663
  553TMC3    O2 8214   3.434   1.932  13.658  0.5290  0.3216  0.4258
  554TMC3    C1 8215   0.748   0.864  11.729 -0.2878 -0.5446  0.4980
  554TMC3    C2 8216   0.694   0.838  11.606  1.2318  0.0282 -0.3344
  554TMC3    C3 8217   0.747   0.892  11.492  0.1628 -0.0846  0.0663
  554TMC3    C4 8218   0.850   0.953  11.745  0.1439  0.2001 -0.4237
  554TMC3    C5 8219   0.898   1.012  11.632  0.2129  0.7172  0.9490
  554TMC3    C6 8220   0.852   0.979  11.504  0.1008  0.4208 -0.9382
  554TMC3     C 8221   0.698   0.796  11.850  0.1496 -0.0937  0.8046
  554TMC3     O 8222   0.590   0.742  11.832 -0.0764 -0.1474  0.2962
  554TMC3     H 8223   0.609   0.771  11.598  1.3891 -0.1912 -0.1956
  554TMC3    H1 8224   0.902   0.974  11.838 -0.6389  0.9433 -0.1451
  554TMC3    H2 8225   0.902   1.022  11.417  2.2577  0.7793  0.4873
  554TMC3    C7 8226   0.989   1.118  11.645 -0.5871  0.3498  0.8622
  554TMC3    C8 8227   0.690   0.869  11.365  0.4527 -0.9202 -0.2714
  554TMC3    O1 8228   0.996   1.182  11.751 -0.4171  0.8406  0.1160
  554TMC3    O2 8229   0.725   0.954  11.284  0.3040 -0.2032  0.1729
  555TMC3    C1 8230   4.424   0.450  14.911  0.8708 -0.6565 -1.2018
  555TMC3    C2 8231   4.362   0.511  15.018  0.0932  0.1605  0.4813
  555TMC3    C3 8232   4.426   0.492  15.137  0.1372  1.2024  0.3504
  555TMC3    C4 8233   4.529   0.365  14.921 -0.1261 -0.6143  0.6287
  555TMC3    C5 8234   4.581   0.350  15.041 -0.4466  0.3193  0.4222
  555TMC3    C6 8235   4.533   0.408  15.159 -0.2136  1.0251  0.1693
  555TMC3     C 8236   4.436   0.538  14.794  0.4114  1.2341  0.2197
  555TMC3     O 8237   4.546   0.545  14.742 -0.2691  0.1195 -0.6036
  555TMC3     H 8238   4.285   0.587  15.016  0.1387  0.2110  0.6687
  555TMC3    H1 8239   4.564   0.302  14.840 -0.1796 -0.4212  0.4555
  555TMC3    H2 8240   4.545   0.366  15.258  1.0196 -3.0553 -1.6956
  555TMC3    C7 8241   4.666   0.229  15.058  0.1467 -0.9828 -0.1553
  555TMC3    C8 8242   4.398   0.588  15.243  0.7553 -0.0593  0.1059
  555TMC3    O1 8243   4.637   0.129  14.992 -0.0635 -0.2239  0.0401
  555TMC3    O2 8244   4.298   0.661  15.233  0.3082  0.4586  0.5544
  556MPD2     C 8245   2.285   2.369  11.481  0.1031  0.4210 -0.7534
  556MPD2    C1 8246   2.412   2.311  11.452  0.1678  0.5722 -0.6720
  556MPD2    C2 8247   2.438   2.295  11.317  0.2080 -0.7613  0.0451
  556MPD2    C3 8248   2.341   2.319  11.226  0.2282 -0.3894 -0.0060
  556MPD2    C4 8249   2.215   2.337  11.263  0.0769 -0.7483 -0.0789
  556MPD2    C5 8250   2.187   2.366  11.393 -0.4126  0.1714  0.5594
  556MPD2     H 8251   2.539   2.278  11.279  0.9634  0.9109  1.3307
  556MPD2    H1 8252   2.128   2.351  11.199  0.5610  1.3432 -0.3020
  556MPD2    H2 8253   2.266   2.413  11.578  0.6119  0.2917 -0.5919
  556MPD2    H3 8254   2.094   2.406  11.431 -0.2787  0.8603  0.1457
  556MPD2     N 8255   2.381   2.315  11.090  0.5449 -0.3491 -0.7756
  556MPD2    H5 8256   2.482   2.306  11.080  0.4364  0.0249 -2.2281
  556MPD2    N1 8257   2.508   2.281  11.553  0.8878 -0.4000 -0.1655
  556MPD2    H7 8258   2.604   2.274  11.519  0.8512 -0.6717 -0.2089
  557TMC3    C1 8259   2.360   2.317  10.854 -0.5570 -0.5771  0.0807
  557TMC3    C2 8260   2.286   2.347  10.742 -0.7381  0.6474  0.6612
  557TMC3    C3 8261   2.356   2.345  10.624 -0.1083 -1.0201 -0.4562
  557TMC3    C4 8262   2.478   2.258  10.848 -0.2463  0.2178  0.1511
  557TMC3    C5 8263   2.544   2.250  10.729 -0.3547 -0.8691  0.2317
  557TMC3    C6 8264   2.491   2.300  10.611 -0.0815  0.5034 -0.6005
  557TMC3     C 8265   2.295   2.328  10.982  0.0638 -0.2359  0.3383
  557TMC3     O 8266   2.175   2.345  10.979 -0.3794 -0.3808 -0.2167
  557TMC3     H 8267   2.185   2.386  10.743 -1.0835 -0.2504  0.0660
  557TMC3    H1 8268   2.530   2.216  10.933  0.2631  2.2337  0.8514
  557TMC3    H2 8269   2.546   2.299  10.518 -0.7751 -1.0746 -0.9893
  557TMC3    C7 8270   2.621   2.124  10.713 -0.2737  0.2700 -0.1853
  557TMC3    C8 8271   2.274   2.342  10.504 -0.0706 -0.0109  0.3010
  557TMC3    O1 8272   2.587   2.035  10.794  0.3527 -0.2250 -0.4431
  557TMC3    O2 8273   2.154   2.313  10.507 -0.4311 -0.1876 -0.3382
  558TMC3    C1 8274   0.580   4.447   9.687  0.0046 -0.3433  0.4863
  558TMC3    C2 8275   0.558   4.368   9.794 -0.0005  0.4520  0.9000
  558TMC3    C3 8276   0.482   4.260   9.762  0.9898  0.1821  0.3111
  558TMC3    C4 8277   0.544   4.416   9.563 -0.1380  0.6945 -0.3707
  558TMC3    C5 8278   0.477   4.302   9.535 -0.6838  0.4881  0.2455
  558TMC3    C6 8279   0.435   4.225   9.639 -0.0735  0.2758 -0.7049
  558TMC3     C 8280   0.700   4.529   9.700  0.0175 -0.5434 -0.3372
  558TMC3     O 8281   0.788   4.522   9.614  0.4951  0.0704 -0.0483
  558TMC3     H 8282   0.587   4.393   9.895 -0.9315  1.3496  0.9448
  558TMC3    H1 8283   0.580   4.475   9.479 -1.3098  0.0478 -1.3320
  558TMC3    H2 8284   0.380   4.134   9.620 -2.4615  1.7903 -1.0511
  558TMC3    C7 8285   0.444   4.281   9.397  1.6077 -0.7511  0.4577
  558TMC3    C8 8286   0.458   4.163   9.870  0.1188 -0.1946 -0.2664
  558TMC3    O1 8287   0.438   4.377   9.318  0.0246  0.5651 -0.4689
  558TMC3    O2 8288   0.381   4.074   9.845 -0.4730  0.2875 -0.1059
  559MPD2     C 8289   0.624   0.142  10.441 -0.0994  0.3608 -0.4159
  559MPD2    C1 8290   0.590   0.067  10.547  0.5009  0.1343 -0.3339
  559MPD2    C2 8291   0.669   0.076  10.659  0.0682  0.0744 -0.2641
  559MPD2    C3 8292   0.790   0.143  10.671  0.5430  0.2658  0.2515
  559MPD2    C4 8293   0.824   0.206  10.555  0.4489  0.3656  0.0156
  559MPD2    C5 8294   0.742   0.210  10.446  0.4889 -0.1710 -0.7486
  559MPD2     H 8295   0.632   0.032  10.751 -0.8936  0.2558 -0.5580
  559MPD2    H1 8296   0.918   0.260  10.546  1.4143 -1.3221  0.1180
  559MPD2    H2 8297   0.562   0.149  10.352 -1.5967  0.3044  0.6302
  559MPD2    H3 8298   0.771   0.267  10.359  0.7078 -0.0522 -0.5991
  559MPD2     N 8299   0.868   0.143  10.791  0.5085  0.0552  0.0681
  559MPD2    H5 8300   0.829   0.089  10.868 -2.4726  1.7284 -0.2452
  559MPD2    N1 8301   0.463   0.003  10.547  0.6438  0.4242  0.9257
  559MPD2    H7 8302   0.413   0.012  10.459  1.5930 -0.0938  0.3384
  560TMC3    C1 8303   1.040   0.212  10.949  0.2608  0.5436 -0.3246
  560TMC3    C2 8304   1.082   0.089  10.985 -0.1293  0.2392 -0.6484
  560TMC3    C3 8305   1.219   0.068  11.007 -0.0727 -0.4029  0.0329
  560TMC3    C4 8306   1.123   0.317  10.965  0.4293 -0.0127 -0.1625
  560TMC3    C5 8307   1.253   0.304  10.995  0.0160  0.1811 -0.5324
  560TMC3    C6 8308   1.303   0.174  11.017 -0.5569  0.6417  1.0836
  560TMC3     C 8309   0.978   0.224  10.817  0.0595 -0.2131 -0.3696
  560TMC3     O 8310   1.021   0.314  10.745 -0.4705  0.5774  0.8146
  560TMC3     H 8311   1.013   0.006  10.975  1.1985 -0.9370 -0.0069
  560TMC3    H1 8312   1.073   0.412  10.949  0.0391 -0.1620  0.1671
  560TMC3    H2 8313   1.405   0.158  11.050 -0.1296 -0.8195 -0.9682
  560TMC3    C7 8314   1.329   0.418  11.047  0.2457 -0.3693  0.1767
  560TMC3    C8 8315   1.272   4.665  10.940 -0.2710 -0.3420 -0.5439
  560TMC3    O1 8316   1.270   0.513  11.100  0.5463  0.3537  0.3098
  560TMC3    O2 8317   1.188   4.573  10.933 -0.1304 -0.8393  0.0318
  561TMC3    C1 8318   3.386   3.569  11.103 -0.1096  0.2259  0.0352
  561TMC3    C2 8319   3.319   3.528  11.215 -0.1429  0.2344  0.3145
  561TMC3    C3 8320   3.260   3.625  11.299 -0.3757 -0.1582 -0.7027
  561TMC3    C4 8321   3.395   3.702  11.071 -0.0928 -0.0818 -0.1649
  561TMC3    C5 8322   3.338   3.794  11.160  0.2046  0.8341 -0.5060
  561TMC3    C6 8323   3.278   3.756  11.278 -0.1267 -1.2330 -0.2285
  561TMC3     C 8324   3.492   3.474  11.078 -0.5729  0.2743 -0.5808
  561TMC3     O 8325   3.504   3.388  11.164  0.3201 -1.2381 -0.8419
  561TMC3     H 8326   3.306   3.422  11.236 -0.3652  0.1650 -0.1827
  561TMC3    H1 8327   3.456   3.735  10.988  2.8907 -0.6126  1.8603
  561TMC3    H2 8328   3.241   3.826  11.351 -1.3399 -0.6996 -1.3435
  561TMC3    C7 8329   3.319   3.938  11.134  0.1243 -0.8697  0.2661
  561TMC3    C8 8330   3.176   3.578  11.408 -0.2065 -0.4378 -0.4883
  561TMC3    O1 8331   3.246   4.005  11.210 -0.1592  0.2578  0.5452
  561TMC3    O2 8332   3.186   3.455  11.418 -0.6000  0.1306  0.3235
  562TMC3    C1 8333   4.577   0.987  16.369  0.0239 -0.1151  0.3106
  562TMC3    C2 8334   4.490   1.096  16.334  0.3335 -0.6755  0.7808
  562TMC3    C3 8335   4.423   1.084  16.217 -0.8301 -0.8264  0.3454
  562TMC3    C4 8336   4.585   0.874  16.295  0.8219 -0.2220 -0.3171
  562TMC3    C5 8337   4.517   0.872  16.174  0.6185 -0.7505  0.7367
  562TMC3    C6 8338   4.438   0.973  16.135  0.1301 -0.5437 -0.3217
  562TMC3     C 8339   4.645   0.984  16.500  0.0479 -0.3975  0.1442
  562TMC3     O 8340   4.678   1.093  16.544 -0.3952 -0.2369 -0.6371
  562TMC3     H 8341   4.481   1.179  16.403  2.3913  1.0076 -0.9655
  562TMC3    H1 8342   4.645   0.790  16.329  0.4880  0.1421  1.1860
  562TMC3    H2 8343   4.374   0.974  16.048  0.5738  1.5665 -0.6299
  562TMC3    C7 8344   4.477   0.751  16.117  0.2076  0.5481  0.1094
  562TMC3    C8 8345   4.311   1.172  16.214 -0.0348  0.0950  0.5758
  562TMC3    O1 8346   4.377   0.749  16.051 -0.2928 -0.0654  0.5669
  562TMC3    O2 8347   4.284   1.232  16.312 -0.1791 -0.0281  0.0389
  563MPD2     C 8348   2.491   2.219  15.751  0.0309 -0.2983 -0.2499
  563MPD2    C1 8349   2.441   2.275  15.867 -0.0372 -0.0468  0.2211
  563MPD2    C2 8350   2.527   2.285  15.983  0.3381  0.4965 -0.4477
  563MPD2    C3 8351   2.662   2.249  15.973 -0.6031 -0.0334 -0.5641
  563MPD2    C4 8352   2.703   2.190  15.858  0.0983  0.2516  0.2887
  563MPD2    C5 8353   2.624   2.183  15.744  0.8378 -0.5682 -0.7820
  563MPD2     H 8354   2.477   2.336  16.064 -0.5184 -3.2840  1.4087
  563MPD2    H1 8355   2.809   2.176  15.843  0.5891 -0.5556  4.6571
  563MPD2    H2 8356   2.434   2.213  15.659  0.8525  1.6919 -0.8960
  563MPD2    H3 8357   2.665   2.140  15.654  0.4942 -0.2509 -1.0864
  563MPD2     N 8358   2.736   2.263  16.092  0.2324  0.3756  0.2992
  563MPD2    H5 8359   2.691   2.307  16.172 -2.0943 -0.0215 -0.7646
  563MPD2    N1 8360   2.306   2.305  15.896 -0.2865  0.0308  0.0557
  563MPD2    H7 8361   2.292   2.348  15.986  0.1588 -1.4425  0.8344
  564TMC3    C1 8362   2.080   2.269  15.897 -0.1688 -0.0812  0.0392
  564TMC3    C2 8363   2.021   2.145  15.889  0.4258  0.2488  0.0113
  564TMC3    C3 8364   1.974   2.083  15.997 -0.0053 -0.2996  0.2431
  564TMC3    C4 8365   2.083   2.340  16.011 -0.0826 -0.1398  0.7037
  564TMC3    C5 8366   2.059   2.262  16.121 -0.1834  0.5618 -0.3973
  564TMC3    C6 8367   1.992   2.143  16.118  0.8723 -0.1204 -0.2253
  564TMC3     C 8368   2.201   2.264  15.819 -0.1719  0.0727 -0.7683
  564TMC3     O 8369   2.204   2.206  15.712  0.0998  0.1514  0.5099
  564TMC3     H 8370   2.022   2.084  15.800  1.3577 -0.0023  0.1961
  564TMC3    H1 8371   2.140   2.433  16.015  0.1179 -0.2522  0.4468
  564TMC3    H2 8372   1.980   2.074  16.201 -1.2649 -2.4098 -2.4326
  564TMC3    C7 8373   2.167   2.267  16.218  0.2689  0.0377 -0.1323
  564TMC3    C8 8374   1.910   1.952  16.005  0.7150 -0.9696 -0.5437
  564TMC3    O1 8375   2.237   2.366  16.221 -0.3756 -0.1848  0.1873
  564TMC3    O2 8376   1.922   1.894  16.113 -0.5300 -0.1837  0.3261
  565TMC3    C1 8377   2.025   2.645   9.913 -0.6027  0.9749  1.1120
  565TMC3    C2 8378   2.041   2.679  10.041 -0.9079  0.3839  0.1447
  565TMC3    C3 8379   1.956   2.622  10.133  0.1886 -0.2811  0.0410
  565TMC3    C4 8380   1.944   2.544   9.868 -0.2027 -0.1710 -0.2108
  565TMC3    C5 8381   1.852   2.501   9.962 -0.0617  1.1015  0.2788
  565TMC3    C6 8382   1.856   2.540  10.094 -0.2418 -0.5365 -0.5213
  565TMC3     C 8383   2.125   2.694   9.820  0.3921  0.6396 -0.5519
  565TMC3     O 8384   2.187   2.793   9.856 -0.1143  0.3594 -0.6770
  565TMC3     H 8385   2.121   2.746  10.071 -0.2387 -0.7825  0.9932
  565TMC3    H1 8386   1.947   2.509   9.765 -0.9900 -2.3346  0.5057
  565TMC3    H2 8387   1.792   2.489  10.165  3.4055 -3.1104  0.9456
  565TMC3    C7 8388   1.755   2.402   9.938 -0.4852  1.1255  0.2930
  565TMC3    C8 8389   1.976   2.648  10.279 -0.1004 -0.3104  0.4635
  565TMC3    O1 8390   1.658   2.401  10.017  0.3295  0.2904 -0.5645
  565TMC3    O2 8391   1.901   2.602  10.367 -0.7707 -0.3976  0.0186
  566MPD2     C 8392   3.899   0.454  14.411  0.1127  0.2538 -0.2437
  566MPD2    C1 8393   3.882   0.522  14.297  1.0840 -0.3966 -0.7345
  566MPD2    C2 8394   3.823   0.457  14.192  0.2752  0.9560  0.2158
  566MPD2    C3 8395   3.780   0.322  14.202  0.5117 -0.1555  0.2612
  566MPD2    C4 8396   3.792   0.258  14.318 -0.4765 -0.5069  0.4637
  566MPD2    C5 8397   3.845   0.324  14.421 -0.1947  0.6081  0.5092
  566MPD2     H 8398   3.799   0.514  14.103  0.8263  0.9199  0.0455
  566MPD2    H1 8399   3.751   0.158  14.332  1.5394 -1.6788 -2.2194
  566MPD2    H2 8400   3.952   0.495  14.497 -0.5985  1.6955 -0.4926
  566MPD2    H3 8401   3.850   0.276  14.518 -0.6978 -0.3635  0.0572
  566MPD2     N 8402   3.729   0.257  14.091  0.2313  0.3572  0.2157
  566MPD2    H5 8403   3.720   0.156  14.090  0.4150  0.3332  0.8247
  566MPD2    N1 8404   3.926   0.655  14.286 -0.9490  0.6749  1.0745
  566MPD2    H7 8405   3.974   0.690  14.368 -0.8003  1.9857  0.4202
  567TMC3    C1 8406   4.026   0.833  14.184 -0.2589 -0.4299 -0.7043
  567TMC3    C2 8407   4.020   0.912  14.072  0.1071 -0.1753 -1.0327
  567TMC3    C3 8408   4.142   0.941  14.015  0.5520 -0.0610  0.1515
  567TMC3    C4 8409   4.139   0.790  14.251  0.5114 -0.9114 -0.4429
  567TMC3    C5 8410   4.258   0.815  14.188  0.1003  0.2804  0.3444
  567TMC3    C6 8411   4.255   0.885  14.070 -0.4132  0.0517  0.3052
  567TMC3     C 8412   3.922   0.733  14.174 -0.0769  0.3323 -0.4311
  567TMC3     O 8413   3.875   0.706  14.067  0.1206  0.0580  0.1180
  567TMC3     H 8414   3.928   0.939  14.022  0.9827  1.0165 -1.9769
  567TMC3    H1 8415   4.139   0.761  14.356  1.1348 -2.1744 -0.7973
  567TMC3    H2 8416   4.351   0.891  14.019 -0.4813  1.7512  0.3946
  567TMC3    C7 8417   4.362   0.713  14.204 -0.0659 -0.0683  0.2471
  567TMC3    C8 8418   4.132   0.960  13.867  0.2864 -0.4061 -0.0105
  567TMC3    O1 8419   4.476   0.735  14.165 -0.0629  0.1672 -0.3617
  567TMC3    O2 8420   4.022   0.981  13.823  0.5809 -0.2398 -0.0621
  568MPD2     C 8421   1.578   0.483  16.133 -0.2478  0.2640 -0.4943
  568MPD2    C1 8422   1.630   0.535  16.251 -0.3901  0.6935  0.5140
  568MPD2    C2 8423   1.620   0.669  16.269 -0.7562  0.1875 -0.1780
  568MPD2    C3 8424   1.554   0.744  16.171 -0.7211  0.3717 -0.7544
  568MPD2    C4 8425   1.495   0.690  16.054  0.6614 -0.2016 -0.0427
  568MPD2    C5 8426   1.516   0.556  16.037  0.6880  0.4320 -0.3382
  568MPD2     H 8427   1.642   0.717  16.364 -0.4066  0.2759 -0.3071
  568MPD2    H1 8428   1.436   0.755  15.990 -1.1624 -1.1869  0.6215
  568MPD2    H2 8429   1.581   0.376  16.116 -0.2087  0.2818 -0.5990
  568MPD2    H3 8430   1.475   0.515  15.945 -0.5611 -2.1120  1.3383
  568MPD2     N 8431   1.551   0.882  16.203  0.4338 -0.3794 -0.2911
  568MPD2    H5 8432   1.586   0.912  16.293  1.0309 -1.9408  0.0039
  568MPD2    N1 8433   1.681   0.441  16.341  0.2039  0.5071  0.0643
  568MPD2    H7 8434   1.664   0.348  16.306 -0.4278  1.0586 -1.1234
  569TMC3    C1 8435   1.501   1.118  16.188 -0.2052 -1.0053  0.2270
  569TMC3    C2 8436   1.551   1.136  16.317 -0.3613  0.7652 -0.3337
  569TMC3    C3 8437   1.559   1.265  16.362  0.8344 -0.3503  0.5598
  569TMC3    C4 8438   1.469   1.226  16.108  1.0972  0.3124  0.1055
  569TMC3    C5 8439   1.490   1.354  16.159  0.5867 -0.1547 -0.7315
  569TMC3    C6 8440   1.544   1.372  16.284  0.2661 -0.2903 -0.0928
  569TMC3     C 8441   1.489   0.979  16.134  0.4181 -0.2719 -0.8387
  569TMC3     O 8442   1.455   0.981  16.015 -0.1875  0.0995 -0.5095
  569TMC3     H 8443   1.560   1.056  16.390  1.0879  2.5915  1.4646
  569TMC3    H1 8444   1.419   1.214  16.012  2.0293  0.2280 -0.3680
  569TMC3    H2 8445   1.553   1.473  16.323 -0.7552 -0.4205  0.4780
  569TMC3    C7 8446   1.488   1.463  16.067  0.7691  0.5335 -0.2210
  569TMC3    C8 8447   1.645   1.285  16.474  0.6155  0.3877 -0.4690
  569TMC3    O1 8448   1.392   1.473  15.995 -0.4719 -0.5512 -0.0973
  569TMC3    O2 8449   1.661   1.195  16.551 -0.1739 -0.3331 -0.3491
  570TMC3    C1 8450   0.895   4.364  15.676 -0.0744  0.2850 -0.4845
  570TMC3    C2 8451   0.995   4.341  15.586  0.7419  0.1646  0.5824
  570TMC3    C3 8452   0.988   4.419  15.467  0.1347 -0.4832  0.2996
  570TMC3    C4 8453   0.789   4.446  15.657 -0.3813 -0.4795 -0.2813
  570TMC3    C5 8454   0.798   4.533  15.548 -0.5467  0.1773 -1.1503
  570TMC3    C6 8455   0.887   4.515  15.445 -0.0636  0.5367 -0.1168
  570TMC3     C 8456   0.883   4.263  15.784 -1.2893  0.2458  0.1326
  570TMC3     O 8457   0.931   4.150  15.769 -0.3282  0.1822  0.3717
  570TMC3     H 8458   1.065   4.259  15.602  0.7622 -0.5930 -3.3407
  570TMC3    H1 8459   0.733   4.472  15.747  1.2716 -0.3961  0.7350
  570TMC3    H2 8460   0.879   4.538  15.339  0.4129  1.1051 -0.0275
  570TMC3    C7 8461   0.766   4.680  15.584  0.4152 -0.2726 -0.4651
  570TMC3    C8 8462   1.128   4.459  15.439 -0.1392  0.8833 -0.4167
  570TMC3    O1 8463   0.736   4.705  15.699 -0.2254  0.3449 -0.4129
  570TMC3    O2 8464   1.140   4.580  15.419 -0.0996  0.2616 -0.5686
  571MPD2     C 8465   4.505   1.518  17.372  0.3907 -0.8923  0.0924
  571MPD2    C1 8466   4.493   1.387  17.419 -1.0615 -0.3761 -0.6229
  571MPD2    C2 8467   4.391   1.373  17.516  0.5992  0.2472 -0.3500
  571MPD2    C3 8468   4.319   1.481  17.564 -0.3868 -0.6831 -0.3118
  571MPD2    C4 8469   4.341   1.612  17.521 -0.3656 -0.1782 -0.7795
  571MPD2    C5 8470   4.432   1.627  17.418  0.9099  0.1990  0.4376
  571MPD2     H 8471   4.367   1.277  17.561  0.3469  0.2021 -0.5819
  571MPD2    H1 8472   4.275   1.690  17.557 -0.3784 -1.0351  1.0274
  571MPD2    H2 8473   4.590   1.535  17.308 -0.1286 -1.1057 -0.6508
  571MPD2    H3 8474   4.444   1.727  17.379  0.4936  0.8142  1.9055
  571MPD2     N 8475   4.211   1.472  17.662 -0.0965 -0.1494  0.4135
  571MPD2    H5 8476   4.202   1.561   0.019 -0.4240 -0.3797  0.7651
  571MPD2    N1 8477   4.567   1.282  17.361 -0.2957 -0.2012  0.0398
  571MPD2    H7 8478   4.641   1.303  17.295 -2.3171  0.2310 -2.0611
  572TMC3    C1 8479   4.037   1.376   0.097 -0.1883  0.0120 -0.6435
  572TMC3    C2 8480   3.966   1.267   0.133 -1.1267 -0.0360  0.4011
  572TMC3    C3 8481   3.855   1.290   0.206  0.2036 -0.4654  0.0715
  572TMC3    C4 8482   4.015   1.501   0.146 -0.4203 -0.2537 -0.3167
  572TMC3    C5 8483   3.903   1.514   0.226 -0.5307 -0.4479 -0.4729
  572TMC3    C6 8484   3.819   1.408   0.252  0.1323  0.3575  0.4834
  572TMC3     C 8485   4.132   1.360  17.683  0.1678 -0.2226 -0.0717
  572TMC3     O 8486   4.118   1.262  17.608  0.5614  0.0098  0.6266
  572TMC3     H 8487   3.987   1.165   0.104 -1.1619  1.0881 -3.5404
  572TMC3    H1 8488   4.055   1.593   0.105  1.2856 -1.8442 -2.1889
  572TMC3    H2 8489   3.725   1.430   0.300  0.1869  1.3809  0.1241
  572TMC3    C7 8490   3.864   1.647   0.257 -0.4447 -0.1719 -0.0756
  572TMC3    C8 8491   3.783   1.174   0.239  0.1055  0.0216 -0.5865
  572TMC3    O1 8492   3.906   1.735   0.182  0.4528  0.2799  0.0521
  572TMC3    O2 8493   3.837   1.063   0.225 -0.0410 -0.0489 -0.1740
  573MPD2     C 8494   4.411   1.804   0.165  0.1345 -0.0272  0.0687
  573MPD2    C1 8495   4.335   1.894   0.240  0.4867 -0.2190 -0.1471
  573MPD2    C2 8496   4.305   2.019   0.197 -1.1664 -0.2786 -0.5345
  573MPD2    C3 8497   4.353   2.062   0.080 -0.8548  0.2074 -0.3111
  573MPD2    C4 8498   4.429   1.970   0.010  0.5158 -0.0749  0.1254
  573MPD2    C5 8499   4.450   1.839   0.046 -0.7955 -0.4096  0.3126
  573MPD2     H 8500   4.256   2.088   0.265  0.5953  0.0751  0.3886
  573MPD2    H1 8501   4.461   2.004  17.605 -0.8219 -0.8613 -0.5940
  573MPD2    H2 8502   4.433   1.706   0.204  0.4105  0.0270  0.0496
  573MPD2    H3 8503   4.508   1.774  17.673 -0.6662  0.9220 -0.8940
  573MPD2     N 8504   4.335   2.188   0.013 -0.1271  0.1843 -0.1893
  573MPD2    H5 8505   4.386   2.187  17.618  1.7966  0.6182  0.9091
  573MPD2    N1 8506   4.314   1.854   0.374  0.2716 -0.0911 -0.7760
  573MPD2    H7 8507   4.365   1.771   0.402 -0.1213 -0.6018 -1.5507
  574TMC3    C1 8508   4.279   2.410  17.662  0.0311 -0.1627 -1.0804
  574TMC3    C2 8509   4.195   2.516   0.003  1.2274 -0.3302 -0.0428
  574TMC3    C3 8510   4.129   2.589  17.598  0.9034  0.0768 -0.6454
  574TMC3    C4 8511   4.301   2.377  17.532  0.3907 -0.1092  0.0909
  574TMC3    C5 8512   4.233   2.452  17.437  0.2152  0.4501 -0.6927
  574TMC3    C6 8513   4.150   2.561  17.461 -0.1138 -0.4393 -0.3097
  574TMC3     C 8514   4.270   2.298   0.063  0.2236  0.5771  0.0755
  574TMC3     O 8515   4.219   2.323   0.169  0.5917 -0.7788 -0.0756
  574TMC3     H 8516   4.164   2.525   0.107  2.0100 -2.8338  0.4105
  574TMC3    H1 8517   4.368   2.298  17.500 -1.0214 -1.8126  1.3791
  574TMC3    H2 8518   4.086   2.608  17.388  0.1074 -0.4717 -0.5209
  574TMC3    C7 8519   4.269   2.413  17.298 -0.2902  0.2965 -0.1286
  574TMC3    C8 8520   4.017   2.668  17.636  0.5446 -0.1379 -0.1535
  574TMC3    O1 8521   4.327   2.308  17.273 -0.2175 -0.1704  0.7775
  574TMC3    O2 8522   3.986   2.678   0.061  0.1755 -0.0365 -0.3776
  575TMC3    C1 8523   2.017   2.752  11.261  0.2410  0.3619 -0.7818
  575TMC3    C2 8524   1.897   2.692  11.257 -0.1903  0.5992 -0.0776
  575TMC3    C3 8525   1.851   2.630  11.136  0.0635  0.8462 -0.7070
  575TMC3    C4 8526   2.098   2.754  11.153  0.2115  0.4929  0.5486
  575TMC3    C5 8527   2.055   2.696  11.033  0.0761  1.1081 -0.8178
  575TMC3    C6 8528   1.930   2.634  11.021  0.2061  0.4574  0.4443
  575TMC3     C 8529   2.062   2.782  11.396  0.1894  0.1692  0.0020
  575TMC3     O 8530   1.969   2.802  11.477  0.1219  0.1357 -0.0736
  575TMC3     H 8531   1.824   2.691  11.338 -0.6955 -1.0597 -0.5613
  575TMC3    H1 8532   2.189   2.812  11.155  0.2913  0.3096  1.9799
  575TMC3    H2 8533   1.888   2.588  10.931  1.3671 -1.5852  0.9432
  575TMC3    C7 8534   2.146   2.702  10.920  0.5556  0.3522 -0.3691
  575TMC3    C8 8535   1.716   2.567  11.146 -0.0886  0.3798 -0.8622
  575TMC3    O1 8536   2.265   2.698  10.948  0.5471 -0.3752  0.5127
  575TMC3    O2 8537   1.641   2.587  11.240  0.1725  0.8826  0.0708
  576MPD2     C 8538   2.294   4.087  12.478 -0.0340 -0.1947  1.0243
  576MPD2    C1 8539   2.298   4.189  12.380 -0.1532  0.5035  0.6381
  576MPD2    C2 8540   2.249   4.317  12.403 -0.4292  0.1391 -0.2539
  576MPD2    C3 8541   2.200   4.347  12.526 -0.0948 -0.0015  0.0723
  576MPD2    C4 8542   2.210   4.250  12.626  0.3800 -0.3450  0.2352
  576MPD2    C5 8543   2.242   4.113  12.597  0.2096 -0.4270  0.7859
  576MPD2     H 8544   2.255   4.399  12.332 -0.5514  0.5133  0.1764
  576MPD2    H1 8545   2.175   4.285  12.723 -2.4008 -1.0555 -0.5248
  576MPD2    H2 8546   2.333   3.988  12.454 -0.4741  0.5682 -2.8030
  576MPD2    H3 8547   2.245   4.040  12.676  1.8630  0.0380  1.1565
  576MPD2     N 8548   2.153   4.478  12.545  0.2880  0.0379  0.2914
  576MPD2    H5 8549   2.146   4.538  12.463 -1.2085 -2.1650 -1.1896
  576MPD2    N1 8550   2.377   4.186  12.262  0.0217 -0.9029  0.1311
  576MPD2    H7 8551   2.377   4.271  12.205  2.2030  0.8905  2.8021
  577TMC3    C1 8552   2.509   4.094  12.089  0.3928  0.8959  0.8683
  577TMC3    C2 8553   2.568   3.976  12.047 -0.2379 -0.3013  0.1565
  577TMC3    C3 8554   2.651   3.974  11.939  1.0380 -0.6531  0.1454
  577TMC3    C4 8555   2.535   4.215  12.025  0.6781 -0.1369  0.5253
  577TMC3    C5 8556   2.613   4.204  11.910  0.3262 -0.4225 -0.3221
  577TMC3    C6 8557   2.683   4.090  11.873 -0.3411  0.1832  0.0670
  577TMC3     C 8558   2.454   4.081  12.223  0.0351 -0.2887 -0.3473
  577TMC3     O 8559   2.465   3.973  12.275 -0.5373  0.1249 -0.0793
  577TMC3     H 8560   2.537   3.880  12.088  1.0538 -0.8452 -0.1398
  577TMC3    H1 8561   2.499   4.311  12.060 -0.5056  0.0051 -1.0646
  577TMC3    H2 8562   2.750   4.090  11.788  0.3691  1.2070  0.6238
  577TMC3    C7 8563   2.636   4.322  11.835 -0.7569 -0.1512  0.5950
  577TMC3    C8 8564   2.718   3.850  11.904 -0.1404 -0.2025 -0.5751
  577TMC3    O1 8565   2.753   4.329  11.803  0.2656  0.0421  0.6612
  577TMC3    O2 8566   2.682   3.751  11.968 -0.5182 -0.9605 -0.3912
  578MPD2     C 8567   0.683   4.398   1.173  0.3308  0.0372  0.0054
  578MPD2    C1 8568   0.700   4.283   1.097  0.7750 -0.5007 -0.0227
  578MPD2    C2 8569   0.748   4.163   1.158 -0.0473 -0.0443 -0.2149
  578MPD2    C3 8570   0.778   4.166   1.292 -0.0361 -0.4083  0.1013
  578MPD2    C4 8571   0.761   4.278   1.369 -0.4909  0.4930  0.3377
  578MPD2    C5 8572   0.719   4.398   1.308  0.0693  0.0613 -1.3948
  578MPD2     H 8573   0.748   4.072   1.100 -2.3027 -0.1868  0.0216
  578MPD2    H1 8574   0.772   4.283   1.476 -2.7196  1.1335  0.5454
  578MPD2    H2 8575   0.624   4.479   1.131 -2.0981 -1.5633  0.3555
  578MPD2    H3 8576   0.698   4.483   1.371 -1.3915 -1.6799  0.4681
  578MPD2     N 8577   0.812   4.044   1.344 -0.0626 -0.1602 -0.4554
  578MPD2    H5 8578   0.822   3.971   1.274  1.5160  0.2152 -0.6354
  578MPD2    N1 8579   0.655   4.298   0.961  0.1641 -0.3788 -0.0960
  578MPD2    H7 8580   0.635   4.394   0.934  1.7898  1.0872  3.8305
  579TMC3    C1 8581   0.911   3.897   1.498  0.0087 -0.2974  0.2259
  579TMC3    C2 8582   0.932   3.852   1.628  0.5836 -0.4318  0.0092
  579TMC3    C3 8583   1.005   3.732   1.651 -0.2458  0.0525  0.2842
  579TMC3    C4 8584   0.956   3.812   1.398  0.1373  0.7740  0.0250
  579TMC3    C5 8585   1.013   3.692   1.428  0.3346  0.2951 -0.3680
  579TMC3    C6 8586   1.038   3.647   1.557  0.2484 -0.6828 -0.0059
  579TMC3     C 8587   0.850   4.027   1.472 -0.0759 -0.1643  0.0546
  579TMC3     O 8588   0.845   4.100   1.574  0.0762 -0.1005 -0.3384
  579TMC3     H 8589   0.889   3.921   1.700  0.1300  1.8286 -2.4197
  579TMC3    H1 8590   0.951   3.843   1.295  2.3824 -0.1394 -0.3561
  579TMC3    H2 8591   1.072   3.547   1.581  1.9382  0.1735  1.1507
  579TMC3    C7 8592   1.037   3.599   1.322  0.0274 -0.2343 -0.5354
  579TMC3    C8 8593   1.091   3.732   1.762  0.1637 -0.1844  0.2360
  579TMC3    O1 8594   1.124   3.514   1.336 -0.3667 -0.2350  0.1370
  579TMC3    O2 8595   1.144   3.632   1.810  0.7728 -0.1048  0.9527
  580TMC3    C1 8596   0.155   3.563  11.333  0.5784 -0.4790  0.1881
  580TMC3    C2 8597   0.282   3.611  11.359 -0.5494 -0.3087 -0.0373
  580TMC3    C3 8598   0.369   3.533  11.433  0.8690  0.4958  0.4761
  580TMC3    C4 8599   0.124   3.437  11.359 -0.0250  0.0407 -0.6727
  580TMC3    C5 8600   0.211   3.364  11.443 -0.3454 -0.6589  0.0348
  580TMC3    C6 8601   0.335   3.410  11.483 -0.6254 -0.0584  0.6660
  580TMC3     C 8602   0.047   3.641  11.269 -0.1413  0.0890  0.2222
  580TMC3     O 8603   4.665   3.579  11.265 -0.1795 -0.0197 -0.2920
  580TMC3     H 8604   0.311   3.713  11.338  0.1982 -0.2799  1.1706
  580TMC3    H1 8605   0.037   3.384  11.322 -0.0747 -0.7811  0.6402
  580TMC3    H2 8606   0.408   3.354  11.541 -1.4276 -1.8178 -0.0108
  580TMC3    C7 8607   0.149   3.256  11.514  0.3264  0.2923 -0.1717
  580TMC3    C8 8608   0.503   3.582  11.467 -0.8746 -0.1378 -0.2800
  580TMC3    O1 8609   0.064   3.194  11.450 -0.0980 -0.2220  0.0692
  580TMC3    O2 8610   0.566   3.534  11.562  0.9057 -0.2686  0.1046
  581MPD2     C 8611   2.982   3.500  14.821  0.8529  0.3177 -0.1229
  581MPD2    C1 8612   2.867   3.434  14.829  0.4125  0.2597 -0.3351
  581MPD2    C2 8613   2.763   3.488  14.758  0.2171 -0.4870  0.7220
  581MPD2    C3 8614   2.772   3.607  14.686  0.3813 -0.4619  0.2876
  581MPD2    C4 8615   2.890   3.659  14.667  0.9591  0.0137 -0.2543
  581MPD2    C5 8616   2.992   3.615  14.744  0.7300 -0.5726  0.1045
  581MPD2     H 8617   2.663   3.448  14.769 -0.0279 -1.2414 -4.0444
  581MPD2    H1 8618   2.901   3.747  14.603  1.7648  0.3194  0.3135
  581MPD2    H2 8619   3.071   3.467  14.872  0.9852 -0.0733 -0.5966
  581MPD2    H3 8620   3.086   3.668  14.735 -0.7660  1.7569 -1.7653
  581MPD2     N 8621   2.657   3.653  14.616 -0.3227 -0.0254 -0.6294
  581MPD2    H5 8622   2.575   3.594  14.612 -1.2342  1.3068 -1.2818
  581MPD2    N1 8623   2.877   3.311  14.907 -0.3863  0.0166 -0.0586
  581MPD2    H7 8624   2.961   3.285  14.957 -1.4269  1.6197  2.4983
  582TMC3    C1 8625   2.783   3.120  15.008  0.9924  0.0062 -0.3313
  582TMC3    C2 8626   2.865   3.134  15.122 -0.7884 -0.9143  0.8125
  582TMC3    C3 8627   2.861   3.036  15.213 -0.0898 -0.6033 -0.4163
  582TMC3    C4 8628   2.683   3.029  14.997 -0.5363  0.4648 -0.1772
  582TMC3    C5 8629   2.688   2.924  15.086  0.1142 -0.2743  0.3056
  582TMC3    C6 8630   2.779   2.927  15.187 -0.3382  0.6362  0.3925
  582TMC3     C 8631   2.771   3.227  14.917  0.2801 -0.3029 -0.1362
  582TMC3     O 8632   2.662   3.244  14.861  0.2140 -0.1373  0.2943
  582TMC3     H 8633   2.940   3.210  15.139 -2.3228  0.9715 -0.8952
  582TMC3    H1 8634   2.626   3.020  14.906  1.0168  1.0628 -1.2116
  582TMC3    H2 8635   2.809   2.836  15.237 -1.7739 -0.1407 -0.1645
  582TMC3    C7 8636   2.557   2.873  15.120  0.0730 -0.1069 -0.5816
  582TMC3    C8 8637   2.835   3.074  15.350  0.4059 -0.4923  0.1190
  582TMC3    O1 8638   2.560   2.783  15.202 -0.5315 -0.2142  0.2624
  582TMC3    O2 8639   2.911   3.149  15.403 -0.0791  0.2260 -0.0691
  583MPD2     C 8640   3.150   0.324  16.782 -0.0295  0.1075  0.2138
  583MPD2    C1 8641   3.107   0.451  16.738  0.0291  0.0064 -0.0935
  583MPD2    C2 8642   3.006   0.508  16.810 -0.9798  0.8093  0.6677
  583MPD2    C3 8643   2.937   0.438  16.913  0.0098  0.5591  0.3443
  583MPD2    C4 8644   2.987   0.318  16.954  0.3646 -0.7304 -0.6260
  583MPD2    C5 8645   3.093   0.265  16.894  0.1390 -0.0363  0.2938
  583MPD2     H 8646   2.969   0.605  16.780 -0.0200  0.7735 -0.5863
  583MPD2    H1 8647   2.953   0.253  17.034  1.7339 -0.7516 -0.0518
  583MPD2    H2 8648   3.237   0.275  16.741 -1.3580 -1.0922 -1.1879
  583MPD2    H3 8649   3.120   0.164  16.923  0.2348  0.0623  0.5473
  583MPD2     N 8650   2.824   0.506  16.978  0.0748 -0.5090 -0.0096
  583MPD2    H5 8651   2.799   0.598  16.943  1.3612 -0.8350 -1.7944
  583MPD2    N1 8652   3.170   0.521  16.635  0.2998 -0.0207  0.1592
  583MPD2    H7 8653   3.136   0.614  16.612  3.6061  0.8958 -0.9757
  584TMC3    C1 8654   2.658   0.543  17.134 -0.0172 -0.0497  0.1454
  584TMC3    C2 8655   2.709   0.671  17.154  0.3876 -0.2928 -0.6369
  584TMC3    C3 8656   2.651   0.756  17.249  0.3808 -0.0095 -0.2347
  584TMC3    C4 8657   2.564   0.496  17.223 -0.1866  0.2516 -0.1731
  584TMC3    C5 8658   2.517   0.589  17.318  0.8731 -0.6536  0.6718
  584TMC3    C6 8659   2.550   0.721  17.333 -0.1819 -0.1512  0.5330
  584TMC3     C 8660   2.748   0.444  17.080 -0.0085 -0.1702 -0.0212
  584TMC3     O 8661   2.766   0.335  17.127  0.5326  0.3269 -0.1739
  584TMC3     H 8662   2.791   0.711  17.095  0.3450  0.8302  0.0702
  584TMC3    H1 8663   2.525   0.396  17.211  0.6110 -0.2704  1.5553
  584TMC3    H2 8664   2.527   0.794  17.410  0.9415 -0.5393  1.2431
  584TMC3    C7 8665   2.466   0.522  17.434  0.3478  0.2956  0.2414
  584TMC3    C8 8666   2.756   0.839  17.303  0.4966  0.4004 -0.0322
  584TMC3    O1 8667   2.484   0.402  17.448  0.3460  0.1400  0.0942
  584TMC3    O2 8668   2.874   0.796  17.296 -0.1529 -0.3332 -0.1710
  585MPD2     C 8669   2.075   4.090   1.004 -0.2430 -0.4754  0.2109
  585MPD2    C1 8670   2.098   4.180   0.894  0.3348 -0.5385  0.1618
  585MPD2    C2 8671   2.109   4.118   0.768  0.4204 -0.5494  0.0105
  585MPD2    C3 8672   2.088   3.979   0.752  0.0994 -0.5487  0.2594
  585MPD2    C4 8673   2.058   3.902   0.859  0.4950  0.2409 -0.1641
  585MPD2    C5 8674   2.061   3.950   0.987  0.0363 -0.7681 -0.7692
  585MPD2     H 8675   2.110   4.184   0.682  0.0501 -0.0444  0.3940
  585MPD2    H1 8676   2.032   3.797   0.849  0.3456  0.0459  2.2239
  585MPD2    H2 8677   2.057   4.129   1.103 -0.7502  2.0160 -0.8536
  585MPD2    H3 8678   2.037   3.890   1.074 -1.1738  0.0716 -0.5139
  585MPD2     N 8679   2.072   3.925   0.622 -0.0039  0.1230  0.2069
  585MPD2    H5 8680   2.027   3.835   0.611  0.8615 -0.4172  1.0793
  585MPD2    N1 8681   2.091   4.325   0.900 -0.5740 -0.5029 -0.5782
  585MPD2    H7 8682   2.034   4.358   0.977  0.6398 -0.9115  0.5126
  586TMC3    C1 8683   2.067   3.920   0.396  0.6695 -0.1143 -0.0360
  586TMC3    C2 8684   2.161   3.945   0.296  0.0059  0.0983  0.2394
  586TMC3    C3 8685   2.105   3.968   0.171 -0.2286 -0.0053  0.4504
  586TMC3    C4 8686   1.935   3.916   0.373 -0.6375 -0.2396  0.4839
  586TMC3    C5 8687   1.886   3.931   0.251 -0.3024 -0.6652  0.1581
  586TMC3    C6 8688   1.971   3.964   0.144  0.0170  0.0290 -0.2366
  586TMC3     C 8689   2.115   3.984   0.514  0.3872 -0.4428 -0.2098
  586TMC3     O 8690   2.202   4.067   0.495 -0.0119  0.5503 -0.1989
  586TMC3     H 8691   2.269   3.952   0.309  0.2366  0.6049 -2.0126
  586TMC3    H1 8692   1.863   3.884   0.447  0.8296  0.6264  2.2826
  586TMC3    H2 8693   1.925   3.973   0.046 -2.3388  0.6647  0.9284
  586TMC3    C7 8694   1.753   3.904   0.211  0.1598  0.5729 -0.5005
  586TMC3    C8 8695   2.193   3.967   0.060  0.3968 -0.4221  0.4793
  586TMC3    O1 8696   1.685   3.821   0.266 -0.0648  0.7912  0.2534
  586TMC3    O2 8697   2.300   3.907   0.068  0.5092 -0.1425  0.1552
  587TMC3    C1 8698   4.492   2.418  16.332 -0.5396 -0.0002  0.3323
  587TMC3    C2 8699   4.485   2.554  16.335  0.6057  0.6593 -0.2307
  587TMC3    C3 8700   4.599   2.624  16.307 -0.1543  0.5273  0.6171
  587TMC3    C4 8701   4.605   2.346  16.301 -0.3498 -0.5849  0.5601
  587TMC3    C5 8702   4.716   2.423  16.271 -0.2341 -0.1695 -0.3608
  587TMC3    C6 8703   4.709   2.558  16.266 -0.8314 -0.2516 -0.1451
  587TMC3     C 8704   4.380   2.334  16.362  0.6150  0.4186 -0.7484
  587TMC3     O 8705   4.392   2.215  16.353  0.5694 -0.4165 -0.4087
  587TMC3     H 8706   4.388   2.595  16.362 -0.3172 -1.9865  0.5459
  587TMC3    H1 8707   4.598   2.238  16.291 -1.2748 -0.4868  0.1258
  587TMC3    H2 8708   0.070   2.622  16.238  1.2045 -1.1316  3.9379
  587TMC3    C7 8709   0.104   2.360  16.202 -0.5413  0.6398 -0.1353
  587TMC3    C8 8710   4.598   2.769  16.301 -0.2161  0.2890 -0.8036
  587TMC3    O1 8711   0.219   2.396  16.224  0.3997  0.3795 -0.3036
  587TMC3    O2 8712   4.690   2.821  16.241 -0.0830 -0.4973  0.7313
  588TMC3    C1 8713   1.955   4.600   9.074  0.2157  1.5138  0.4429
  588TMC3    C2 8714   1.931   4.470   9.088 -0.0704  0.4987  0.0247
  588TMC3    C3 8715   1.991   4.411   9.197 -0.0778  0.3374 -0.8437
  588TMC3    C4 8716   2.028   4.674   9.165  0.6418 -0.5051 -0.3483
  588TMC3    C5 8717   2.075   4.609   9.278  0.3661  1.0360  0.0195
  588TMC3    C6 8718   2.058   4.476   9.293  0.6268  0.4592 -0.5196
  588TMC3     C 8719   1.919   4.676   8.957 -0.1775 -0.7764  1.1609
  588TMC3     O 8720   1.902   4.626   8.850  0.6416  0.4268 -0.5733
  588TMC3     H 8721   1.874   4.407   9.021 -1.3652 -1.0466  2.5725
  588TMC3    H1 8722   2.096   0.031   9.141 -0.2054 -0.0278 -1.1769
  588TMC3    H2 8723   2.088   4.431   9.387 -0.4830  0.7475 -0.0168
  588TMC3    C7 8724   2.138   4.690   9.376  0.1914 -0.4759  0.0431
  588TMC3    C8 8725   1.947   4.273   9.218 -0.2672  0.0671 -0.6791
  588TMC3    O1 8726   2.211   4.639   9.458  0.5545 -0.2996  0.7647
  588TMC3    O2 8727   1.870   4.220   9.135 -0.2365 -1.2068  0.0957
  589TMC3    C1 8728   0.390   2.108   0.887 -0.8540 -0.1630 -0.5097
  589TMC3    C2 8729   0.484   2.113   0.989 -0.1129 -0.3668  0.2451
  589TMC3    C3 8730   0.574   2.009   1.004  0.1283  0.3573  0.6016
  589TMC3    C4 8731   0.386   2.004   0.800  0.2231  0.0722  0.0935
  589TMC3    C5 8732   0.481   1.904   0.816 -0.1116  0.3212  0.4438
  589TMC3    C6 8733   0.579   1.909   0.915  0.0361  0.0458  0.0547
  589TMC3     C 8734   0.294   2.220   0.867  0.1807 -0.6621  0.0011
  589TMC3     O 8735   0.257   2.250   0.754 -1.0932 -0.3940  0.4272
  589TMC3     H 8736   0.500   2.199   1.053  2.8870 -0.0595 -0.8919
  589TMC3    H1 8737   0.312   1.996   0.722 -0.4312  0.3465  0.6809
  589TMC3    H2 8738   0.659   1.836   0.924  0.7422  0.9146  0.8773
  589TMC3    C7 8739   0.484   1.785   0.735  0.7574 -0.4171 -0.8606
  589TMC3    C8 8740   0.669   2.029   1.111  0.2907  0.2947 -0.1725
  589TMC3    O1 8741   0.559   1.696   0.768 -0.2031 -0.3342 -0.1806
  589TMC3    O2 8742   0.637   2.113   1.198 -0.1623  0.3063  0.2648
  590MPD2     C 8743   0.471   1.027  16.556  0.1203  0.4174  0.4582
  590MPD2    C1 8744   0.430   1.055  16.428 -0.1723 -0.7975 -0.7835
  590MPD2    C2 8745   0.528   1.071  16.331  1.1833  0.8511  0.3587
  590MPD2    C3 8746   0.661   1.061  16.357  0.6289 -0.6075  0.4723
  590MPD2    C4 8747   0.702   1.015  16.483 -0.1620 -0.7672 -0.2450
  590MPD2    C5 8748   0.606   0.996  16.575 -0.1556 -0.3620  0.9466
  590MPD2     H 8749   0.500   1.122  16.240  0.4322 -0.9627 -0.4310
  590MPD2    H1 8750   0.807   0.997  16.502 -0.9057 -2.0621  2.5598
  590MPD2    H2 8751   0.402   1.026  16.640  1.7089 -0.9828  1.7412
  590MPD2    H3 8752   0.644   0.961  16.671 -1.2658 -3.1440  0.3935
  590MPD2     N 8753   0.750   1.108  16.257  0.3210  0.2293 -0.6978
  590MPD2    H5 8754   0.720   1.164  16.178 -1.8984 -0.6861 -0.4934
  590MPD2    N1 8755   0.294   1.080  16.391  0.5880  0.3746 -0.1607
  590MPD2    H7 8756   0.231   1.112  16.464  3.0928  3.1019  0.8012
  591TMC3    C1 8757   0.946   1.211  16.182  0.7795  0.3157  0.0867
  591TMC3    C2 8758   1.068   1.201  16.122 -0.1599 -0.1425  0.2645
  591TMC3    C3 8759   1.095   1.292  16.022  0.2210 -0.0823 -0.0251
  591TMC3    C4 8760   0.870   1.325  16.172  0.3599 -0.7243 -0.8066
  591TMC3    C5 8761   0.923   1.427  16.096 -0.6013  0.0200  0.3680
  591TMC3    C6 8762   1.026   1.411  16.010  0.4893  0.1069  0.0494
  591TMC3     C 8763   0.889   1.107  16.264 -0.2287 -0.6191 -0.1491
  591TMC3     O 8764   0.964   1.028  16.325  0.1712  0.7250 -0.1313
  591TMC3     H 8765   1.113   1.102  16.125 -0.2281 -0.1755  0.1803
  591TMC3    H1 8766   0.776   1.338  16.224  0.9836  0.7845 -0.0777
  591TMC3    H2 8767   1.037   1.476  15.923 -1.3464  0.4967  0.0888
  591TMC3    C7 8768   0.845   1.548  16.079 -0.3809 -0.0687  0.2549
  591TMC3    C8 8769   1.179   1.240  15.910 -0.1663  0.7450  0.0667
  591TMC3    O1 8770   0.733   1.545  16.131  0.4688 -0.5500 -0.0198
  591TMC3    O2 8771   1.215   1.127  15.924  0.1470  0.2383  0.3177
  592MPD2     C 8772   1.107   3.160  11.206 -0.6763  0.2903  0.6120
  592MPD2    C1 8773   1.081   3.252  11.309 -0.4350 -0.0440 -0.9112
  592MPD2    C2 8774   0.990   3.220  11.413 -0.8232 -0.1173  0.0390
  592MPD2    C3 8775   0.923   3.099  11.400  0.9026  0.0235  0.7517
  592MPD2    C4 8776   0.943   3.015  11.294 -0.3795  0.1135  0.1091
  592MPD2    C5 8777   1.035   3.044  11.196  0.7374 -0.9032  0.3555
  592MPD2     H 8778   0.973   3.280  11.501  0.3224 -0.7398  0.6863
  592MPD2    H1 8779   0.879   2.931  11.270  2.5374 -1.1855 -3.0890
  592MPD2    H2 8780   1.191   3.179  11.140 -0.4057  3.3467  1.8467
  592MPD2    H3 8781   1.050   2.977  11.113 -3.0151 -3.0500  1.4203
  592MPD2     N 8782   0.818   3.080  11.497 -0.3113 -0.4556 -0.5923
  592MPD2    H5 8783   0.802   3.154  11.566 -2.1588 -1.6767  0.2902
  592MPD2    N1 8784   1.161   3.371  11.311  1.1397  0.7636  0.3160
  592MPD2    H7 8785   1.209   3.395  11.225 -2.8093  1.1205 -1.8158
  593TMC3    C1 8786   1.265   3.569  11.374 -0.4610 -0.0348 -0.5880
  593TMC3    C2 8787   1.276   3.669  11.467 -0.0607 -0.3054 -0.0825
  593TMC3    C3 8788   1.365   3.769  11.440 -0.2170 -0.3553 -0.4477
  593TMC3    C4 8789   1.349   3.561  11.263  0.5214  0.3152  0.1703
  593TMC3    C5 8790   1.420   3.669  11.234 -0.1374  0.1600  0.6390
  593TMC3    C6 8791   1.441   3.771  11.328 -0.5750 -0.2302 -0.2345
  593TMC3     C 8792   1.172   3.462  11.413  0.1368 -0.0176  0.1777
  593TMC3     O 8793   1.130   3.457  11.528  0.2424 -0.0218  0.1230
  593TMC3     H 8794   1.224   3.663  11.561 -0.0376  0.3379 -0.0340
  593TMC3    H1 8795   1.329   3.496  11.178  0.0240  0.4575  0.1756
  593TMC3    H2 8796   1.509   3.850  11.301  0.3217  0.0566  2.8143
  593TMC3    C7 8797   1.497   3.685  11.108 -0.0477  0.5182  1.2681
  593TMC3    C8 8798   1.373   3.882  11.535  0.0236 -0.0442  0.2138
  593TMC3    O1 8799   1.567   3.782  11.105  0.1335  0.7827 -0.3091
  593TMC3    O2 8800   1.273   3.903  11.594 -0.4762  0.2484  0.3937
  594MPD2     C 8801   4.481   2.215  14.227  0.2457 -0.1770 -0.0472
  594MPD2    C1 8802   4.507   2.148  14.346 -0.3010 -0.2188  0.4029
  594MPD2    C2 8803   4.607   2.196  14.416 -0.1517 -0.2686  0.1061
  594MPD2    C3 8804   4.693   2.294  14.376  0.5027 -0.0251 -0.4062
  594MPD2    C4 8805   4.667   2.353  14.257  0.3601 -0.7728 -0.3427
  594MPD2    C5 8806   4.564   2.312  14.183  0.2455 -0.5035 -0.1341
  594MPD2     H 8807   4.623   2.160  14.518  0.8365  0.9317  0.3727
  594MPD2    H1 8808   4.720   2.442  14.226 -2.4108  0.7945 -0.5588
  594MPD2    H2 8809   4.386   2.190  14.182  1.2184  0.6639 -2.6075
  594MPD2    H3 8810   4.545   2.359  14.087 -0.2786  0.1918  0.3015
  594MPD2     N 8811   0.069   2.336  14.466 -0.3928 -0.0944 -0.1307
  594MPD2    H5 8812   0.061   2.303  14.561  1.0143  0.5384  0.1975
  594MPD2    N1 8813   4.410   2.060  14.391  0.0267 -0.7285  0.2815
  594MPD2    H7 8814   4.332   2.049  14.327 -0.8424 -1.9854  1.5577
  595TMC3    C1 8815   0.474   2.548  14.598  0.2797 -0.2241  1.3029
  595TMC3    C2 8816   0.399   2.479  14.505  0.0069  0.4269 -0.1540
  595TMC3    C3 8817   0.264   2.453  14.536 -0.4476  0.7426  0.4256
  595TMC3    C4 8818   0.413   2.607  14.706 -1.3968 -0.2260 -0.3568
  595TMC3    C5 8819   0.274   2.600  14.717 -0.6193  0.2519 -0.2938
  595TMC3    C6 8820   0.200   2.535  14.627  0.5332 -0.2006  0.5779
  595TMC3     C 8821   0.622   2.542  14.608 -0.4419 -0.6829  0.4403
  595TMC3     O 8822   0.670   2.550  14.719  0.3644 -0.0186  0.1080
  595TMC3     H 8823   0.442   2.435  14.416  1.0723 -0.7539  0.9535
  595TMC3    H1 8824   0.464   2.646  14.793 -0.1337 -1.5940 -0.4811
  595TMC3    H2 8825   0.092   2.531  14.637  0.4463 -0.2838 -0.3724
  595TMC3    C7 8826   0.204   2.723  14.742  0.6627  0.5980 -0.0834
  595TMC3    C8 8827   0.175   2.417  14.426 -0.5666  0.6000  0.7823
  595TMC3    O1 8828   0.082   2.708  14.755 -0.0926  0.5186 -0.1038
  595TMC3    O2 8829   0.213   2.462  14.319  0.2730  0.3430  0.2480
  596MPD2     C 8830   3.997   0.145  16.625 -0.0224 -0.2079  0.1067
  596MPD2    C1 8831   4.009   0.274  16.573  0.1589  0.8211 -0.1604
  596MPD2    C2 8832   4.010   0.290  16.436  0.1795  0.0740 -0.1004
  596MPD2    C3 8833   4.019   0.182  16.348  0.5123  0.3437 -0.5637
  596MPD2    C4 8834   4.023   0.054  16.396 -0.6566 -0.2036  0.0297
  596MPD2    C5 8835   4.004   0.038  16.532  0.6732  0.2269 -0.2004
  596MPD2     H 8836   3.984   0.387  16.396  1.7047  0.7952  0.6900
  596MPD2    H1 8837   4.028   4.697  16.323  2.5680 -1.1219  1.2957
  596MPD2    H2 8838   3.984   0.120  16.730  2.6704  1.1761  0.8000
  596MPD2    H3 8839   4.004   4.660  16.571  1.5155  0.4729  0.4408
  596MPD2     N 8840   4.015   0.208  16.212  0.2575  0.4193  0.3284
  596MPD2    H5 8841   4.058   0.133  16.158 -0.1716 -0.0437  0.6389
  596MPD2    N1 8842   4.010   0.387  16.655  0.0069  0.0042 -0.1181
  596MPD2    H7 8843   4.014   0.473  16.602  1.5888 -1.0022 -1.6129
  597TMC3    C1 8844   4.001   0.520  16.849  0.1690 -0.2593  0.2169
  597TMC3    C2 8845   4.086   0.617  16.803  0.4663  0.3405 -0.7684
  597TMC3    C3 8846   4.075   0.737  16.872  0.0720 -0.1714  0.2997
  597TMC3    C4 8847   3.916   0.533  16.955  0.0885 -0.1793  0.5703
  597TMC3    C5 8848   3.911   0.653  17.015  0.6454  0.4354  0.1273
  597TMC3    C6 8849   3.997   0.755  16.980 -0.6766 -0.1465 -0.4554
  597TMC3     C 8850   3.996   0.389  16.788 -0.6628 -0.5732 -0.6247
  597TMC3     O 8851   3.958   0.303  16.868  0.4033 -0.0614 -0.9032
  597TMC3     H 8852   4.170   0.601  16.736  2.0353 -2.1757  1.7934
  597TMC3    H1 8853   3.839   0.462  16.983 -1.6368  1.0625 -1.0122
  597TMC3    H2 8854   3.987   0.853  17.025  0.5651  0.1729 -0.8797
  597TMC3    C7 8855   3.794   0.661  17.110  0.1884  0.5363 -0.3432
  597TMC3    C8 8856   4.170   0.843  16.848  0.1768 -0.2635 -0.1094
  597TMC3    O1 8857   3.728   0.565  17.142 -0.0367  1.1424  0.1824
  597TMC3    O2 8858   4.227   0.839  16.741 -0.2593  0.0565  0.2337
  598TMC3    C1 8859   1.674   1.936  15.208 -0.1344  0.2395  0.7075
  598TMC3    C2 8860   1.560   1.864  15.204 -0.1986 -0.0763 -0.3869
  598TMC3    C3 8861   1.523   1.808  15.088 -0.0485 -0.1052 -0.1692
  598TMC3    C4 8862   1.750   1.972  15.100  0.2756  0.8447 -0.3019
  598TMC3    C5 8863   1.694   1.934  14.979  0.1656  0.1428 -0.4774
  598TMC3    C6 8864   1.582   1.852  14.968  1.1905 -0.1292 -0.1959
  598TMC3     C 8865   1.757   1.897  15.315 -0.5790 -0.0738  0.3688
  598TMC3     O 8866   1.858   1.961  15.340 -0.1107  0.6968 -0.3882
  598TMC3     H 8867   1.508   1.832  15.293  0.9468  1.4930  0.8369
  598TMC3    H1 8868   1.848   2.016  15.116 -0.8046  3.3864 -0.6110
  598TMC3    H2 8869   1.554   1.812  14.871 -0.6113  0.8338 -0.0680
  598TMC3    C7 8870   1.758   1.960  14.848 -0.3213  0.2654  0.3871
  598TMC3    C8 8871   1.487   1.672  15.096 -0.1306 -0.0929  0.0346
  598TMC3    O1 8872   1.737   1.887  14.755 -0.0009  0.3662  0.5031
  598TMC3    O2 8873   1.505   1.629  15.204  0.1209 -0.3328 -0.5798
  599MPD2     C 8874   2.109   4.257  15.793 -0.0534  0.6472  0.4625
  599MPD2    C1 8875   2.060   4.142  15.731 -0.3274  0.7067  0.3662
  599MPD2    C2 8876   1.930   4.121  15.706 -0.0668  0.5027  0.2177
  599MPD2    C3 8877   1.840   4.232  15.725  0.6247  0.6217 -0.0447
  599MPD2    C4 8878   1.883   4.349  15.787 -0.3257  0.3183 -0.0100
  599MPD2    C5 8879   2.020   4.357  15.820  0.5997 -0.1605 -0.3857
  599MPD2     H 8880   1.906   4.036  15.644  1.9920  0.1726 -0.1228
  599MPD2    H1 8881   1.822   4.437  15.802 -0.7465 -0.1455  0.9907
  599MPD2    H2 8882   2.212   4.277  15.821  0.7687 -0.8949 -1.4832
  599MPD2    H3 8883   2.057   4.450  15.861  0.1878 -1.6571  3.4405
  599MPD2     N 8884   1.702   4.225  15.684  0.1182 -0.0413  0.0742
  599MPD2    H5 8885   1.654   4.314  15.696 -3.4005 -1.6780 -1.7214
  599MPD2    N1 8886   2.158   4.039  15.713 -0.3038  0.7352 -0.5612
  599MPD2    H7 8887   2.251   4.050  15.751 -0.2496 -0.7239 -0.2704
  600TMC3    C1 8888   1.494   4.133  15.645 -0.1886 -0.1031 -0.1118
  600TMC3    C2 8889   1.419   4.031  15.698 -0.3728 -0.0768  0.8117
  600TMC3    C3 8890   1.303   4.049  15.759  0.1713  0.4261 -0.2504
  600TMC3    C4 8891   1.453   4.258  15.671  0.1559  0.1291 -0.2466
  600TMC3    C5 8892   1.333   4.270  15.738 -0.4856  1.0772  0.4427
  600TMC3    C6 8893   1.252   4.168  15.782  0.4252 -0.1743 -0.1878
  600TMC3     C 8894   1.637   4.109  15.638 -1.2395  0.1473 -0.2261
  600TMC3     O 8895   1.672   3.993  15.639  0.1899  0.0287 -0.1760
  600TMC3     H 8896   1.462   3.934  15.677  0.2829  0.6985 -1.4231
  600TMC3    H1 8897   1.485   4.339  15.606 -1.4325  2.2078  1.5735
  600TMC3    H2 8898   1.156   4.180  15.832  0.7170  1.9468 -0.1610
  600TMC3    C7 8899   1.289   4.401  15.777 -0.0029  0.3722 -0.5569
  600TMC3    C8 8900   1.257   3.930  15.824 -0.5405  0.0939  0.5197
  600TMC3    O1 8901   1.172   4.427  15.816  0.0242 -0.3015 -0.0448
  600TMC3    O2 8902   1.346   3.855  15.864 -0.7065 -0.4945  0.0337
  601MPD2     C 8903   3.606   2.031   0.472 -0.4972 -0.0499  0.3458
  601MPD2    C1 8904   3.690   2.032   0.358 -0.2746 -0.5698  0.6933
  601MPD2    C2 8905   3.752   1.913   0.329 -0.3819 -0.2917 -0.2999
  601MPD2    C3 8906   3.730   1.798   0.401 -0.4219 -0.5137 -0.6901
  601MPD2    C4 8907   3.650   1.806   0.516  0.2375  0.0257  0.0472
  601MPD2    C5 8908   3.580   1.918   0.541 -0.0890 -0.1748  0.2238
  601MPD2     H 8909   3.828   1.912   0.252  0.7748  1.2613  0.8374
  601MPD2    H1 8910   3.632   1.721   0.581  1.4102 -0.1776  0.1056
  601MPD2    H2 8911   3.555   2.123   0.499 -1.0149 -0.0046 -0.7840
  601MPD2    H3 8912   3.512   1.935   0.624 -1.9491 -2.1099 -0.8985
  601MPD2     N 8913   3.783   1.670   0.369  0.0877 -0.2466 -0.3415
  601MPD2    H5 8914   3.778   1.600   0.442  2.7583  0.1160  0.1861
  601MPD2    N1 8915   3.711   2.143   0.277  0.2351 -0.7295  0.1902
  601MPD2    H7 8916   3.764   2.120   0.193 -0.5475  1.5313 -0.9173
  602TMC3    C1 8917   3.696   2.353   0.182 -0.3190 -0.1187  1.3909
  602TMC3    C2 8918   3.614   2.464   0.178 -0.1749  0.4681 -0.2497
  602TMC3    C3 8919   3.605   2.545   0.067  0.4462 -0.2258 -0.3037
  602TMC3    C4 8920   3.776   2.317   0.076 -0.1063 -0.6553  0.3845
  602TMC3    C5 8921   3.761   2.397  17.661  0.1727 -0.0409  0.5180
  602TMC3    C6 8922   3.688   2.511  17.655  1.0402  0.2125  0.0013
  602TMC3     C 8923   3.658   2.263   0.295  0.3297 -0.0307  0.6453
  602TMC3     O 8924   3.587   2.305   0.386  0.1585  0.0208  0.0720
  602TMC3     H 8925   3.547   2.484   0.260 -0.1187 -0.9870  0.1509
  602TMC3    H1 8926   3.832   2.225   0.065 -0.4494 -0.6884 -1.1128
  602TMC3    H2 8927   3.698   2.571  17.565  1.1175 -1.6356 -1.2265
  602TMC3    C7 8928   3.828   2.353  17.535  0.3134  0.5728  0.5090
  602TMC3    C8 8929   3.475   2.607   0.033  0.2203  0.3172  0.5593
  602TMC3    O1 8930   3.919   2.271  17.551  0.1131  0.0386  0.7591
  602TMC3    O2 8931   3.411   2.666   0.121  0.3671  0.2123 -0.1889
  603TMC3    C1 8932   1.509   2.890  11.247  0.1292 -0.0846 -0.5267
  603TMC3    C2 8933   1.541   2.883  11.380  0.2949  0.0448 -0.4388
  603TMC3    C3 8934   1.655   2.939  11.422 -0.0873  0.0675 -0.2482
  603TMC3    C4 8935   1.605   2.924  11.154  0.5070  0.3034  0.5257
  603TMC3    C5 8936   1.721   2.973  11.199 -0.4973  0.5409 -0.1503
  603TMC3    C6 8937   1.744   2.991  11.334  0.2237 -0.0545  0.9968
  603TMC3     C 8938   1.403   2.800  11.203  0.3214 -0.9261  0.1740
  603TMC3     O 8939   1.427   2.752  11.091  0.1691 -0.3847 -0.0788
  603TMC3     H 8940   1.466   2.854  11.452  1.2173 -0.3502  0.3671
  603TMC3    H1 8941   1.577   2.940  11.050 -1.2990 -0.9252  0.8234
  603TMC3    H2 8942   1.845   3.000  11.372 -0.3054 -0.5707  2.5201
  603TMC3    C7 8943   1.838   3.000  11.108 -0.2896 -0.7676 -0.2703
  603TMC3    C8 8944   1.690   2.946  11.561  0.5078 -0.7176 -0.2034
  603TMC3    O1 8945   1.935   3.055  11.156  0.0931 -0.3229 -0.5060
  603TMC3    O2 8946   1.613   2.882  11.635 -0.2353  0.0458  0.1989
  604MPD2     C 8947   2.877   1.054  16.361  0.0195 -0.2498 -0.1290
  604MPD2    C1 8948   2.802   1.136  16.290  0.7135 -0.4093 -0.1087
  604MPD2    C2 8949   2.824   1.156  16.157  0.2433 -0.5041 -0.3340
  604MPD2    C3 8950   2.939   1.110  16.096  0.0495 -0.0993  0.2868
  604MPD2    C4 8951   3.016   1.024  16.171  0.0683 -0.7496  0.5846
  604MPD2    C5 8952   2.986   1.000  16.302  0.0090 -0.3682  0.3389
  604MPD2     H 8953   2.761   1.221  16.097  0.7007 -0.8773 -1.2146
  604MPD2    H1 8954   3.101   0.979  16.120  0.8433  2.0609 -0.5925
  604MPD2    H2 8955   2.853   1.033  16.464 -1.2267 -0.9005 -0.5533
  604MPD2    H3 8956   3.054   0.936  16.358 -0.5702 -0.0215  1.4357
  604MPD2     N 8957   2.954   1.127  15.960 -0.5669 -0.6751 -0.8350
  604MPD2    H5 8958   2.874   1.158  15.905  0.1786  0.9503 -0.9856
  604MPD2    N1 8959   2.693   1.199  16.357  0.3798  0.1126  0.0676
  604MPD2    H7 8960   2.685   1.171  16.454 -4.2478  0.6341 -0.1598
  605TMC3    C1 8961   2.519   1.348  16.416 -1.0592 -0.1603  0.0649
  605TMC3    C2 8962   2.581   1.329  16.543  0.2330 -0.3019  0.4042
  605TMC3    C3 8963   2.581   1.442  16.624 -0.1131  0.2509 -0.6752
  605TMC3    C4 8964   2.473   1.472  16.378  0.2046 -0.1526 -0.8106
  605TMC3    C5 8965   2.494   1.581  16.463  0.1943  0.2475 -0.1384
  605TMC3    C6 8966   2.544   1.568  16.586  0.0577  0.2733 -0.7903
  605TMC3     C 8967   2.601   1.292  16.314 -0.1739  0.1881  0.4399
  605TMC3     O 8968   2.587   1.343  16.208  0.4110  0.1574  0.1803
  605TMC3     H 8969   2.607   1.229  16.574  0.3258 -0.9380 -1.7670
  605TMC3    H1 8970   2.437   1.494  16.278 -2.5548  0.9931  0.4561
  605TMC3    H2 8971   2.559   1.661  16.639 -0.9451  0.8514 -1.5360
  605TMC3    C7 8972   2.434   1.702  16.422  0.3678  0.3107 -0.1115
  605TMC3    C8 8973   2.666   1.424  16.747  0.3369 -0.7583  0.4010
  605TMC3    O1 8974   2.335   1.693  16.348 -0.4333  0.3921 -0.9516
  605TMC3    O2 8975   2.703   1.307  16.766 -0.0967  0.5117 -0.0200
  606TMC3    C1 8976   4.146   0.111  17.113  0.5222  0.9494 -0.2002
  606TMC3    C2 8977   4.140   0.126  17.247 -0.0053 -0.2581  0.5943
  606TMC3    C3 8978   4.089   0.028  17.323 -0.4342 -0.0397 -0.2847
  606TMC3    C4 8979   4.098   4.717  17.055 -0.3889  0.0979 -0.1569
  606TMC3    C5 8980   4.034   4.627  17.136 -0.2242  0.3987  0.2432
  606TMC3    C6 8981   4.031   4.637  17.269 -0.2667 -0.1372 -0.2717
  606TMC3     C 8982   4.193   0.219  17.029 -0.4199 -0.6757  0.0958
  606TMC3     O 8983   4.241   0.177  16.922  0.0482 -0.5746 -0.2670
  606TMC3     H 8984   4.176   0.213  17.301 -1.6504  0.6517  0.2346
  606TMC3    H1 8985   4.085   4.704  16.948  0.9368  0.2736 -0.3442
  606TMC3    H2 8986   3.986   4.558  17.329  3.0017 -1.9055 -0.1715
  606TMC3    C7 8987   4.009   4.501  17.072 -0.3021  0.3265 -0.4865
  606TMC3    C8 8988   4.129   0.021  17.464  0.3841 -0.6376  0.4181
  606TMC3    O1 8989   4.095   4.463  16.992  0.2181  0.1442 -0.1122
  606TMC3    O2 8990   4.238   0.077  17.492  0.2755 -0.1148 -0.0503
  607MPD2     C 8991   0.983   2.770  11.659  0.3139 -0.2354 -0.7453
  607MPD2    C1 8992   1.011   2.884  11.729 -0.5327 -0.4475 -0.4323
  607MPD2    C2 8993   0.944   2.904  11.846  0.1830  0.2486  0.5630
  607MPD2    C3 8994   0.878   2.804  11.910  0.3706  0.3667 -0.0184
  607MPD2    C4 8995   0.844   2.694  11.840  0.3157  0.5142 -0.2125
  607MPD2    C5 8996   0.894   2.676  11.714 -0.4957 -0.5471 -0.6438
  607MPD2     H 8997   0.972   2.991  11.904 -1.0175 -0.0623  1.6094
  607MPD2    H1 8998   0.786   2.612  11.879  0.2213  0.5244 -0.3301
  607MPD2    H2 8999   1.033   2.746  11.566 -0.1422  1.3035 -1.3848
  607MPD2    H3 9000   0.886   2.586  11.654 -2.2247 -0.7795 -0.0690
  607MPD2     N 9001   0.840   2.832  12.040 -0.1837  0.3326 -0.4310
  607MPD2    H5 9002   0.872   2.922  12.074  1.1068  0.5203 -2.1648
  607MPD2    N1 9003   1.094   2.990  11.695  0.0991 -0.1805 -0.1397
  607MPD2    H7 9004   1.086   3.072  11.754 -2.9833  0.5856 -1.6120
  608TMC3    C1 9005   1.279   3.102  11.628 -0.8534  0.1133  0.3985
  608TMC3    C2 9006   1.268   3.177  11.744  0.0381  0.1180 -0.6404
  608TMC3    C3 9007   1.340   3.293  11.761  0.2119  0.6974  0.0826
  608TMC3    C4 9008   1.349   3.148  11.522 -0.0807 -0.0422 -0.7891
  608TMC3    C5 9009   1.426   3.255  11.547  0.4261 -0.5788 -0.3659
  608TMC3    C6 9010   1.423   3.334  11.659 -0.3133  0.6615  0.2735
  608TMC3     C 9011   1.189   2.996  11.599 -0.0278 -0.2779 -0.3928
  608TMC3     O 9012   1.216   2.917  11.510 -0.1123  0.4453 -0.8575
  608TMC3     H 9013   1.212   3.131  11.825 -1.2064 -0.6386 -1.9191
  608TMC3    H1 9014   1.352   3.093  11.429  0.4862  1.7268 -1.8143
  608TMC3    H2 9015   1.479   3.426  11.675 -1.1889  1.1395  0.6115
  608TMC3    C7 9016   1.528   3.289  11.451  0.3107 -0.2024 -0.1372
  608TMC3    C8 9017   1.332   3.363  11.884 -0.0390  0.0358  0.4530
  608TMC3    O1 9018   1.501   3.249  11.337  0.2093  0.1899  0.1959
  608TMC3    O2 9019   1.406   3.460  11.905  0.6863 -0.2076 -0.2868
  609TMC3    C1 9020   1.436   1.837   8.834  0.0596 -0.1379  0.1004
  609TMC3    C2 9021   1.510   1.768   8.739  1.0385 -0.4663  0.0603
  609TMC3    C3 9022   1.612   1.683   8.787  0.7735  0.0929 -0.2642
  609TMC3    C4 9023   1.470   1.836   8.963 -0.0828 -0.2959 -0.0062
  609TMC3    C5 9024   1.567   1.747   9.009 -0.9714 -0.4404  0.4986
  609TMC3    C6 9025   1.639   1.672   8.922  0.4559  0.6614 -0.1571
  609TMC3     C 9026   1.331   1.932   8.797  0.6148  0.1094  0.5674
  609TMC3     O 9027   1.297   2.011   8.888 -0.0171  0.1854 -0.4020
  609TMC3     H 9028   1.499   1.780   8.632  1.3727 -1.9881 -0.1400
  609TMC3    H1 9029   1.414   1.886   9.042 -0.9514  0.3634 -1.0396
  609TMC3    H2 9030   1.689   1.585   8.962 -1.4003 -0.0752  0.5859
  609TMC3    C7 9031   1.604   1.741   9.152  0.6682  0.5053  1.0539
  609TMC3    C8 9032   1.655   1.577   8.699 -0.4217  0.0138 -0.0019
  609TMC3    O1 9033   1.510   1.775   9.225 -0.0779  0.4045 -0.0063
  609TMC3    O2 9034   1.588   1.557   8.600 -0.4401  0.8901  0.4296
  610TMC3    C1 9035   1.240   3.075  12.679 -0.1069 -0.0824  0.0882
  610TMC3    C2 9036   1.290   3.135  12.562 -0.1027 -0.1746  0.0400
  610TMC3    C3 9037   1.406   3.081  12.512 -0.8775 -0.3220 -0.2196
  610TMC3    C4 9038   1.318   2.982  12.742  0.3787 -0.7948  0.2411
  610TMC3    C5 9039   1.438   2.944  12.690 -0.5383 -0.3925  0.2179
  610TMC3    C6 9040   1.478   2.985  12.568  0.3026 -0.2868  0.5845
  610TMC3     C 9041   1.097   3.059  12.688  0.7836 -0.0990  0.4140
  610TMC3     O 9042   1.045   2.961  12.737 -0.2132 -0.0805 -0.2026
  610TMC3     H 9043   1.221   3.198  12.508 -0.4901 -0.6795 -0.0565
  610TMC3    H1 9044   1.284   2.951  12.840 -2.9036 -2.2073 -1.3581
  610TMC3    H2 9045   1.576   2.948  12.539  0.2984  0.3401 -0.2034
  610TMC3    C7 9046   1.514   2.834  12.747 -0.0791  0.3343 -0.2712
  610TMC3    C8 9047   1.426   3.102  12.377 -0.2520  0.3261  0.4696
  610TMC3    O1 9048   1.635   2.823  12.723  0.3439  0.1161 -0.3037
  610TMC3    O2 9049   1.529   3.157  12.338 -0.0390  0.1298 -0.5719
  611MPD2     C 9050   1.372   2.366  10.449 -0.0305 -0.2558  0.0677
  611MPD2    C1 9051   1.315   2.448  10.356 -0.3091  0.2551 -0.3169
  611MPD2    C2 9052   1.393   2.552  10.295  0.1667 -0.1118 -0.8004
  611MPD2    C3 9053   1.530   2.561  10.321  0.2588 -1.4580  0.0689
  611MPD2    C4 9054   1.585   2.465  10.396  0.6173  0.2432 -0.1069
  611MPD2    C5 9055   1.510   2.366  10.462 -0.1948  0.3561 -0.0665
  611MPD2     H 9056   1.345   2.635  10.244  0.2422  0.1764 -0.4044
  611MPD2    H1 9057   1.693   2.453  10.397  0.5888 -0.0045 -0.0077
  611MPD2    H2 9058   1.316   2.288  10.499 -0.2675  0.4423  0.8767
  611MPD2    H3 9059   1.565   2.303  10.530 -1.6461  0.1214  0.8846
  611MPD2     N 9060   1.601   2.675  10.279  0.0627 -0.5687  0.4035
  611MPD2    H5 9061   1.695   2.681  10.317 -0.5732 -1.1102  2.0621
  611MPD2    N1 9062   1.179   2.428  10.344 -0.8763 -0.5661 -0.4377
  611MPD2    H7 9063   1.145   2.349  10.398 -1.1304 -0.2259 -0.0991
  612TMC3    C1 9064   1.661   2.863  10.169  0.1516 -0.0815  0.2450
  612TMC3    C2 9065   1.715   2.908  10.290  0.0730  0.2543 -0.1795
  612TMC3    C3 9066   1.826   2.984  10.271  0.0533  0.2276  0.0443
  612TMC3    C4 9067   1.713   2.878  10.043  0.2986  0.0380  0.4411
  612TMC3    C5 9068   1.831   2.949  10.038 -0.2098  0.3182  0.1141
  612TMC3    C6 9069   1.890   2.998  10.151 -0.0897 -0.4878 -0.6968
  612TMC3     C 9070   1.564   2.761  10.184 -0.4910 -0.0773 -0.0862
  612TMC3     O 9071   1.474   2.758  10.103  0.2613  0.1347 -0.0115
  612TMC3     H 9072   1.662   2.900  10.384  0.8310  2.8959  0.4713
  612TMC3    H1 9073   1.661   2.833   9.959  1.4696 -1.8412  0.7140
  612TMC3    H2 9074   1.990   3.039  10.148  0.4652 -1.8424 -0.5306
  612TMC3    C7 9075   1.897   2.998   9.911 -0.7054  0.2150  0.0913
  612TMC3    C8 9076   1.900   3.019  10.389 -0.7343 -0.2181  0.0617
  612TMC3    O1 9077   2.002   3.057   9.930  0.0275  0.1378 -0.7540
  612TMC3    O2 9078   1.993   3.094  10.356 -0.4528  0.3966 -0.8151
  613MPD2     C 9079   0.466   0.598  16.553 -0.1068  0.0607 -0.8864
  613MPD2    C1 9080   0.348   0.585  16.486 -0.6727 -0.1005 -0.7452
  613MPD2    C2 9081   0.261   0.487  16.516 -0.3966 -0.3275 -0.0271
  613MPD2    C3 9082   0.298   0.381  16.605 -0.4384 -0.1898 -1.0825
  613MPD2    C4 9083   0.415   0.394  16.673 -0.1277 -0.5256  0.0117
  613MPD2    C5 9084   0.498   0.501  16.646 -0.3416 -0.3210  0.0267
  613MPD2     H 9085   0.171   0.470  16.458  1.1417 -1.4704 -2.0718
  613MPD2    H1 9086   0.445   0.316  16.742 -0.4410 -0.3235  0.3808
  613MPD2    H2 9087   0.544   0.672  16.538 -0.8929  0.9689 -0.5572
  613MPD2    H3 9088   0.598   0.501  16.689 -0.1527  2.7656 -0.4250
  613MPD2     N 9089   0.239   0.253  16.612  0.9093 -0.0155 -0.1945
  613MPD2    H5 9090   0.282   0.176  16.663 -0.8033 -0.8143  0.0667
  613MPD2    N1 9091   0.332   0.664  16.366  0.0988 -0.2917  0.4307
  613MPD2    H7 9092   0.418   0.707  16.334 -0.2530 -1.0684 -1.5452
  614TMC3    C1 9093   0.249   0.709  16.149 -0.4725  0.2381  0.0622
  614TMC3    C2 9094   0.350   0.633  16.091  0.1945  0.7976  0.5095
  614TMC3    C3 9095   0.316   0.569  15.980 -0.2201  0.1188  0.1644
  614TMC3    C4 9096   0.143   0.743  16.076 -0.2033  0.4360  0.1898
  614TMC3    C5 9097   0.125   0.691  15.953 -0.5664 -0.1426 -0.6591
  614TMC3    C6 9098   0.201   0.587  15.908  0.2496  0.3847  0.9196
  614TMC3     C 9099   0.218   0.693  16.295 -0.2654 -0.2860 -0.7279
  614TMC3     O 9100   0.104   0.663  16.322 -0.2333 -0.0817 -0.4444
  614TMC3     H 9101   0.443   0.622  16.146  0.0092  4.1345  1.4943
  614TMC3    H1 9102   0.056   0.794  16.118  0.0363  0.7402  0.3148
  614TMC3    H2 9103   0.180   0.532  15.817  1.3486  0.4502  0.6194
  614TMC3    C7 9104   0.013   0.749  15.875 -0.2836 -0.1385  0.5011
  614TMC3    C8 9105   0.382   0.431  15.970 -0.2692 -0.3099 -0.4643
  614TMC3    O1 9106   4.689   0.857  15.919  0.1446 -0.0434 -0.5874
  614TMC3    O2 9107   0.433   0.392  16.072 -0.1371  0.3684 -0.2065
  615MPD2     C 9108   0.004   1.760  16.027 -0.0566 -0.5719 -0.2215
  615MPD2    C1 9109   4.614   1.773  16.100 -0.6464 -0.2222  0.5493
  615MPD2    C2 9110   4.493   1.739  16.041  0.1869  0.3875  0.4599
  615MPD2    C3 9111   4.491   1.679  15.913  0.0800 -0.1055 -0.5772
  615MPD2    C4 9112   4.613   1.660  15.846 -0.6938  0.1831  0.1750
  615MPD2    C5 9113   0.006   1.712  15.897  0.4569 -0.1781  0.2860
  615MPD2     H 9114   4.402   1.753  16.097  0.1034  2.3116 -0.1543
  615MPD2    H1 9115   4.623   1.611  15.750 -2.5377  1.0957 -0.4870
  615MPD2    H2 9116   0.098   1.799  16.063  0.8150 -1.0990 -1.9074
  615MPD2    H3 9117   0.098   1.715  15.839  0.4168 -0.1617  0.2230
  615MPD2     N 9118   4.375   1.630  15.852 -0.1998 -0.0994  0.0747
  615MPD2    H5 9119   4.388   1.591  15.759  0.2628  0.2867 -0.0190
  615MPD2    N1 9120   4.619   1.832  16.227  0.1249  0.3987 -0.0213
  615MPD2    H7 9121   4.529   1.859  16.267  0.7653  0.1176  1.6194
  616TMC3    C1 9122   4.699   1.937  16.424  0.2900 -0.1786  0.5882
  616TMC3    C2 9123   0.074   2.004  16.484  0.0266 -0.6642  0.3346
  616TMC3    C3 9124   0.051   2.068  16.599 -0.0024 -0.2823 -0.5724
  616TMC3    C4 9125   4.585   1.909  16.492 -0.1330 -0.1288 -0.1251
  616TMC3    C5 9126   4.571   1.956  16.619  0.3504  0.6219 -0.2342
  616TMC3    C6 9127   4.661   2.037  16.676  0.1294 -0.9862 -0.1826
  616TMC3     C 9128   0.007   1.870  16.300  0.4570  0.5708  0.1841
  616TMC3     O 9129   0.127   1.855  16.280 -0.2273 -0.9609 -0.0528
  616TMC3     H 9130   0.159   2.031  16.421 -0.7051 -0.4828 -0.5822
  616TMC3    H1 9131   4.511   1.840  16.454  0.3982 -0.6561 -0.2089
  616TMC3    H2 9132   4.636   2.088  16.769 -1.0401 -0.8952 -0.5523
  616TMC3    C7 9133   4.434   1.953  16.677  0.3040 -0.5062 -0.3207
  616TMC3    C8 9134   0.180   2.088  16.671 -0.4365  0.2810 -0.5277
  616TMC3    O1 9135   4.348   1.939  16.591 -0.0336  0.1362 -0.2380
  616TMC3    O2 9136   0.267   2.127  16.596 -0.0905 -0.0784  0.2839
  617MPD2     C 9137   2.242   0.244  13.682 -0.9896 -0.3987 -0.4865
  617MPD2    C1 9138   2.280   0.144  13.772 -0.0556 -0.6233  0.7181
  617MPD2    C2 9139   2.184   0.046  13.803 -0.1271 -0.0576 -0.2266
  617MPD2    C3 9140   2.059   0.045  13.747 -0.7349  0.1557  0.2277
  617MPD2    C4 9141   2.019   0.147  13.655 -0.0301  1.3456 -0.3821
  617MPD2    C5 9142   2.117   0.247  13.630 -0.0347 -0.6436  0.7322
  617MPD2     H 9143   2.201   4.691  13.877  0.4071  0.1553 -0.1284
  617MPD2    H1 9144   1.920   0.146  13.612 -0.5850  0.6630  0.9326
  617MPD2    H2 9145   2.307   0.326  13.651 -0.3161 -1.7738 -2.7165
  617MPD2    H3 9146   2.097   0.323  13.556  1.1305  0.3357  1.4165
  617MPD2     N 9147   1.975   4.656  13.782 -0.0174 -0.5934 -0.6840
  617MPD2    H5 9148   1.995   4.597  13.862 -2.2993  0.8579  0.9667
  617MPD2    N1 9149   2.409   0.154  13.830 -0.1491  0.6113 -0.2193
  617MPD2    H7 9150   2.469   0.228  13.796  0.3714  0.4099  0.2656
  618TMC3    C1 9151   2.610   0.072  13.938 -0.5277 -0.5869 -0.1802
  618TMC3    C2 9152   2.672   4.677  13.961  0.2674 -0.0830  0.7493
  618TMC3    C3 9153   2.804   4.682  13.994  0.6165 -0.0515 -0.3469
  618TMC3    C4 9154   2.667   0.195  13.948  0.5950 -0.1976 -0.0641
  618TMC3    C5 9155   2.804   0.191  13.976 -0.2058 -0.6099 -0.0582
  618TMC3    C6 9156   2.871   0.077  14.007  0.9894 -0.0548  0.1663
  618TMC3     C 9157   2.469   0.059  13.907 -0.6949  0.1097 -0.3899
  618TMC3     O 9158   2.412   4.682  13.944  0.1958 -0.2502  0.2305
  618TMC3     H 9159   2.622   4.582  13.945 -0.9813  1.2023 -2.9721
  618TMC3    H1 9160   2.611   0.286  13.933  0.4068 -0.4077 -0.6159
  618TMC3    H2 9161   2.974   0.071  14.039  1.4210 -0.6984 -1.3106
  618TMC3    C7 9162   2.864   0.325  13.985 -0.4592 -0.4772 -0.2790
  618TMC3    C8 9163   2.877   4.555  13.985  0.3414 -0.7105 -0.3317
  618TMC3    O1 9164   2.785   0.421  13.990  0.0569 -0.9013  0.2337
  618TMC3    O2 9165   2.805   4.455  13.983  0.3514  0.3152 -0.5030
  619MPD2     C 9166   3.795   1.179  13.493  0.4550  0.0240  0.6709
  619MPD2    C1 9167   3.709   1.266  13.433  0.0307  0.3701 -0.3144
  619MPD2    C2 9168   3.577   1.237  13.424 -0.6764  0.1616  1.0783
  619MPD2    C3 9169   3.516   1.131  13.480 -0.1973  0.1133  0.4052
  619MPD2    C4 9170   3.595   1.040  13.535 -0.2183 -0.1714  0.6277
  619MPD2    C5 9171   3.734   1.064  13.547  0.1757  0.7585  0.2243
  619MPD2     H 9172   3.524   1.307  13.362 -0.1151  1.3958  1.9963
  619MPD2    H1 9173   3.557   0.950  13.581 -2.8009 -0.1336 -1.4410
  619MPD2    H2 9174   3.903   1.194  13.495  0.4850 -0.2063  0.7954
  619MPD2    H3 9175   3.804   0.991  13.585  0.2787  0.5289 -0.4002
  619MPD2     N 9176   3.379   1.117  13.466  0.3277 -0.5957  0.4670
  619MPD2    H5 9177   3.335   1.028  13.490  0.9728 -0.3072  2.7684
  619MPD2    N1 9178   3.754   1.391  13.376 -0.2852  0.1607 -0.5523
  619MPD2    H7 9179   3.684   1.444  13.325 -1.8222 -1.5233 -0.1798
  620TMC3    C1 9180   3.892   1.578  13.348  0.0739 -1.0954 -0.8390
  620TMC3    C2 9181   3.810   1.645  13.262  0.2416  0.1062  0.1682
  620TMC3    C3 9182   3.807   1.780  13.259  0.2690 -0.8031 -0.0726
  620TMC3    C4 9183   3.969   1.645  13.438 -0.0094 -0.1201 -0.1535
  620TMC3    C5 9184   3.966   1.783  13.430 -0.0064  0.2747  0.3168
  620TMC3    C6 9185   3.888   1.852  13.340 -0.7169  0.0578 -0.3603
  620TMC3     C 9186   3.885   1.433  13.370 -0.1188  0.6526  0.5773
  620TMC3     O 9187   3.986   1.394  13.427 -0.4644 -0.0571  0.0279
  620TMC3     H 9188   3.735   1.594  13.204  0.1177 -0.5885  0.9307
  620TMC3    H1 9189   4.027   1.598  13.517 -1.7497 -2.6128 -0.3718
  620TMC3    H2 9190   3.883   1.960  13.333 -0.3368  0.2175  1.7233
  620TMC3    C7 9191   3.961   1.843  13.565 -0.1862  0.2344  0.2563
  620TMC3    C8 9192   3.671   1.833  13.286  0.5097  0.1830  0.4416
  620TMC3    O1 9193   4.050   1.811  13.649  0.4379 -0.4331 -0.1821
  620TMC3    O2 9194   3.666   1.908  13.382  0.0974 -0.4828  0.0019
  621MPD2     C 9195   0.348   0.802   9.517  0.6563  0.1063  0.7102
  621MPD2    C1 9196   0.426   0.917   9.533 -0.2990  0.0350  0.5896
  621MPD2    C2 9197   0.404   0.988   9.643 -0.0810  0.3945 -0.2766
  621MPD2    C3 9198   0.313   0.954   9.744 -0.2141 -0.3622  0.4930
  621MPD2    C4 9199   0.243   0.839   9.721  0.2725  0.1071  0.5601
  621MPD2    C5 9200   0.257   0.765   9.606  0.1008  0.3645  0.4245
  621MPD2     H 9201   0.441   1.090   9.642  0.4493  0.1955 -0.7532
  621MPD2    H1 9202   0.174   0.804   9.797  1.8058 -1.7748  1.0819
  621MPD2    H2 9203   0.362   0.744   9.427 -2.6972  0.2400  0.0751
  621MPD2    H3 9204   0.194   0.679   9.583 -0.8210  1.2893 -0.4656
  621MPD2     N 9205   0.306   1.032   9.865 -0.0842 -0.0332  0.4126
  621MPD2    H5 9206   0.370   1.111   9.870 -1.0300  0.7751  0.0527
  621MPD2    N1 9207   0.530   0.961   9.449 -0.8973  0.1206 -0.5344
  621MPD2    H7 9208   0.591   1.035   9.480 -1.9717  0.3825  0.9566
  622TMC3    C1 9209   0.683   0.958   9.273  0.0101 -0.4090 -0.4423
  622TMC3    C2 9210   0.688   1.099   9.258 -0.7622 -0.1223 -0.8198
  622TMC3    C3 9211   0.765   1.144   9.156  0.5868  0.1114 -0.0552
  622TMC3    C4 9212   0.737   0.876   9.178 -0.1114 -0.3168 -0.7137
  622TMC3    C5 9213   0.816   0.931   9.071 -0.6479  0.0686 -0.6172
  622TMC3    C6 9214   0.834   1.063   9.064 -0.2022  0.4014 -0.1724
  622TMC3     C 9215   0.569   0.899   9.333 -0.0732 -0.3553  0.1297
  622TMC3     O 9216   0.517   0.811   9.265  0.1531 -0.0193 -0.3303
  622TMC3     H 9217   0.643   1.166   9.330 -0.0864 -0.1253 -0.3953
  622TMC3    H1 9218   0.724   0.769   9.178  1.0257 -0.4566 -1.4222
  622TMC3    H2 9219   0.878   1.100   8.972  0.6856 -0.1386  0.0345
  622TMC3    C7 9220   0.798   0.867   8.943 -0.0080  0.7319 -0.0979
  622TMC3    C8 9221   0.795   1.285   9.144 -0.2157 -0.2289  0.0286
  622TMC3    O1 9222   0.850   0.910   8.842  0.4473  0.5335 -0.3665
  622TMC3    O2 9223   0.902   1.311   9.090 -0.0251 -0.2677  0.0362
  623MPD2     C 9224   2.897   1.624  16.357 -0.4830  0.3931  0.6720
  623MPD2    C1 9225   2.920   1.709  16.456 -0.3829  0.6213  0.6943
  623MPD2    C2 9226   2.974   1.663  16.576  0.1953 -0.1759 -0.3308
  623MPD2    C3 9227   3.016   1.532  16.583  0.3603  0.2711  0.1329
  623MPD2    C4 9228   2.980   1.442  16.486 -1.1337  0.2627  0.5465
  623MPD2    C5 9229   2.917   1.495  16.375  0.3220  0.5631 -0.3200
  623MPD2     H 9230   3.010   1.736  16.649  3.6002  1.6463 -3.8552
  623MPD2    H1 9231   3.014   1.339  16.487 -0.3796  0.5054 -0.3712
  623MPD2    H2 9232   2.859   1.642  16.257 -1.9307  1.2098  1.3589
  623MPD2    H3 9233   2.900   1.422  16.297  1.0495 -0.5899  0.5944
  623MPD2     N 9234   3.092   1.482  16.690  0.1403 -0.1622  0.2835
  623MPD2    H5 9235   3.097   1.555  16.761  1.3633  0.3587 -0.3355
  623MPD2    N1 9236   2.908   1.849  16.428  0.4622 -0.2453  0.5271
  623MPD2    H7 9237   2.874   1.874  16.336  1.3630  2.9154  1.0545
  624TMC3    C1 9238   3.352   1.210  16.958 -0.1647 -0.8193 -0.1568
  624TMC3    C2 9239   3.277   1.228  17.067 -0.5478  0.1120 -0.1163
  624TMC3    C3 9240   3.180   1.324  17.060  0.4876  1.1472 -0.0531
  624TMC3    C4 9241   3.323   1.253  16.831 -0.2956 -0.6693  0.5526
  624TMC3    C5 9242   3.218   1.343  16.825  0.6340  0.0958 -0.5795
  624TMC3    C6 9243   3.152   1.384  16.939  0.8506  0.5763 -0.0725
  624TMC3     C 9244   3.490   1.176  16.979  0.2416  0.5765  0.9502
  624TMC3     O 9245   3.544   1.232  17.071  0.2795  0.6440  0.7100
  624TMC3     H 9246   3.297   1.172  17.157  0.5346  0.5911 -0.0603
  624TMC3    H1 9247   3.380   1.224  16.744 -1.6364 -0.9341 -0.2210
  624TMC3    H2 9248   3.055   1.429  16.923  1.5084  1.6288 -1.1754
  624TMC3    C7 9249   3.158   1.360  16.696 -0.1896 -0.6211 -0.5481
  624TMC3    C8 9250   3.054   1.289  17.122  0.6021 -0.1165  0.0969
  624TMC3    O1 9251   3.166   1.270  16.615 -0.2303 -0.2296 -0.0457
  624TMC3    O2 9252   2.982   1.208  17.062 -0.3017 -0.1709  0.2084
  625MPD2     C 9253   3.249   2.879   0.833 -0.9324 -0.3172  0.7709
  625MPD2    C1 9254   3.309   2.997   0.789 -0.4158 -0.3193  0.0084
  625MPD2    C2 9255   3.445   3.003   0.780 -0.5059  0.8960 -0.0146
  625MPD2    C3 9256   3.527   2.904   0.823  0.7159 -0.4440 -0.7837
  625MPD2    C4 9257   3.468   2.796   0.883  0.2420  0.4797  0.5970
  625MPD2    C5 9258   3.332   2.786   0.893 -0.7164  0.2109 -0.3356
  625MPD2     H 9259   3.485   3.099   0.749 -2.5837  0.3298 -4.4585
  625MPD2    H1 9260   3.529   2.714   0.918  0.4625  0.7745  0.9045
  625MPD2    H2 9261   3.143   2.856   0.836 -1.0390  0.2731  1.5513
  625MPD2    H3 9262   3.279   2.702   0.936 -0.7245  0.3762 -0.0265
  625MPD2     N 9263   3.666   2.908   0.800  0.4166 -0.3396 -0.0824
  625MPD2    H5 9264   3.698   2.990   0.749  1.8597 -0.9943 -0.2232
  625MPD2    N1 9265   3.235   3.106   0.733  0.6321 -0.3826  0.6462
  625MPD2    H7 9266   3.280   3.197   0.731 -3.4622  1.5870 -1.2982
  626TMC3    C1 9267   3.066   3.218   0.626  1.0939 -0.1989  0.4040
  626TMC3    C2 9268   3.026   3.212   0.501 -0.3273 -0.0861 -0.3154
  626TMC3    C3 9269   2.991   3.327   0.438  0.9038  0.3814 -0.3702
  626TMC3    C4 9270   3.085   3.338   0.689 -0.4554 -0.0476 -0.2000
  626TMC3    C5 9271   3.044   3.454   0.632 -0.0882 -0.3091  0.5094
  626TMC3    C6 9272   3.001   3.449   0.502 -0.0816 -0.0048  0.1544
  626TMC3     C 9273   3.104   3.100   0.689  0.1405  0.3352 -0.1717
  626TMC3     O 9274   3.023   3.010   0.670  0.2572 -0.1241  0.0620
  626TMC3     H 9275   3.013   3.118   0.447  1.1710  0.0052 -0.8467
  626TMC3    H1 9276   3.102   3.323   0.795  0.1506 -0.0441 -0.2979
  626TMC3    H2 9277   2.970   3.537   0.446 -1.5232  0.0481  1.0513
  626TMC3    C7 9278   2.951   3.506   0.727 -0.5446  0.1286  0.7660
  626TMC3    C8 9279   2.932   3.319   0.305  0.6226 -0.4276 -0.3714
  626TMC3    O1 9280   2.984   3.502   0.846 -0.0699 -0.0272  0.6546
  626TMC3    O2 9281   2.944   3.418   0.235 -0.1389  0.4028 -0.9893
  627MPD2     C 9282   2.394   3.392  14.093  0.3539  0.0060  0.5675
  627MPD2    C1 9283   2.302   3.429  14.179  0.4231  0.4244  0.2672
  627MPD2    C2 9284   2.180   3.358  14.188 -0.0355  0.0698 -0.9729
  627MPD2    C3 9285   2.164   3.249  14.109 -1.1045 -0.2931  0.0114
  627MPD2    C4 9286   2.268   3.202  14.028  0.0098  0.2149 -0.5208
  627MPD2    C5 9287   2.380   3.279  14.017  0.2715  0.1082 -0.5946
  627MPD2     H 9288   2.110   3.400  14.259 -0.0960  1.2933 -1.7489
  627MPD2    H1 9289   2.264   3.110  13.970 -0.0152  1.1967 -2.0859
  627MPD2    H2 9290   2.485   3.450  14.081 -0.4297  1.0693 -0.0722
  627MPD2    H3 9291   2.455   3.253  13.942 -0.2861 -1.9700 -0.4536
  627MPD2     N 9292   2.038   3.179  14.119 -0.1794 -0.0483 -0.7787
  627MPD2    H5 9293   1.979   3.210  14.196 -0.2032 -0.0042 -0.8146
  627MPD2    N1 9294   2.327   3.547  14.251 -0.0165  0.4357 -0.3304
  627MPD2    H7 9295   2.419   3.589  14.238  0.7439 -1.4574 -1.0290
  628TMC3    C1 9296   2.317   3.714  14.407 -0.1083  0.0172  1.4103
  628TMC3    C2 9297   2.442   3.680  14.460  0.7019 -0.2988  0.1966
  628TMC3    C3 9298   2.515   3.786  14.499  0.0443 -0.4415 -0.7275
  628TMC3    C4 9299   2.269   3.844  14.395 -0.0223 -0.1002  0.3885
  628TMC3    C5 9300   2.351   3.938  14.448 -0.0158  0.5909  0.2547
  628TMC3    C6 9301   2.475   3.916  14.489  0.3953 -0.4323 -0.0376
  628TMC3     C 9302   2.241   3.616  14.332  0.3747  0.3165 -0.3080
  628TMC3     O 9303   2.118   3.621  14.335 -0.1315 -0.0299  0.0565
  628TMC3     H 9304   2.477   3.577  14.467  1.7834  0.0228 -0.5403
  628TMC3    H1 9305   2.164   3.850  14.370  0.1801  0.7873 -0.2403
  628TMC3    H2 9306   2.534   3.989  14.543 -1.5102  0.6514  0.5942
  628TMC3    C7 9307   2.310   4.070  14.458 -0.2931 -0.1144  0.6717
  628TMC3    C8 9308   2.645   3.763  14.538 -0.3871  0.5026 -0.3091
  628TMC3    O1 9309   2.375   4.142  14.535 -0.1227  0.2110 -0.1673
  628TMC3    O2 9310   2.703   3.866  14.549 -1.2334  0.3422 -0.4220
  629MPD2     C 9311   0.515   1.953  17.027 -0.3036 -0.2846  0.0927
  629MPD2    C1 9312   0.523   2.036  16.917 -0.1920 -0.0618  0.3538
  629MPD2    C2 9313   0.412   2.080  16.854 -0.2880 -0.2929 -0.2618
  629MPD2    C3 9314   0.288   2.032  16.896  0.0987 -0.3806  0.8705
  629MPD2    C4 9315   0.273   1.954  17.006  0.2981 -0.7793  0.0261
  629MPD2    C5 9316   0.389   1.917  17.066 -0.3489  0.2516 -0.7751
  629MPD2     H 9317   0.416   2.134  16.760  1.9385  1.0865  0.6455
  629MPD2    H1 9318   0.183   1.900  17.032  0.7477 -0.0478  3.0715
  629MPD2    H2 9319   0.606   1.925  17.079 -0.0252 -0.7505 -0.6410
  629MPD2    H3 9320   0.387   1.858  17.156  0.7771  0.9914 -0.2655
  629MPD2     N 9321   0.172   2.037  16.805 -0.5610 -0.0214 -0.5284
  629MPD2    H5 9322   0.081   2.001  16.833  0.9146 -0.7237  3.3434
  629MPD2    N1 9323   0.652   2.086  16.885 -0.2100  0.2330  0.0760
  629MPD2    H7 9324   0.733   2.033  16.915 -0.6684 -1.0454 -0.9700
  630TMC3    C1 9325   0.833   2.205  16.791 -0.1121 -0.5721  0.6986
  630TMC3    C2 9326   0.875   2.292  16.696  0.0480 -0.2079  0.0012
  630TMC3    C3 9327   1.011   2.292  16.668  0.2251  0.2762 -0.5256
  630TMC3    C4 9328   0.921   2.144  16.875  0.2715  0.1414 -0.3096
  630TMC3    C5 9329   1.055   2.144  16.851  0.5932 -0.3397 -0.7752
  630TMC3    C6 9330   1.099   2.223  16.744 -0.5722  0.4810  0.3178
  630TMC3     C 9331   0.684   2.200  16.815  0.2221  0.4423 -0.3437
  630TMC3     O 9332   0.612   2.271  16.750  0.3142  0.4992 -0.8107
  630TMC3     H 9333   0.801   2.345  16.637 -1.2621 -1.1159  0.8300
  630TMC3    H1 9334   0.886   2.076  16.951  0.7918 -0.4956 -0.6408
  630TMC3    H2 9335   1.201   2.224  16.707 -1.0121 -2.1395 -0.9856
  630TMC3    C7 9336   1.147   2.081  16.940  0.2567  0.0119  0.3719
  630TMC3    C8 9337   1.069   2.392  16.574 -0.2703 -0.3736  0.1305
  630TMC3    O1 9338   1.093   1.998  17.014  0.4607  0.2288 -0.2953
  630TMC3    O2 9339   1.193   2.407  16.577 -0.1755 -0.4749 -0.5836
  631MPD2     C 9340   3.486   2.105  15.717 -0.3538  0.3332  0.3833
  631MPD2    C1 9341   3.571   2.110  15.606 -0.0882 -0.4116 -0.6229
  631MPD2    C2 9342   3.671   2.011  15.599 -0.3258  0.3339  0.0785
  631MPD2    C3 9343   3.674   1.907  15.687 -0.0610 -0.2248  0.1751
  631MPD2    C4 9344   3.577   1.897  15.786 -0.1559 -0.2697  0.1752
  631MPD2    C5 9345   3.487   2.000  15.802  0.0079 -0.1112 -0.3176
  631MPD2     H 9346   3.733   2.010  15.511 -0.1345 -1.6198  0.2496
  631MPD2    H1 9347   3.573   1.808  15.848 -1.8468  0.4487  1.1091
  631MPD2    H2 9348   3.403   2.174  15.729  0.6666  0.7372  5.1135
  631MPD2    H3 9349   3.409   1.998  15.877  1.6776  0.8799  1.4385
  631MPD2     N 9350   3.767   1.802  15.673 -0.1939  0.2383  0.2876
  631MPD2    H5 9351   3.836   1.819  15.600 -2.4107 -1.1488 -2.1307
  631MPD2    N1 9352   3.550   2.216  15.511 -0.3880 -0.1938  0.5202
  631MPD2    H7 9353   3.476   2.276  15.546 -0.0366 -0.1926  1.2608
  632TMC3    C1 9354   3.573   2.357  15.321  0.2169  0.9330 -0.3345
  632TMC3    C2 9355   3.453   2.418  15.348 -0.0664 -0.7178  0.0387
  632TMC3    C3 9356   3.384   2.475  15.247 -0.2535 -0.0785 -0.4279
  632TMC3    C4 9357   3.640   2.384  15.204  0.4355  0.0670 -0.4345
  632TMC3    C5 9358   3.563   2.454  15.112 -0.1315 -0.3659  0.2183
  632TMC3    C6 9359   3.437   2.502  15.126 -0.5167  0.4498  0.3652
  632TMC3     C 9360   3.622   2.242  15.400 -0.0603 -0.1110 -0.0107
  632TMC3     O 9361   3.701   2.166  15.348 -0.4258 -0.1770  0.8085
  632TMC3     H 9362   3.410   2.413  15.447 -0.7870 -0.4733 -0.2584
  632TMC3    H1 9363   3.719   2.317  15.173 -1.2875 -2.8310  1.4365
  632TMC3    H2 9364   3.385   2.550  15.044  0.3049 -0.0467 -0.4522
  632TMC3    C7 9365   3.620   2.475  14.975 -0.7216  0.4388 -0.0884
  632TMC3    C8 9366   3.240   2.484  15.264 -0.6957  0.1842  0.7150
  632TMC3    O1 9367   3.534   2.486  14.886 -0.4422  0.5025 -0.4404
  632TMC3    O2 9368   3.197   2.480  15.380 -0.1530 -0.2807 -0.2562
  633MPD2     C 9369   3.417   0.093  17.323 -0.0571 -0.1050  0.2771
  633MPD2    C1 9370   3.413   0.035  17.197  0.2748  0.2561  0.0053
  633MPD2    C2 9371   3.369   4.629  17.183 -0.2503 -0.1323  0.3485
  633MPD2    C3 9372   3.325   4.558  17.290 -0.6643  0.3268  0.4404
  633MPD2    C4 9373   3.343   4.612  17.418 -0.1453  0.3684  0.0289
  633MPD2    C5 9374   3.378   0.015  17.433  0.0254  0.4864  0.6362
  633MPD2     H 9375   3.356   4.586  17.085  1.5360  0.9793 -0.3615
  633MPD2    H1 9376   3.311   4.552  17.503 -2.0134  1.1398 -0.1183
  633MPD2    H2 9377   3.455   0.193  17.345 -4.2799  1.6989 -0.6903
  633MPD2    H3 9378   3.394   0.051  17.534  0.8568 -0.3033  0.7892
  633MPD2     N 9379   3.271   4.428  17.279  0.0860 -0.3406 -0.0588
  633MPD2    H5 9380   3.252   4.377  17.365 -2.0598 -0.3102 -0.5183
  633MPD2    N1 9381   3.452   0.116  17.086  0.1231 -0.8682  0.3530
  633MPD2    H7 9382   3.452   0.061  17.000 -0.7283 -0.2932 -0.0220
  634TMC3    C1 9383   3.536   0.296  16.948  0.5486  0.3051  0.8144
  634TMC3    C2 9384   3.588   0.217  16.852  0.1646 -0.3572  0.4598
  634TMC3    C3 9385   3.647   0.269  16.740 -0.4600  0.2664  0.0687
  634TMC3    C4 9386   3.552   0.434  16.935  0.7706 -0.2654 -0.4195
  634TMC3    C5 9387   3.599   0.484  16.812  0.1613  0.1974  0.3826
  634TMC3    C6 9388   3.641   0.404  16.712 -0.2955  0.5226  0.0772
  634TMC3     C 9389   3.501   0.245  17.080 -0.9664  0.1338  0.2189
  634TMC3     O 9390   3.525   0.329  17.165 -0.4825 -0.0426 -0.7594
  634TMC3     H 9391   3.590   0.110  16.863 -1.0246 -0.5244 -0.8932
  634TMC3    H1 9392   3.519   0.496  17.017  1.0927 -1.7318  0.8256
  634TMC3    H2 9393   3.695   0.445  16.628 -2.2344 -0.5098 -1.6752
  634TMC3    C7 9394   3.571   0.619  16.760 -0.7264 -0.1134 -0.2363
  634TMC3    C8 9395   3.645   0.184  16.625 -0.5982 -0.3166 -0.3305
  634TMC3    O1 9396   3.621   0.653  16.652  0.1923  0.0827 -0.0016
  634TMC3    O2 9397   3.680   0.066  16.643 -0.5334  0.1874  0.1351
  635TMC3    C1 9398   4.640   1.053  17.333  0.0050  0.3990 -0.4305
  635TMC3    C2 9399   0.044   1.098  17.309 -0.4503  0.7984  0.3316
  635TMC3    C3 9400   0.133   1.007  17.270 -0.1500 -1.3079  0.2425
  635TMC3    C4 9401   4.608   0.921  17.318  0.2135 -0.0495  0.0501
  635TMC3    C5 9402   4.699   0.837  17.268 -0.2411  0.5468  0.1804
  635TMC3    C6 9403   0.099   0.877  17.241 -0.3678 -0.5556  0.1168
  635TMC3     C 9404   4.529   1.150  17.367 -0.1587  0.1006  0.1434
  635TMC3     O 9405   4.420   1.103  17.408 -0.0973  0.5554 -0.1492
  635TMC3     H 9406   0.068   1.204  17.307  0.4450  0.6017  0.3584
  635TMC3    H1 9407   4.504   0.895  17.335  0.4825 -0.6161  0.8252
  635TMC3    H2 9408   0.183   0.813  17.218 -2.0694 -3.0803  0.9677
  635TMC3    C7 9409   4.676   0.691  17.277  0.7792  0.2462 -0.1053
  635TMC3    C8 9410   0.270   1.038  17.261  0.4741  0.4718  0.7314
  635TMC3    O1 9411   0.062   0.630  17.276 -0.3191 -0.0331 -0.6012
  635TMC3    O2 9412   0.325   0.999  17.160  0.5912  0.2680  0.4499
  636MPD2     C 9413   4.409   0.465  16.064 -0.2351 -0.5772  0.8831
  636MPD2    C1 9414   4.506   0.502  16.159 -0.2775 -0.8282  0.5440
  636MPD2    C2 9415   4.551   0.401  16.239 -0.0016  0.0871  0.2273
  636MPD2    C3 9416   4.514   0.270  16.218  0.5116 -0.4752 -0.3178
  636MPD2    C4 9417   4.425   0.239  16.119 -0.0989 -0.5983  0.0774
  636MPD2    C5 9418   4.370   0.335  16.040 -0.7478 -0.2710 -0.0544
  636MPD2     H 9419   4.620   0.434  16.317  1.5039  0.8827 -1.4470
  636MPD2    H1 9420   4.406   0.133  16.106 -0.1535 -0.5733 -0.0525
  636MPD2    H2 9421   4.358   0.539  16.003  0.6610 -1.3698 -0.8299
  636MPD2    H3 9422   4.311   0.301  15.956 -2.7542 -1.2971  1.7819
  636MPD2     N 9423   4.577   0.176  16.306 -0.0763  0.0345 -0.3584
  636MPD2    H5 9424   4.643   0.202  16.378  0.1250 -2.2749  0.2800
  636MPD2    N1 9425   4.546   0.639  16.182 -0.2685 -0.8324  0.5412
  636MPD2    H7 9426   4.620   0.664  16.247 -0.0818 -0.7731  0.3037
  637TMC3    C1 9427   4.674   4.699  16.386  0.6014  0.3911 -0.3985
  637TMC3    C2 9428   4.699   0.056  16.491 -0.3450 -1.2112 -0.3365
  637TMC3    C3 9429   0.107   0.082  16.522  0.1196  0.1590 -0.2211
  637TMC3    C4 9430   0.061   4.645  16.317  0.3836  0.7373 -0.7843
  637TMC3    C5 9431   0.191   4.677  16.349  0.3116 -0.0018 -0.2885
  637TMC3    C6 9432   0.213   0.035  16.448  0.0289  0.4010 -0.3680
  637TMC3     C 9433   4.569   0.043  16.298  0.2421 -0.1981 -0.2136
  637TMC3     O 9434   4.518   4.695  16.212 -0.4974 -0.2439 -0.4391
  637TMC3     H 9435   4.625   0.108  16.550  0.7853  0.7245 -0.6328
  637TMC3    H1 9436   0.031   4.572  16.242 -0.7130 -0.0331  0.4000
  637TMC3    H2 9437   0.312   0.078  16.463 -0.6795  3.0402 -3.2442
  637TMC3    C7 9438   0.267   4.712  16.237  0.1815 -0.5805 -0.3536
  637TMC3    C8 9439   0.122   0.218  16.542 -0.5172  0.1680  0.2043
  637TMC3    O1 9440   0.372   0.056  16.246 -0.0904 -0.0414 -0.1721
  637TMC3    O2 9441   0.050   0.292  16.476  0.0525  0.0411 -0.1650
  638MPD2     C 9442   4.509   4.269  14.867  0.0897 -0.2802  0.2627
  638MPD2    C1 9443   4.531   4.155  14.791  0.4624  0.2832  0.1623
  638MPD2    C2 9444   4.505   4.031  14.855 -0.3487  0.0890  0.7579
  638MPD2    C3 9445   4.439   4.026  14.978  0.1905 -0.3579  0.7625
  638MPD2    C4 9446   4.411   4.141  15.051 -1.0530  0.0370 -0.4384
  638MPD2    C5 9447   4.451   4.261  14.995  0.1033 -0.5748 -0.4777
  638MPD2     H 9448   4.518   3.931  14.814  3.6369  1.6440 -1.7572
  638MPD2    H1 9449   4.374   4.149  15.152 -1.0688  0.6999 -0.5017
  638MPD2    H2 9450   4.544   4.363  14.827 -1.0315 -0.3352 -0.8401
  638MPD2    H3 9451   4.426   4.353  15.046  0.6684 -1.5679  1.5619
  638MPD2     N 9452   4.418   3.901  15.035  0.1727 -0.0385  0.3526
  638MPD2    H5 9453   4.452   3.824  14.977  0.8660 -0.1215  0.8716
  638MPD2    N1 9454   4.564   4.165  14.654 -0.2425 -0.4907 -1.1036
  638MPD2    H7 9455   4.585   4.256  14.614  0.0752 -0.1893 -0.2460
  639TMC3    C1 9456   4.316   3.741  15.180  0.2856 -0.3286  0.5961
  639TMC3    C2 9457   4.201   3.712  15.242 -0.6169  0.3350 -0.9536
  639TMC3    C3 9458   4.195   3.590  15.306  0.5361 -0.0037 -0.0466
  639TMC3    C4 9459   4.436   3.675  15.200 -0.0017 -1.2533  0.3570
  639TMC3    C5 9460   4.421   3.555  15.268  0.5443  0.1150  0.4247
  639TMC3    C6 9461   4.301   3.512  15.320 -0.6858  0.6722 -0.0348
  639TMC3     C 9462   4.332   3.878  15.137  0.7520  0.1494 -0.2136
  639TMC3     O 9463   4.265   3.961  15.206  0.0477 -0.5994  0.4436
  639TMC3     H 9464   4.115   3.777  15.234 -0.5401  0.6953  1.2578
  639TMC3    H1 9465   4.530   3.720  15.171 -2.2594  1.5216 -2.7230
  639TMC3    H2 9466   4.292   3.421  15.378 -0.2038  0.7040  0.0882
  639TMC3    C7 9467   4.528   3.456  15.266 -0.0718  0.1205  0.6370
  639TMC3    C8 9468   4.084   3.516  15.246 -0.4249 -0.2623 -0.0549
  639TMC3    O1 9469   4.492   3.352  15.318 -0.0949  0.1879  0.6735
  639TMC3    O2 9470   4.099   3.399  15.216  0.5511 -0.7444  0.3310
  640MPD2     C 9471   0.387   2.351   9.941 -0.0849 -0.0356  0.9008
  640MPD2    C1 9472   0.433   2.411   9.831  0.1019  0.3847 -0.0465
  640MPD2    C2 9473   0.351   2.499   9.759  0.0214  0.1417 -0.4525
  640MPD2    C3 9474   0.220   2.526   9.800 -0.7070  0.0987 -0.7652
  640MPD2    C4 9475   0.175   2.460   9.910  0.1337 -0.7731 -0.1098
  640MPD2    C5 9476   0.258   2.378   9.978 -0.1044 -0.6733 -0.2528
  640MPD2     H 9477   0.380   2.549   9.668  2.3940  0.7933  0.6566
  640MPD2    H1 9478   0.078   2.487   9.951  1.2256  0.6342  1.5569
  640MPD2    H2 9479   0.441   2.275   9.997  2.6577  1.4456  0.2701
  640MPD2    H3 9480   0.214   2.333  10.067 -0.1636  1.9140  1.0177
  640MPD2     N 9481   0.135   2.618   9.735  0.5441 -0.2342  0.7461
  640MPD2    H5 9482   0.042   2.632   9.774 -0.1583  0.1134 -1.0225
  640MPD2    N1 9483   0.570   2.385   9.790 -0.2204  0.1621 -0.0430
  640MPD2    H7 9484   0.617   2.314   9.846  0.6098 -0.0077 -0.9548
  641TMC3    C1 9485   0.772   2.385   9.664  0.4015 -0.0782 -0.1057
  641TMC3    C2 9486   0.814   2.276   9.733 -0.3837 -0.4097  0.0934
  641TMC3    C3 9487   0.946   2.236   9.717  0.4050 -0.7880  0.6063
  641TMC3    C4 9488   0.859   2.466   9.597  0.1969  0.2754  0.2145
  641TMC3    C5 9489   0.985   2.418   9.585 -0.2722  0.7025 -0.1194
  641TMC3    C6 9490   1.035   2.306   9.642  0.4103 -0.2268 -0.2079
  641TMC3     C 9491   0.631   2.438   9.685  0.0958  0.0976 -0.0618
  641TMC3     O 9492   0.593   2.532   9.617 -0.2284  0.2045 -0.2903
  641TMC3     H 9493   0.738   2.209   9.771 -1.9432  0.2352 -1.8380
  641TMC3    H1 9494   0.814   2.553   9.551  2.6745  2.4137  1.8177
  641TMC3    H2 9495   1.135   2.269   9.622 -0.0958 -1.1627 -0.9749
  641TMC3    C7 9496   1.095   2.501   9.531 -0.0582  0.0055  0.6717
  641TMC3    C8 9497   0.995   2.105   9.769 -0.4702 -0.2240 -0.4040
  641TMC3    O1 9498   1.202   2.440   9.528  0.2602 -0.3254 -0.1747
  641TMC3    O2 9499   1.115   2.081   9.738 -0.0310  0.7062  0.5247
  642TMC3    C1 9500   1.098   3.981  12.085  0.7260  0.4562  0.6605
  642TMC3    C2 9501   1.228   3.976  12.046  0.4279  0.1951 -0.4992
  642TMC3    C3 9502   1.274   3.861  11.986 -0.3594 -0.1998 -1.0762
  642TMC3    C4 9503   1.009   3.878  12.072  0.1130 -0.3195  0.0896
  642TMC3    C5 9504   1.058   3.771  12.011 -0.2732 -0.2030 -0.9016
  642TMC3    C6 9505   1.186   3.759  11.957  0.1508 -0.5945  0.5240
  642TMC3     C 9506   1.059   4.117  12.119  0.0503  0.6467 -0.1019
  642TMC3     O 9507   1.130   4.212  12.086  0.4848  0.2103  0.0391
  642TMC3     H 9508   1.300   4.051  12.077 -1.1594  1.8724 -0.9181
  642TMC3    H1 9509   0.905   3.877  12.101  0.0296  0.5486 -0.1588
  642TMC3    H2 9510   1.217   3.663  11.917  0.3116 -0.9552  1.5069
  642TMC3    C7 9511   0.973   3.649  11.992  0.1580 -0.6716  0.9386
  642TMC3    C8 9512   1.416   3.827  11.969  0.3859 -0.3027  0.5231
  642TMC3    O1 9513   0.974   3.591  11.885 -0.1043 -0.3167 -0.0432
  642TMC3    O2 9514   1.440   3.742  11.884 -0.4003  0.0665  0.3533
  643TMC3    C1 9515   0.376   2.744  17.231  0.2939  0.2368 -0.2097
  643TMC3    C2 9516   0.294   2.765  17.122  0.1614 -0.3105  0.0975
  643TMC3    C3 9517   0.342   2.823  17.008  0.2345 -0.1734 -0.3489
  643TMC3    C4 9518   0.507   2.744  17.201  0.2694  0.4561  0.5757
  643TMC3    C5 9519   0.565   2.785  17.078 -0.1368  0.3418 -0.6432
  643TMC3    C6 9520   0.481   2.830  16.980 -0.4247  0.4469  0.1013
  643TMC3     C 9521   0.314   2.735  17.361  0.6364 -0.6401  0.4927
  643TMC3     O 9522   0.222   2.816  17.375  0.7191  0.0865 -0.4885
  643TMC3     H 9523   0.186   2.754  17.130 -0.0604  0.8769 -1.2911
  643TMC3    H1 9524   0.580   2.716  17.277 -0.7362  1.5113  1.9333
  643TMC3    H2 9525   0.512   2.885  16.891 -1.6165  1.0284  0.0341
  643TMC3    C7 9526   0.687   2.873  17.096  0.6993  0.3145  0.4845
  643TMC3    C8 9527   0.271   2.927  16.947  0.1829  0.7694 -0.3118
  643TMC3    O1 9528   0.717   2.907  17.212 -0.1282  0.2194  0.6256
  643TMC3    O2 9529   0.311   2.974  16.843  0.6474 -0.3917  0.4524
  644MPD2     C 9530   0.839   2.928   9.917  0.1663 -0.8258 -0.3275
  644MPD2    C1 9531   0.964   2.957   9.872  0.1336 -0.1278 -0.4800
  644MPD2    C2 9532   0.986   3.080   9.808 -0.5046  0.0412 -0.5939
  644MPD2    C3 9533   0.893   3.181   9.825  0.4375 -0.7207 -0.4996
  644MPD2    C4 9534   0.763   3.149   9.871  0.4634  0.4868  0.0983
  644MPD2    C5 9535   0.741   3.025   9.916  0.0364 -0.1113  0.0699
  644MPD2     H 9536   1.077   3.113   9.758  0.1817 -2.7350 -1.1746
  644MPD2    H1 9537   0.693   3.227   9.901  0.6074  1.8024 -2.9626
  644MPD2    H2 9538   0.821   2.831   9.962 -1.0052 -0.4891 -0.0568
  644MPD2    H3 9539   0.646   3.003   9.964 -0.3964 -0.3502 -0.9027
  644MPD2     N 9540   0.923   3.316   9.790  0.6350 -0.3468 -0.3962
  644MPD2    H5 9541   1.018   3.347   9.774  0.5803 -0.0759 -0.1887
  644MPD2    N1 9542   1.065   2.853   9.885 -0.3210 -0.3097  0.5172
  644MPD2    H7 9543   1.030   2.769   9.929  1.6180 -0.7280  1.2512
  645TMC3    C1 9544   0.879   3.525   9.679 -0.3006 -0.0779 -0.1678
  645TMC3    C2 9545   0.985   3.583   9.736  0.7697 -0.6285  0.4452
  645TMC3    C3 9546   1.034   3.703   9.682 -0.1253 -0.2466 -0.3051
  645TMC3    C4 9547   0.823   3.577   9.567  0.3546  0.0412 -0.0155
  645TMC3    C5 9548   0.889   3.678   9.507 -0.5827 -0.5082  0.6613
  645TMC3    C6 9549   0.987   3.755   9.561 -0.1848 -0.3102  0.8133
  645TMC3     C 9550   0.824   3.400   9.738  0.2441 -0.3065  0.5297
  645TMC3     O 9551   0.706   3.375   9.714 -0.3485 -0.5017 -0.0094
  645TMC3     H 9552   1.015   3.553   9.835  3.5024  2.5040  0.5697
  645TMC3    H1 9553   0.746   3.519   9.517  0.7370  1.7435 -2.5492
  645TMC3    H2 9554   1.023   3.841   9.505  0.9100 -0.2500  1.6093
  645TMC3    C7 9555   0.841   3.708   9.371  0.1846 -0.2239  0.2829
  645TMC3    C8 9556   1.144   3.779   9.746 -0.1034 -0.0810 -0.3137
  645TMC3    O1 9557   0.727   3.683   9.342  0.0521  0.5281 -0.1217
  645TMC3    O2 9558   1.169   3.759   9.864 -0.4103 -0.3709 -0.1045
  646MPD2     C 9559   4.476   2.848  14.792  0.5111  1.2473  0.8484
  646MPD2    C1 9560   4.366   2.808  14.869 -0.2702  0.4023  0.9714
  646MPD2    C2 9561   4.248   2.874  14.847 -0.0269  0.1399 -0.6817
  646MPD2    C3 9562   4.238   2.959  14.744 -0.0581 -0.0208  0.4337
  646MPD2    C4 9563   4.350   3.006  14.670 -0.0431 -0.3405 -0.1031
  646MPD2    C5 9564   4.472   2.936  14.684 -0.6332 -0.2365  0.1268
  646MPD2     H 9565   4.165   2.835  14.906  0.1640 -0.9998 -1.1706
  646MPD2    H1 9566   4.340   3.095  14.610 -0.0616 -0.5474 -0.4091
  646MPD2    H2 9567   4.574   2.806  14.808  0.3743  0.2377 -0.8753
  646MPD2    H3 9568   4.558   2.953  14.621 -1.2353  1.3836 -0.2723
  646MPD2     N 9569   4.106   3.009  14.717 -0.2057 -0.0115  0.1923
  646MPD2    H5 9570   4.041   2.992  14.793  0.8470 -2.3339  0.5551
  646MPD2    N1 9571   4.390   2.715  14.982  0.4312 -0.4063  0.4249
  646MPD2    H7 9572   4.484   2.678  14.991  0.8534  0.5670  0.0602
  647TMC3    C1 9573   4.360   2.616  15.187  0.1008 -0.2898 -0.4048
  647TMC3    C2 9574   4.283   2.531  15.265  0.2016  0.4013 -0.4510
  647TMC3    C3 9575   4.329   2.491  15.384 -0.1970  0.0603  0.0050
  647TMC3    C4 9576   4.488   2.646  15.218 -0.3295  0.3301  0.5257
  647TMC3    C5 9577   4.540   2.594  15.331 -0.4062  0.6788  0.0785
  647TMC3    C6 9578   4.458   2.526  15.419 -0.3347 -0.1331 -0.3168
  647TMC3     C 9579   4.298   2.675  15.075 -0.2653 -0.2002  0.5042
  647TMC3     O 9580   4.175   2.687  15.073  0.0135  0.8101 -0.0623
  647TMC3     H 9581   4.178   2.509  15.246  0.2461 -1.3884  1.2460
  647TMC3    H1 9582   4.528   2.731  15.164  0.7939 -0.7278 -0.3070
  647TMC3    H2 9583   4.514   2.474  15.496 -0.1230 -0.2637 -0.5565
  647TMC3    C7 9584   4.675   2.613  15.367 -0.4545  0.0880  0.2790
  647TMC3    C8 9585   4.275   2.358  15.418  0.2797  1.2709  0.1358
  647TMC3    O1 9586   4.718   2.559  15.470  0.2457 -0.1651 -0.3525
  647TMC3    O2 9587   4.224   2.295  15.326  0.1066  0.7039  0.1399
  648TMC3    C1 9588   3.982   0.347  16.008  0.0667 -0.0141 -0.2345
  648TMC3    C2 9589   4.036   0.245  15.939 -0.6403  0.0612 -0.1483
  648TMC3    C3 9590   4.016   0.242  15.797  0.3397 -0.2624 -0.0674
  648TMC3    C4 9591   3.911   0.439  15.943 -0.4975  0.0978  0.7518
  648TMC3    C5 9592   3.902   0.443  15.806 -0.6401 -0.1975  0.0090
  648TMC3    C6 9593   3.943   0.339  15.730 -0.0964 -0.2363 -0.3453
  648TMC3     C 9594   3.957   0.326  16.152 -0.3366 -0.5742 -0.2677
  648TMC3     O 9595   3.867   0.392  16.199  0.0429 -0.6221  0.2241
  648TMC3     H 9596   4.099   0.169  15.984  0.7430  0.3783 -1.5423
  648TMC3    H1 9597   3.879   0.525  16.001  1.6788  1.4968 -0.1370
  648TMC3    H2 9598   3.922   0.349  15.624  0.5834 -1.4989 -0.5881
  648TMC3    C7 9599   3.782   0.504  15.743  0.3834 -0.4041 -0.1148
  648TMC3    C8 9600   4.067   0.126  15.732 -0.2958  0.9997 -0.2856
  648TMC3    O1 9601   3.708   0.435  15.676 -0.3690  0.4683 -0.3901
  648TMC3    O2 9602   4.170   0.085  15.781  0.2174 -0.0067  0.0612
  649TMC3    C1 9603   2.423   1.589  12.405  0.0375 -0.1617 -0.0255
  649TMC3    C2 9604   2.533   1.547  12.334 -0.1449  0.2008 -0.4289
  649TMC3    C3 9605   2.623   1.467  12.400  0.4833 -0.6451  0.3138
  649TMC3    C4 9606   2.400   1.537  12.529 -0.4688 -1.0773  0.2807
  649TMC3    C5 9607   2.490   1.446  12.587  0.2658 -0.0403  0.3826
  649TMC3    C6 9608   2.608   1.425  12.529 -1.0235 -0.3120 -0.0046
  649TMC3     C 9609   2.296   1.607  12.331 -0.1004  0.2137 -0.1129
  649TMC3     O 9610   2.203   1.629  12.407  0.1320  0.4471 -0.2007
  649TMC3     H 9611   2.536   1.568  12.228  0.9660 -0.3600 -0.5007
  649TMC3    H1 9612   2.320   1.566  12.596  0.1608  0.3605  0.3983
  649TMC3    H2 9613   2.688   1.377  12.584 -2.1115 -0.2975  1.5864
  649TMC3    C7 9614   2.448   1.367  12.695  0.5259  0.0697  0.6000
  649TMC3    C8 9615   2.752   1.470  12.333  0.4554 -0.6404  0.3172
  649TMC3    O1 9616   2.355   1.404  12.758 -0.1495 -0.1761 -0.3680
  649TMC3    O2 9617   2.757   1.524  12.224 -0.4163 -0.3699  0.1568
  650TMC3    C1 9618   0.249   3.130  12.575  0.5608  0.2084 -0.3899
  650TMC3    C2 9619   0.250   3.267  12.583  0.0020 -0.4058  0.7036
  650TMC3    C3 9620   0.259   3.338  12.466  0.0197  0.3880 -0.3365
  650TMC3    C4 9621   0.248   3.061  12.460  0.7158 -0.3789  0.7472
  650TMC3    C5 9622   0.242   3.141  12.349 -0.5832 -0.0028  0.2410
  650TMC3    C6 9623   0.255   3.282  12.346  0.2262 -0.4935 -0.1432
  650TMC3     C 9624   0.300   3.067  12.695 -0.3765 -0.0143 -0.7211
  650TMC3     O 9625   0.308   3.140  12.792 -0.0229 -0.0230  0.3329
  650TMC3     H 9626   0.262   3.315  12.679 -1.2114  0.3375  0.4890
  650TMC3    H1 9627   0.222   2.956  12.465 -0.7197 -0.0864 -0.6000
  650TMC3    H2 9628   0.255   3.348  12.260  1.5246  1.2116  1.1595
  650TMC3    C7 9629   0.190   3.072  12.231 -0.2153  0.3155 -0.4531
  650TMC3    C8 9630   0.230   3.483  12.480 -0.6318 -0.3723  0.2137
  650TMC3    O1 9631   0.127   2.970  12.256 -0.4860  0.1208 -1.0533
  650TMC3    O2 9632   0.285   3.566  12.407 -0.6548 -0.0200  0.2083
  651MPD2     C 9633   4.314   4.167  10.314  0.0198 -0.0483  0.7065
  651MPD2    C1 9634   4.269   4.283  10.368  0.1187 -0.1003 -0.3630
  651MPD2    C2 9635   4.363   4.375  10.417  0.3097 -0.8127  0.1055
  651MPD2    C3 9636   4.498   4.347  10.418 -0.4641  0.5606 -0.2556
  651MPD2    C4 9637   4.540   4.229  10.373 -0.5413 -0.1584  0.3149
  651MPD2    C5 9638   4.448   4.140  10.324  0.0829  0.5652  0.0047
  651MPD2     H 9639   4.333   4.472  10.455  1.2514 -1.6372  2.9545
  651MPD2    H1 9640   4.639   4.185  10.376  0.2947  1.6480 -0.9317
  651MPD2    H2 9641   4.253   4.106  10.249  1.2915 -0.2898 -0.2726
  651MPD2    H3 9642   4.478   4.040  10.294 -0.4218  0.4578 -0.1353
  651MPD2     N 9643   4.584   4.446  10.471  0.2212 -0.5127 -0.5234
  651MPD2    H5 9644   4.538   4.527  10.510 -0.3686 -0.9440 -0.3077
  651MPD2    N1 9645   4.128   4.312  10.355  0.6828 -0.0789  0.0102
  651MPD2    H7 9646   4.099   4.405  10.383  1.8266  0.6256 -1.1516
  652TMC3    C1 9647   0.262   4.654  10.627  0.1118 -0.0427 -0.0798
  652TMC3    C2 9648   0.198   4.556  10.554  0.3671 -0.0175 -0.6166
  652TMC3    C3 9649   0.062   4.540  10.566  0.0234 -0.5932 -0.4781
  652TMC3    C4 9650   0.196   0.007  10.720  0.1671  0.4977 -0.0633
  652TMC3    C5 9651   0.059   4.700  10.744  0.7177  0.1672 -0.1372
  652TMC3    C6 9652   4.714   4.615  10.660  0.2593  0.4532 -0.0276
  652TMC3     C 9653   0.407   4.650  10.646 -0.6938  0.2337 -0.2875
  652TMC3     O 9654   0.453   4.615  10.756  0.0779 -0.3524 -0.4328
  652TMC3     H 9655   0.251   4.500  10.478  1.2902  0.4910 -0.3551
  652TMC3    H1 9656   0.248   0.062  10.799  1.9473  0.1063 -0.9643
  652TMC3    H2 9657   4.608   4.597  10.673  0.3894 -1.3735 -1.5682
  652TMC3    C7 9658   4.695   0.061  10.826  0.4399 -0.1665 -0.0207
  652TMC3    C8 9659   0.001   4.434  10.488  0.3795 -0.1631 -0.4321
  652TMC3    O1 9660   4.574   0.037  10.825 -0.0665  0.3404 -0.2738
  652TMC3    O2 9661   0.079   4.352  10.439  0.2227 -0.1909 -0.0805
  653MPD2     C 9662   3.022   4.721  17.402 -0.2598  0.4846  0.2979
  653MPD2    C1 9663   2.969   0.079  17.302 -0.6315  0.5265 -0.1350
  653MPD2    C2 9664   2.905   0.024  17.190 -1.1216 -0.7259  0.8588
  653MPD2    C3 9665   2.889   4.613  17.182  0.4512 -0.1486  0.7125
  653MPD2    C4 9666   2.945   4.530  17.277 -0.4863 -0.1674  0.1392
  653MPD2    C5 9667   3.010   4.582  17.384  0.3967 -0.5849 -0.6132
  653MPD2     H 9668   2.851   0.081  17.115 -2.6775 -0.3061  2.2886
  653MPD2    H1 9669   2.933   4.422  17.280 -0.3501 -0.1326  2.2904
  653MPD2    H2 9670   3.075   0.038  17.488 -1.9475  1.5595  0.8345
  653MPD2    H3 9671   3.046   4.518  17.464  0.2373  1.3955  1.0590
  653MPD2     N 9672   2.818   4.564  17.064  0.3536 -0.1342 -0.4084
  653MPD2    H5 9673   2.807   4.626  16.984 -0.4991  2.2156  1.5470
  653MPD2    N1 9674   2.982   0.220  17.305 -0.4585 -0.7423 -0.7524
  653MPD2    H7 9675   2.927   0.267  17.233 -2.5647 -1.2956  0.4990
  654TMC3    C1 9676   2.701   4.417  16.937  0.2328  0.0693 -0.0722
  654TMC3    C2 9677   2.666   4.528  16.857 -0.4361 -0.3614  0.0963
  654TMC3    C3 9678   2.660   4.504  16.721 -0.0841 -0.2651 -0.0198
  654TMC3    C4 9679   2.742   4.300  16.885 -0.0282 -0.3434 -0.3207
  654TMC3    C5 9680   2.744   4.289  16.750  0.9698  0.2630  0.8605
  654TMC3    C6 9681   2.696   4.386  16.668 -0.7588 -0.7765 -0.0838
  654TMC3     C 9682   2.754   4.444  17.068  0.7909 -0.2749 -0.3372
  654TMC3     O 9683   2.749   4.362  17.158  0.0160 -0.1025 -0.2587
  654TMC3     H 9684   2.639   4.627  16.890 -2.0364 -0.3045 -1.4078
  654TMC3    H1 9685   2.788   4.228  16.952 -0.6986 -1.1074 -0.6799
  654TMC3    H2 9686   2.676   4.362  16.564  0.7614  0.7890 -0.7346
  654TMC3    C7 9687   2.692   4.164  16.708  0.2117 -0.5766  0.0286
  654TMC3    C8 9688   2.546   4.578  16.663 -0.2274 -0.2036 -0.1500
  654TMC3    O1 9689   2.611   4.165  16.618  0.3643  0.1844 -0.0722
  654TMC3    O2 9690   2.465   4.626  16.745  0.0306  0.2947 -0.3757
  655MPD2     C 9691   4.372   0.233  15.521 -0.2572  0.6940 -0.7207
  655MPD2    C1 9692   4.288   0.325  15.458 -0.4219  0.0710 -0.5157
  655MPD2    C2 9693   4.251   0.308  15.329  0.2237  0.4362 -0.2273
  655MPD2    C3 9694   4.302   0.204  15.253 -0.2798  0.1154 -0.3071
  655MPD2    C4 9695   4.400   0.122  15.314  0.8582  0.1438 -0.5032
  655MPD2    C5 9696   4.426   0.130  15.446  0.5926 -0.0739  0.3540
  655MPD2     H 9697   4.174   0.377  15.298 -0.5672  0.4111  1.6671
  655MPD2    H1 9698   4.444   0.037  15.264  0.7112  0.8096 -1.7691
  655MPD2    H2 9699   4.374   0.232  15.629 -0.1642  0.8793 -0.7213
  655MPD2    H3 9700   4.495   0.057  15.484  2.4110  1.2971 -0.2951
  655MPD2     N 9701   4.264   0.171  15.117  0.5291  1.0048  0.0980
  655MPD2    H5 9702   4.313   0.092  15.076 -1.9667 -0.7486  0.4467
  655MPD2    N1 9703   4.233   0.442  15.521  0.3662 -0.6571  1.1243
  655MPD2    H7 9704   4.173   0.495  15.459  0.5551 -0.3526  1.2009
  656TMC3    C1 9705   4.191   0.618  15.681  0.3611  0.5342  0.1796
  656TMC3    C2 9706   4.173   0.665  15.817 -0.3469  0.6559  0.1832
  656TMC3    C3 9707   4.104   0.780  15.845 -0.2369 -0.0239 -0.6079
  656TMC3    C4 9708   4.132   0.695  15.583 -0.1424 -0.6391 -0.4033
  656TMC3    C5 9709   4.056   0.802  15.615  0.3543 -0.1829  0.4585
  656TMC3    C6 9710   4.048   0.857  15.743  0.3988  0.0681  0.6942
  656TMC3     C 9711   4.266   0.496  15.648  0.4007  0.0532 -0.1741
  656TMC3     O 9712   4.332   0.446  15.735  0.3180 -0.2588  1.1176
  656TMC3     H 9713   4.205   0.601  15.899 -1.4856  0.0208  0.1291
  656TMC3    H1 9714   4.140   0.683  15.475  1.5621  1.1669 -0.4828
  656TMC3    H2 9715   4.009   0.957  15.759  0.1248 -0.4212  3.0429
  656TMC3    C7 9716   3.967   0.859  15.515 -0.0537  0.0402  0.6889
  656TMC3    C8 9717   4.021   0.773  15.959  0.3725 -0.1878 -0.3540
  656TMC3    O1 9718   4.011   0.878  15.403  0.4894 -0.1390  0.3100
  656TMC3    O2 9719   3.912   0.814  15.927 -0.2477  0.3767 -0.0799
  657TMC3    C1 9720   3.082   4.478  14.852 -0.0629  0.0535 -0.3805
  657TMC3    C2 9721   3.083   4.457  14.985 -0.3218  0.1688  0.8094
  657TMC3    C3 9722   2.988   4.526  15.061  0.4683  0.8174 -0.2868
  657TMC3    C4 9723   2.985   4.560  14.802 -0.0296  0.2361 -0.1215
  657TMC3    C5 9724   2.890   4.616  14.875 -0.5876  0.1749 -0.5779
  657TMC3    C6 9725   2.890   4.610  15.011 -0.5216  0.4617 -0.1607
  657TMC3     C 9726   3.176   4.407  14.761  0.6948 -0.3419 -0.7300
  657TMC3     O 9727   3.165   4.439  14.640 -0.2668  0.2343  0.2925
  657TMC3     H 9728   3.141   4.379  15.033 -1.1916 -0.4091  0.9262
  657TMC3    H1 9729   2.987   4.571  14.694  0.9899  0.8534 -0.0403
  657TMC3    H2 9730   2.809   4.656  15.066 -1.2227 -0.4659 -0.4173
  657TMC3    C7 9731   2.805   4.698  14.806  0.0677 -0.4888  0.1628
  657TMC3    C8 9732   2.997   4.521  15.202 -0.4641  0.6146 -0.1870
  657TMC3    O1 9733   2.790   4.681  14.687 -0.1919 -0.4198 -0.0128
  657TMC3    O2 9734   2.895   4.558  15.253 -0.3293 -0.2874 -0.7272
  658MPD2     C 9735   4.538   0.334  14.500 -0.2256 -0.2176  0.1215
  658MPD2    C1 9736   4.400   0.337  14.509  0.3284  0.0293  0.3734
  658MPD2    C2 9737   4.335   0.443  14.437 -0.5276 -0.5283  0.1472
  658MPD2    C3 9738   4.395   0.530  14.361  0.1736  1.0744  0.8266
  658MPD2    C4 9739   4.536   0.524  14.350  0.0909 -0.0941 -0.5313
  658MPD2    C5 9740   4.604   0.427  14.418  0.2439  0.5866 -0.6461
  658MPD2     H 9741   4.227   0.454  14.436 -0.5543 -0.6757  1.2312
  658MPD2    H1 9742   4.591   0.591  14.286  2.1504  0.9210  2.2718
  658MPD2    H2 9743   4.601   0.258  14.545 -1.0338 -0.7106  0.4412
  658MPD2    H3 9744   4.710   0.424  14.398  0.4211 -1.5044  0.5445
  658MPD2     N 9745   4.317   0.621  14.287 -0.1414  0.2566 -0.2588
  658MPD2    H5 9746   4.216   0.617  14.295 -0.0406  0.0538  0.8855
  658MPD2    N1 9747   4.343   0.237  14.597  0.1304 -0.1253 -0.3528
  658MPD2    H7 9748   4.398   0.186  14.665  0.7386 -0.1503 -0.8699
  659TMC3    C1 9749   4.154   0.129  14.691 -1.1510  0.0496 -0.0116
  659TMC3    C2 9750   4.205   0.156  14.818  0.4005 -0.1041  0.5966
  659TMC3    C3 9751   4.119   0.152  14.929 -0.1052 -0.1594 -0.4235
  659TMC3    C4 9752   4.019   0.111  14.668 -0.4332 -0.1167  0.0815
  659TMC3    C5 9753   3.944   0.111  14.783 -0.2654  0.2782 -0.5710
  659TMC3    C6 9754   3.989   0.137  14.909 -0.2934 -0.0254  0.2669
  659TMC3     C 9755   4.211   0.199  14.580  0.2429  1.1022 -0.3294
  659TMC3     O 9756   4.128   0.248  14.509 -0.5743  0.0873 -0.2033
  659TMC3     H 9757   4.310   0.166  14.843  0.2945  2.3914  0.0693
  659TMC3    H1 9758   3.970   0.103  14.572  0.3623 -0.6825 -0.2864
  659TMC3    H2 9759   3.924   0.150  14.994  1.8643 -1.5845  2.1577
  659TMC3    C7 9760   3.803   0.092  14.755  0.3005 -0.3721 -0.1512
  659TMC3    C8 9761   4.156   0.229  15.045  0.2243  0.1602 -0.8340
  659TMC3    O1 9762   3.726   0.164  14.816  0.1060 -0.1185 -0.2313
  659TMC3    O2 9763   4.075   0.316  15.080  0.7212 -0.1641  0.4869
  660MPD2     C 9764   2.403   3.599  12.435 -0.0047  0.3584  0.0375
  660MPD2    C1 9765   2.276   3.651  12.425 -0.2402  0.5614  0.3068
  660MPD2    C2 9766   2.176   3.608  12.513  0.5731 -0.5661 -0.4496
  660MPD2    C3 9767   2.208   3.513  12.603  0.0906 -0.8002  0.0367
  660MPD2    C4 9768   2.331   3.464  12.616  0.6597  0.4513 -0.4168
  660MPD2    C5 9769   2.431   3.500  12.529  0.2223 -0.0336  0.1381
  660MPD2     H 9770   2.077   3.652  12.506  0.8069  0.5287  3.0293
  660MPD2    H1 9771   2.359   3.392  12.692  0.5989 -1.1003 -1.8425
  660MPD2    H2 9772   2.481   3.640  12.372 -0.0955  1.5098  0.6628
  660MPD2    H3 9773   2.534   3.474  12.547 -0.5138 -1.7522  1.8150
  660MPD2     N 9774   2.115   3.456  12.695  0.2964 -0.4771 -0.2705
  660MPD2    H5 9775   2.156   3.389  12.759  1.4430 -0.1198 -0.6341
  660MPD2    N1 9776   2.255   3.752  12.328  0.7774 -0.0824 -0.1499
  660MPD2    H7 9777   2.334   3.769  12.266 -0.9007  0.7756 -2.0741
  661TMC3    C1 9778   2.138   3.901  12.191  0.7080  0.1253  0.5887
  661TMC3    C2 9779   2.229   3.875  12.092  0.1253 -0.0264  0.1902
  661TMC3    C3 9780   2.208   3.927  11.969 -0.5576  0.0816 -0.2450
  661TMC3    C4 9781   2.035   3.982  12.170  0.3191  0.3763 -0.3854
  661TMC3    C5 9782   2.019   4.035  12.046 -0.7911 -0.0113 -0.2493
  661TMC3    C6 9783   2.100   4.009  11.936 -0.0844 -0.0596 -0.4502
  661TMC3     C 9784   2.146   3.835  12.319 -0.1765 -0.4415  0.1062
  661TMC3     O 9785   2.048   3.849  12.387  0.8417 -0.0175 -0.1099
  661TMC3     H 9786   2.310   3.804  12.101 -0.2814 -0.6053 -0.6850
  661TMC3    H1 9787   1.952   3.991  12.238  0.2528  1.7117 -0.6494
  661TMC3    H2 9788   2.083   4.040  11.833  0.2944  1.0117 -0.1865
  661TMC3    C7 9789   1.883   4.082  12.020 -0.0262 -0.0749  0.3025
  661TMC3    C8 9790   2.303   3.907  11.866  0.2996 -0.0793  0.0796
  661TMC3    O1 9791   1.815   4.131  12.108  0.1917  0.4603  0.3821
  661TMC3    O2 9792   2.375   3.807  11.867  0.4506  0.0311 -0.7330
  662MPD2     C 9793   2.283   4.017  17.252  0.1872 -0.0867  0.0112
  662MPD2    C1 9794   2.324   3.922  17.345 -0.1828 -0.2707  0.2553
  662MPD2    C2 9795   2.282   3.932  17.471 -0.1751 -0.0651  0.7229
  662MPD2    C3 9796   2.198   4.040  17.516  0.6931 -0.4192  0.0022
  662MPD2    C4 9797   2.162   4.135  17.418 -0.0136  0.7354 -0.0258
  662MPD2    C5 9798   2.213   4.127  17.291  0.2323  0.4058  0.2323
  662MPD2     H 9799   2.300   3.853  17.542 -1.7565  0.1223  1.3286
  662MPD2    H1 9800   2.110   4.227  17.443  0.7977  1.4106 -0.8249
  662MPD2    H2 9801   2.333   4.023  17.156  1.3840  1.5277  0.7332
  662MPD2    H3 9802   2.189   4.206  17.221 -0.9439  0.9601  1.2489
  662MPD2     N 9803   2.145   4.041  17.647 -0.2491 -0.7749  0.6420
  662MPD2    H5 9804   2.061   4.096  17.661 -0.7197 -1.1376 -0.7337
  662MPD2    N1 9805   2.394   3.800  17.316  0.1037  0.3473 -0.5046
  662MPD2    H7 9806   2.391   3.727  17.386 -1.7000  2.4609  1.5862
  663TMC3    C1 9807   2.435   3.613  17.180 -0.5321  0.1158  0.1971
  663TMC3    C2 9808   2.456   3.548  17.304  0.4492 -0.3743  0.7806
  663TMC3    C3 9809   2.372   3.452  17.338 -0.2808 -0.0640  0.2281
  663TMC3    C4 9810   2.343   3.576  17.080  0.0488 -0.2662 -0.4157
  663TMC3    C5 9811   2.275   3.464  17.117 -0.0941 -0.1022  0.4120
  663TMC3    C6 9812   2.298   3.402  17.241 -0.2380  0.1963 -0.1396
  663TMC3     C 9813   2.441   3.756  17.195 -0.1764  0.0680  0.6595
  663TMC3     O 9814   2.462   3.828  17.097  0.0628  0.2025  0.5163
  663TMC3     H 9815   2.519   3.594  17.379  2.7444 -0.3624 -1.1539
  663TMC3    H1 9816   2.333   3.633  16.989 -0.5357  0.3838  0.0563
  663TMC3    H2 9817   2.211   3.344  17.272  0.4850  0.0372  1.5697
  663TMC3    C7 9818   2.236   3.377  17.007  0.5056 -0.3736 -0.0475
  663TMC3    C8 9819   2.313   3.487  17.464 -0.2119  0.2751 -0.1812
  663TMC3    O1 9820   2.237   3.432  16.897  0.0222 -0.1167  0.2891
  663TMC3    O2 9821   2.356   3.589  17.519 -0.2812  0.4560  0.0601
  664MPD2     C 9822   0.616   1.606  17.155 -0.0337  0.2218 -0.6288
  664MPD2    C1 9823   0.646   1.646  17.284 -0.6327  0.6692  0.0662
  664MPD2    C2 9824   0.548   1.650  17.378  0.0104 -0.0053  0.5188
  664MPD2    C3 9825   0.422   1.602  17.341 -0.6120 -0.1464  0.4651
  664MPD2    C4 9826   0.397   1.542  17.218 -0.4788  0.2697  0.4466
  664MPD2    C5 9827   0.492   1.551  17.123  0.4197 -0.2748 -0.5032
  664MPD2     H 9828   0.569   1.689  17.477  2.3014 -0.2654  0.1476
  664MPD2    H1 9829   0.305   1.499  17.181  1.0715 -1.5146 -1.3569
  664MPD2    H2 9830   0.678   1.614  17.067 -0.0847  0.6760 -0.6237
  664MPD2    H3 9831   0.480   1.520  17.020 -0.0909  0.9795 -0.8216
  664MPD2     N 9832   0.325   1.597  17.443  0.1438  0.3943 -0.1570
  664MPD2    H5 9833   0.351   1.643  17.530 -0.2506  1.8512 -0.8097
  664MPD2    N1 9834   0.770   1.711  17.324 -0.1060  0.0360 -0.0820
  664MPD2    H7 9835   0.778   1.743  17.420 -0.2672  0.3844 -0.1864
  665TMC3    C1 9836   0.147   1.532  17.577 -0.2099 -0.1455  0.3176
  665TMC3    C2 9837   0.096   1.415  17.618 -0.3720  0.5726  0.3194
  665TMC3    C3 9838   0.019   1.415   0.036  0.4766 -0.9494  0.0728
  665TMC3    C4 9839   0.118   1.648  17.641  0.5315  0.0927  0.1466
  665TMC3    C5 9840   0.052   1.644   0.066  0.4763  0.9034  0.8117
  665TMC3    C6 9841   0.004   1.527   0.116 -0.0403 -0.1904 -0.2348
  665TMC3     C 9842   0.213   1.517  17.450  0.2305  0.4422  0.2723
  665TMC3     O 9843   0.171   1.424  17.382  0.5000 -0.5400  0.1101
  665TMC3     H 9844   0.111   1.331  17.552 -0.4319 -0.9034  2.2110
  665TMC3    H1 9845   0.176   1.736  17.615 -0.3747  0.1650 -1.6554
  665TMC3    H2 9846   4.657   1.522   0.200 -0.2047  0.3529 -0.3398
  665TMC3    C7 9847   0.024   1.774   0.131  0.6423 -0.3037  0.6509
  665TMC3    C8 9848   4.637   1.316   0.057 -0.0010  0.5119 -0.1278
  665TMC3    O1 9849   0.067   1.871   0.067  0.4237  0.2223 -0.0931
  665TMC3    O2 9850   4.531   1.360   0.105  0.2763  0.0900 -0.2018
  666TMC3    C1 9851   0.266   1.103  10.091 -0.0893  0.1932  0.0820
  666TMC3    C2 9852   0.300   1.056  10.215 -0.5174  0.3372  0.2956
  666TMC3    C3 9853   0.341   1.144  10.303  0.4135  0.1411 -0.3598
  666TMC3    C4 9854   0.295   1.232  10.048  0.2292  0.5770 -0.2876
  666TMC3    C5 9855   0.334   1.319  10.143  0.1544  0.0301  0.2310
  666TMC3    C6 9856   0.353   1.280  10.275 -0.5952 -0.0824 -0.4606
  666TMC3     C 9857   0.240   1.007   9.982  0.2381 -0.1149 -0.1346
  666TMC3     O 9858   0.179   0.905  10.007 -0.3552  0.7558 -0.1627
  666TMC3     H 9859   0.293   0.949  10.228 -1.0195  0.6255  2.3661
  666TMC3    H1 9860   0.247   1.264   9.956  1.8251  2.2384 -0.5447
  666TMC3    H2 9861   0.358   1.353  10.356  2.7706  0.8998 -1.5300
  666TMC3    C7 9862   0.306   1.457  10.125  0.0873  0.1122  0.2131
  666TMC3    C8 9863   0.347   1.100  10.441 -0.6109  0.6842  0.2807
  666TMC3    O1 9864   0.305   1.529  10.226 -0.2001  0.2469 -0.4617
  666TMC3    O2 9865   0.257   1.026  10.479 -1.0658 -0.6214  0.7410
  667MPD2     C 9866   1.341   1.907  14.692  0.1881 -0.0627 -0.1668
  667MPD2    C1 9867   1.295   1.942  14.818  0.2437  0.2649  0.3461
  667MPD2    C2 9868   1.216   1.854  14.885 -0.2186 -0.5557  0.4600
  667MPD2    C3 9869   1.183   1.734  14.832  0.1702 -0.0167 -0.3858
  667MPD2    C4 9870   1.227   1.700  14.710 -0.3154  0.9408 -0.3741
  667MPD2    C5 9871   1.309   1.784  14.644 -0.3255  0.1109  0.0495
  667MPD2     H 9872   1.188   1.889  14.984 -1.0212 -1.1172  0.4282
  667MPD2    H1 9873   1.191   1.606  14.667  1.2264  0.5287 -0.7546
  667MPD2    H2 9874   1.407   1.960  14.624  1.9275 -1.0201  0.7779
  667MPD2    H3 9875   1.354   1.764  14.547  1.9977  1.5142  0.8443
  667MPD2     N 9876   1.094   1.648  14.902 -0.3438  0.1856 -0.6082
  667MPD2    H5 9877   1.066   1.574  14.839  2.0946  0.1234 -1.5879
  667MPD2    N1 9878   1.340   2.059  14.883 -0.0835  0.0773 -0.1091
  667MPD2    H7 9879   1.301   2.085  14.973 -0.6206 -0.2746 -0.2445
  668TMC3    C1 9880   1.472   2.254  14.918  0.0708  0.3312  0.2273
  668TMC3    C2 9881   1.550   2.357  14.875 -0.8211 -0.2803  0.2858
  668TMC3    C3 9882   1.600   2.448  14.972  0.1501 -1.5003 -0.0395
  668TMC3    C4 9883   1.460   2.231  15.054 -0.5782  0.1881  0.2805
  668TMC3    C5 9884   1.516   2.317  15.142  0.2442  0.7844  0.0071
  668TMC3    C6 9885   1.586   2.432  15.104 -0.2607  0.2294  0.1545
  668TMC3     C 9886   1.430   2.148  14.827 -0.3558  0.2335  0.4348
  668TMC3     O 9887   1.495   2.149  14.723 -0.0953  0.3059  0.0305
  668TMC3     H 9888   1.555   2.385  14.771 -0.0718  1.1007  0.6831
  668TMC3    H1 9889   1.419   2.139  15.095 -0.1084 -0.6100 -1.0564
  668TMC3    H2 9890   1.626   2.503  15.176  1.0988 -1.5650  1.1444
  668TMC3    C7 9891   1.547   2.268  15.274 -0.0491  0.1331 -0.2779
  668TMC3    C8 9892   1.677   2.573  14.933  0.1213 -0.0120  0.5421
  668TMC3    O1 9893   1.651   2.313  15.328 -0.6144 -0.2210  0.5053
  668TMC3    O2 9894   1.683   2.666  15.013  0.1341  0.9440  0.3749
  669TMC3    C1 9895   4.151   1.780  14.666  0.4948  0.8941  0.0260
  669TMC3    C2 9896   4.041   1.816  14.593  0.0411  0.5006 -0.4328
  669TMC3    C3 9897   4.046   1.909  14.499 -0.8276  0.1078 -0.6943
  669TMC3    C4 9898   4.277   1.831  14.627  0.6090  0.3385 -0.3856
  669TMC3    C5 9899   4.278   1.924  14.530  0.8678  0.5177  0.1885
  669TMC3    C6 9900   4.162   1.968  14.468 -0.4912 -0.2533 -0.2927
  669TMC3     C 9901   4.132   1.681  14.775  0.0907  0.3561 -0.2007
  669TMC3     O 9902   4.019   1.645  14.800 -0.6138 -0.5748  0.3673
  669TMC3     H 9903   3.945   1.771  14.617  0.6876 -0.9081 -0.5024
  669TMC3    H1 9904   4.366   1.801  14.680 -0.5199 -0.8154  0.8702
  669TMC3    H2 9905   4.160   2.048  14.395 -2.9689  0.4823  0.5854
  669TMC3    C7 9906   4.408   1.992  14.510 -0.5427 -0.4223  0.5273
  669TMC3    C8 9907   3.925   1.934  14.429  0.0373 -0.0963  0.8470
  669TMC3    O1 9908   4.479   2.000  14.610  0.9049  0.5394 -0.9287
  669TMC3    O2 9909   3.844   1.845  14.419 -0.0455 -0.1789 -0.4006
  670MPD2     C 9910   2.629   4.230  13.295  0.3937 -0.1936 -0.7311
  670MPD2    C1 9911   2.674   4.281  13.417 -0.3195  0.0538 -0.2129
  670MPD2    C2 9912   2.587   4.278  13.526 -0.1108  0.0023 -0.3504
  670MPD2    C3 9913   2.461   4.238  13.509  0.5492  0.3049 -0.4825
  670MPD2    C4 9914   2.419   4.184  13.392  0.0233  0.9795 -0.1657
  670MPD2    C5 9915   2.503   4.177  13.286  0.0669 -0.4919  1.0130
  670MPD2     H 9916   2.626   4.321  13.618 -0.3356 -1.4025  0.4098
  670MPD2    H1 9917   2.329   4.127  13.373 -0.3811  2.0291 -1.3818
  670MPD2    H2 9918   2.691   4.240  13.207 -1.0713  0.8038 -1.6481
  670MPD2    H3 9919   2.470   4.143  13.188 -0.7955 -3.6952  2.3999
  670MPD2     N 9920   2.380   4.240  13.626 -0.2768  0.3660  0.3409
  670MPD2    H5 9921   2.425   4.266  13.713  1.3786  0.7718 -0.6320
  670MPD2    N1 9922   2.807   4.332  13.434  0.1450  0.1112  0.7447
  670MPD2    H7 9923   2.828   4.369  13.526 -2.9283 -1.5462  2.1035
  671TMC3    C1 9924   2.194   4.190  13.771  0.0200 -0.1860 -0.2056
  671TMC3    C2 9925   2.278   4.186  13.880  0.5354 -0.4061 -0.6315
  671TMC3    C3 9926   2.238   4.116  13.992 -0.1934  0.2508  0.2885
  671TMC3    C4 9927   2.072   4.129  13.779  0.2537  0.2169  0.1208
  671TMC3    C5 9928   2.044   4.047  13.878  0.0296 -0.6210 -0.0950
  671TMC3    C6 9929   2.123   4.043  13.991  0.1112  0.0322  0.2107
  671TMC3     C 9930   2.243   4.210  13.634 -0.1086  0.1587 -0.1368
  671TMC3     O 9931   2.168   4.192  13.540 -0.0614  0.3627  0.6379
  671TMC3     H 9932   2.361   4.256  13.884 -0.8759  1.2025  0.1135
  671TMC3    H1 9933   2.010   4.127  13.690 -0.9415 -0.4075  0.9690
  671TMC3    H2 9934   2.090   3.992  14.081 -1.3303 -0.1934 -0.4551
  671TMC3    C7 9935   1.993   3.921  13.832 -0.0497  0.1813 -0.3369
  671TMC3    C8 9936   2.335   4.058  14.077 -0.2344  0.3435  0.0317
  671TMC3    O1 9937   1.990   3.904  13.713  0.0672  0.6156 -0.4411
  671TMC3    O2 9938   2.317   3.936  14.091  0.3687  0.0639  0.3281
  672MPD2     C 9939   3.403   4.598   0.297 -0.4055  0.3447 -0.5689
  672MPD2    C1 9940   3.347   4.504   0.374  0.9230 -0.1213  0.0911
  672MPD2    C2 9941   3.324   4.519   0.508  0.0992  0.5635 -0.3698
  672MPD2    C3 9942   3.343   4.647   0.562  0.5792  0.1824  0.2813
  672MPD2    C4 9943   3.391   0.030   0.485 -0.3347  0.1902 -0.1865
  672MPD2    C5 9944   3.427   4.719   0.354  0.5268 -0.0818  0.1912
  672MPD2     H 9945   3.288   4.440   0.573 -0.2768  0.0036 -1.2591
  672MPD2    H1 9946   3.415   0.126   0.528 -0.1184 -0.1117  0.3824
  672MPD2    H2 9947   3.428   4.590   0.192 -0.8574 -1.8648 -0.5074
  672MPD2    H3 9948   3.484   0.071   0.300 -0.1342  1.3884  1.5355
  672MPD2     N 9949   3.314   4.677   0.701  0.2534  0.0935 -0.3109
  672MPD2    H5 9950   3.317   0.051   0.734 -0.4055  0.4757 -1.3951
  672MPD2    N1 9951   3.319   4.377   0.315 -0.3801 -0.0873 -0.0459
  672MPD2    H7 9952   3.262   4.320   0.378 -0.4441  0.8080  0.7101
  673TMC3    C1 9953   3.313   4.196   0.166 -0.8426  0.6996 -0.7574
  673TMC3    C2 9954   3.409   4.092   0.169 -0.0386  0.6773  0.2943
  673TMC3    C3 9955   3.353   3.969   0.212  0.8143  0.1902  0.1158
  673TMC3    C4 9956   3.179   4.181   0.197  0.4843  0.0191 -0.3250
  673TMC3    C5 9957   3.133   4.058   0.231 -0.4806 -0.1079 -0.2041
  673TMC3    C6 9958   3.220   3.953   0.248 -0.6966 -0.7837 -0.9469
  673TMC3     C 9959   3.359   4.334   0.190 -0.4797  0.6361  0.1182
  673TMC3     O 9960   3.445   4.372   0.114 -0.7674 -0.4911  0.0463
  673TMC3     H 9961   3.514   4.116   0.166  0.0747  0.0886 -0.3758
  673TMC3    H1 9962   3.108   4.262   0.195  0.1416 -0.2126  1.9272
  673TMC3    H2 9963   3.190   3.849   0.262  1.3676 -1.2418 -0.0107
  673TMC3    C7 9964   2.998   4.027   0.260  0.0660 -0.5536  0.1505
  673TMC3    C8 9965   3.431   3.856   0.260 -0.0477 -0.3696 -0.2976
  673TMC3    O1 9966   2.977   3.905   0.267 -0.4167  0.2668  0.1926
  673TMC3    O2 9967   3.510   3.806   0.178 -0.2299  0.0680 -0.2124
  674MPD2     C 9968   2.235   4.646  17.692 -0.1174  0.9026  0.0526
  674MPD2    C1 9969   2.267   4.525   0.066  0.1686  0.6376 -0.8666
  674MPD2    C2 9970   2.209   4.498   0.191 -1.0160 -0.0481  0.4674
  674MPD2    C3 9971   2.124   4.591   0.249 -0.2009  0.0491  0.1096
  674MPD2    C4 9972   2.078   4.694   0.166  0.3557  0.3149 -0.1305
  674MPD2    C5 9973   2.134   0.003   0.045  0.3703  0.3264  0.1514
  674MPD2     H 9974   2.231   4.412   0.253 -0.9319  0.5717  1.2931
  674MPD2    H1 9975   2.004   0.042   0.203  1.5815  1.5526 -0.0230
  674MPD2    H2 9976   2.269   4.679  17.594  0.4874  0.0898 -0.0119
  674MPD2    H3 9977   2.098   0.089  17.683 -0.1990  1.5218  2.3776
  674MPD2     N 9978   2.086   4.577   0.385 -0.3241 -0.2531  0.0919
  674MPD2    H5 9979   2.122   4.494   0.432  3.2498  2.1347  1.6038
  674MPD2    N1 9980   2.359   4.448  17.691  0.7727  0.2503 -0.1605
  674MPD2    H7 9981   2.406   4.481  17.608  1.8670 -0.1519  0.2955
  675TMC3    C1 9982   2.515   4.268  17.665  0.0729 -0.2411  0.2764
  675TMC3    C2 9983   2.530   4.134  17.666  1.1302 -0.1014  0.1138
  675TMC3    C3 9984   2.650   4.069  17.650 -0.1000 -0.0820 -0.0608
  675TMC3    C4 9985   2.631   4.353  17.654  0.4816 -0.1888 -0.3966
  675TMC3    C5 9986   2.750   4.284  17.647 -0.3374 -0.4558 -0.8976
  675TMC3    C6 9987   2.763   4.149  17.643 -0.2151 -0.5950  0.3400
  675TMC3     C 9988   2.394   4.318   0.039 -0.6279  0.0169  0.2286
  675TMC3     O 9989   2.335   4.244   0.118  0.2399  0.1103 -0.4375
  675TMC3     H 9990   2.438   4.077  17.664  0.6070  0.7817 -0.6070
  675TMC3    H1 9991   2.622   4.461  17.646 -0.8653 -0.2052  0.8610
  675TMC3    H2 9992   2.860   4.101  17.637  0.2631  0.3777  0.2353
  675TMC3    C7 9993   2.876   4.356  17.668 -0.0781 -0.5819 -0.5148
  675TMC3    C8 9994   2.674   3.926  17.658  0.3498  0.0042  0.6322
  675TMC3    O1 9995   2.978   4.288  17.668  0.0552  0.3782  0.2861
  675TMC3    O2 9996   2.786   3.899  17.615 -0.2526  0.0803  0.0051
  676MPD2     C 9997   0.730   2.670  10.805 -0.2354 -0.3892  0.3615
  676MPD2    C1 9998   0.601   2.634  10.839 -0.4380 -0.0198  0.5563
  676MPD2    C2 9999   0.584   2.507  10.901  0.3396  0.2268  0.2963
  676MPD2    C310000   0.694   2.424  10.928  0.3862 -1.0530 -0.5080
  676MPD2    C410001   0.823   2.461  10.890  0.6055  0.5342  0.0590
  676MPD2    C510002   0.836   2.583  10.827 -0.3764 -0.3840  0.0568
  676MPD2     H10003   0.480   2.488  10.927  0.5849 -2.5001 -0.7930
  676MPD2    H110004   0.915   2.407  10.910 -0.2487 -1.0749 -0.3345
  676MPD2    H210005   0.750   2.770  10.770 -0.6390  0.3668  2.2655
  676MPD2    H310006   0.934   2.627  10.810 -0.5854 -0.4659 -1.3713
  676MPD2     N10007   0.672   2.297  10.985 -0.3353 -0.1798 -0.4331
  676MPD2    H510008   0.754   2.245  11.013 -0.8174  0.6580  2.5118
  676MPD2    N110009   0.492   2.717  10.816  0.7944  0.5981 -0.0465
  676MPD2    H710010   0.404   2.680  10.852  0.5775 -1.3750 -2.5850
  677TMC3    C110011   0.360   2.890  10.739 -0.0025 -0.4266 -0.1068
  677TMC3    C210012   0.258   2.840  10.819 -0.4755 -0.8554 -0.1272
  677TMC3    C310013   0.157   2.928  10.853  0.4675  0.2683  0.7070
  677TMC3    C410014   0.362   3.016  10.696  0.9335 -0.1331 -1.1171
  677TMC3    C510015   0.262   3.100  10.732  0.3332  0.2247 -0.2136
  677TMC3    C610016   0.158   3.057  10.807 -0.5013 -0.0863  0.3130
  677TMC3     C10017   0.488   2.822  10.735 -0.4282 -0.4214  0.0699
  677TMC3     O10018   0.577   2.857  10.658  0.3094 -0.2229 -0.1989
  677TMC3     H10019   0.267   2.740  10.860  1.5347  0.0006  1.4821
  677TMC3    H110020   0.434   3.047  10.621 -0.2616  1.7279 -1.5223
  677TMC3    H210021   0.085   3.124  10.849 -1.0670 -2.0519  2.4403
  677TMC3    C710022   0.285   3.246  10.752 -0.1626 -0.7077  0.1210
  677TMC3    C810023   0.156   2.931  10.996 -0.0349 -0.5832  0.2851
  677TMC3    O110024   0.189   3.308  10.794 -0.3264 -0.0611 -0.0930
  677TMC3    O210025   0.216   3.026  11.046 -0.2512  0.8998 -0.3039
  678MPD2     C10026   1.169   2.155   1.175  0.1714  0.0213  0.2243
  678MPD2    C110027   1.159   2.071   1.069  0.0868 -0.9017 -0.3318
  678MPD2    C210028   1.040   2.003   1.050 -0.5581 -0.4598  0.6240
  678MPD2    C310029   0.926   2.039   1.114 -0.3136  0.4815 -0.4193
  678MPD2    C410030   0.934   2.120   1.227 -0.3399  1.1240 -0.3249
  678MPD2    C510031   1.059   2.169   1.260  0.0708 -0.0922  0.2301
  678MPD2     H10032   1.023   1.947   0.959 -0.1032  0.1664  0.1489
  678MPD2    H110033   0.855   2.152   1.294 -0.5834 -0.6097  0.2233
  678MPD2    H210034   1.261   2.205   1.204 -1.1074  1.1204  2.3357
  678MPD2    H310035   1.064   2.228   1.351 -0.2075 -0.4001  0.4454
  678MPD2     N10036   0.800   1.991   1.067  0.2868  0.4030  0.0478
  678MPD2    H510037   0.814   1.931   0.986 -0.3934 -0.3153  0.4645
  678MPD2    N110038   1.256   2.047   0.974 -0.5049  0.2899  0.2749
  678MPD2    H710039   1.232   1.980   0.902  0.7996 -1.5858  1.5959
  679TMC3    C110040   1.530   1.904   0.700  0.0555 -0.2413  0.0040
  679TMC3    C210041   1.452   1.941   0.810 -0.1258 -0.1003 -0.2281
  679TMC3    C310042   1.446   2.070   0.839 -0.5004 -0.4801 -0.2281
  679TMC3    C410043   1.594   1.993   0.623  0.1314 -0.3205 -0.3527
  679TMC3    C510044   1.572   2.129   0.647  0.0046 -0.2682  0.2982
  679TMC3    C610045   1.497   2.164   0.756  0.5732 -0.0658  0.5956
  679TMC3     C10046   1.563   1.761   0.681  0.5067  0.9660  0.3478
  679TMC3     O10047   1.642   1.748   0.585 -0.0031 -0.1745  0.8094
  679TMC3     H10048   1.420   1.880   0.894 -1.3059  0.3190 -0.3674
  679TMC3    H110049   1.661   1.966   0.542  1.5679  2.2660 -0.0072
  679TMC3    H210050   1.484   2.269   0.778 -3.2219 -0.7385  1.4298
  679TMC3    C710051   1.669   2.228   0.610  0.5132 -0.1349 -0.5096
  679TMC3    C810052   1.366   2.122   0.952 -0.2439 -0.1399  0.6935
  679TMC3    O110053   1.644   2.342   0.638 -0.3908  0.3739  0.5437
  679TMC3    O210054   1.399   2.230   0.998  0.0081 -0.0228  0.6712
  680MPD2     C10055   1.878   1.571  13.424  0.4000 -0.0572 -0.1233
  680MPD2    C110056   2.001   1.510  13.416  0.4145 -0.0671 -0.6731
  680MPD2    C210057   2.103   1.578  13.483 -0.4203 -0.1941  0.1541
  680MPD2    C310058   2.085   1.705  13.546  0.1793  0.2650  0.3341
  680MPD2    C410059   1.961   1.758  13.543 -0.2036 -0.6903 -0.1187
  680MPD2    C510060   1.858   1.693  13.483 -0.2216  0.0441  0.1066
  680MPD2     H10061   2.206   1.544  13.485 -0.5103 -0.4298  0.7595
  680MPD2    H110062   1.930   1.855  13.580 -0.3195 -0.3275 -1.1412
  680MPD2    H210063   1.793   1.523  13.376 -0.1748  1.3353 -0.4814
  680MPD2    H310064   1.756   1.731  13.483 -0.7546 -1.3711  1.1240
  680MPD2     N10065   2.195   1.774  13.604  0.0076 -0.1913  0.1585
  680MPD2    H510066   2.180   1.870  13.635 -1.0311 -0.1244 -0.5796
  680MPD2    N110067   2.024   1.392  13.347  0.1431  0.2237 -0.2203
  680MPD2    H710068   2.120   1.360  13.357  0.0778 -0.3241 -1.4317
  681TMC3    C110069   1.960   1.181  13.268 -0.3713 -1.4255  0.1849
  681TMC3    C210070   1.883   1.092  13.338 -0.6987 -0.9264 -0.3180
  681TMC3    C310071   1.929   0.971  13.364  0.0447 -0.3663  0.2039
  681TMC3    C410072   2.091   1.148  13.242 -0.4093 -0.3152  0.1640
  681TMC3    C510073   2.125   1.017  13.253  0.1343 -0.1367 -0.1175
  681TMC3    C610074   2.054   0.930  13.331 -0.1707  0.1182  0.2025
  681TMC3     C10075   1.924   1.315  13.282  0.0653 -0.7171  0.0952
  681TMC3     O10076   1.807   1.342  13.268  0.3760  0.1959  0.4863
  681TMC3     H10077   1.787   1.124  13.376 -0.3061 -0.5964  0.3865
  681TMC3    H110078   2.156   1.226  13.205 -1.2567 -0.5296 -1.7609
  681TMC3    H210079   2.085   0.826  13.332 -1.0022 -0.1159  2.4486
  681TMC3    C710080   2.197   0.960  13.142  0.5850  0.5340 -0.1093
  681TMC3    C810081   1.861   0.903  13.466 -0.2434 -0.5532  0.4159
  681TMC3    O110082   2.202   0.840  13.133  0.4649 -0.1416 -0.1628
  681TMC3    O210083   1.822   0.788  13.456 -0.4672 -0.1554  0.5498
  682MPD2     C10084   4.474   2.700  10.253 -0.1865 -0.3700  0.5065
  682MPD2    C110085   4.432   2.581  10.315  0.3012 -0.3192 -1.0548
  682MPD2    C210086   4.334   2.582  10.419 -0.7012 -0.2994 -0.3040
  682MPD2    C310087   4.280   2.694  10.472  0.0112  1.1381 -0.0659
  682MPD2    C410088   4.338   2.813  10.425  0.5830 -0.4240  0.2309
  682MPD2    C510089   4.436   2.814  10.328  0.1932 -0.2171 -0.1047
  682MPD2     H10090   4.313   2.485  10.463 -1.8443 -0.9647 -2.3148
  682MPD2    H110091   4.318   2.912  10.463 -0.0907 -0.6258  0.3955
  682MPD2    H210092   4.543   2.701  10.169 -0.4990  0.0769  0.2599
  682MPD2    H310093   4.469   2.916  10.311  0.4606 -0.4505 -0.9742
  682MPD2     N10094   4.182   2.703  10.571 -0.3558  0.2764  0.0996
  682MPD2    H510095   4.168   2.794  10.615 -1.3301  0.1840 -0.0208
  682MPD2    N110096   4.473   2.453  10.274 -0.0782  0.0517 -0.3375
  682MPD2    H710097   4.437   2.372  10.323  1.1272 -1.0421 -1.2541
  683TMC3    C110098   4.017   2.702  10.945 -0.2789 -0.3024 -0.2321
  683TMC3    C210099   3.906   2.625  10.970  0.1836  0.4393  0.0210
  683TMC3    C310100   3.863   2.548  10.866  0.3795  0.6641 -0.4687
  683TMC3    C410101   4.076   2.717  10.822  0.5602 -0.1088  0.0728
  683TMC3    C510102   4.015   2.646  10.720 -0.3298  0.2018  0.5091
  683TMC3    C610103   3.908   2.565  10.736 -0.5981 -0.3956 -0.2509
  683TMC3     C10104   4.072   2.783  11.049 -0.9776 -0.0487  0.1088
  683TMC3     O10105   4.149   2.867  11.009 -0.5658  0.8000  0.2573
  683TMC3     H10106   3.858   2.618  11.067 -1.3501 -1.1036 -0.8635
  683TMC3    H110107   4.165   2.776  10.807  1.4627 -1.6904 -0.7567
  683TMC3    H210108   3.862   2.515  10.651  0.9523 -2.8674  0.3540
  683TMC3    C710109   4.102   2.602  10.617  0.0217 -0.5731 -0.2101
  683TMC3    C810110   3.762   2.441  10.890 -0.0521  0.0738 -0.2189
  683TMC3    O110111   4.084   2.493  10.568  0.3801 -0.2992  0.6817
  683TMC3    O210112   3.712   2.404  10.788 -0.5492 -1.0069 -0.5848
  684MPD2     C10113   2.775   2.556  16.848 -0.5224  0.0885  0.5754
  684MPD2    C110114   2.741   2.551  16.715 -0.1996 -0.4198  0.4082
  684MPD2    C210115   2.663   2.647  16.670 -0.3842 -0.7373 -0.2637
  684MPD2    C310116   2.624   2.754  16.746 -0.9360  0.0502 -0.0637
  684MPD2    C410117   2.670   2.761  16.878 -0.1244  0.1142  0.1809
  684MPD2    C510118   2.755   2.664  16.927  0.6887  0.2081  0.5606
  684MPD2     H10119   2.616   2.642  16.573  0.5512  0.8550 -0.8108
  684MPD2    H110120   2.651   2.846  16.942  1.6049 -0.2223  1.1372
  684MPD2    H210121   2.835   2.474  16.885  0.0181 -0.3347 -1.2146
  684MPD2    H310122   2.801   2.662  17.025  0.4135  1.4259  0.7155
  684MPD2     N10123   2.556   2.866  16.692 -0.0815 -1.0386 -0.0427
  684MPD2    H510124   2.561   2.949  16.750  0.4096 -1.3093  0.3043
  684MPD2    N110125   2.789   2.443  16.641 -0.5004  0.1499 -0.2819
  684MPD2    H710126   2.864   2.389  16.684 -0.8756 -0.0117  0.1745
  685TMC3    C110127   2.844   2.308  16.453 -0.5355  0.1030 -0.1815
  685TMC3    C210128   2.850   2.316  16.313  0.0220 -0.7640 -0.1792
  685TMC3    C310129   2.894   2.205  16.243 -0.4317  0.1070  0.2285
  685TMC3    C410130   2.874   2.195  16.522 -0.6382 -0.4185  0.1472
  685TMC3    C510131   2.911   2.087  16.444  0.6796 -0.3975 -0.2066
  685TMC3    C610132   2.932   2.093  16.309 -0.2239  0.1716  0.1358
  685TMC3     C10133   2.753   2.402  16.515  0.1300  0.3189 -0.1972
  685TMC3     O10134   2.650   2.431  16.453 -0.3558  0.1346 -0.0285
  685TMC3     H10135   2.844   2.416  16.272  0.5026  0.2826  2.3114
  685TMC3    H110136   2.876   2.183  16.630 -0.5087 -0.9389  0.0899
  685TMC3    H210137   2.973   2.007  16.257 -0.6662  0.2089 -0.2748
  685TMC3    C710138   2.932   1.955  16.514 -0.8225 -0.2722  0.1570
  685TMC3    C810139   2.857   2.201  16.106 -0.3903 -0.2680 -0.1384
  685TMC3    O110140   2.945   1.958  16.636 -0.5663 -0.3998  0.1036
  685TMC3    O210141   2.926   2.130  16.035  0.4713 -0.0842  0.1673
  686MPD2     C10142   3.990   2.043  15.342 -0.1553  0.4891 -0.0274
  686MPD2    C110143   4.029   1.988  15.461  0.1223  0.1376  0.3648
  686MPD2    C210144   4.072   1.850  15.454  0.1016  0.0633  0.1316
  686MPD2    C310145   4.083   1.784  15.337  0.5821 -0.3398 -0.4671
  686MPD2    C410146   4.041   1.840  15.223  1.0234  0.0454  0.4617
  686MPD2    C510147   3.996   1.968  15.227  0.9630  0.1709  0.0713
  686MPD2     H10148   4.123   1.805  15.538 -0.3014  0.5895  0.6571
  686MPD2    H110149   4.048   1.786  15.129  3.1962 -0.3699  0.8468
  686MPD2    H210150   3.964   2.149  15.341  2.7017  1.1844  0.7037
  686MPD2    H310151   3.965   2.026  15.141  0.8917  0.2462  0.1495
  686MPD2     N10152   4.118   1.645  15.338 -0.5093  0.7720  0.4379
  686MPD2    H510153   4.141   1.613  15.244  1.2495  0.8387  0.8430
  686MPD2    N110154   4.029   2.070  15.579  0.6231  0.5170  0.3209
  686MPD2    H710155   3.998   2.166  15.567 -0.1671  0.2902  0.5477
  687TMC3    C110156   4.090   1.580  15.577 -0.1172 -0.1445 -0.4025
  687TMC3    C210157   3.960   1.612  15.601  0.3966 -0.2484  0.0027
  687TMC3    C310158   3.925   1.638  15.728  0.0128  0.2786  0.6971
  687TMC3    C410159   4.175   1.549  15.680  0.2248 -0.9880  0.0620
  687TMC3    C510160   4.138   1.576  15.808 -0.6609 -1.1839 -0.2669
  687TMC3    C610161   4.004   1.613  15.837 -0.5602  0.1630 -0.1911
  687TMC3     C10162   4.133   1.550  15.443 -0.4884  0.1404 -0.4446
  687TMC3     O10163   4.206   1.453  15.425 -0.3866 -0.2927 -0.5897
  687TMC3     H10164   3.890   1.619  15.518  2.7468  1.0674 -1.8643
  687TMC3    H110165   4.277   1.527  15.649  1.0050  2.6573  0.0326
  687TMC3    H210166   3.978   1.648  15.936  1.1641  0.6678  0.0816
  687TMC3    C710167   4.244   1.626  15.901 -0.4933  0.1242  0.7579
  687TMC3    C810168   3.791   1.697  15.757 -0.3599  0.3229  0.1060
  687TMC3    O110169   4.208   1.674  16.006  0.3586  0.2486 -0.1140
  687TMC3    O210170   3.741   1.674  15.866  0.5829 -0.8056  0.4028
  688MPD2     C10171   3.419   0.929  17.338  0.5406  0.2256  0.0286
  688MPD2    C110172   3.433   0.794  17.328 -0.4801  0.0644 -0.6260
  688MPD2    C210173   3.543   0.749  17.253 -0.4296  0.4892 -0.1936
  688MPD2    C310174   3.650   0.831  17.206 -0.8784  0.2292 -0.0786
  688MPD2    C410175   3.636   0.967  17.235 -0.4870  0.2103 -0.1776
  688MPD2    C510176   3.522   1.011  17.295 -1.0414  0.0438  0.1639
  688MPD2     H10177   3.549   0.640  17.249 -2.5566  0.3445  0.2973
  688MPD2    H110178   3.712   1.041  17.214  1.2495 -1.8017 -0.9831
  688MPD2    H210179   3.332   0.981  17.378  0.9717 -0.0241  1.2951
  688MPD2    H310180   3.522   1.118  17.315  0.9319  0.5869 -2.6654
  688MPD2     N10181   3.770   0.794  17.141  0.1726 -0.4380 -0.6897
  688MPD2    H510182   3.823   0.869  17.099 -0.5147  0.0203 -0.7426
  688MPD2    N110183   3.336   0.705  17.377 -0.3253 -0.0256  0.6634
  688MPD2    H710184   3.360   0.607  17.365 -1.7881 -0.5839  2.4576
  689TMC3    C110185   3.131   0.615  17.465  0.5861 -0.2629  0.5296
  689TMC3    C210186   3.015   0.650  17.528 -0.6565 -0.5933  0.2668
  689TMC3    C310187   2.915   0.557  17.530 -0.7663 -0.1710  0.7579
  689TMC3    C410188   3.136   0.507  17.379 -0.1043 -0.2238  0.7274
  689TMC3    C510189   3.024   0.424  17.375  0.0274 -0.4394  0.2999
  689TMC3    C610190   2.912   0.441  17.451 -0.3983 -0.1083  0.5170
  689TMC3     C10191   3.217   0.734  17.436 -0.0412 -0.0898 -0.2554
  689TMC3     O10192   3.160   0.839  17.465 -0.0607 -0.7463  0.5492
  689TMC3     H10193   3.025   0.711  17.617  0.3712  0.1604 -0.3707
  689TMC3    H110194   3.225   0.482  17.323  0.4626 -0.3142  1.6885
  689TMC3    H210195   2.835   0.365  17.460  0.3202 -1.0930 -1.5795
  689TMC3    C710196   3.066   0.287  17.390 -0.5328 -0.7815 -0.0541
  689TMC3    C810197   2.807   0.571  17.619 -0.4313  0.5425  0.3431
  689TMC3    O110198   3.122   0.253  17.493  0.3055  0.5574 -0.0692
  689TMC3    O210199   2.731   0.475  17.643 -0.2718 -0.4793 -0.2146
  690MPD2     C10200   0.579   2.826  16.016  0.1075 -0.3635  0.1630
  690MPD2    C110201   0.547   2.801  15.881  0.0558  0.2832  0.1339
  690MPD2    C210202   0.623   2.867  15.786 -0.0792  0.0266 -0.3254
  690MPD2    C310203   0.740   2.932  15.822 -0.0830  0.7632 -0.7664
  690MPD2    C410204   0.774   2.942  15.962  0.4392  0.5739  0.0758
  690MPD2    C510205   0.690   2.896  16.057  1.1796 -0.3076  0.0197
  690MPD2     H10206   0.585   2.862  15.684  3.7870 -0.5293 -1.7254
  690MPD2    H110207   0.861   2.996  15.998  0.7444  0.8612 -1.0722
  690MPD2    H210208   0.523   2.788  16.100  2.6255 -0.4009  1.8081
  690MPD2    H310209   0.719   2.917  16.159  1.1370  1.7745 -0.4134
  690MPD2     N10210   0.828   2.983  15.720 -0.3151 -0.2911 -0.0075
  690MPD2    H510211   0.809   2.980  15.620 -1.5307  2.7449  0.1449
  690MPD2    N110212   0.433   2.725  15.842 -0.1372 -0.6047  0.4721
  690MPD2    H710213   0.424   2.702  15.744  0.6233 -2.2673  0.8049
  691TMC3    C110214   0.231   2.595  15.851 -0.3818 -0.2942  0.5354
  691TMC3    C210215   0.098   2.600  15.891  0.0568 -0.2736  0.0336
  691TMC3    C310216   0.010   2.505  15.849 -0.1323 -0.3649  0.1859
  691TMC3    C410217   0.273   2.487  15.773  0.2994  0.1756  1.3278
  691TMC3    C510218   0.180   2.393  15.729  0.1834  0.0478 -0.3525
  691TMC3    C610219   0.048   2.396  15.774 -0.2228  0.3499  0.2941
  691TMC3     C10220   0.329   2.676  15.920  0.0965 -0.8727  0.0178
  691TMC3     O10221   0.310   2.704  16.036  0.0445  0.0624  0.1070
  691TMC3     H10222   0.075   2.684  15.955  0.3779 -0.4162  0.3381
  691TMC3    H110223   0.376   2.478  15.740 -1.0106  1.1059 -2.9365
  691TMC3    H210224   4.693   2.327  15.742  0.2044  0.2887 -0.6343
  691TMC3    C710225   0.224   2.329  15.604 -0.3250  0.7431  0.2494
  691TMC3    C810226   4.600   2.500  15.910 -0.1399 -0.5677 -0.2271
  691TMC3    O110227   0.313   2.384  15.545 -0.4220 -0.1231 -0.1071
  691TMC3    O210228   4.557   2.389  15.929 -0.3580  0.2039  0.2251
  692TMC3    C110229   2.235   3.819  15.694 -0.3362  0.2197 -0.0806
  692TMC3    C210230   2.313   3.836  15.809 -0.3763  0.2877 -0.0875
  692TMC3    C310231   2.412   3.741  15.837 -0.3748 -0.0827 -0.1147
  692TMC3    C410232   2.235   3.704  15.624 -0.6972 -0.3405  1.2600
  692TMC3    C510233   2.312   3.609  15.675 -0.7161  0.0942 -0.5393
  692TMC3    C610234   2.397   3.619  15.772 -0.1067 -0.4395 -0.7099
  692TMC3     C10235   2.128   3.914  15.659 -0.1734  0.5590 -0.0599
  692TMC3     O10236   2.038   3.867  15.590  0.9838  0.2851 -0.2092
  692TMC3     H10237   2.303   3.926  15.868  0.4554 -1.0914  2.1357
  692TMC3    H110238   2.162   3.683  15.548  0.2556  2.1848 -0.3582
  692TMC3    H210239   2.483   3.553  15.772  1.2949  1.3748  1.3058
  692TMC3    C710240   2.247   3.481  15.689  0.0215  0.4326  0.3085
  692TMC3    C810241   2.443   3.721  15.976 -0.4434 -0.1138  0.2652
  692TMC3    O110242   2.178   3.443  15.593 -0.0055 -0.5702 -0.2201
  692TMC3    O210243   2.468   3.606  16.009 -0.5450  0.4448  0.6091
  693MPD2     C10244   2.008   1.633  11.002 -0.0068  0.1627 -0.6485
  693MPD2    C110245   1.956   1.560  10.898 -0.5541  0.0865 -0.1841
  693MPD2    C210246   2.045   1.498  10.815  0.6353 -0.4977  0.7043
  693MPD2    C310247   2.179   1.525  10.819 -0.2450 -0.3485  0.4546
  693MPD2    C410248   2.233   1.616  10.917  0.5504 -0.4452  0.4209
  693MPD2    C510249   2.142   1.668  11.003  0.9340 -0.0016 -0.0776
  693MPD2     H10250   1.994   1.446  10.735 -0.2601  0.9054  0.3560
  693MPD2    H110251   2.330   1.664  10.919 -0.9734  2.6452  0.1162
  693MPD2    H210252   1.945   1.697  11.063 -0.5438 -0.2051 -0.8122
  693MPD2    H310253   2.171   1.744  11.075 -0.1236  1.5582 -1.3252
  693MPD2     N10254   2.266   1.479  10.719  0.0810  0.5100 -0.0657
  693MPD2    H510255   2.352   1.533  10.709  1.0376 -0.6653  1.7666
  693MPD2    N110256   1.814   1.554  10.899  0.1324 -0.3484  0.3931
  693MPD2    H710257   1.768   1.612  10.969  0.7009  1.7074 -0.9384
  694TMC3    C110258   1.601   1.470  10.853  0.3748  0.3188  0.2305
  694TMC3    C210259   1.519   1.397  10.773 -0.4624 -0.6310 -0.1579
  694TMC3    C310260   1.396   1.357  10.816  0.4229  0.1199 -0.2212
  694TMC3    C410261   1.558   1.507  10.981 -0.7125  0.1460 -0.1127
  694TMC3    C510262   1.428   1.475  11.011 -0.0241  0.3145  0.0899
  694TMC3    C610263   1.345   1.399  10.934  0.3411  0.3902  0.3728
  694TMC3     C10264   1.735   1.488  10.806 -0.4376 -0.3743 -0.7530
  694TMC3     O10265   1.772   1.448  10.697  0.2192 -0.1910  0.1624
  694TMC3     H10266   1.556   1.359  10.678  0.8857 -0.4106  0.2870
  694TMC3    H110267   1.625   1.560  11.048 -1.2001 -0.0339  0.5174
  694TMC3    H210268   1.246   1.365  10.963 -0.2673  0.1838 -1.9225
  694TMC3    C710269   1.382   1.495  11.150  0.3872  0.0551 -0.1494
  694TMC3    C810270   1.325   1.254  10.742 -0.0647  0.4718 -0.0166
  694TMC3    O110271   1.423   1.605  11.187  0.4436 -0.1781 -0.1635
  694TMC3    O210272   1.208   1.242  10.776 -0.0864 -0.0544  0.1950
  695MPD2     C10273   2.730   3.320  13.575  0.2753 -0.4655  0.8965
  695MPD2    C110274   2.650   3.383  13.666  0.1690  0.1728  0.4438
  695MPD2    C210275   2.514   3.412  13.625  0.2026 -0.7616  0.1188
  695MPD2    C310276   2.472   3.396  13.498  0.4513 -0.7590  0.8249
  695MPD2    C410277   2.561   3.337  13.408  0.5769  0.3557 -0.6336
  695MPD2    C510278   2.686   3.300  13.449 -0.3326  0.8923 -0.0382
  695MPD2     H10279   2.446   3.437  13.706  0.6198  0.9250 -0.0575
  695MPD2    H110280   2.538   3.324  13.303 -0.5067  1.7460 -0.5677
  695MPD2    H210281   2.834   3.297  13.596  0.3039 -1.9734 -0.9693
  695MPD2    H310282   2.750   3.251  13.376 -0.6269  2.1598 -1.1457
  695MPD2     N10283   2.340   3.433  13.469 -0.1175 -0.0594 -0.6923
  695MPD2    H510284   2.283   3.482  13.537  0.2609 -0.8690  0.1985
  695MPD2    N110285   2.682   3.416  13.801 -0.2283 -0.2619  0.6457
  695MPD2    H710286   2.617   3.470  13.856 -1.1401 -0.5325 -0.1667
  696TMC3    C110287   2.156   3.460  13.329 -0.4896  0.6841  0.8079
  696TMC3    C210288   2.071   3.419  13.430  0.8227  0.3536 -0.3221
  696TMC3    C310289   1.937   3.447  13.425  0.3873  0.3795  0.8521
  696TMC3    C410290   2.109   3.534  13.228 -0.3306  0.4419 -0.0087
  696TMC3    C510291   1.976   3.563  13.225  0.0912 -0.4138 -0.1519
  696TMC3    C610292   1.892   3.502  13.315 -0.0467  0.4056 -0.7990
  696TMC3     C10293   2.296   3.441  13.341 -1.5175  0.4471 -0.3183
  696TMC3     O10294   2.366   3.437  13.239 -0.3131 -0.2610  0.0084
  696TMC3     H10295   2.101   3.364  13.518  0.5417  0.0519 -0.4166
  696TMC3    H110296   2.182   3.591  13.172  0.9378 -0.2003  1.0184
  696TMC3    H210297   1.788   3.530  13.303  0.0372  0.9698 -0.2300
  696TMC3    C710298   1.934   3.691  13.159 -0.1126 -0.3571 -0.0622
  696TMC3    C810299   1.881   3.518  13.537 -0.8156 -0.7590  1.0801
  696TMC3    O110300   1.979   3.726  13.054  0.0357  0.2903  0.0735
  696TMC3    O210301   1.826   3.629  13.515  0.3164  0.5418  0.4009
  697MPD2     C10302   1.921   0.615  15.583 -0.6945  0.2488  0.0372
  697MPD2    C110303   1.957   0.595  15.451  0.7439 -0.2805  0.9812
  697MPD2    C210304   2.001   0.699  15.371  0.8578 -0.3751  0.2551
  697MPD2    C310305   2.004   0.830  15.430  0.5095 -0.1110 -0.4992
  697MPD2    C410306   1.973   0.842  15.562  0.2626 -0.4767 -0.0737
  697MPD2    C510307   1.944   0.743  15.638 -0.4092 -0.6228 -0.4561
  697MPD2     H10308   2.012   0.686  15.264  0.8350  0.5802  0.1384
  697MPD2    H110309   1.978   0.940  15.610 -2.4583 -0.1044 -0.5118
  697MPD2    H210310   1.868   0.538  15.638  0.4186 -0.8953 -0.4917
  697MPD2    H310311   1.927   0.758  15.744  0.1770 -1.4940 -0.2351
  697MPD2     N10312   2.033   0.938  15.349  0.0959  0.5195 -0.0507
  697MPD2    H510313   2.043   0.916  15.250 -1.1516 -1.0477  0.1747
  697MPD2    N110314   1.930   0.477  15.380  0.4370 -0.0659  0.3771
  697MPD2    H710315   1.936   0.478  15.278 -1.0328 -0.4307  0.2918
  698TMC3    C110316   2.013   1.164  15.269  0.5247  0.4058 -0.0483
  698TMC3    C210317   2.070   1.283  15.294 -0.4776  0.3658 -0.2343
  698TMC3    C310318   2.118   1.358  15.187 -0.0081 -0.8784 -0.0891
  698TMC3    C410319   1.988   1.119  15.143  0.2636  0.8777  0.3339
  698TMC3    C510320   2.025   1.198  15.036 -0.3056 -0.8846 -0.1731
  698TMC3    C610321   2.092   1.316  15.055 -0.8101  0.3730 -0.2154
  698TMC3     C10322   2.016   1.070  15.386  0.3370 -0.1258  0.3129
  698TMC3     O10323   2.023   1.114  15.503  0.4017  0.2945  0.1304
  698TMC3     H10324   2.087   1.306  15.399  1.9640  2.0213 -0.9887
  698TMC3    H110325   1.936   1.029  15.113  2.3838 -0.4103  0.5491
  698TMC3    H210326   2.094   1.371  14.961  1.1436 -0.1591 -0.4952
  698TMC3    C710327   2.005   1.139  14.906  0.1540  0.1902 -0.1064
  698TMC3    C810328   2.164   1.489  15.218 -0.2453 -0.3493 -0.4780
  698TMC3    O110329   1.924   1.045  14.904 -0.0315  1.0188  0.5946
  698TMC3    O210330   2.127   1.533  15.325  0.2610 -0.2886 -0.0522
  699TMC3    C110331   1.945   3.443  12.849 -0.0405 -0.3285 -0.4113
  699TMC3    C210332   2.009   3.335  12.913  0.0042  0.1494  0.0307
  699TMC3    C310333   1.950   3.277  13.022  0.5838 -1.4028 -0.4902
  699TMC3    C410334   1.823   3.472  12.886  0.3940  0.0983 -0.2062
  699TMC3    C510335   1.768   3.409  12.988  0.2767  0.3263 -0.0673
  699TMC3    C610336   1.825   3.313  13.067  0.1523  0.3941  0.1433
  699TMC3     C10337   1.984   3.487  12.717  0.8224  0.2849  0.3231
  699TMC3     O10338   1.910   3.559  12.649 -0.4957 -0.0380 -0.0222
  699TMC3     H10339   2.105   3.300  12.878  0.5971  1.0354  0.7688
  699TMC3    H110340   1.772   3.551  12.831  0.2261 -1.7093 -2.6559
  699TMC3    H210341   1.782   3.280  13.160 -3.6520  0.2524 -1.6585
  699TMC3    C710342   1.624   3.410  12.992 -0.7349 -0.3143  0.0320
  699TMC3    C810343   2.007   3.169  13.093  0.0921 -0.3722  0.5183
  699TMC3    O110344   1.571   3.521  12.983  0.0843 -0.1459 -0.1730
  699TMC3    O210345   1.926   3.114  13.166 -0.0291  0.2972  0.2690
  700TMC3    C110346   1.426   0.933  17.247  0.7296 -0.5233 -0.0919
  700TMC3    C210347   1.446   0.799  17.277  0.1568  0.5287  0.4912
  700TMC3    C310348   1.503   0.770  17.401 -0.3714 -0.1678  0.2377
  700TMC3    C410349   1.447   1.030  17.340 -0.4813  0.1651 -0.0692
  700TMC3    C510350   1.503   0.992  17.463  0.0070  0.4834  0.1228
  700TMC3    C610351   1.521   0.862  17.505 -0.0913 -0.2359 -0.0567
  700TMC3     C10352   1.400   0.971  17.110  0.2948 -0.1880 -0.4419
  700TMC3     O10353   1.366   0.887  17.026 -0.1274  0.2176  0.1836
  700TMC3     H10354   1.431   0.727  17.197 -0.6742  0.9013  0.3120
  700TMC3    H110355   1.416   1.132  17.321 -0.3420  0.3086  0.4817
  700TMC3    H210356   1.596   0.849  17.582 -1.3915  0.1864  1.2676
  700TMC3    C710357   1.522   1.105  17.550 -0.2062  0.2106 -0.2104
  700TMC3    C810358   1.575   0.641  17.416  0.5448  0.0079  0.8788
  700TMC3    O110359   1.548   1.209  17.493 -0.2428 -0.0093  0.6068
  700TMC3    O210360   1.630   0.619  17.524  0.0956  0.5368  0.6134
  701TMC3    C110361   1.045   4.509  15.013  0.4372  0.5198 -0.2186
  701TMC3    C210362   1.080   4.509  14.878  0.3232  0.5212  0.0392
  701TMC3    C310363   1.168   4.611  14.833 -0.5610  0.3746 -0.4343
  701TMC3    C410364   1.086   4.609  15.094 -0.2038  0.8272  0.7228
  701TMC3    C510365   1.167   4.707  15.041  0.2281  0.7455 -0.9271
  701TMC3    C610366   1.220   4.710  14.914  0.4037 -0.2901  0.1013
  701TMC3     C10367   0.935   4.427  15.059  0.7383 -0.1871  0.2541
  701TMC3     O10368   0.952   4.392  15.175  0.0476  0.4865  0.0820
  701TMC3     H10369   1.036   4.431  14.817 -0.5296  1.3539 -0.4250
  701TMC3    H110370   1.037   4.622  15.189 -0.8365 -2.0570  0.8001
  701TMC3    H210371   1.282   0.070  14.880  1.1760 -1.7237 -1.9412
  701TMC3    C710372   1.222   0.089  15.126  1.1359  0.4846 -0.0649
  701TMC3    C810373   1.234   4.603  14.700 -0.6625 -0.1486  0.4475
  701TMC3    O110374   1.253   0.189  15.065 -0.3125  0.1258 -0.4429
  701TMC3    O210375   1.354   4.642  14.699 -0.6694 -0.9244 -0.3138
  702MPD2     C10376   0.876   1.751  10.627  0.0991 -0.6395 -0.2315
  702MPD2    C110377   0.792   1.858  10.640  0.1961  0.2385 -0.3047
  702MPD2    C210378   0.773   1.946  10.537 -0.1282 -0.1148 -0.2237
  702MPD2    C310379   0.862   1.951  10.433 -0.1428 -0.0561  0.7503
  702MPD2    C410380   0.953   1.849  10.428  0.1669 -0.2354  0.4160
  702MPD2    C510381   0.955   1.747  10.517  0.0038  0.4012  1.0155
  702MPD2     H10382   0.691   2.017  10.545 -1.8814 -2.0093 -1.1219
  702MPD2    H110383   1.033   1.841  10.355 -1.1358  1.8469 -1.2577
  702MPD2    H210384   0.892   1.674  10.701 -0.3999 -2.5546 -2.1249
  702MPD2    H310385   1.019   1.660  10.509 -0.9904 -0.3105  0.7937
  702MPD2     N10386   0.869   2.062  10.343 -0.0952 -0.4742 -0.2109
  702MPD2    H510387   0.953   2.073  10.288 -1.2176  1.0338 -1.6036
  702MPD2    N110388   0.718   1.873  10.760 -0.0556 -0.2307  0.8324
  702MPD2    H710389   0.652   1.950  10.753  1.0217  0.4238 -2.0077
  703TMC3    C110390   0.810   2.276  10.262 -0.8519  0.1190 -0.6234
  703TMC3    C210391   0.709   2.356  10.230 -0.2278  0.1091  0.3154
  703TMC3    C310392   0.734   2.487  10.206  0.5247 -0.0506 -0.1901
  703TMC3    C410393   0.937   2.315  10.276 -0.0159  0.0274  0.1492
  703TMC3    C510394   0.957   2.446  10.248 -0.0632 -0.3714 -0.4357
  703TMC3    C610395   0.858   2.534  10.209  0.9330  0.7144  0.1868
  703TMC3     C10396   0.773   2.158  10.334 -0.0395  0.2129  0.1743
  703TMC3     O10397   0.655   2.151  10.359 -0.1833  0.3021  0.0838
  703TMC3     H10398   0.609   2.317  10.214 -0.7839  1.0833  1.3956
  703TMC3    H110399   1.015   2.244  10.303  0.1919 -0.0924 -0.7774
  703TMC3    H210400   0.880   2.637  10.183  1.4801  0.5918  0.1816
  703TMC3    C710401   1.092   2.505  10.266 -0.1371 -0.1092 -0.1277
  703TMC3    C810402   0.628   2.567  10.149 -0.0967  0.3002  0.2086
  703TMC3    O110403   1.119   2.620  10.226 -0.4822  0.3289 -0.0591
  703TMC3    O210404   0.655   2.623  10.046 -0.3753 -0.0228 -0.8121
  704TMC3    C110405   2.813   0.667  12.155 -0.1210  0.1986 -0.1911
  704TMC3    C210406   2.944   0.678  12.121 -0.1362  0.1186  0.0841
  704TMC3    C310407   3.029   0.591  12.171  0.4487 -0.6504 -0.3254
  704TMC3    C410408   2.771   0.573  12.251 -0.6982  0.5737 -0.3667
  704TMC3    C510409   2.863   0.483  12.296  0.2633  0.8706 -0.0701
  704TMC3    C610410   2.990   0.496  12.262 -0.9945  0.0097  0.0855
  704TMC3     C10411   2.723   0.725  12.058 -0.5758  0.3864 -0.0417
  704TMC3     O10412   2.617   0.770  12.084  0.4020  0.1180 -0.0016
  704TMC3     H10413   2.985   0.751  12.052 -1.0888  1.0528  0.5057
  704TMC3    H110414   2.668   0.567  12.284 -0.7521 -0.2227 -0.6681
  704TMC3    H210415   3.044   0.403  12.276 -0.5580 -0.1665 -2.7139
  704TMC3    C710416   2.824   0.348  12.262 -0.8127 -0.2787  0.4946
  704TMC3    C810417   3.141   0.566  12.087  0.0481  0.4890 -0.4918
  704TMC3    O110418   2.882   0.286  12.172 -0.0607  0.1606 -0.3682
  704TMC3    O210419   3.130   0.588  11.970  0.4639  0.1932  0.0413
  705MPD2     C10420   2.677   3.402  16.525 -0.1260 -0.0063 -0.2984
  705MPD2    C110421   2.590   3.442  16.427  0.1612  0.5941 -0.2030
  705MPD2    C210422   2.454   3.450  16.450 -0.5408  0.2418 -0.5191
  705MPD2    C310423   2.401   3.431  16.582  0.4287 -0.1745 -0.3423
  705MPD2    C410424   2.493   3.389  16.673 -0.2409 -0.0176  0.1771
  705MPD2    C510425   2.628   3.381  16.652 -0.0276  0.1813 -0.0006
  705MPD2     H10426   2.396   3.473  16.362 -1.9643 -0.5859  0.2035
  705MPD2    H110427   2.468   3.362  16.775  1.7181 -1.6765  0.2164
  705MPD2    H210428   2.782   3.387  16.502 -0.4798 -2.4459 -0.3227
  705MPD2    H310429   2.683   3.331  16.731  0.4268  0.6092 -0.0383
  705MPD2     N10430   2.275   3.472  16.630  0.1268  1.2447  0.4127
  705MPD2    H510431   2.258   3.474  16.730  0.0096 -0.6467  0.4228
  705MPD2    N110432   2.641   3.464  16.292 -0.0105  0.0521  0.1512
  705MPD2    H710433   2.579   3.465  16.211 -0.8214 -0.3422  0.7670
  706TMC3    C110434   2.776   3.470  15.916 -0.3872 -0.0422 -0.1309
  706TMC3    C210435   2.770   3.601  15.883 -0.2873  0.1361 -0.6179
  706TMC3    C310436   2.793   3.699  15.967  0.2344 -0.0250  0.1965
  706TMC3    C410437   2.780   3.426  16.047 -0.3325 -0.4280  0.0774
  706TMC3    C510438   2.784   3.533  16.137 -0.7316  0.1566 -0.5166
  706TMC3    C610439   2.797   3.670  16.103  0.5537  0.8039  0.1177
  706TMC3     C10440   2.764   3.381  15.804 -0.4044  0.0293  0.8072
  706TMC3     O10441   2.801   3.422  15.692  0.1219  0.4544 -0.3593
  706TMC3     H10442   2.738   3.624  15.783  0.9501 -0.4554 -1.1469
  706TMC3    H110443   2.769   3.325  16.085 -0.2409 -0.8877 -1.1107
  706TMC3    H210444   2.793   3.744  16.182  0.9690  0.0985  0.8079
  706TMC3    C710445   2.771   3.509  16.272 -0.7489  0.0075 -0.5536
  706TMC3    C810446   2.802   3.836  15.936  0.0405 -0.6995 -0.4914
  706TMC3    O110447   2.852   3.555  16.351  0.1538 -0.2966  0.7931
  706TMC3    O210448   2.732   3.867  15.840  0.1807 -0.7571  0.0871
  707TMC3    C110449   3.342   1.604   0.831  0.7875 -0.5394  0.7301
  707TMC3    C210450   3.322   1.472   0.835  0.5227 -0.1365 -0.3965
  707TMC3    C310451   3.255   1.420   0.723 -0.1279 -0.3694 -0.3356
  707TMC3    C410452   3.292   1.678   0.725 -0.0468  0.0622  0.8993
  707TMC3    C510453   3.237   1.621   0.611 -0.5259  0.4032  0.1976
  707TMC3    C610454   3.212   1.485   0.614 -0.6035  0.5709 -0.0648
  707TMC3     C10455   3.458   1.661   0.899 -0.0906 -0.7073  0.0494
  707TMC3     O10456   3.502   1.770   0.862 -0.6375 -0.0821 -0.0603
  707TMC3     H10457   3.350   1.413   0.921  2.1132  0.1145 -0.7382
  707TMC3    H110458   3.318   1.783   0.727 -1.8632  0.4825  2.4500
  707TMC3    H210459   3.181   1.421   0.532 -2.0218  4.5567 -2.6543
  707TMC3    C710460   3.279   1.686   0.491  0.2886 -0.1207 -0.7758
  707TMC3    C810461   3.274   1.275   0.706 -0.2568  0.2582 -0.4381
  707TMC3    O110462   3.313   1.800   0.513 -0.5286  0.5478  0.3864
  707TMC3    O210463   3.198   1.209   0.641 -0.5869  0.1303  0.0130
  708MPD2     C10464   0.833   2.207  13.735 -0.3072 -0.0049 -0.2658
  708MPD2    C110465   0.748   2.251  13.837  0.3573  0.1541 -0.3818
  708MPD2    C210466   0.787   2.244  13.969 -0.3440  0.3740  0.1633
  708MPD2    C310467   0.916   2.196  14.002  0.3556 -0.1623  0.3865
  708MPD2    C410468   1.001   2.168  13.901  0.8006 -0.0499 -0.4967
  708MPD2    C510469   0.960   2.174  13.770  0.5429 -0.3139  0.4824
  708MPD2     H10470   0.720   2.280  14.047  0.2113 -1.9941  1.7413
  708MPD2    H110471   1.103   2.133  13.915  1.3651  2.0970  0.7115
  708MPD2    H210472   0.820   2.225  13.629  0.9108  0.5531 -0.3284
  708MPD2    H310473   1.040   2.144  13.704  1.8760 -2.5277  3.0860
  708MPD2     N10474   0.966   2.183  14.132  0.1506 -0.5683  0.5040
  708MPD2    H510475   1.063   2.164  14.153  0.2502 -1.7408 -1.0520
  708MPD2    N110476   0.617   2.281  13.792  0.0100 -0.2732 -0.0032
  708MPD2    H710477   0.584   2.256  13.699 -0.9917 -0.4059  0.3888
  709TMC3    C110478   0.386   2.311  13.837 -0.2567 -0.0957  0.1449
  709TMC3    C210479   0.357   2.221  13.732 -0.1282 -0.3373 -0.2086
  709TMC3    C310480   0.258   2.122  13.753  0.3430  0.8744 -0.1756
  709TMC3    C410481   0.327   2.298  13.958 -0.4659  0.1449  0.0994
  709TMC3    C510482   0.231   2.199  13.973 -0.3916 -0.1003 -0.0619
  709TMC3    C610483   0.193   2.113  13.869 -0.1448 -0.0637 -0.0058
  709TMC3     C10484   0.525   2.346  13.866 -0.0280 -0.3912 -0.1950
  709TMC3     O10485   0.548   2.404  13.971  0.2397 -0.2957  0.1707
  709TMC3     H10486   0.392   2.246  13.633 -0.7409  1.9124  0.1502
  709TMC3    H110487   0.343   2.378  14.030  1.1398  0.9133 -1.1080
  709TMC3    H210488   0.100   2.057  13.880  2.3329 -3.9239  1.1759
  709TMC3    C710489   0.194   2.158  14.107 -0.3046  0.4288  0.4372
  709TMC3    C810490   0.203   2.044  13.645  0.0599 -0.0706 -0.3329
  709TMC3    O110491   0.120   2.059  14.118 -0.4044  0.4615 -0.2559
  709TMC3    O210492   0.101   1.981  13.668 -0.7207 -0.2637 -0.7064
  710TMC3    C110493   1.627   2.984   0.323 -0.1473  0.1360  0.0163
  710TMC3    C210494   1.703   3.058   0.235 -0.1665 -0.3502 -0.1054
  710TMC3    C310495   1.825   3.010   0.204 -0.6684 -0.3106 -0.7204
  710TMC3    C410496   1.664   2.874   0.389 -0.2938 -0.0647 -0.2318
  710TMC3    C510497   1.781   2.820   0.343  0.1132  0.1957 -0.2228
  710TMC3    C610498   1.863   2.887   0.255 -0.3554  0.1235  0.2552
  710TMC3     C10499   1.508   3.061   0.375 -0.4762 -0.2390  0.1009
  710TMC3     O10500   1.464   3.149   0.307 -0.8115  0.2414 -0.3692
  710TMC3     H10501   1.657   3.137   0.178  1.8714  1.0385  0.2043
  710TMC3    H110502   1.595   2.812   0.444 -0.6602  1.7519  1.3542
  710TMC3    H210503   1.956   2.850   0.213  0.8520  1.7354  1.4896
  710TMC3    C710504   1.803   2.680   0.385 -0.1792  0.0353 -0.4896
  710TMC3    C810505   1.918   3.089   0.119 -0.5744 -0.3732  0.1047
  710TMC3    O110506   1.746   2.653   0.488 -0.2562  0.9602 -0.7295
  710TMC3    O210507   2.011   3.038   0.062 -0.2535  0.4608  0.3831
  711TMC3    C110508   1.818   4.395  14.725 -0.6917  0.3434 -0.5365
  711TMC3    C210509   1.844   4.467  14.842  0.4581 -0.0239  0.2418
  711TMC3    C310510   1.968   4.471  14.890 -0.2038 -0.1309  0.6669
  711TMC3    C410511   1.922   4.333  14.661 -0.3776 -0.0094  0.1325
  711TMC3    C510512   2.050   4.331  14.712  0.0488  0.1445  0.0389
  711TMC3    C610513   2.076   4.409  14.824  0.6255 -0.1703  0.2390
  711TMC3     C10514   1.685   4.338  14.702  0.0204  0.5369 -0.1855
  711TMC3     O10515   1.677   4.258  14.610 -0.4059  0.6539  0.0646
  711TMC3     H10516   1.763   4.527  14.881 -0.0529 -1.4111  1.3134
  711TMC3    H110517   1.907   4.286  14.564  0.2884  1.5580 -0.7337
  711TMC3    H210518   2.175   4.397  14.865  1.0869 -0.7107 -1.0509
  711TMC3    C710519   2.119   4.206  14.717 -0.2108  0.0559 -0.4553
  711TMC3    C810520   1.974   4.493  15.032 -0.4724  0.3241 -0.0834
  711TMC3    O110521   2.223   4.199  14.780 -0.0634  0.0314 -0.5798
  711TMC3    O210522   1.866   4.510  15.086  0.4632  0.1825  0.0698
  712MPD2     C10523   2.903   0.419  13.505  1.2711  0.0312 -0.0866
  712MPD2    C110524   2.813   0.495  13.435  0.1245 -0.1380 -0.0351
  712MPD2    C210525   2.854   0.619  13.395  0.5085  0.8342 -0.8817
  712MPD2    C310526   2.978   0.671  13.430 -0.5824  0.4319  0.4445
  712MPD2    C410527   3.069   0.593  13.500  0.2742 -0.6347 -0.6963
  712MPD2    C510528   3.037   0.462  13.533  0.9481  0.2312  0.4769
  712MPD2     H10529   2.786   0.671  13.328  0.4377 -0.3455 -1.7288
  712MPD2    H110530   3.168   0.617  13.538  0.2669 -2.1903  0.3055
  712MPD2    H210531   2.879   0.320  13.541  0.9757 -0.0425 -0.4761
  712MPD2    H310532   3.117   0.407  13.582 -0.8278 -3.5078 -0.8888
  712MPD2     N10533   3.025   0.796  13.383 -0.2429 -0.2330 -0.3998
  712MPD2    H510534   3.112   0.829  13.425 -0.5508 -0.0718  0.1130
  712MPD2    N110535   2.694   0.448  13.382 -0.0013 -0.7465  0.1736
  712MPD2    H710536   2.641   0.517  13.329  1.0872  0.9016  1.2154
  713TMC3    C110537   3.001   1.017  13.318  0.2052 -0.1479  0.8313
  713TMC3    C210538   3.123   1.045  13.374  0.3169 -0.3208 -0.6343
  713TMC3    C310539   3.155   1.178  13.401  0.2433 -0.3812 -0.7719
  713TMC3    C410540   2.907   1.110  13.311 -0.2755  1.0999 -0.0256
  713TMC3    C510541   2.940   1.241  13.343 -0.4256 -0.1368 -0.3241
  713TMC3    C610542   3.066   1.281  13.378 -0.3403  0.5451 -0.6992
  713TMC3     C10543   2.954   0.883  13.312  0.6379  0.6272 -0.6775
  713TMC3     O10544   2.859   0.857  13.237 -0.2334 -0.6585 -0.1534
  713TMC3     H10545   3.205   0.977  13.355  0.4552 -0.1204 -0.7568
  713TMC3    H110546   2.808   1.081  13.276  0.4976 -1.1618 -0.3761
  713TMC3    H210547   3.107   1.380  13.394 -1.4939  0.6863  1.3429
  713TMC3    C710548   2.841   1.347  13.309  0.6543  0.4232  0.1377
  713TMC3    C810549   3.291   1.214  13.426 -0.2468 -0.4902 -0.0921
  713TMC3    O110550   2.746   1.316  13.240 -0.2730  0.9200  0.8489
  713TMC3    O210551   3.315   1.335  13.440  0.0517  0.4017  0.1395
  714MPD2     C10552   0.610   3.401   1.244 -0.5926  0.5845 -0.0634
  714MPD2    C110553   0.516   3.370   1.150 -0.6969 -0.3999  0.2300
  714MPD2    C210554   0.445   3.474   1.099 -0.4182 -0.7588 -0.5948
  714MPD2    C310555   0.442   3.597   1.157 -0.3083 -0.1978 -0.1906
  714MPD2    C410556   0.527   3.627   1.266 -0.5320 -0.1043  0.3986
  714MPD2    C510557   0.612   3.524   1.299 -0.4086 -0.3831 -0.8318
  714MPD2     H10558   0.379   3.441   1.019  0.0075  0.0283 -1.2656
  714MPD2    H110559   0.530   3.724   1.314 -0.0393  0.2234 -0.2853
  714MPD2    H210560   0.669   3.323   1.289  1.9402  1.7921 -1.3111
  714MPD2    H310561   0.701   3.551   1.355  0.3337 -0.1532 -2.1288
  714MPD2     N10562   0.364   3.702   1.094 -0.1907  0.3320  0.7052
  714MPD2    H510563   0.303   3.681   1.016  1.2894  0.1645 -0.3870
  714MPD2    N110564   0.508   3.233   1.105 -0.0675 -0.4158  0.5922
  714MPD2    H710565   0.568   3.170   1.158 -1.1799 -2.8057 -0.9760
  715TMC3    C110566   0.403   3.040   1.047  0.4253 -0.4242  0.1338
  715TMC3    C210567   0.413   2.949   0.946 -0.1352  0.4538 -0.3647
  715TMC3    C310568   0.422   2.818   0.978  0.0429 -0.0036  0.1409
  715TMC3    C410569   0.389   3.005   1.179 -0.2918  0.5323  0.2793
  715TMC3    C510570   0.404   2.875   1.204 -0.2929 -0.3128  0.1176
  715TMC3    C610571   0.426   2.776   1.111  0.1324  0.5013  0.0775
  715TMC3     C10572   0.413   3.180   1.020 -0.3146 -0.3692 -0.0988
  715TMC3     O10573   0.355   3.242   0.935 -0.4767  0.0256 -0.3596
  715TMC3     H10574   0.384   2.978   0.846  0.4359  0.1149 -0.6325
  715TMC3    H110575   0.370   3.078   1.258 -0.6493  0.6577  0.0808
  715TMC3    H210576   0.430   2.671   1.140  3.2701  0.9451  1.3492
  715TMC3    C710577   0.397   2.843   1.343  0.2178  0.5217  0.2953
  715TMC3    C810578   0.477   2.727   0.881  0.4051 -0.3512  0.6068
  715TMC3    O110579   0.382   2.939   1.421  0.3685 -0.4372  0.0524
  715TMC3    O210580   0.447   2.733   0.763  0.6103 -0.4101  0.7374
  716MPD2     C10581   0.863   1.891  10.033 -0.4279 -0.2667 -0.1776
  716MPD2    C110582   0.941   1.926   9.933 -0.1156 -0.6053 -0.2510
  716MPD2    C210583   1.057   1.852   9.917 -0.6741  0.0210  1.1271
  716MPD2    C310584   1.088   1.743   9.995 -0.1263  0.1677 -0.0285
  716MPD2    C410585   1.003   1.710  10.094  0.2132  0.1098 -0.0153
  716MPD2    C510586   0.892   1.779  10.111 -0.2051  0.6055 -0.4856
  716MPD2     H10587   1.138   1.883   9.853 -1.4881 -0.6410 -0.2148
  716MPD2    H110588   1.024   1.629  10.163 -0.4436 -0.7686 -0.8379
  716MPD2    H210589   0.776   1.952  10.053  0.9030  0.4871  3.3213
  716MPD2    H310590   0.811   1.759  10.180  0.3164  1.5299  0.3948
  716MPD2     N10591   1.208   1.676   9.958 -0.3200  0.1259 -0.3466
  716MPD2    H510592   1.253   1.694   9.869 -1.2339 -0.0295 -0.8412
  716MPD2    N110593   0.912   2.045   9.862 -0.0292  0.1411 -0.0097
  716MPD2    H710594   0.823   2.087   9.887  0.0200 -0.1641  0.6790
  717TMC3    C110595   1.385   1.527   9.978 -0.1444  0.3082  0.4199
  717TMC3    C210596   1.471   1.604   9.896 -0.5211  0.3025 -0.7319
  717TMC3    C310597   1.578   1.549   9.823  0.2232  0.5159  0.4338
  717TMC3    C410598   1.411   1.390   9.990  0.7401  0.1156  0.3216
  717TMC3    C510599   1.507   1.343   9.904  0.2220 -0.6136 -0.0570
  717TMC3    C610600   1.582   1.411   9.818 -0.0411 -0.6755 -0.1476
  717TMC3     C10601   1.270   1.576  10.039 -0.8499 -0.3359 -0.9782
  717TMC3     O10602   1.255   1.544  10.154  0.2789 -0.4123 -0.1194
  717TMC3     H10603   1.450   1.709   9.879  1.0595  0.5174 -1.3646
  717TMC3    H110604   1.350   1.321  10.047 -0.6522  0.0348 -1.2682
  717TMC3    H210605   1.635   1.363   9.736  0.9055  0.5126 -0.2293
  717TMC3    C710606   1.510   1.197   9.886  0.4980 -0.1894  0.3733
  717TMC3    C810607   1.606   1.603   9.687  0.0661 -1.0548  0.0423
  717TMC3    O110608   1.518   1.160   9.770 -0.1370  0.2101 -0.1994
  717TMC3    O210609   1.509   1.650   9.627  0.7826  0.0967  0.4353
  718MPD2     C10610   4.683   1.147  13.134 -0.1610  0.2430 -1.3036
  718MPD2    C110611   4.614   1.102  13.025 -0.6792  0.3959 -0.2895
  718MPD2    C210612   4.589   0.970  13.008  0.3172 -0.5903 -0.1116
  718MPD2    C310613   4.624   0.878  13.107  0.1301 -0.5833 -0.0661
  718MPD2    C410614   4.702   0.925  13.208  0.2296  0.0178  0.3017
  718MPD2    C510615   0.007   1.057  13.227 -0.2035 -0.5096  0.1694
  718MPD2     H10616   4.532   0.930  12.925 -0.6426 -0.7684  0.6262
  718MPD2    H110617   0.029   0.862  13.281  0.4559 -2.6617 -2.1763
  718MPD2    H210618   4.722   1.248  13.140 -0.1124  0.0046  2.5911
  718MPD2    H310619   0.059   1.090  13.317  1.1413 -0.6156 -0.5579
  718MPD2     N10620   4.593   0.746  13.083 -0.5829  0.3167  0.5798
  718MPD2    H510621   4.555   0.729  12.990  1.7200 -0.4467 -0.2177
  718MPD2    N110622   4.569   1.201  12.930 -0.3713  0.3131  0.2412
  718MPD2    H710623   4.579   1.300  12.950  1.2837  0.2205 -0.1183
  719TMC3    C110624   4.526   1.276  12.706  0.1616 -0.5796 -0.3982
  719TMC3    C210625   4.468   1.236  12.584 -0.0290  0.1532 -0.6931
  719TMC3    C310626   4.533   1.254  12.462  0.1475  0.0090  0.3213
  719TMC3    C410627   4.646   1.346  12.702  0.0401  0.2778  0.1342
  719TMC3    C510628   4.689   1.381  12.577 -1.1064 -0.5655  0.8125
  719TMC3    C610629   4.640   1.336  12.461 -0.3528  0.4039 -0.1048
  719TMC3     C10630   4.518   1.176  12.805 -0.5574 -0.1602  0.3559
  719TMC3     O10631   4.478   1.070  12.756  0.1423  0.2234 -0.0770
  719TMC3     H10632   4.374   1.182  12.571  0.4548 -0.8635  0.0997
  719TMC3    H110633   4.705   1.380  12.786 -0.2514 -2.9643  1.6481
  719TMC3    H210634   4.691   1.345  12.366 -0.3878  0.8966 -0.0789
  719TMC3    C710635   0.104   1.432  12.579 -0.8078  0.0142 -0.8226
  719TMC3    C810636   4.551   1.125  12.398 -0.0809 -0.3141  0.3874
  719TMC3    O110637   0.173   1.398  12.675 -0.4742 -0.9512 -0.0459
  719TMC3    O210638   4.602   1.120  12.289  0.2590 -0.5803  0.3961
  720MPD2     C10639   2.953   2.791  13.942 -0.1047  0.2677 -0.1771
  720MPD2    C110640   3.051   2.820  13.844  1.0531 -0.4979  0.5547
  720MPD2    C210641   3.184   2.802  13.875 -0.0879 -0.3327  0.2301
  720MPD2    C310642   3.219   2.766  14.006  0.5187 -0.8150 -0.0259
  720MPD2    C410643   3.125   2.743  14.098  0.7035  0.5189  0.2546
  720MPD2    C510644   2.990   2.759  14.071 -0.3396  0.1359  0.0527
  720MPD2     H10645   3.263   2.805  13.802  0.5604  2.2239  1.0386
  720MPD2    H110646   3.150   2.699  14.194 -0.8668 -1.8248 -0.4161
  720MPD2    H210647   2.845   2.801  13.931  0.1836  2.7645 -0.5640
  720MPD2    H310648   2.916   2.738  14.147  0.0120 -2.5229 -0.3376
  720MPD2     N10649   3.356   2.741  14.034  0.3025 -0.0961 -0.4762
  720MPD2    H510650   3.419   2.755  13.955  2.0491 -1.7365  0.6437
  720MPD2    N110651   3.012   2.850  13.711  0.0211 -0.2490  0.1038
  720MPD2    H710652   3.080   2.894  13.650 -0.4101  0.4613  0.1272
  721TMC3    C110653   3.565   2.705  14.154  0.0701 -0.7957 -0.5154
  721TMC3    C210654   3.632   2.686  14.277 -0.2411 -0.5700  0.6656
  721TMC3    C310655   3.770   2.702  14.281  0.4921  0.4589  0.7287
  721TMC3    C410656   3.631   2.736  14.038  0.4080  0.8368 -0.4135
  721TMC3    C510657   3.775   2.752  14.055  0.1715 -0.2816  0.3233
  721TMC3    C610658   3.839   2.723  14.168 -0.5741  0.1600  0.1708
  721TMC3     C10659   3.420   2.706  14.154 -0.0140  0.9219 -0.0185
  721TMC3     O10660   3.373   2.670  14.261 -0.1720  0.0254 -0.8333
  721TMC3     H10661   3.575   2.681  14.369  1.0130  0.9793  1.5184
  721TMC3    H110662   3.591   2.788  13.952  3.8705  2.4664 -1.0476
  721TMC3    H210663   3.946   2.739  14.179 -0.6045  0.6708 -0.2496
  721TMC3    C710664   3.867   2.763  13.947  0.7390 -0.2762  0.3620
  721TMC3    C810665   3.849   2.686  14.399  0.1089  0.1124  0.0805
  721TMC3    O110666   3.977   2.808  13.979 -0.0730 -0.3416 -0.0372
  721TMC3    O210667   3.968   2.714  14.394  0.0626  0.9044  0.1247
  722MPD2     C10668   2.028   1.198  12.812 -0.5106  0.5746 -0.2294
  722MPD2    C110669   1.940   1.282  12.872  0.5213  0.7160  0.0786
  722MPD2    C210670   1.804   1.260  12.851 -0.0457  0.1600  0.2656
  722MPD2    C310671   1.753   1.151  12.784  0.9214  1.0248  0.2586
  722MPD2    C410672   1.841   1.065  12.726 -0.0470  0.7973  0.3476
  722MPD2    C510673   1.974   1.089  12.745  0.3375 -0.1708 -0.0044
  722MPD2     H10674   1.733   1.324  12.902  0.4190  0.6666  0.2687
  722MPD2    H110675   1.800   0.985  12.665 -2.2098  0.8639  1.6850
  722MPD2    H210676   2.136   1.208  12.820 -0.1412 -2.6939 -1.3958
  722MPD2    H310677   2.051   1.020  12.711  0.5351  0.5414 -0.9969
  722MPD2     N10678   1.610   1.144  12.780  0.0364  0.3000  0.0233
  722MPD2    H510679   1.559   1.212  12.836  0.4393 -0.5640  1.4513
  722MPD2    N110680   1.973   1.397  12.942 -0.7267  0.5549  1.4179
  722MPD2    H710681   1.893   1.458  12.953  0.0639  2.2587 -2.3817
  723TMC3    C110682   1.409   1.023  12.792 -0.1533  1.5023  0.0444
  723TMC3    C210683   1.349   0.905  12.832  0.2802 -0.2874  0.0468
  723TMC3    C310684   1.239   0.918  12.917  0.1592  0.2273  0.5920
  723TMC3    C410685   1.347   1.144  12.811 -0.3945 -0.0561  0.1300
  723TMC3    C510686   1.223   1.146  12.876  0.5938  0.2794  0.0957
  723TMC3    C610687   1.163   1.034  12.929 -0.3070  0.2129 -0.3759
  723TMC3     C10688   1.546   1.026  12.740 -0.8577  0.3803  0.3821
  723TMC3     O10689   1.583   0.919  12.696 -0.2101 -0.1002  0.5843
  723TMC3     H10690   1.399   0.810  12.822  0.8510  0.1319 -1.1460
  723TMC3    H110691   1.386   1.238  12.775 -1.2609 -0.6053 -2.2083
  723TMC3    H210692   1.066   1.042  12.976  0.5255 -0.6806  1.5075
  723TMC3    C710693   1.179   1.273  12.922  0.0596 -0.0331 -0.3730
  723TMC3    C810694   1.172   0.805  12.972  1.2847  0.1325  0.1692
  723TMC3    O110695   1.256   1.370  12.914  0.5657  0.1934  0.4590
  723TMC3    O210696   1.073   0.823  13.048 -0.0690 -0.4934  0.7287
  724TMC3    C110697   2.445   4.665   9.189 -0.0456  0.5276 -0.0152
  724TMC3    C210698   2.485   0.065   9.145  0.1509 -0.4067 -0.2551
  724TMC3    C310699   2.572   0.146   9.221 -0.3341 -0.5342  0.0547
  724TMC3    C410700   2.516   4.612   9.295  0.6116  0.5601 -0.3565
  724TMC3    C510701   2.610   4.683   9.355 -0.3108 -0.2873  1.3709
  724TMC3    C610702   2.627   0.091   9.338 -0.6435  0.7304  0.1309
  724TMC3     C10703   2.361   4.588   9.100 -0.0849 -0.0399 -0.3811
  724TMC3     O10704   2.321   4.663   9.007 -0.2128  0.6612  0.5199
  724TMC3     H10705   2.430   0.110   9.063  2.1269 -0.6996 -1.7296
  724TMC3    H110706   2.498   4.508   9.319  1.4017  0.8695  1.5242
  724TMC3    H210707   2.695   0.143   9.405  0.9860 -0.2418 -0.7620
  724TMC3    C710708   2.711   4.605   9.420  0.0519 -0.0214 -0.6277
  724TMC3    C810709   2.558   0.290   9.206  0.1397  0.4795  0.1381
  724TMC3    O110710   2.673   4.500   9.473  0.7578 -0.8601 -0.0664
  724TMC3    O210711   2.456   0.336   9.152 -0.2936  0.4213  0.1294
  725TMC3    C110712   4.121   3.022  12.448  0.2088 -0.6836  0.4866
  725TMC3    C210713   4.054   2.983  12.336 -0.2941 -0.2763  0.4712
  725TMC3    C310714   4.058   2.859  12.289 -0.5920 -0.4106  0.8263
  725TMC3    C410715   4.199   2.932  12.519  0.5260  0.4615  0.2400
  725TMC3    C510716   4.212   2.807  12.464 -0.2660  0.3264  0.6962
  725TMC3    C610717   4.130   2.770  12.357 -0.1656 -0.0304 -0.2782
  725TMC3     C10718   4.133   3.159  12.478 -0.6018  0.9330  0.1287
  725TMC3     O10719   4.214   3.181  12.571  0.5941  0.8124  0.0473
  725TMC3     H10720   3.981   3.050  12.292 -0.4835 -0.8683 -0.1206
  725TMC3    H110721   4.243   2.963  12.613  0.7596  1.8854 -0.3305
  725TMC3    H210722   4.131   2.667  12.322 -0.7047  0.5019 -1.8554
  725TMC3    C710723   4.301   2.712  12.532  0.0037 -0.0654 -0.4896
  725TMC3    C810724   3.981   2.820  12.172 -0.1073 -1.6585 -0.5553
  725TMC3    O110725   4.343   2.748  12.643 -0.2039 -0.3533 -0.2722
  725TMC3    O210726   3.948   2.703  12.173  0.5611 -0.3209  0.1969
  726MPD2     C10727   1.780   4.591   9.479 -0.4966  0.0791 -0.4526
  726MPD2    C110728   1.838   4.588   9.607  0.0798 -0.0638  0.4107
  726MPD2    C210729   1.843   4.465   9.679 -0.0855  0.1946 -0.3657
  726MPD2    C310730   1.786   4.357   9.616  0.0774 -0.4063  0.5607
  726MPD2    C410731   1.754   4.359   9.483  0.2093  0.0432 -0.0394
  726MPD2    C510732   1.743   4.476   9.418  0.2716 -0.2881  0.0395
  726MPD2     H10733   1.889   4.462   9.777 -0.2571 -1.4093 -0.3449
  726MPD2    H110734   1.718   4.275   9.426  0.4860 -0.4293  0.4766
  726MPD2    H210735   1.771   4.685   9.425 -1.6720 -1.0750 -2.2883
  726MPD2    H310736   1.702   4.482   9.318  1.5311  1.7598 -0.3297
  726MPD2     N10737   1.768   4.227   9.675 -0.2037 -0.3891 -0.1341
  726MPD2    H510738   1.726   4.154   9.618 -1.2667 -0.1116  0.3113
  726MPD2    N110739   1.883   4.709   9.666  0.7133 -0.0422 -0.0393
  726MPD2    H710740   1.917   4.698   9.761  1.2315  3.1355  0.1610
  727TMC3    C110741   1.954   0.212   9.693 -0.3095  0.1870  0.0696
  727TMC3    C210742   2.079   0.182   9.736 -0.0790  0.1889  0.9502
  727TMC3    C310743   2.153   0.281   9.797  0.2902  0.3356  0.1867
  727TMC3    C410744   1.916   0.345   9.688 -0.0088  0.4946  0.6621
  727TMC3    C510745   1.989   0.443   9.745 -0.4696 -0.5279  0.0002
  727TMC3    C610746   2.100   0.407   9.818  0.4032  0.1776  0.3639
  727TMC3     C10747   1.879   0.112   9.613 -0.3551  0.6929 -0.6589
  727TMC3     O10748   1.815   0.165   9.517 -0.4232  0.1033  0.6848
  727TMC3     H10749   2.112   0.079   9.726  0.9337  0.8405 -2.4834
  727TMC3    H110750   1.809   0.360   9.680  0.1757  0.3315 -2.0160
  727TMC3    H210751   2.155   0.484   9.871  0.0115  0.3856  0.4737
  727TMC3    C710752   1.946   0.579   9.746  0.4562 -0.5344  0.1329
  727TMC3    C810753   2.288   0.251   9.833  0.6972 -0.4227 -0.6192
  727TMC3    O110754   2.005   0.656   9.822  0.9066  0.2914  0.4715
  727TMC3    O210755   2.325   0.133   9.831  0.4357  0.2715  0.3473
  728TMC3    C110756   1.003   3.102  15.629  0.2331 -0.1177 -0.6432
  728TMC3    C210757   1.117   3.177  15.640  0.0178  0.2806  0.1463
  728TMC3    C310758   1.158   3.255  15.543 -0.3857 -0.4403  0.0189
  728TMC3    C410759   0.940   3.099  15.506  0.2919  0.4541  0.6547
  728TMC3    C510760   0.989   3.173  15.401 -0.5037  0.6509 -0.2941
  728TMC3    C610761   1.094   3.262  15.419 -0.1023  0.4122 -0.0723
  728TMC3     C10762   0.943   3.051  15.746  0.2960  0.5841  0.2391
  728TMC3     O10763   1.001   3.082  15.850 -0.4954  0.0453 -0.3771
  728TMC3     H10764   1.171   3.163  15.734  1.0948 -0.0989 -0.5255
  728TMC3    H110765   0.845   3.049  15.494 -0.1966  2.2524 -2.8842
  728TMC3    H210766   1.111   3.341  15.347 -1.2813  1.2827  0.6066
  728TMC3    C710767   0.927   3.158  15.267 -0.2722  0.8834  0.2454
  728TMC3    C810768   1.286   3.327  15.565 -0.0409 -0.1911  0.2701
  728TMC3    O110769   0.820   3.095  15.268 -0.7787 -0.0510  0.3070
  728TMC3    O210770   1.337   3.334  15.676  0.5617 -0.2711 -0.3050
  729MPD2     C10771   3.277   4.112  16.388  0.5059 -0.6625  0.3292
  729MPD2    C110772   3.394   4.113  16.466  0.5355  0.4369  0.2466
  729MPD2    C210773   3.370   4.104  16.606 -0.1189  0.3978  0.5599
  729MPD2    C310774   3.244   4.098  16.659 -0.6201  0.2940  0.2605
  729MPD2    C410775   3.136   4.093  16.578  0.4288  0.0293 -0.8754
  729MPD2    C510776   3.154   4.099  16.446 -0.2128 -0.4665  0.0644
  729MPD2     H10777   3.456   4.100  16.672  1.1156  0.7223 -1.0266
  729MPD2    H110778   3.034   4.084  16.613  1.0671 -0.2468  0.9134
  729MPD2    H210779   3.285   4.112  16.280 -1.2168  0.6605  0.1903
  729MPD2    H310780   3.062   4.098  16.388  0.6321 -0.9185 -1.2524
  729MPD2     N10781   3.229   4.104  16.799 -0.4552 -0.4651 -0.2405
  729MPD2    H510782   3.314   4.112  16.854  0.1421  0.0886 -1.2591
  729MPD2    N110783   3.516   4.146  16.403 -0.0189  0.4831 -0.8115
  729MPD2    H710784   3.512   4.172  16.305  1.5718 -1.4284 -1.3781
  730TMC3    C110785   3.135   4.097  17.011 -0.1486 -0.4881  0.1457
  730TMC3    C210786   3.246   4.018  17.041  1.0469 -0.2178  0.2553
  730TMC3    C310787   3.327   4.050  17.142  0.2371  0.5739 -0.1603
  730TMC3    C410788   3.100   4.207  17.075 -0.4057  0.4373 -0.1074
  730TMC3    C510789   3.188   4.240  17.179 -0.0894 -0.2020 -0.3577
  730TMC3    C610790   3.303   4.164  17.204  0.6682  0.8065 -0.0730
  730TMC3     C10791   3.113   4.093  16.869 -1.0563 -0.1644  0.6767
  730TMC3     O10792   2.994   4.069  16.841  0.0642 -0.2870 -0.9120
  730TMC3     H10793   3.251   3.928  16.981 -1.4458 -1.5008  1.9728
  730TMC3    H110794   3.033   4.272  17.020 -0.3227  0.8121  0.2365
  730TMC3    H210795   3.358   4.187  17.295  0.5866 -1.6092  0.5927
  730TMC3    C710796   3.216   4.376  17.168 -0.1777  0.4640 -0.4319
  730TMC3    C810797   3.460   4.032  17.087  0.4279  0.5704 -0.2461
  730TMC3    O110798   3.186   4.430  17.060 -0.4037 -0.2439 -0.3804
  730TMC3    O210799   3.468   3.973  16.981  0.6429 -0.7028 -0.8312
  731MPD2     C10800   3.904   2.115  12.210 -0.7670  0.5329 -0.4621
  731MPD2    C110801   3.835   2.240  12.191 -0.1680 -0.1474  0.3589
  731MPD2    C210802   3.774   2.288  12.299  0.1203  0.2010 -0.1034
  731MPD2    C310803   3.751   2.218  12.419  0.4380  0.8756 -0.2831
  731MPD2    C410804   3.810   2.098  12.422 -0.1480  0.2255  0.8819
  731MPD2    C510805   3.895   2.056  12.327  0.1453 -0.6311 -0.2170
  731MPD2     H10806   3.750   2.394  12.287 -1.3421 -0.3099 -1.6753
  731MPD2    H110807   3.795   2.032  12.507 -0.9183  1.1464  1.4609
  731MPD2    H210808   3.967   2.084  12.127  1.8144  0.3406  1.5886
  731MPD2    H310809   3.957   1.971  12.355  1.8376  0.7473  0.1947
  731MPD2     N10810   3.666   2.267  12.526 -0.7341 -0.2829  0.1103
  731MPD2    H510811   3.639   2.201  12.598 -0.2977  0.9951  1.4534
  731MPD2    N110812   3.842   2.309  12.068  0.3038 -0.4506 -0.1807
  731MPD2    H710813   3.920   2.275  12.013  0.6307 -0.2393  0.1566
  732TMC3    C110814   3.777   2.442  11.875 -0.2026 -0.3135  0.3388
  732TMC3    C210815   3.657   2.456  11.805  0.0997  0.2062  0.2256
  732TMC3    C310816   3.663   2.468  11.671 -0.1057 -0.0912 -0.1926
  732TMC3    C410817   3.897   2.441  11.816 -0.0334 -0.1522 -0.6284
  732TMC3    C510818   3.895   2.448  11.677 -0.0968 -0.4326  0.4322
  732TMC3    C610819   3.780   2.467  11.603  0.4506  0.4073  0.5664
  732TMC3     C10820   3.766   2.414  12.014  0.1530 -0.0191  0.1963
  732TMC3     O10821   3.676   2.478  12.073  0.3755  0.4170  0.1656
  732TMC3     H10822   3.565   2.449  11.862  0.6468 -1.7362  0.9146
  732TMC3    H110823   3.983   2.444  11.883  0.1976  3.8312 -1.0904
  732TMC3    H210824   3.790   2.457  11.496 -0.5657  0.1975  0.4864
  732TMC3    C710825   4.018   2.432  11.600  1.0421 -0.2065 -0.2153
  732TMC3    C810826   3.550   2.413  11.597 -0.3259 -0.3127  0.1050
  732TMC3    O110827   4.026   2.473  11.488  0.2397  0.2763 -0.2840
  732TMC3    O210828   3.535   2.449  11.481 -0.0247 -0.0117 -0.1343
  733TMC3    C110829   4.468   0.355  13.041 -0.1339 -0.1483  0.3089
  733TMC3    C210830   4.540   0.432  13.132  0.0655  0.4052 -0.6920
  733TMC3    C310831   4.630   0.523  13.084 -0.8705 -0.1523  0.5789
  733TMC3    C410832   4.508   0.361  12.909  0.8016  0.1884  0.0723
  733TMC3    C510833   4.604   0.450  12.869 -0.5302 -0.0728  0.2749
  733TMC3    C610834   4.663   0.539  12.955  0.3301 -0.3890  0.3118
  733TMC3     C10835   4.325   0.336  13.063 -0.1014 -0.1322  0.2262
  733TMC3     O10836   4.265   0.322  12.957 -0.5173 -0.1557 -0.0177
  733TMC3     H10837   4.529   0.414  13.239  2.0178 -0.6531 -0.6637
  733TMC3    H110838   4.458   0.303  12.832  0.1995  2.7068 -1.4569
  733TMC3    H210839   0.021   0.606  12.925 -1.0429  0.4012 -1.6157
  733TMC3    C710840   4.614   0.479  12.729 -0.3885 -0.0975 -0.1676
  733TMC3    C810841   4.636   0.638  13.162 -0.8400  0.0825 -0.4332
  733TMC3    O110842   4.627   0.382  12.651  0.1755 -0.5166 -0.2186
  733TMC3    O210843   4.668   0.636  13.280  0.0356 -0.3117  0.0605
  734MPD2     C10844   1.066   3.430  12.331 -0.1120 -0.2282  0.2492
  734MPD2    C110845   1.024   3.317  12.257  0.4666 -0.3223  0.0833
  734MPD2    C210846   1.094   3.281  12.143  0.3476 -0.6672  0.7506
  734MPD2    C310847   1.196   3.355  12.088  0.3835  0.4175 -0.0210
  734MPD2    C410848   1.231   3.475  12.150 -0.5181  0.3082 -0.1255
  734MPD2    C510849   1.170   3.503  12.270 -0.4421  0.6050  0.2706
  734MPD2     H10850   1.071   3.194  12.083  0.4848 -0.4254  0.3509
  734MPD2    H110851   1.298   3.549  12.107  1.7026 -1.6127  0.0559
  734MPD2    H210852   1.018   3.464  12.422  0.5012  0.1074  0.4493
  734MPD2    H310853   1.204   3.592  12.321 -0.6745 -0.3544  2.0736
  734MPD2     N10854   1.240   3.305  11.966 -0.5327  0.4805 -0.1687
  734MPD2    H510855   1.180   3.232  11.928 -1.8070  1.0210  0.8537
  734MPD2    N110856   0.935   3.223  12.320  0.1694  0.0388 -0.4324
  734MPD2    H710857   0.915   3.232  12.419  0.9361  0.9918 -0.3692
  735TMC3    C110858   0.824   3.013  12.328  0.1898  0.2543 -0.2291
  735TMC3    C210859   0.753   2.934  12.245 -0.7214  0.1623  0.3294
  735TMC3    C310860   0.768   2.801  12.250  0.6653  0.2251  0.6573
  735TMC3    C410861   0.922   2.959  12.394  0.2841  0.7980 -0.0173
  735TMC3    C510862   0.944   2.825  12.398  0.2374 -0.0641 -0.4291
  735TMC3    C610863   0.864   2.740  12.327 -0.4989  0.0246 -0.4995
  735TMC3     C10864   0.875   3.121  12.250  0.7447  0.1605 -0.0593
  735TMC3     O10865   0.878   3.090  12.131 -0.4776  0.6761 -0.5948
  735TMC3     H10866   0.682   2.987  12.182  0.3459 -0.3899 -1.3202
  735TMC3    H110867   0.999   3.023  12.435  1.0088 -0.1075  0.0431
  735TMC3    H210868   0.888   2.636  12.310  3.5609  0.6383  1.6445
  735TMC3    C710869   1.078   2.791  12.432  0.9592  0.4882  0.1104
  735TMC3    C810870   0.771   2.748  12.121  0.4550  0.3605 -0.8256
  735TMC3    O110871   1.161   2.879  12.456  0.0200 -0.5958  0.1196
  735TMC3    O210872   0.741   2.630  12.106  0.0186  0.3977 -0.4831
  736MPD2     C10873   1.167   2.470  12.572  0.1877 -0.3153  0.5946
  736MPD2    C110874   1.194   2.600  12.526  1.3516  0.1901 -0.1273
  736MPD2    C210875   1.321   2.643  12.505 -0.4610 -0.3470  0.1773
  736MPD2    C310876   1.429   2.558  12.519  0.2342  0.0351  0.2753
  736MPD2    C410877   1.407   2.437  12.588  0.3979  0.0730  0.1360
  736MPD2    C510878   1.275   2.392  12.604  0.4649  0.4407 -0.4841
  736MPD2     H10879   1.337   2.748  12.486  1.2688 -0.7888 -0.8005
  736MPD2    H110880   1.489   2.372  12.613  1.0742  0.4950 -1.0024
  736MPD2    H210881   1.066   2.434  12.589  0.2369 -1.1105 -0.7960
  736MPD2    H310882   1.255   2.305  12.665  1.4465  0.2342 -0.4570
  736MPD2     N10883   1.557   2.604  12.489 -1.0503  0.0687  0.3738
  736MPD2    H510884   1.638   2.552  12.521 -0.2332  0.4222 -1.1119
  736MPD2    N110885   1.078   2.666  12.473 -1.1201  0.2119 -0.2091
  736MPD2    H710886   0.986   2.622  12.481 -0.9686 -0.1698 -0.5813
  737TMC3    C110887   1.732   2.719  12.375  0.0300  0.2642 -0.1702
  737TMC3    C210888   1.767   2.800  12.270 -0.1852  0.3448  0.3453
  737TMC3    C310889   1.902   2.807  12.252 -0.4789  0.2036 -0.0809
  737TMC3    C410890   1.824   2.644  12.445 -1.0407 -0.6422  0.2875
  737TMC3    C510891   1.958   2.655  12.407  0.5882  0.2018  0.7766
  737TMC3    C610892   2.001   2.736  12.309 -0.2488  0.4065 -0.1256
  737TMC3     C10893   1.585   2.708  12.403 -0.1901  0.1537  0.1700
  737TMC3     O10894   1.507   2.758  12.329 -0.5128 -0.0015 -0.5330
  737TMC3     H10895   1.688   2.862  12.230  0.2139 -0.2129 -1.2963
  737TMC3    H110896   1.802   2.579  12.529 -0.0486 -2.1944 -0.6378
  737TMC3    H210897   2.107   2.748  12.288 -0.4900  2.2524 -0.2861
  737TMC3    C710898   2.055   2.557  12.461 -0.5178  0.2199  0.3935
  737TMC3    C810899   1.966   2.898  12.156  0.6708  0.6540  1.0748
  737TMC3    O110900   2.037   2.506  12.572  0.6432  0.1291 -1.0453
  737TMC3    O210901   2.067   2.960  12.182 -0.1124  0.0728 -0.1733
  738MPD2     C10902   2.257   1.768  15.193  0.5074 -1.0553  0.2416
  738MPD2    C110903   2.301   1.667  15.112  0.2801  0.4847 -0.2767
  738MPD2    C210904   2.383   1.691  15.004  0.4394  0.3578  0.0892
  738MPD2    C310905   2.446   1.814  14.990  0.1478 -0.3088  0.4338
  738MPD2    C410906   2.404   1.916  15.073 -0.4497  0.2025  0.3431
  738MPD2    C510907   2.320   1.887  15.171 -0.4618  0.2172  0.4653
  738MPD2     H10908   2.412   1.614  14.933  1.0893 -0.3791  1.1547
  738MPD2    H110909   2.445   2.016  15.063 -0.6659  0.1521 -1.0863
  738MPD2    H210910   2.182   1.762  15.271  0.7881 -0.6238  0.5402
  738MPD2    H310911   2.297   1.971  15.236  1.9949  2.4513 -1.5236
  738MPD2     N10912   2.535   1.845  14.884  0.0393 -1.1829  0.3400
  738MPD2    H510913   2.578   1.937  14.887  0.3305 -1.3314  0.6322
  738MPD2    N110914   2.246   1.535  15.122 -0.0968  0.1457  0.3210
  738MPD2    H710915   2.270   1.469  15.049 -0.3725 -1.5941  1.8123
  739TMC3    C110916   2.675   1.816  14.705 -0.1246  0.0923  0.5734
  739TMC3    C210917   2.668   1.837  14.565 -0.2818  0.4085  0.1604
  739TMC3    C310918   2.791   1.869  14.508 -0.2186  0.9027  0.1204
  739TMC3    C410919   2.787   1.823  14.781  0.1159  0.1771 -0.3249
  739TMC3    C510920   2.901   1.867  14.714  0.1264 -0.0646  0.5851
  739TMC3    C610921   2.908   1.893  14.580  0.2145  0.0832  0.4838
  739TMC3     C10922   2.565   1.766  14.780 -0.7350 -0.2835  0.2976
  739TMC3     O10923   2.505   1.666  14.744 -0.3281  0.4501  0.1333
  739TMC3     H10924   2.577   1.831  14.507 -1.1642  0.1327  1.5693
  739TMC3    H110925   2.774   1.799  14.886 -0.1870 -0.2547 -0.4616
  739TMC3    H210926   3.007   1.903  14.536  1.1261  2.0439  2.9737
  739TMC3    C710927   3.005   1.921  14.792  0.1317 -0.6916  0.5463
  739TMC3    C810928   2.794   1.893  14.360 -0.0856 -0.0931 -0.2668
  739TMC3    O110929   3.115   1.933  14.738  0.1805 -0.1363 -0.0733
  739TMC3    O210930   2.705   1.842  14.296  0.1944  0.3957 -0.6360
  740TMC3    C110931   3.091   3.193  14.513  0.4403 -0.1447 -0.5255
  740TMC3    C210932   3.115   3.200  14.646  0.2232 -0.2400  0.3532
  740TMC3    C310933   3.229   3.139  14.692 -0.3418 -0.3793 -0.1671
  740TMC3    C410934   3.180   3.138  14.423 -0.0198  0.8106 -0.3193
  740TMC3    C510935   3.292   3.072  14.471 -0.5906  0.2762  0.2931
  740TMC3    C610936   3.318   3.077  14.606 -0.3963  0.5405  0.4962
  740TMC3     C10937   2.960   3.228  14.463 -0.4790  0.6181  0.2514
  740TMC3     O10938   2.952   3.266  14.349 -0.4056  0.1481 -0.2853
  740TMC3     H10939   3.044   3.258  14.703 -0.1517 -1.8193  1.5006
  740TMC3    H110940   3.144   3.145  14.321  0.3937 -0.1324 -0.5253
  740TMC3    H210941   3.418   3.059  14.642  0.3960 -2.6347 -3.2810
  740TMC3    C710942   3.394   3.036  14.377 -0.7373 -0.2297 -0.0032
  740TMC3    C810943   3.243   3.122  14.839  0.4709 -0.5124 -0.0080
  740TMC3    O110944   3.499   3.014  14.430  0.5413  0.2561  0.2644
  740TMC3    O210945   3.163   3.186  14.905  0.2771 -0.1920 -0.3662
  741TMC3    C110946   2.512   2.192  14.348  0.6185  0.0735  0.0093
  741TMC3    C210947   2.439   2.090  14.288  0.3037  0.5960 -0.8388
  741TMC3    C310948   2.356   2.027  14.370 -0.5870  0.4164 -1.0422
  741TMC3    C410949   2.486   2.229  14.477  0.0567  0.0634  1.0346
  741TMC3    C510950   2.422   2.146  14.559 -0.3199  0.2316  0.4607
  741TMC3    C610951   2.353   2.039  14.510  0.2008 -0.5719  0.5209
  741TMC3     C10952   2.616   2.258  14.286  0.5304  0.0178  0.3963
  741TMC3     O10953   2.685   2.323  14.362  0.1728  0.0014  0.8388
  741TMC3     H10954   2.456   2.061  14.184  1.3611  0.3882 -0.6093
  741TMC3    H110955   2.525   2.321  14.517  1.0172 -1.0776  2.7214
  741TMC3    H210956   2.298   1.976  14.578 -1.2128  1.2724  1.0629
  741TMC3    C710957   2.414   2.173  14.698 -0.3590 -0.2314  0.4825
  741TMC3    C810958   2.259   1.930  14.328 -0.1879  0.5053  1.0729
  741TMC3    O110959   2.348   2.095  14.768 -0.2845  0.4742  0.1515
  741TMC3    O210960   2.161   1.904  14.401  0.4807 -0.4497  0.2609
  742TMC3    C110961   2.435   0.955  14.927 -0.9748 -0.2417 -0.4038
  742TMC3    C210962   2.328   0.901  14.859  0.0745  0.0100 -0.0369
  742TMC3    C310963   2.361   0.821  14.748 -0.1430  0.2848  0.9060
  742TMC3    C410964   2.564   0.923  14.896 -0.1202  0.1631  0.5515
  742TMC3    C510965   2.591   0.834  14.796  0.0042 -0.0508 -0.1098
  742TMC3    C610966   2.492   0.779  14.724  0.8089 -0.3385  0.3667
  742TMC3     C10967   2.413   1.051  15.032  0.0873 -0.1997  0.3886
  742TMC3     O10968   2.295   1.081  15.047  0.1281 -0.1318 -0.4498
  742TMC3     H10969   2.227   0.938  14.871  0.3526 -0.0026  2.2614
  742TMC3    H110970   2.641   0.966  14.959  1.0973 -2.1737  0.6657
  742TMC3    H210971   2.507   0.717  14.637 -1.6893 -1.0457  0.4249
  742TMC3    C710972   2.718   0.756  14.820  0.6431  0.2910  0.7961
  742TMC3    C810973   2.259   0.742  14.681  0.6421  0.3616  0.3784
  742TMC3    O110974   2.725   0.643  14.772  0.4790 -0.2915 -0.4952
  742TMC3    O210975   2.293   0.641  14.616 -0.3070 -0.5546  0.3379
  743MPD2     C10976   4.113   0.339   0.365 -0.5554 -0.1155  0.2835
  743MPD2    C110977   4.161   0.432   0.463  0.3503  0.0619 -0.1245
  743MPD2    C210978   4.226   0.372   0.569 -0.5547  0.2493 -0.1406
  743MPD2    C310979   4.238   0.233   0.582  0.2708 -0.1564  0.2581
  743MPD2    C410980   4.176   0.148   0.497  0.0435 -0.2399  0.1396
  743MPD2    C510981   4.123   0.203   0.386 -0.7515 -0.7332  0.9681
  743MPD2     H10982   4.274   0.425   0.651 -0.7311 -0.1032  0.1877
  743MPD2    H110983   4.183   0.041   0.514  1.2077 -0.4130 -1.3874
  743MPD2    H210984   4.058   0.368   0.276 -0.9749  0.5560  0.7586
  743MPD2    H310985   4.083   0.134   0.313  0.8135  0.6154 -1.1850
  743MPD2     N10986   4.330   0.201   0.683  0.1422  0.6044  0.0265
  743MPD2    H510987   4.361   0.280   0.739 -1.8183  0.2943  1.5702
  743MPD2    N110988   4.144   0.575   0.457 -0.6218 -0.5124 -0.1224
  743MPD2    H710989   4.101   0.617   0.375  2.2310 -2.1389 -2.4773
  744TMC3    C110990   4.115   0.794   0.526 -0.5349  0.5680  0.0263
  744TMC3    C210991   4.037   0.870   0.613  0.0130  0.7108 -0.3671
  744TMC3    C310992   4.007   0.995   0.566  0.0958  0.4363  0.6812
  744TMC3    C410993   4.170   0.838   0.412 -0.3479  0.4918  0.6433
  744TMC3    C510994   4.154   0.967   0.378 -0.1576 -0.1728  0.2427
  744TMC3    C610995   4.071   1.054   0.452  0.4428 -1.2427 -0.5723
  744TMC3     C10996   4.137   0.653   0.566  0.2365  0.5615 -0.0646
  744TMC3     O10997   4.137   0.631   0.684 -0.0202 -0.5291 -0.0587
  744TMC3     H10998   3.988   0.826   0.699 -0.3164 -1.1930 -1.5198
  744TMC3    H110999   4.244   0.775   0.363  1.4935  2.7421  0.5049
  744TMC3    H211000   4.039   1.148   0.409  0.8495 -0.6226  0.4764
  744TMC3    C711001   4.233   1.026   0.280 -0.5427 -0.6209 -0.2211
  744TMC3    C811002   3.882   1.059   0.605 -0.9144  0.3308 -0.5525
  744TMC3    O111003   4.246   1.144   0.278  0.3261  0.1454 -0.1407
  744TMC3    O211004   3.871   1.179   0.593  0.1452 -0.0754  0.7745
  745TMC3    C111005   2.537   0.327  13.291 -0.3609  0.4938  0.6201
  745TMC3    C211006   2.437   0.414  13.332  0.3760 -0.5247 -0.1186
  745TMC3    C311007   2.384   0.512  13.251 -0.2272  0.0765 -0.5921
  745TMC3    C411008   2.577   0.338  13.165 -0.1038  0.8129 -0.2728
  745TMC3    C511009   2.523   0.435  13.077  0.5389 -0.8204 -0.5161
  745TMC3    C611010   2.425   0.520  13.123  0.4325 -0.1741  0.0874
  745TMC3     C11011   2.655   0.318  13.367 -0.1252 -0.7555  0.5080
  745TMC3     O11012   2.721   0.212  13.386 -0.2271 -0.3804  0.0305
  745TMC3     H11013   2.416   0.432  13.437 -0.3631 -0.8690 -0.2044
  745TMC3    H111014   2.658   0.275  13.131  0.1741  0.7884  0.4441
  745TMC3    H211015   2.387   0.599  13.060  1.7968 -1.5835 -2.4636
  745TMC3    C711016   2.585   0.470  12.953  0.3490 -0.3410  0.3000
  745TMC3    C811017   2.394   0.640  13.326  0.0268  0.1644 -0.0714
  745TMC3    O111018   2.508   0.515  12.869 -0.4867 -0.0910 -0.1217
  745TMC3    O211019   2.498   0.701  13.302 -0.6570 -0.5627 -0.5689
  746TMC3    C111020   0.564   2.103  11.028  0.0621 -0.0156  0.0662
  746TMC3    C211021   0.660   2.030  10.955  0.2394  0.0908 -0.4396
  746TMC3    C311022   0.649   1.890  10.973  0.1281  0.2525 -0.2759
  746TMC3    C411023   0.462   2.041  11.102  0.1889  0.1731 -0.1640
  746TMC3    C511024   0.467   1.906  11.114  0.2696 -0.1783  0.1338
  746TMC3    C611025   0.566   1.831  11.059  0.3794  0.5184 -1.0475
  746TMC3     C11026   0.553   2.244  11.014 -0.3005  0.3044  0.3436
  746TMC3     O11027   0.436   2.282  11.023  0.6277 -0.2846 -0.0844
  746TMC3     H11028   0.736   2.070  10.890  0.8269 -0.5424 -0.1515
  746TMC3    H111029   0.379   2.100  11.139 -1.5488  0.2723 -4.2015
  746TMC3    H211030   0.559   1.723  11.057 -3.6452  0.7354  0.0336
  746TMC3    C711031   0.357   1.844  11.167  0.4239 -0.2084  0.5876
  746TMC3    C811032   0.724   1.803  10.877  0.3976  0.6123  0.1778
  746TMC3    O111033   0.245   1.897  11.158 -0.3635 -0.0544 -0.4059
  746TMC3    O211034   0.764   1.692  10.909 -0.2118 -0.1931 -0.1539
  747TMC3    C111035   2.595   2.254  11.782  1.4446  0.3856  0.4764
  747TMC3    C211036   2.568   2.216  11.916  0.2421  0.1158  0.1861
  747TMC3    C311037   2.667   2.243  12.008 -0.2387 -0.9371 -0.4392
  747TMC3    C411038   2.718   2.303  11.745  0.0250 -0.0536 -0.3209
  747TMC3    C511039   2.818   2.316  11.842  0.9653 -0.4670  0.5541
  747TMC3    C611040   2.792   2.283  11.971 -0.4042 -0.0267 -0.3839
  747TMC3     C11041   2.482   2.278  11.686  0.2162 -0.5026  0.6967
  747TMC3     O11042   2.380   2.280  11.741  0.2093  0.1590 -0.1947
  747TMC3     H11043   2.469   2.180  11.942  0.0195  0.8190  0.2950
  747TMC3    H111044   2.723   2.347  11.646  1.3926 -2.5581 -1.3630
  747TMC3    H211045   2.859   2.300  12.054 -1.6228  0.5965  0.4705
  747TMC3    C711046   2.929   2.410  11.822  0.1892  0.0559 -0.0817
  747TMC3    C811047   2.623   2.242  12.145  0.8435  0.3679 -0.3457
  747TMC3    O111048   2.996   2.440  11.917 -0.2099  0.6666  0.3517
  747TMC3    O211049   2.713   2.236  12.226  0.6865  0.1657  0.0084
  748MPD2     C11050   3.576   3.117   1.067  0.0277  0.6665  0.0829
  748MPD2    C111051   3.600   2.994   1.134  0.2429 -0.7009 -0.6041
  748MPD2    C211052   3.731   2.954   1.151 -0.0587 -0.1057  0.9000
  748MPD2    C311053   3.840   3.033   1.119 -0.0017 -0.1852  0.2845
  748MPD2    C411054   3.814   3.154   1.059  1.2567 -0.4034  0.2996
  748MPD2    C511055   3.685   3.196   1.031 -0.3501  0.5181  0.0512
  748MPD2     H11056   3.744   2.863   1.208 -0.6862  0.2992  1.6893
  748MPD2    H111057   3.893   3.222   1.030 -0.9848  2.1074  0.0620
  748MPD2    H211058   3.475   3.141   1.036  0.2960 -1.5187 -2.4218
  748MPD2    H311059   3.674   3.293   0.982 -2.6396  0.2784  0.0613
  748MPD2     N11060   3.970   2.986   1.151 -0.2738  0.4275  0.0010
  748MPD2    H511061   3.979   2.890   1.182  1.4810 -0.1253 -2.2004
  748MPD2    N111062   3.483   2.923   1.179 -0.6368  0.4746  0.2588
  748MPD2    H711063   3.392   2.968   1.185  0.3298  2.2012  1.6916
  749TMC3    C111064   4.213   3.003   1.193 -0.0866  0.0853 -0.0418
  749TMC3    C211065   4.208   2.877   1.251  0.1138  0.1359  0.3231
  749TMC3    C311066   4.330   2.815   1.262 -0.4904 -0.0766 -0.2407
  749TMC3    C411067   4.322   3.061   1.132 -0.2072  0.2926 -0.4486
  749TMC3    C511068   4.437   2.991   1.153 -0.9022  0.0226 -0.2216
  749TMC3    C611069   4.444   2.870   1.214 -0.6862  0.2984 -0.3210
  749TMC3     C11070   4.087   3.057   1.139  0.2362  0.3659 -0.1523
  749TMC3     O11071   4.104   3.165   1.080  0.1271 -0.6360 -0.5083
  749TMC3     H11072   4.120   2.833   1.296  0.6567 -1.0682  0.2117
  749TMC3    H111073   4.323   3.152   1.074 -0.3262  0.0732 -0.7945
  749TMC3    H211074   4.539   2.819   1.214 -0.2378  1.1295 -1.5835
  749TMC3    C711075   4.534   3.033   1.053 -0.4870 -0.4608 -0.1084
  749TMC3    C811076   4.338   2.706   1.347  0.0086  0.1507  0.3159
  749TMC3    O111077   4.540   3.151   1.015 -0.2751  0.1077  0.1652
  749TMC3    O211078   4.261   2.705   1.442  0.5837  0.0386  0.1061
  750MPD2     C11079   0.569   4.300  10.709  0.8243 -0.9186 -0.3746
  750MPD2    C111080   0.442   4.262  10.748 -0.3846  0.6406  0.6830
  750MPD2    C211081   0.393   4.133  10.718 -0.0535  0.6465  0.3919
  750MPD2    C311082   0.464   4.040  10.649  0.1189 -0.7335 -0.2838
  750MPD2    C411083   0.595   4.078  10.613  0.4120 -0.5178 -0.3248
  750MPD2    C511084   0.636   4.199  10.644 -0.5047 -0.4050 -0.0790
  750MPD2     H11085   0.286   4.128  10.731  0.0088  0.4861  0.8218
  750MPD2    H111086   0.668   4.017  10.563 -0.8963 -1.1256 -1.4730
  750MPD2    H211087   0.611   4.398  10.730 -0.3792 -0.7373  1.1793
  750MPD2    H311088   0.738   4.220  10.612 -0.3512 -1.7688 -0.4748
  750MPD2     N11089   0.417   3.916  10.596  0.1617  0.2191  0.2688
  750MPD2    H511090   0.484   3.861  10.543  0.4109  1.0865 -0.3023
  750MPD2    N111091   0.368   4.353  10.825 -0.6028  0.7392  0.0024
  750MPD2    H711092   0.413   4.444  10.827  0.8475  0.0442 -1.0168
  751TMC3    C111093   0.254   3.750  10.561  0.3112 -0.1942  0.9065
  751TMC3    C211094   0.132   3.700  10.610 -0.0314  0.6222  0.1655
  751TMC3    C311095   0.092   3.582  10.548  0.1463  0.8451  1.2570
  751TMC3    C411096   0.339   3.677  10.494 -0.3057  0.0179 -0.7646
  751TMC3    C511097   0.301   3.555  10.447 -0.0193 -0.3733  0.0023
  751TMC3    C611098   0.172   3.506  10.473  0.1516 -0.8171  0.0167
  751TMC3     C11099   0.286   3.883  10.603  0.0593  0.1870 -0.1536
  751TMC3     O11100   0.194   3.943  10.659  0.1680  0.1756 -0.1782
  751TMC3     H11101   0.060   3.750  10.674  1.9347  0.5776  2.4383
  751TMC3    H111102   0.440   3.712  10.477 -0.7312  1.4320 -0.3771
  751TMC3    H211103   0.138   3.409  10.439  1.0654 -1.8242  1.9830
  751TMC3    C711104   0.406   3.469  10.399 -0.1090  0.1264  0.5583
  751TMC3    C811105   4.695   3.506  10.580  0.1625 -0.1161  1.1363
  751TMC3    O111106   0.509   3.527  10.370 -0.1671 -0.2419  0.1709
  751TMC3    O211107   4.654   3.429  10.492 -0.0268 -0.0372  0.4248
  752TMC3    C111108   4.415   4.508  17.151 -0.2006 -0.2858  0.1170
  752TMC3    C211109   4.333   4.409  17.193  0.3084  0.0045 -0.0336
  752TMC3    C311110   4.312   4.393  17.336 -0.4827 -0.4333  0.7844
  752TMC3    C411111   4.490   4.580  17.238  0.5030  0.0036 -0.6113
  752TMC3    C511112   4.454   4.569  17.371 -0.6343  0.0132 -0.9530
  752TMC3    C611113   4.360   4.490  17.421 -0.0154  0.0228  0.3835
  752TMC3     C11114   4.443   4.507  17.004 -0.6098  0.3478  1.0356
  752TMC3     O11115   4.549   4.563  16.973  1.0265  0.1831 -0.4546
  752TMC3     H11116   4.276   4.348  17.124  1.0534  1.3984 -1.9054
  752TMC3    H111117   4.560   4.650  17.193  1.7078 -0.0429  1.2252
  752TMC3    H211118   4.323   4.506  17.522  0.6534  2.1870  0.2920
  752TMC3    C711119   4.548   4.639  17.455 -1.1925 -0.4237  0.0821
  752TMC3    C811120   4.198   4.314  17.366 -0.5272 -0.3873 -0.6989
  752TMC3    O111121   4.600   0.014  17.404  0.2723 -0.5515  0.7493
  752TMC3    O211122   4.135   4.271  17.271 -0.5285 -0.1601 -0.2532
  753TMC3    C111123   1.348   0.276  13.346  0.3001 -0.3852  0.3073
  753TMC3    C211124   1.332   0.274  13.478 -0.1062 -0.1109  0.5197
  753TMC3    C311125   1.289   0.156  13.528 -0.0726 -0.9946  0.0418
  753TMC3    C411126   1.316   0.174  13.261  0.1771  0.1054 -0.1521
  753TMC3    C511127   1.271   0.059  13.316 -0.5182  0.2147 -0.4011
  753TMC3    C611128   1.247   0.044  13.452  0.4577 -0.0428  0.3460
  753TMC3     C11129   1.386   0.399  13.284  0.3740 -0.7125  0.0606
  753TMC3     O11130   1.348   0.494  13.351 -0.5022  0.5119 -0.2332
  753TMC3     H11131   1.341   0.358  13.546 -2.4112  1.9378 -1.7318
  753TMC3    H111132   1.327   0.180  13.154 -0.9977  0.8032 -0.2314
  753TMC3    H211133   1.204   4.677  13.495  0.0242  0.7009  1.4705
  753TMC3    C711134   1.187   4.711  13.225 -0.6470  0.1784 -0.7311
  753TMC3    C811135   1.280   0.148  13.674  0.1632 -0.4889 -0.0865
  753TMC3    O111136   1.207   0.003  13.106 -0.2816  0.1765  0.2414
  753TMC3    O211137   1.192   0.068  13.702  0.3197 -0.2494 -0.4838
  754MPD2     C11138   0.307   4.097  12.788  0.4605  0.5216 -0.0984
  754MPD2    C111139   0.294   3.964  12.794 -0.4089  1.0814 -0.3005
  754MPD2    C211140   0.168   3.914  12.840  0.6074 -0.2001 -0.3548
  754MPD2    C311141   0.057   3.991  12.864 -0.7003  0.0700  0.6710
  754MPD2    C411142   0.074   4.132  12.842  0.5166  0.6344 -0.1427
  754MPD2    C511143   0.193   4.178  12.812  0.5476 -0.0970 -0.5347
  754MPD2     H11144   0.157   3.807  12.857  0.8458 -0.3201 -0.9683
  754MPD2    H111145   4.713   4.200  12.853  0.8228  0.9493  0.2298
  754MPD2    H211146   0.403   4.144  12.768  0.8210 -0.2363 -0.1319
  754MPD2    H311147   0.198   4.285  12.798 -2.7345  0.0722 -0.4904
  754MPD2     N11148   4.659   3.942  12.912  0.3287  0.1953 -0.4196
  754MPD2    H511149   4.577   3.999  12.893  1.3690  1.2969 -1.5743
  754MPD2    N111150   0.405   3.887  12.764  0.1145  0.3606 -0.0607
  754MPD2    H711151   0.476   3.940  12.714  0.3494  0.1772  0.0767
  755MPD2     C11152   3.728   4.216  13.061  0.5740  0.2675  0.0329
  755MPD2    C111153   3.835   4.222  13.153 -0.0674  0.4387  0.2907
  755MPD2    C211154   3.949   4.146  13.133  0.3197  0.2532  0.2608
  755MPD2    C311155   3.967   4.068  13.022 -0.2229  0.7855 -0.5749
  755MPD2    C411156   3.865   4.080  12.925 -0.2657  0.0137  0.0580
  755MPD2    C511157   3.748   4.146  12.943 -0.1841  0.0795 -0.0127
  755MPD2     H11158   4.026   4.158  13.209 -1.5235 -0.4197  2.2354
  755MPD2    H111159   3.865   4.021  12.833  0.6995 -1.5312  1.0314
  755MPD2    H211160   3.640   4.278  13.067  0.8939  0.4389  2.7374
  755MPD2    H311161   3.670   4.150  12.868  1.4460  2.3972 -1.5828
  755MPD2     N11162   4.079   3.991  12.988 -0.1624 -0.3346 -0.8606
  755MPD2    H511163   4.069   3.943  12.899  0.5937  1.4805 -1.9255
  755MPD2    N111164   3.823   4.287  13.277  0.0728  0.7367 -0.0321
  755MPD2    H711165   3.900   4.279  13.342 -1.1679 -0.4838  1.2734
  756MPD2     C11166   0.357   4.140   9.142  0.2032 -0.1159  0.1379
  756MPD2    C111167   0.406   4.077   9.254 -0.1570  0.6471 -0.6605
  756MPD2    C211168   0.405   3.940   9.255 -0.1056  0.6960 -0.3988
  756MPD2    C311169   0.390   3.867   9.136 -0.9176 -0.1603 -0.3237
  756MPD2    C411170   0.350   3.927   9.017  0.3107  0.6482  0.4013
  756MPD2    C511171   0.327   4.064   9.027  0.6296  0.3199 -0.3230
  756MPD2     H11172   0.434   3.882   9.342  2.1970 -0.3565 -1.8557
  756MPD2    H111173   0.328   3.875   8.925  1.2334  0.2925  0.3781
  756MPD2    H211174   0.332   4.245   9.143  1.2870  0.1261  0.6457
  756MPD2    H311175   0.275   4.109   8.943  0.5441  1.8460  0.5392
  756MPD2     N11176   0.407   3.730   9.152 -0.5039  0.1601 -0.2823
  756MPD2    H511177   0.403   3.694   9.246 -0.0631 -1.6652 -0.9667
  756MPD2    N111178   0.435   4.144   9.374 -0.0193 -0.4885 -0.4649
  756MPD2    H711179   0.454   4.085   9.454  1.6022  2.8253  1.6192
  757MPD2     C11180   4.715   2.738   9.041 -0.0205  0.8159  0.0335
  757MPD2    C111181   0.093   2.730   9.135 -0.2986 -0.4773 -0.1855
  757MPD2    C211182   0.183   2.827   9.154  0.5203  0.1654 -0.3813
  757MPD2    C311183   0.169   2.951   9.091  0.4272  0.0117  0.6269
  757MPD2    C411184   0.057   2.966   9.015  0.8570  0.5443 -0.3053
  757MPD2    C511185   4.695   2.862   8.992 -0.0601  0.1609  1.0773
  757MPD2     H11186   0.259   2.823   9.231  2.4612  1.6651 -2.2048
  757MPD2    H111187   0.025   3.064   8.982 -0.8643  0.9439  2.5320
  757MPD2    H211188   4.640   2.659   9.034  0.6578  0.0258  1.6644
  757MPD2    H311189   4.599   2.881   8.946 -0.2628  1.0490  1.8750
  757MPD2     N11190   0.255   3.059   9.116 -0.1483 -0.1371 -0.5287
  757MPD2    H511191   0.323   3.054   9.191 -0.2035 -0.8430 -0.5308
  757MPD2    N111192   0.082   2.615   9.217 -0.1153  0.3126 -0.2077
  757MPD2    H711193   4.722   2.556   9.209 -0.8809  0.8871  3.4799
  758MPD2     C11194   0.151   3.324  15.950 -0.4407  0.6691 -0.4618
  758MPD2    C111195   0.246   3.332  16.046  0.2704  0.0047  0.2715
  758MPD2    C211196   0.216   3.371  16.175  0.7511 -1.0681 -0.0428
  758MPD2    C311197   0.087   3.417  16.207  0.2180  0.3610  0.1071
  758MPD2    C411198   4.713   3.417  16.112  0.5275  0.7745  1.0255
  758MPD2    C511199   0.027   3.370  15.984  1.2954  0.3251 -0.6291
  758MPD2     H11200   0.291   3.390  16.251  1.7908  0.2493 -1.3975
  758MPD2    H111201   4.609   3.445  16.121  0.4659  0.7354  0.4218
  758MPD2    H211202   0.167   3.306  15.845 -1.5590  0.2015 -0.5484
  758MPD2    H311203   4.674   3.379  15.906  1.5470 -0.0748 -0.9203
  758MPD2     N11204   0.048   3.457  16.344 -0.5883 -0.2680 -0.5812
  758MPD2    H511205   4.682   3.506  16.352 -0.7623 -0.4645 -1.2907
  758MPD2    N111206   0.377   3.296  16.022 -0.0013 -0.3146  0.9333
  758MPD2    H711207   0.399   3.292  15.923 -0.3404  0.2035  0.8384
  759MPD2     C11208   0.080   2.303   9.027 -0.8166 -0.8231  0.7788
  759MPD2    C111209   0.198   2.253   9.072  0.9503 -0.2730  0.3410
  759MPD2    C211210   0.313   2.288   9.010 -0.3054 -0.4050  0.3645
  759MPD2    C311211   0.316   2.382   8.909 -0.1309 -0.1154 -0.0010
  759MPD2    C411212   0.195   2.438   8.880  0.3034 -0.3307  0.0755
  759MPD2    C511213   0.074   2.396   8.933  0.4495 -0.3978  0.2978
  759MPD2     H11214   0.406   2.235   9.026  2.3330  4.4844  1.1543
  759MPD2    H111215   0.189   2.515   8.804  0.8212 -1.4223 -1.0724
  759MPD2    H211216   4.704   2.289   9.070 -0.7939 -1.7474  0.5443
  759MPD2    H311217   4.703   2.439   8.898 -0.2410 -2.1163  0.0192
  759MPD2     N11218   0.431   2.427   8.844 -0.0879 -0.4278  1.0185
  759MPD2    H511219   0.418   2.508   8.785 -1.9485  0.4523  2.6688
  759MPD2    N111220   0.207   2.155   9.170 -0.0381  0.4166  0.0682
  759MPD2    H711221   0.298   2.122   9.198  0.6497  0.8809 -1.6419
  760MPD2     C11222   3.341   3.866  11.674 -0.2868  0.9407  0.2938
  760MPD2    C111223   3.425   3.901  11.579 -0.0784  0.1217 -0.1221
  760MPD2    C211224   3.521   3.810  11.530  0.4761  0.4676 -0.3142
  760MPD2    C311225   3.516   3.681  11.578  0.4971 -0.7402  0.0747
  760MPD2    C411226   3.429   3.646  11.680 -0.1787  0.1677  0.3863
  760MPD2    C511227   3.339   3.741  11.727 -0.0625  0.4458  0.3772
  760MPD2     H11228   3.596   3.841  11.459  0.2074  0.6191 -0.5333
  760MPD2    H111229   3.432   3.545  11.719  1.1540 -1.0015 -2.6872
  760MPD2    H211230   3.266   3.932  11.716 -3.5108 -0.3473 -3.4414
  760MPD2    H311231   3.260   3.727  11.799 -0.4397  0.7919  0.0303
  760MPD2     N11232   3.608   3.581  11.537 -0.6524  0.0206 -0.4091
  760MPD2    H511233   3.606   3.490  11.582 -0.8860  0.5708  0.6871
  760MPD2    N111234   3.430   4.035  11.531  0.3631 -0.1752 -0.2274
  760MPD2    H711235   3.503   4.052  11.462 -1.7540  1.3255 -2.0595
  761MPD2     C11236   4.447   3.231  10.926  0.1407 -0.0019  0.2426
  761MPD2    C111237   4.488   3.196  10.807  0.0358 -0.2266  0.2964
  761MPD2    C211238   4.554   3.294  10.728 -0.6523  0.4580  0.9482
  761MPD2    C311239   4.586   3.420  10.783  0.4132 -0.1587 -0.0324
  761MPD2    C411240   4.535   3.448  10.902  0.3944 -0.2624 -0.8022
  761MPD2    C511241   4.461   3.356  10.976 -0.2005 -0.0615 -0.1414
  761MPD2     H11242   4.600   3.265  10.634  2.1312  1.5665  1.9820
  761MPD2    H111243   4.542   3.547  10.946 -0.6807 -1.1068  1.2633
  761MPD2    H211244   4.398   3.152  10.982  1.1203 -1.0262 -0.3542
  761MPD2    H311245   4.408   3.389  11.065  1.4724  0.2422  0.7420
  761MPD2     N11246   4.662   3.511  10.717 -0.3373  0.4612 -0.2697
  761MPD2    H511247   4.690   3.597  10.763  2.1632  0.5157 -1.8944
  761MPD2    N111248   4.483   3.062  10.773  0.5852  0.3097  0.8995
  761MPD2    H711249   4.459   2.995  10.844  0.2674 -0.2277  0.2867
  762MPD2     C11250   0.159   2.756  10.198 -0.2709  0.0514 -0.3797
  762MPD2    C111251   0.196   2.705  10.320  1.0168  0.7867  0.2948
  762MPD2    C211252   0.321   2.644  10.328 -0.0802 -0.1053  0.0035
  762MPD2    C311253   0.402   2.621  10.213  0.2069 -0.1963  0.1148
  762MPD2    C411254   0.367   2.678  10.095  0.6336  0.3970 -0.1497
  762MPD2    C511255   0.241   2.742  10.086  0.0335  0.4665 -0.4594
  762MPD2     H11256   0.355   2.605  10.423  3.7457 -0.5805 -1.5613
  762MPD2    H111257   0.419   2.668  10.001 -1.0474  0.6107 -1.1163
  762MPD2    H211258   0.067   2.808  10.175 -0.6520 -1.0018 -1.2511
  762MPD2    H311259   0.213   2.805  10.002 -0.0677  1.1550  0.0943
  762MPD2     N11260   0.520   2.552  10.230 -0.6117 -0.3888 -0.5265
  762MPD2    H511261   0.533   2.502  10.317 -1.1629  0.0188 -0.2070
  762MPD2    N111262   0.114   2.728  10.434  0.6969  0.1910 -0.7451
  762MPD2    H711263   0.030   2.781  10.413  0.8631  0.4051 -0.8730
  763MPD2     C11264   2.050   3.667  15.999  0.8763  0.4869 -0.2400
  763MPD2    C111265   1.953   3.739  15.936  0.0159 -0.0266 -0.2948
  763MPD2    C211266   1.920   3.863  15.988 -0.4829  0.4518 -0.0239
  763MPD2    C311267   2.002   3.922  16.087 -1.4349  0.7276 -0.5605
  763MPD2    C411268   2.114   3.851  16.130  0.6543 -0.4002 -0.3602
  763MPD2    C511269   2.130   3.718  16.098  0.3119  0.0256  0.3338
  763MPD2     H11270   1.841   3.919  15.939  0.2020  0.7537 -0.7876
  763MPD2    H111271   2.193   3.898  16.187 -0.4247  1.2116 -0.1748
  763MPD2    H211272   2.070   3.568  15.958  1.2839  0.9552 -1.1617
  763MPD2    H311273   2.221   3.674  16.137  0.8354  0.8478  0.0485
  763MPD2     N11274   1.994   4.047  16.137 -0.6040 -0.3217 -0.6341
  763MPD2    H511275   2.048   4.073  16.219  0.1045  1.4478 -1.6521
  763MPD2    N111276   1.869   3.678  15.841 -0.0616 -0.1102  0.0997
  763MPD2    H711277   1.820   3.744  15.782  0.4297  1.0212  0.9739
  764MPD2     C11278   0.223   0.744   0.023 -0.0001 -0.3393  0.0754
  764MPD2    C111279   0.199   0.631  17.636 -0.3457 -0.1090 -0.0094
  764MPD2    C211280   0.122   0.527  17.689  0.0568 -0.0277  0.3601
  764MPD2    C311281   0.086   0.525   0.134 -0.3374  0.1384  0.0103
  764MPD2    C411282   0.120   0.637   0.214 -0.2852  0.5830  0.1391
  764MPD2    C511283   0.180   0.748   0.154 -0.4279 -0.2675  0.0205
  764MPD2     H11284   0.109   0.443  17.622  0.4302  0.9882 -0.9812
  764MPD2    H111285   0.103   0.647   0.321 -1.6123  1.2734 -0.1497
  764MPD2    H211286   0.276   0.828  17.672 -0.7596 -0.1440 -0.4547
  764MPD2    H311287   0.216   0.831   0.214  1.0834 -1.2600  0.4666
  764MPD2     N11288   0.025   0.404   0.182  0.1777  0.1413 -0.1453
  764MPD2    H511289   0.010   0.327   0.117 -0.5659  0.1452  0.0232
  764MPD2    N111290   0.272   0.615  17.511  0.2925 -0.4311 -0.7075
  764MPD2    H711291   0.249   0.530  17.461  0.9198 -1.9116  1.4797
  765MPD2     C11292   4.169   2.745  16.003  0.5457  1.1177 -0.0480
  765MPD2    C111293   4.263   2.843  15.982  0.0946 -0.1465  0.6144
  765MPD2    C211294   4.389   2.792  15.956  0.1652 -0.6645 -0.2461
  765MPD2    C311295   4.425   2.661  15.960  0.8484 -0.0204 -0.3046
  765MPD2    C411296   4.326   2.574  15.990 -0.0362  0.0901 -0.7018
  765MPD2    C511297   4.197   2.614  16.008  0.4956  0.1757 -0.5191
  765MPD2     H11298   4.478   2.852  15.940 -0.5368 -0.3389 -2.8415
  765MPD2    H111299   4.330   2.466  15.990  2.5662  0.1842  2.5162
  765MPD2    H211300   4.069   2.783  16.018  0.2243  0.5550 -0.7165
  765MPD2    H311301   4.122   2.543  16.038  1.6848 -0.5791  0.6294
  765MPD2     N11302   4.552   2.625  15.929 -0.0666  0.1283  0.4624
  765MPD2    H511303   4.611   2.704  15.905  1.9804 -0.6801  2.9516
  765MPD2    N111304   4.231   2.978  15.973  0.4513 -0.0735 -0.0186
  765MPD2    H711305   4.135   2.999  15.999  0.9857  0.9789  1.1270
  766MPD2     C11306   4.053   2.968  15.571  0.5122  0.0763 -0.4424
  766MPD2    C111307   4.056   3.103  15.558 -0.0755 -0.2497 -0.6449
  766MPD2    C211308   4.085   3.159  15.433 -0.9967  0.1918 -0.5257
  766MPD2    C311309   4.119   3.077  15.331 -0.1486  0.1803  0.1928
  766MPD2    C411310   4.127   2.937  15.348  0.1394 -0.7840 -0.2461
  766MPD2    C511311   4.099   2.886  15.471  0.0743  0.2024 -0.1512
  766MPD2     H11312   4.086   3.267  15.422 -1.7586  0.1738 -0.8214
  766MPD2    H111313   4.157   2.876  15.263 -0.7547 -0.7636 -0.5812
  766MPD2    H211314   4.026   2.924  15.666  0.0329  1.5384  0.0976
  766MPD2    H311315   4.119   2.782  15.494 -1.0008  0.1264  0.4148
  766MPD2     N11316   4.167   3.139  15.214  0.1275  0.1473  0.7122
  766MPD2    H511317   4.135   3.236  15.214  0.2288  0.1781  0.0206
  766MPD2    N111318   4.023   3.170  15.666 -0.2569  0.3182 -1.1953
  766MPD2    H711319   3.993   3.113  15.745 -0.3869  1.4568 -0.4219
  767MPD2     C11320   3.737   3.609  15.187 -0.1327 -0.9710 -0.5112
  767MPD2    C111321   3.859   3.557  15.163  0.1971 -0.3549  0.1999
  767MPD2    C211322   3.875   3.457  15.065 -0.4672 -0.1073 -0.0646
  767MPD2    C311323   3.759   3.411  14.998 -0.3133 -0.7040 -0.2385
  767MPD2    C411324   3.635   3.439  15.054  0.0350  0.4136  0.0352
  767MPD2    C511325   3.623   3.548  15.134 -0.2734 -0.9481 -0.6717
  767MPD2     H11326   3.968   3.416  15.029 -0.6101 -0.2742 -0.2460
  767MPD2    H111327   3.542   3.404  15.011  1.2112  0.4139 -2.5197
  767MPD2    H211328   3.720   3.684  15.264 -0.0472  1.6573 -3.0472
  767MPD2    H311329   3.528   3.581  15.173  1.7038 -0.7735  3.9764
  767MPD2     N11330   3.774   3.321  14.888  0.5833 -0.3434  0.1241
  767MPD2    H511331   3.873   3.314  14.866 -0.1303 -0.0699 -3.2670
  767MPD2    N111332   3.972   3.592  15.236 -0.0395 -0.5428 -0.1300
  767MPD2    H711333   3.965   3.686  15.275 -1.5328 -0.7246  0.0523
  768MPD2     C11334   0.337   1.424  10.645  0.8225 -0.5004 -0.9260
  768MPD2    C111335   0.296   1.357  10.757 -0.7184 -0.0739  0.4403
  768MPD2    C211336   0.378   1.366  10.873 -0.1455 -0.8856  0.6137
  768MPD2    C311337   0.495   1.437  10.869 -0.6409  0.5253  0.5917
  768MPD2    C411338   0.528   1.511  10.758  0.3225  0.0333  0.0703
  768MPD2    C511339   0.460   1.493  10.641  0.3862  0.4564 -1.0152
  768MPD2     H11340   0.345   1.307  10.958  0.0285 -2.4842 -0.4196
  768MPD2    H111341   0.622   1.565  10.762  0.1053  0.4615 -0.6132
  768MPD2    H211342   0.280   1.439  10.554 -0.3918 -0.9994 -0.2424
  768MPD2    H311343   0.483   1.565  10.564  2.5388 -0.9574 -1.6897
  768MPD2     N11344   0.569   1.442  10.987 -0.0688  0.2364 -0.6283
  768MPD2    H511345   0.645   1.510  10.989  1.8079 -1.8389 -2.6752
  768MPD2    N111346   0.173   1.299  10.765 -0.3774  0.3254  1.1538
  768MPD2    H711347   0.144   1.255  10.852 -0.5123 -1.2351  0.3361
  769MPD2     C11348   1.306   4.298  14.290  0.1237 -0.1123 -0.1820
  769MPD2    C111349   1.170   4.321  14.301  0.2402  0.0405  0.2877
  769MPD2    C211350   1.125   4.403  14.400  0.1868  0.4976  0.6347
  769MPD2    C311351   1.212   4.458  14.499 -0.3091 -0.3033 -0.3537
  769MPD2    C411352   1.342   4.430  14.485  0.6967 -0.3920 -0.2833
  769MPD2    C511353   1.392   4.361  14.376 -0.2069  0.4963  0.2558
  769MPD2     H11354   1.017   4.411  14.413  0.2298  0.7815  0.8197
  769MPD2    H111355   1.417   4.456  14.559  0.1816 -0.5026  0.2834
  769MPD2    H211356   1.352   4.243  14.209  2.2983 -2.7181  2.7940
  769MPD2    H311357   1.499   4.346  14.360  0.0971  1.4677  1.3995
  769MPD2     N11358   1.161   4.529  14.611  0.3246  0.6730  0.6776
  769MPD2    H511359   1.060   4.519  14.621  0.3140 -0.6735 -0.8790
  769MPD2    N111360   1.080   4.253  14.219  0.3636  0.0789  0.1952
  769MPD2    H711361   1.126   4.183  14.161  1.1042 -0.6269  1.6382
  770MPD2     C11362   0.670   3.482  14.419 -0.5855  0.1282  0.2557
  770MPD2    C111363   0.692   3.597  14.496  0.0021  0.1706 -0.7545
  770MPD2    C211364   0.744   3.712  14.434 -0.0198 -0.5707  0.6374
  770MPD2    C311365   0.743   3.717  14.300 -0.5623 -0.4060  0.4538
  770MPD2    C411366   0.722   3.604  14.223  0.1649 -0.3077  0.0073
  770MPD2    C511367   0.679   3.491  14.287 -0.2940  0.4316 -0.0781
  770MPD2     H11368   0.778   3.796  14.494 -0.3819  1.0118 -1.3717
  770MPD2    H111369   0.740   3.589  14.118 -1.7537  1.1773 -0.5476
  770MPD2    H211370   0.647   3.382  14.454 -0.4184 -0.6766 -1.9200
  770MPD2    H311371   0.658   3.399  14.234 -1.9991  1.4695 -1.2195
  770MPD2     N11372   0.793   3.835  14.239 -0.1053 -0.7181 -0.3755
  770MPD2    H511373   0.820   3.909  14.303 -0.6597 -0.8457  0.0044
  770MPD2    N111374   0.672   3.579  14.634  0.1020  0.2204  0.1967
  770MPD2    H711375   0.655   3.481  14.657  0.7261 -0.2623 -1.3919
  771MPD2     C11376   1.813   2.120  13.417  0.3394  0.0862 -0.8689
  771MPD2    C111377   1.731   2.227  13.454  0.1791 -0.5255  0.1323
  771MPD2    C211378   1.603   2.232  13.392 -0.3993 -0.5857  0.0082
  771MPD2    C311379   1.548   2.127  13.321 -0.1523 -0.1532  1.0303
  771MPD2    C411380   1.633   2.024  13.284 -0.3085 -0.2204  0.1971
  771MPD2    C511381   1.756   2.021  13.342  0.6831 -0.3733 -0.4890
  771MPD2     H11382   1.545   2.319  13.420 -1.1864  0.0779 -3.7481
  771MPD2    H111383   1.609   1.959  13.201  0.1075 -0.4856  0.2856
  771MPD2    H211384   1.912   2.102  13.457  0.6445 -1.5525 -2.3696
  771MPD2    H311385   1.817   1.938  13.309  0.9277 -0.6005  0.5407
  771MPD2     N11386   1.417   2.141  13.271 -0.3054 -0.0146 -0.8618
  771MPD2    H511387   1.363   2.223  13.297  1.3819  0.3844  1.4760
  771MPD2    N111388   1.770   2.338  13.537  0.0993  0.1259  0.0232
  771MPD2    H711389   1.707   2.418  13.548  0.2196 -0.4102  4.4583
  772MPD2     C11390   1.587   3.008  13.789  0.0664 -0.4349 -0.0927
  772MPD2    C111391   1.569   2.869  13.765 -0.3424 -0.2240 -0.0787
  772MPD2    C211392   1.436   2.824  13.760  0.5437 -0.3239  0.3633
  772MPD2    C311393   1.327   2.911  13.788  0.1370 -0.3664 -0.2608
  772MPD2    C411394   1.347   3.045  13.807 -0.6633 -0.1488 -0.2281
  772MPD2    C511395   1.476   3.088  13.802 -0.3539  0.2922  0.0264
  772MPD2     H11396   1.427   2.722  13.723  0.6889  1.2461 -4.0422
  772MPD2    H111397   1.270   3.119  13.822 -1.1705 -0.9644  1.1368
  772MPD2    H211398   1.682   3.053  13.814 -0.7836  1.9114 -1.0967
  772MPD2    H311399   1.503   3.193  13.808 -1.4902  0.4792  1.7768
  772MPD2     N11400   1.193   2.864  13.798  0.0906  0.8680  0.0286
  772MPD2    H511401   1.119   2.928  13.824  0.5929  0.8184  1.5816
  772MPD2    N111402   1.671   2.772  13.727  0.0903 -0.3123  0.3039
  772MPD2    H711403   1.647   2.674  13.713  0.0417 -0.5260  1.8829
  773MPD2     C11404   4.397   3.180   0.114 -0.1648 -0.1908 -0.0394
  773MPD2    C111405   4.495   3.201   0.022 -0.1502  0.0521  0.2459
  773MPD2    C211406   4.616   3.131   0.037 -0.0013  0.2788  0.2755
  773MPD2    C311407   4.627   3.036   0.141 -0.4939 -0.1307 -0.0533
  773MPD2    C411408   4.527   3.013   0.231  0.3755 -0.0221  0.3485
  773MPD2    C511409   4.419   3.096   0.223  0.4595  0.3453  0.8505
  773MPD2     H11410   4.694   3.148  17.658  0.7697 -1.2245  0.7513
  773MPD2    H111411   4.536   2.941   0.311  0.2807  0.4531  0.7911
  773MPD2    H211412   4.308   3.242   0.116  0.3604  0.5470  0.7300
  773MPD2    H311413   4.347   3.103   0.305 -1.0777 -0.3114 -0.4383
  773MPD2     N11414   0.028   2.974   0.155  0.2686  0.4471 -0.2628
  773MPD2    H511415   0.101   3.010   0.095 -1.1828  0.9682 -1.7164
  773MPD2    N111416   4.488   3.300  17.608 -0.2034  0.1023  0.2701
  773MPD2    H711417   4.573   3.302  17.553  0.2145 -1.5180  0.8726
  774MPD2     C11418   4.448   3.126  13.107  0.5786  0.3630 -0.7256
  774MPD2    C111419   4.526   3.148  13.217  1.1402 -0.7591  0.3005
  774MPD2    C211420   4.637   3.227  13.192 -0.2034 -0.8713 -0.3438
  774MPD2    C311421   4.670   3.288  13.073  0.7240 -0.6070  1.1646
  774MPD2    C411422   4.585   3.273  12.966  0.7467 -0.3082 -0.1597
  774MPD2    C511423   4.478   3.188  12.983 -0.3040  0.2756  0.6326
  774MPD2     H11424   4.709   3.236  13.272 -1.3546  2.8626  0.2718
  774MPD2    H111425   4.601   3.325  12.873  0.4065  0.0726 -0.0064
  774MPD2    H211426   4.362   3.061  13.094  1.3716 -1.2158  1.9303
  774MPD2    H311427   4.412   3.164  12.901  0.8116  1.8707 -0.7209
  774MPD2     N11428   0.067   3.365  13.070 -0.5485 -0.2744 -0.4148
  774MPD2    H511429   0.119   3.378  13.156 -0.7749 -1.8910 -0.0498
  774MPD2    N111430   4.493   3.080  13.334 -0.0087 -0.2129 -0.1346
  774MPD2    H711431   4.418   3.012  13.330  0.3283 -0.6061  0.2971
  775MPD2     C11432   1.398   4.230  15.300  0.1994  0.7687  0.3449
  775MPD2    C111433   1.348   4.352  15.351 -0.4994  0.1377 -0.7615
  775MPD2    C211434   1.420   4.473  15.332  1.1426 -0.4200  0.4581
  775MPD2    C311435   1.538   4.470  15.266  0.4380  0.3559 -0.1324
  775MPD2    C411436   1.584   4.348  15.223  0.2011  0.6024  0.1485
  775MPD2    C511437   1.515   4.230  15.232  0.5633  0.3475 -0.0214
  775MPD2     H11438   1.381   4.565  15.374  2.4579  0.3903 -0.0878
  775MPD2    H111439   1.681   4.343  15.174 -0.5816  1.2131 -1.4720
  775MPD2    H211440   1.348   4.135  15.310  0.5243  0.4617 -0.9389
  775MPD2    H311441   1.564   4.141  15.195  0.6895  0.9301 -1.2466
  775MPD2     N11442   1.628   4.586  15.252  0.8269 -0.3691 -0.1608
  775MPD2    H511443   1.712   4.577  15.196 -1.0783 -4.5990 -2.3366
  775MPD2    N111444   1.213   4.350  15.407 -0.6699 -0.8810 -0.0330
  775MPD2    H711445   1.170   4.260  15.421 -0.5810 -1.1048 -1.2160
  776MPD2     C11446   0.358   0.031  11.455  0.0653  0.3317 -0.1845
  776MPD2    C111447   0.376   0.053  11.317  0.3950 -0.9272 -0.7605
  776MPD2    C211448   0.482   0.133  11.283  0.2467  0.2284 -0.1531
  776MPD2    C311449   0.543   0.216  11.374  0.3289  0.8271  0.4251
  776MPD2    C411450   0.512   0.196  11.505 -0.1270 -0.3149 -0.1159
  776MPD2    C511451   0.427   0.107  11.552  0.7343 -0.1577  0.6340
  776MPD2     H11452   0.520   0.135  11.181 -0.5785  0.1308 -0.4633
  776MPD2    H111453   0.571   0.254  11.576 -0.7341  1.1966 -0.8616
  776MPD2    H211454   0.287   4.676  11.482 -0.1530  0.5402 -0.1638
  776MPD2    H311455   0.425   0.075  11.655  1.6297 -1.3498  0.2911
  776MPD2     N11456   0.648   0.310  11.354  0.2085  0.3179  0.4138
  776MPD2    H511457   0.676   0.362  11.436  1.9635  0.7277 -0.4604
  776MPD2    N111458   0.307   4.698  11.220  0.3687  0.0238  0.1070
  776MPD2    H711459   0.329   4.715  11.122 -2.1163 -1.9174 -0.7882
  777MPD2     C11460   4.601   2.065   0.522 -0.2046  0.4567  0.1685
  777MPD2    C111461   4.667   1.959   0.574 -0.3610  0.5331  0.0846
  777MPD2    C211462   4.715   1.857   0.495 -0.6629  0.1018  0.6650
  777MPD2    C311463   4.710   1.869   0.356 -0.0553 -0.2565  0.4006
  777MPD2    C411464   4.666   1.990   0.306  0.4243 -0.2803 -0.3847
  777MPD2    C511465   4.614   2.092   0.387  0.2191 -0.7434  0.4907
  777MPD2     H11466   0.036   1.765   0.534 -1.0312 -0.9791 -1.4813
  777MPD2    H111467   4.657   2.005   0.199  1.6960 -2.1747 -0.7522
  777MPD2    H211468   4.558   2.145   0.581 -1.3577 -0.8389  1.1082
  777MPD2    H311469   4.555   2.171   0.343 -1.0971 -1.6648  0.6008
  777MPD2     N11470   0.006   1.756   0.270  0.1586  0.3693 -0.3067
  777MPD2    H511471   0.018   1.664   0.311  3.2393  1.3558  0.9776
  777MPD2    N111472   4.692   1.956   0.715  0.0391 -0.2522  0.6153
  777MPD2    H711473   4.645   2.025   0.772 -1.9011 -1.6270  0.6658
  778MPD2     C11474   1.741   2.812  14.760  0.2547 -0.2371  0.7911
  778MPD2    C111475   1.769   2.681  14.732  0.0359  0.4125 -0.2001
  778MPD2    C211476   1.825   2.649  14.609  0.5933 -0.1508 -0.4258
  778MPD2    C311477   1.871   2.756  14.528  0.3298 -0.1341  0.4969
  778MPD2    C411478   1.841   2.886  14.559  0.1299  0.3600 -0.2137
  778MPD2    C511479   1.779   2.922  14.679  0.7023 -0.4620 -0.4335
  778MPD2     H11480   1.843   2.546  14.581 -0.2750 -0.4304  0.0421
  778MPD2    H111481   1.880   2.969  14.501 -0.7734  1.2970  0.5084
  778MPD2    H211482   1.684   2.836  14.849  0.7268  2.0960  0.4643
  778MPD2    H311483   1.766   3.028  14.697 -0.9347 -0.3788 -2.1136
  778MPD2     N11484   1.928   2.724  14.407 -0.2292 -0.3067  0.2763
  778MPD2    H511485   1.912   2.630  14.372 -0.4484 -0.4609  0.7875
  778MPD2    N111486   1.740   2.568  14.812 -0.2911 -0.6253 -0.1484
  778MPD2    H711487   1.757   2.476  14.773  0.0482  0.3555 -2.3014
  779MPD2     C11488   1.243   1.201  14.469  0.2764  0.1521  0.0403
  779MPD2    C111489   1.352   1.194  14.379 -0.4365  0.1380  0.1466
  779MPD2    C211490   1.381   1.308  14.307 -0.8099 -0.3596  0.2902
  779MPD2    C311491   1.318   1.426  14.332 -0.3412 -1.0521 -0.1437
  779MPD2    C411492   1.213   1.427  14.421  0.3788  0.7799  0.2067
  779MPD2    C511493   1.173   1.315  14.484 -0.5436 -1.2534 -0.5883
  779MPD2     H11494   1.455   1.304  14.227  0.3653 -1.0194  1.4077
  779MPD2    H111495   1.166   1.517  14.457 -0.3982  0.5921 -0.3445
  779MPD2    H211496   1.207   1.107  14.509  1.4560 -0.1809  0.3173
  779MPD2    H311497   1.087   1.322  14.550 -0.2502  0.7493 -0.4092
  779MPD2     N11498   1.365   1.548  14.265 -0.3787  0.6367  0.2155
  779MPD2    H511499   1.439   1.537  14.196 -0.3235  0.6651  0.2703
  779MPD2    N111500   1.421   1.076  14.347  0.4177 -0.2405 -0.4981
  779MPD2    H711501   1.498   1.095  14.283  1.9673  0.5410  1.5681
  780MPD2     C11502   1.092   1.052   1.022  0.3507 -0.0618  0.5686
  780MPD2    C111503   1.041   1.004   0.906  0.2407 -0.0750  0.2012
  780MPD2    C211504   1.052   1.080   0.788 -0.6974 -0.1862  0.3661
  780MPD2    C311505   1.108   1.205   0.788  1.2089  0.2751 -0.2844
  780MPD2    C411506   1.139   1.256   0.910  0.0995  0.0758 -0.1879
  780MPD2    C511507   1.130   1.184   1.025  0.9209  0.4956  0.2654
  780MPD2     H11508   1.031   1.046   0.687 -2.5487 -0.7002  0.9439
  780MPD2    H111509   1.183   1.354   0.919 -0.4556  0.3299 -0.2142
  780MPD2    H211510   1.065   1.007   1.117  1.0420  0.7892  1.1674
  780MPD2    H311511   1.147   1.237   1.118 -1.0303 -1.8698  1.9759
  780MPD2     N11512   1.141   1.265   0.663 -0.3165 -0.1749 -0.5423
  780MPD2    H511513   1.141   1.209   0.578  1.7298 -1.8133  0.5221
  780MPD2    N111514   0.979   0.873   0.911 -0.0224 -0.4367 -0.8461
  780MPD2    H711515   0.978   0.831   1.003 -1.5684  0.0803 -0.6099
  781MPD2     C11516   2.738   2.960  12.321 -0.0185 -0.7580  0.6608
  781MPD2    C111517   2.862   2.961  12.362 -0.0846 -0.0376  0.3577
  781MPD2    C211518   2.957   3.019  12.281 -0.5999 -0.0171  0.1049
  781MPD2    C311519   2.930   3.060  12.151 -0.8439  0.6975 -0.2533
  781MPD2    C411520   2.798   3.040  12.098 -0.1063  0.2220  0.0147
  781MPD2    C511521   2.706   2.997  12.190  0.0913  0.0269 -0.0881
  781MPD2     H11522   3.061   3.019  12.313 -0.5470  3.4377 -0.1256
  781MPD2    H111523   2.764   3.065  11.998 -2.7127  1.8315  1.3136
  781MPD2    H211524   2.662   2.926  12.391  0.9585 -1.1637  1.5248
  781MPD2    H311525   2.600   3.002  12.167  0.1929  0.0742 -0.5483
  781MPD2     N11526   3.034   3.094  12.058 -0.1950 -0.8099  0.2809
  781MPD2    H511527   3.009   3.092  11.960  1.0363 -0.3911 -0.0326
  781MPD2    N111528   2.907   2.899  12.483  0.5508  0.0831  0.0525
  781MPD2    H711529   2.999   2.922  12.518  0.6064 -1.0391  0.6314
  782MPD2     C11530   1.360   3.309   9.668 -0.5191  1.3723  0.0371
  782MPD2    C111531   1.314   3.361   9.784  0.3852  0.2748 -0.8725
  782MPD2    C211532   1.339   3.494   9.806 -0.5383 -0.0455  0.1947
  782MPD2    C311533   1.429   3.567   9.733 -0.1048  0.2779 -0.3203
  782MPD2    C411534   1.476   3.513   9.617 -0.2400 -0.0718 -0.6276
  782MPD2    C511535   1.434   3.390   9.584  0.4613  0.7209 -0.4013
  782MPD2     H11536   1.304   3.529   9.902 -1.2918  0.9800 -0.4508
  782MPD2    H111537   1.543   3.572   9.556  0.1423 -1.2272 -1.3364
  782MPD2    H211538   1.348   3.206   9.637 -1.2719  1.0099  1.5326
  782MPD2    H311539   1.479   3.342   9.497 -1.5804  0.6820 -1.4195
  782MPD2     N11540   1.469   3.692   9.790  0.3053  0.2543 -0.5584
  782MPD2    H511541   1.419   3.727   9.871 -0.0568  2.6517 -1.8384
  782MPD2    N111542   1.250   3.273   9.874 -0.4061 -0.4702  0.0732
  782MPD2    H711543   1.250   3.173   9.859 -1.7436 -0.3630 -0.6993
  783MPD2     C11544   0.395   3.095  10.380 -0.0396  0.4081  0.3103
  783MPD2    C111545   0.454   3.222  10.368  0.2665  0.0252 -0.0497
  783MPD2    C211546   0.581   3.229  10.317 -0.1855  0.4381 -0.1012
  783MPD2    C311547   0.651   3.120  10.285  0.0617  0.1623  0.4848
  783MPD2    C411548   0.592   2.993  10.295 -0.8672 -1.0877 -0.7623
  783MPD2    C511549   0.463   2.982  10.340 -0.2301  0.1652 -0.1312
  783MPD2     H11550   0.632   3.325  10.306  0.0272  0.4300  0.8238
  783MPD2    H111551   0.638   2.901  10.263 -1.2849 -0.9693 -1.6878
  783MPD2    H211552   0.294   3.082  10.417  0.5264 -2.1459  0.9634
  783MPD2    H311553   0.418   2.884  10.346 -2.8265  1.2220 -2.3269
  783MPD2     N11554   0.787   3.147  10.259  0.7773  1.0342  0.2283
  783MPD2    H511555   0.819   3.243  10.256 -2.1133  2.0348  1.3723
  783MPD2    N111556   0.381   3.335  10.417  0.4960  1.2564 -0.1931
  783MPD2    H711557   0.292   3.311  10.459  0.7998  2.8743  1.3535
  784MPD2     C11558   3.448   3.457   0.608 -0.4213  0.2145 -0.1072
  784MPD2    C111559   3.386   3.566   0.657 -0.5858 -0.6892  0.4325
  784MPD2    C211560   3.371   3.686   0.587 -0.1419 -0.1631  0.7646
  784MPD2    C311561   3.412   3.700   0.456 -0.0648  0.9358 -0.0172
  784MPD2    C411562   3.481   3.594   0.401 -0.2049 -0.6602 -0.4857
  784MPD2    C511563   3.497   3.482   0.482 -0.3802 -0.2569 -0.0313
  784MPD2     H11564   3.321   3.775   0.622 -1.2260 -0.0074 -1.1952
  784MPD2    H111565   3.515   3.600   0.299  0.7893  0.5793 -0.0811
  784MPD2    H211566   3.478   3.369   0.663 -0.8820  0.2472  0.1958
  784MPD2    H311567   3.551   3.397   0.441 -0.0690 -0.4107  0.6918
  784MPD2     N11568   3.395   3.822   0.386  0.2116 -0.4995 -0.5003
  784MPD2    H511569   3.340   3.890   0.438  1.9950  1.1990 -0.8070
  784MPD2    N111570   3.330   3.565   0.787 -0.3045  0.1604 -0.2566
  784MPD2    H711571   3.287   3.653   0.814  0.3369  0.1203  0.8954
  785MPD2     C11572   4.470   0.991  10.951  0.8126 -0.4726  0.0156
  785MPD2    C111573   4.334   0.970  10.929 -0.6687  0.0688 -1.5772
  785MPD2    C211574   4.297   0.862  10.852 -0.7941 -0.1690  0.1236
  785MPD2    C311575   4.392   0.802  10.772  0.2396 -0.5060 -0.7863
  785MPD2    C411576   4.528   0.829  10.793  0.4515  0.1376 -0.1175
  785MPD2    C511577   4.565   0.913  10.893  0.0839  0.0694 -0.0917
  785MPD2     H11578   4.195   0.827  10.839 -0.3587 -1.2065 -0.4703
  785MPD2    H111579   4.609   0.788  10.734  2.2752  2.3164  0.9044
  785MPD2    H211580   4.506   1.079  11.003  0.8835 -0.3732 -0.2004
  785MPD2    H311581   4.668   0.945  10.903  0.4728 -1.4678  0.9278
  785MPD2     N11582   4.351   0.707  10.678 -0.2179  0.6366 -0.1068
  785MPD2    H511583   4.251   0.697  10.662  0.0613 -0.5310 -1.1105
  785MPD2    N111584   4.239   1.042  10.997 -0.5365  0.3759  0.5850
  785MPD2    H711585   4.145   1.010  10.974 -0.4204 -0.2346  0.9737
  786MPD2     C11586   1.775   0.606  14.594  0.0975 -0.0560 -0.3221
  786MPD2    C111587   1.886   0.578  14.518 -0.2350  0.8014  0.1043
  786MPD2    C211588   2.002   0.641  14.558 -0.2795 -0.5918 -0.0437
  786MPD2    C311589   2.012   0.718  14.671  0.4710  0.7090  0.0027
  786MPD2    C411590   1.896   0.748  14.735 -0.6065 -0.0958  1.0974
  786MPD2    C511591   1.778   0.687  14.703 -0.5879 -0.2535 -0.0347
  786MPD2     H11592   2.089   0.620  14.496  0.3170 -1.4964  1.1008
  786MPD2    H111593   1.900   0.797  14.832 -1.4699  0.1918  0.9883
  786MPD2    H211594   1.674   0.567  14.588  0.9721 -2.1535 -1.2471
  786MPD2    H311595   1.691   0.696  14.766 -1.5363 -1.0791 -1.2288
  786MPD2     N11596   2.131   0.771  14.725  0.3363 -0.1103  0.4261
  786MPD2    H511597   2.123   0.842  14.797 -1.0084  1.2499 -1.0563
  786MPD2    N111598   1.892   0.505  14.398  0.4355  0.6919 -0.4145
  786MPD2    H711599   1.974   0.514  14.338  2.9670 -0.9452  2.8015
  787MPD2     C11600   2.423   0.347  14.173 -0.3904  0.1950 -0.7288
  787MPD2    C111601   2.351   0.233  14.189  0.1377  0.2290  0.0765
  787MPD2    C211602   2.413   0.122  14.248 -0.1596 -0.0011  0.1911
  787MPD2    C311603   2.543   0.125  14.290 -0.4534 -0.0534  0.3092
  787MPD2    C411604   2.620   0.238  14.271  0.2445 -0.0025  0.2752
  787MPD2    C511605   2.556   0.344  14.212 -0.0660  0.0181 -0.4418
  787MPD2     H11606   2.352   0.034  14.266  1.8017 -1.0168  1.8859
  787MPD2    H111607   2.723   0.250  14.304  0.5613 -0.1631 -0.6394
  787MPD2    H211608   2.384   0.434  14.123 -2.5926 -0.1844  0.3127
  787MPD2    H311609   2.613   0.434  14.192  0.0105  0.2423  0.7566
  787MPD2     N11610   2.612   0.016  14.346  0.3843  0.7138 -0.2048
  787MPD2    H511611   2.714   0.014  14.341  0.4650  1.9756  0.8292
  787MPD2    N111612   2.209   0.240  14.163  0.3740  0.0534 -0.1448
  787MPD2    H711613   2.179   0.335  14.143  0.9483  0.0441 -1.0528
  788MPD2     C11614   4.335   3.386   0.539  0.6228 -0.8548  0.2737
  788MPD2    C111615   4.210   3.328   0.551  0.3064  0.9186  0.3164
  788MPD2    C211616   4.120   3.356   0.445 -0.1111  0.1028 -0.4200
  788MPD2    C311617   4.160   3.437   0.344 -0.0134  0.1934 -0.0349
  788MPD2    C411618   4.285   3.489   0.331 -0.1782 -0.2781 -0.2387
  788MPD2    C511619   4.373   3.470   0.429  0.3566 -0.0590 -0.8068
  788MPD2     H11620   4.025   3.304   0.437 -0.2539  0.4643 -1.0346
  788MPD2    H111621   4.310   3.553   0.247 -1.0437 -2.3619 -2.0705
  788MPD2    H211622   4.408   3.374   0.618  2.0544  0.8535 -0.7940
  788MPD2    H311623   4.473   3.513   0.419  0.4395  0.0683  0.5292
  788MPD2     N11624   4.076   3.456   0.236  0.1159 -0.5269  1.0451
  788MPD2    H511625   4.122   3.460   0.145 -0.4584 -1.9169  0.6934
  788MPD2    N111626   4.175   3.238   0.657  0.0892  0.3462 -0.3651
  788MPD2    H711627   4.252   3.187   0.700  1.2685  1.1785 -1.5143
  789MPD2     C11628   4.496   3.043  16.282  0.1416 -0.3750 -0.0568
  789MPD2    C111629   4.431   2.951  16.355 -0.3976  0.0180 -0.0880
  789MPD2    C211630   4.311   2.983  16.420 -0.3617  0.2656  0.1956
  789MPD2    C311631   4.252   3.103  16.399  0.4216 -0.6807  1.0850
  789MPD2    C411632   4.317   3.195  16.325  0.5966  0.4776  1.0785
  789MPD2    C511633   4.444   3.169  16.275 -0.6134 -0.5638 -0.0928
  789MPD2     H11634   4.257   2.899  16.462 -2.0095  0.1497 -2.1148
  789MPD2    H111635   4.274   3.295  16.323  1.1980  0.7139 -0.1425
  789MPD2    H211636   4.592   3.023  16.234 -0.2172 -3.2298  0.4046
  789MPD2    H311637   4.501   3.248  16.227  1.0709 -0.8326  1.4610
  789MPD2     N11638   4.121   3.131  16.441 -0.0287 -0.5860  0.3327
  789MPD2    H511639   4.096   3.222  16.403 -0.7728 -1.3207 -0.9221
  789MPD2    N111640   4.482   2.816  16.364 -0.1026 -0.1302  0.3218
  789MPD2    H711641   4.428   2.756  16.424 -0.8045  0.7751  0.6003
  790MPD2     C11642   0.322   0.421  13.297 -0.3808  0.0244  0.5068
  790MPD2    C111643   0.379   0.293  13.298  0.6091  0.0253 -0.6980
  790MPD2    C211644   0.390   0.231  13.174 -0.0223 -0.4879  0.0493
  790MPD2    C311645   0.338   0.285  13.059  0.4061  0.2602  0.6744
  790MPD2    C411646   0.274   0.406  13.067  0.2714 -0.0069  0.1178
  790MPD2    C511647   0.264   0.474  13.185 -0.1221 -0.4058 -0.2149
  790MPD2     H11648   0.446   0.138  13.175 -0.5114 -0.7679  1.2103
  790MPD2    H111649   0.225   0.454  12.983  1.5769  1.4499  0.1704
  790MPD2    H211650   0.331   0.483  13.386 -1.7236  1.5285 -0.3967
  790MPD2    H311651   0.213   0.568  13.202 -0.3913 -0.7971  1.1569
  790MPD2     N11652   0.352   0.206  12.941 -0.4108 -0.1356  0.2640
  790MPD2    H511653   0.392   0.114  12.949  0.0407  0.1169  0.9505
  790MPD2    N111654   0.413   0.237  13.417  0.0711 -0.5781  0.1744
  790MPD2    H711655   0.399   0.296  13.499 -1.3179  0.5367 -0.8584
  791MPD2     C11656   4.481   0.107  12.486 -0.1669 -0.1858 -0.3561
  791MPD2    C111657   4.518   4.718  12.550  0.5314  0.6147 -0.0539
  791MPD2    C211658   4.433   4.605  12.569  0.2169 -0.2268 -0.0356
  791MPD2    C311659   4.310   4.614  12.518  0.1453  0.0658 -0.4079
  791MPD2    C411660   4.274   0.008  12.453 -0.0421  0.4714 -0.0258
  791MPD2    C511661   4.359   0.114  12.439  0.1587  0.6815 -0.8718
  791MPD2     H11662   4.466   4.516  12.621 -0.4057 -0.9067 -0.8015
  791MPD2    H111663   4.171   0.017  12.419 -0.8089  0.2638  2.2290
  791MPD2    H211664   4.546   0.193  12.478  1.8731 -1.7722 -0.9510
  791MPD2    H311665   4.324   0.206  12.392 -0.2683  0.0556 -1.7851
  791MPD2     N11666   4.228   4.501  12.544  0.4004  0.5537 -0.2390
  791MPD2    H511667   4.271   4.423  12.591  0.3504  0.9291  0.4357
  791MPD2    N111668   4.651   0.002  12.588 -0.5603  0.3312 -0.0615
  791MPD2    H711669   4.702   0.089  12.572  3.1943 -1.7034  0.8809
  792MPD2     C11670   1.557   4.628  10.717 -0.3311 -0.1590 -0.3768
  792MPD2    C111671   1.432   4.603  10.765 -0.8800 -0.2255 -0.4791
  792MPD2    C211672   1.360   4.512  10.694 -0.1249 -0.1324 -0.1380
  792MPD2    C311673   1.411   4.448  10.584  0.1429 -0.1355  0.0083
  792MPD2    C411674   1.541   4.477  10.541  0.6532  0.3875 -0.6799
  792MPD2    C511675   1.619   4.566  10.613 -0.0854 -0.1229 -0.6234
  792MPD2     H11676   1.254   4.507  10.719 -0.0589  3.7403  0.9888
  792MPD2    H111677   1.590   4.427  10.458  2.1720  0.7113  0.0204
  792MPD2    H211678   1.614   4.711  10.757 -0.3139 -1.0162  1.4174
  792MPD2    H311679   1.721   4.589  10.583  1.0203 -2.9806  0.9917
  792MPD2     N11680   1.347   4.343  10.521  0.4956 -0.0780 -0.2603
  792MPD2    H511681   1.404   4.302  10.448  2.6198  1.2329  0.6276
  792MPD2    N111682   1.389   4.679  10.870 -0.3333 -0.0252 -0.0233
  792MPD2    H711683   1.448   0.035  10.896  0.2797 -0.7670  0.8347
  793MPD2     C11684   0.483   3.984  10.108  0.2025  0.7164  0.1427
  793MPD2    C111685   0.581   4.085  10.073  0.2904  1.3398  0.5250
  793MPD2    C211686   0.698   4.099  10.141  0.3234  0.0808 -0.4821
  793MPD2    C311687   0.729   4.010  10.243  0.3251  0.3641  0.2600
  793MPD2    C411688   0.638   3.912  10.276 -0.3080 -0.3495  0.7771
  793MPD2    C511689   0.521   3.898  10.209  0.6473 -0.3617 -0.5242
  793MPD2     H11690   0.776   4.169  10.116  0.7863 -0.1039  0.4663
  793MPD2    H111691   0.657   3.830  10.344 -0.7452 -1.9229 -1.0125
  793MPD2    H211692   0.390   3.960  10.059  0.0733  1.4196  0.0346
  793MPD2    H311693   0.444   3.829  10.242  1.4902  0.3263  2.8953
  793MPD2     N11694   0.864   4.022  10.286 -0.3916 -0.6474 -0.8634
  793MPD2    H511695   0.920   4.093  10.242 -1.6069  0.6519 -0.3055
  793MPD2    N111696   0.559   4.175   9.969 -0.2550 -0.2044 -1.2197
  793MPD2    H711697   0.631   4.245   9.954 -1.4577  1.8077  2.2822
  794MPD2     C11698   4.594   4.119  17.488 -0.6179 -0.1694 -0.1363
  794MPD2    C111699   4.574   4.057  17.369  0.2106 -0.0481  0.3591
  794MPD2    C211700   4.594   4.125  17.248 -0.6354  0.0222 -0.9297
  794MPD2    C311701   4.657   4.249  17.248 -0.6669  0.3780  0.4991
  794MPD2    C411702   4.671   4.314  17.367  0.0535  0.2158  0.3346
  794MPD2    C511703   4.640   4.247  17.488  0.5370  0.5525  0.0208
  794MPD2     H11704   4.565   4.071  17.159 -1.4815 -0.1934 -0.5165
  794MPD2    H111705   4.714   4.413  17.373 -1.2537  0.7964  0.1700
  794MPD2    H211706   4.587   4.069  17.584  0.7764  0.2706  0.1973
  794MPD2    H311707   4.669   4.305  17.574  1.4908  0.5767 -0.3183
  794MPD2     N11708   4.708   4.311  17.127  0.4388  0.3491  0.0865
  794MPD2    H511709   0.016   4.408  17.134 -0.9549  0.9561 -2.6269
  794MPD2    N111710   4.524   3.927  17.356  0.1786 -0.7491  0.1239
  794MPD2    H711711   4.483   3.899  17.267  0.4295 -0.0856 -0.1977
  795MPD2     C11712   2.629   1.826  13.352  0.3122 -0.2920 -0.7190
  795MPD2    C111713   2.576   1.708  13.296 -0.5089 -0.5234 -0.1647
  795MPD2    C211714   2.652   1.593  13.304  0.2588 -0.3079 -0.0300
  795MPD2    C311715   2.785   1.584  13.355  0.1154  0.9904  0.3761
  795MPD2    C411716   2.823   1.701  13.413 -0.0180 -0.2425  0.3779
  795MPD2    C511717   2.752   1.813  13.409  0.7111 -0.4563 -0.2278
  795MPD2     H11718   2.611   1.502  13.261 -2.9021  1.5865 -1.0372
  795MPD2    H111719   2.916   1.707  13.468 -0.5564 -0.9607  1.3610
  795MPD2    H211720   2.571   1.917  13.353 -0.1646 -0.5969 -0.2330
  795MPD2    H311721   2.794   1.898  13.464 -0.0155 -1.0700  1.2794
  795MPD2     N11722   2.871   1.468  13.364  0.0075 -0.4118 -0.3964
  795MPD2    H511723   2.960   1.471  13.413 -0.4888 -1.1915  0.5508
  795MPD2    N111724   2.453   1.700  13.229 -0.3448  0.1978 -0.1972
  795MPD2    H711725   2.437   1.610  13.183 -0.0732 -0.5103  1.0993
  796MPD2     C11726   2.207   3.046  15.964  0.4895 -0.1549  0.3405
  796MPD2    C111727   2.306   3.126  16.016 -0.0784  0.4211  0.3311
  796MPD2    C211728   2.320   3.257  15.969  0.9275  0.1853  0.8461
  796MPD2    C311729   2.235   3.305  15.863 -0.0071 -0.0797 -0.4873
  796MPD2    C411730   2.146   3.218  15.797 -0.5185  0.0306 -0.4414
  796MPD2    C511731   2.128   3.100  15.859 -0.2577  0.4507  0.1805
  796MPD2     H11732   2.393   3.331  15.999  1.6256  0.3746 -1.3387
  796MPD2    H111733   2.082   3.244  15.713 -0.6321  1.8134  0.1965
  796MPD2    H211734   2.175   2.948  15.995 -2.4996  0.8145  0.3182
  796MPD2    H311735   2.045   3.037  15.830  0.7509  0.3422 -2.4531
  796MPD2     N11736   2.271   3.434  15.813 -0.6212  0.8989 -0.4700
  796MPD2    H511737   2.338   3.484  15.871 -0.4927 -0.9673  0.9728
  796MPD2    N111738   2.379   3.074  16.124 -0.0297  0.0859  0.7952
  796MPD2    H711739   2.358   2.981  16.157  0.4173 -0.8619 -1.6057
  797MPD2     C11740   3.905   2.274  17.245 -0.0290 -0.3929 -0.7846
  797MPD2    C111741   3.792   2.345  17.292 -0.0357 -0.3537 -0.2512
  797MPD2    C211742   3.690   2.379  17.206 -0.0125  0.6934 -0.7603
  797MPD2    C311743   3.698   2.351  17.065  0.4770 -0.1168  0.0605
  797MPD2    C411744   3.805   2.280  17.025  0.1700 -0.0396 -0.2008
  797MPD2    C511745   3.910   2.259  17.112  0.4869 -0.2550 -0.1938
  797MPD2     H11746   3.599   2.416  17.250  1.4268  2.5262  0.7015
  797MPD2    H111747   3.815   2.270  16.917  0.7350  2.3318 -0.3534
  797MPD2    H211748   3.999   2.261  17.297  0.6381  1.4834 -1.4941
  797MPD2    H311749   4.006   2.235  17.066 -0.1074 -1.3145 -0.8703
  797MPD2     N11750   3.601   2.396  16.968  0.2652  0.0593 -0.3547
  797MPD2    H511751   3.608   2.373  16.870  3.9131 -2.7138  0.5657
  797MPD2    N111752   3.767   2.390  17.420  0.1538  0.1569  0.2606
  797MPD2    H711753   3.680   2.441  17.424  0.5604  0.9271 -0.7015
  798MPD2     C11754   3.123   2.747  17.374 -0.2052  0.1501 -0.1012
  798MPD2    C111755   3.212   2.664  17.316  0.0049  0.0235 -0.1057
  798MPD2    C211756   3.316   2.621  17.394 -0.1936  0.5776  0.1602
  798MPD2    C311757   3.327   2.651  17.524  0.1045  0.1916  0.2911
  798MPD2    C411758   3.245   2.741  17.579 -0.0873 -0.3646  0.6951
  798MPD2    C511759   3.140   2.785  17.502  0.5170  0.0062  0.1335
  798MPD2     H11760   3.384   2.550  17.348  0.3108  0.3807  1.2013
  798MPD2    H111761   3.252   2.770  17.683  0.1267  2.6718 -0.1833
  798MPD2    H211762   3.031   2.776  17.325 -0.5818 -2.0577 -0.6882
  798MPD2    H311763   3.067   2.851  17.548 -0.0107  0.2377 -1.0397
  798MPD2     N11764   3.442   2.600  17.591 -0.7321  0.2929  0.6243
  798MPD2    H511765   3.497   2.536  17.534 -2.5467 -1.2016  0.5374
  798MPD2    N111766   3.215   2.620  17.182  0.7537  0.2428 -0.4177
  798MPD2    H711767   3.286   2.553  17.154  1.2044  0.7051 -0.3641
  799MPD2     C11768   2.193   4.336  14.413 -0.0591 -0.3131 -0.5728
  799MPD2    C111769   2.150   4.224  14.353  0.6287 -0.1991 -0.4945
  799MPD2    C211770   2.047   4.229  14.257  0.5027 -0.0101  0.0552
  799MPD2    C311771   1.984   4.349  14.225 -0.0773  0.3942  0.1563
  799MPD2    C411772   2.028   4.460  14.297  0.7431  0.5951 -0.1692
  799MPD2    C511773   2.128   4.457  14.392  0.5130  0.1154  0.3431
  799MPD2     H11774   2.006   4.137  14.217  2.3408 -0.9347  0.3309
  799MPD2    H111775   2.001   4.564  14.283 -3.1891 -0.2508  1.0635
  799MPD2    H211776   2.267   4.335  14.492 -1.1413 -2.6757  0.4130
  799MPD2    H311777   2.165   4.546  14.443  0.7346 -1.0464  2.2168
  799MPD2     N11778   1.888   4.368  14.122  0.8268  0.5203  0.3934
  799MPD2    H511779   1.866   4.464  14.100 -2.2919  0.0066  1.3204
  799MPD2    N111780   2.200   4.096  14.379  0.5563  0.1572  0.7354
  799MPD2    H711781   2.172   4.017  14.322 -0.5603  2.0419 -1.3361
  800MPD2     C11782   2.271   0.951  13.719  0.2714  0.6951 -0.2191
  800MPD2    C111783   2.388   0.941  13.648  0.2562 -0.5486  0.1117
  800MPD2    C211784   2.406   0.840  13.553  0.9574 -0.3514 -0.0564
  800MPD2    C311785   2.297   0.762  13.520 -0.1092 -0.4370  0.6860
  800MPD2    C411786   2.179   0.777  13.597 -0.1246 -0.7556 -0.1429
  800MPD2    C511787   2.172   0.863  13.699 -0.4987 -0.2413 -0.0685
  800MPD2     H11788   2.498   0.817  13.501  1.6605 -1.0519  1.5013
  800MPD2    H111789   2.092   0.714  13.586 -0.7916  0.4812 -2.0077
  800MPD2    H211790   2.259   1.030  13.792 -0.5676 -0.7953  1.2318
  800MPD2    H311791   2.078   0.872  13.752 -0.4324 -0.0197  0.0098
  800MPD2     N11792   2.298   0.653  13.425  0.1114  0.1375 -0.7192
  800MPD2    H511793   2.219   0.591  13.414 -1.1859  1.5586  0.4021
  800MPD2    N111794   2.493   1.036  13.678  0.0625 -0.1279 -0.8855
  800MPD2    H711795   2.487   1.098  13.758 -0.6231 -0.6837 -0.5044
  801MPD2     C11796   2.626   1.508  14.208  0.1112 -0.0236  0.0656
  801MPD2    C111797   2.552   1.426  14.121 -1.0806 -0.8127 -0.5152
  801MPD2    C211798   2.415   1.410  14.151 -0.1432 -0.3621 -0.3710
  801MPD2    C311799   2.354   1.465  14.261  0.6758  0.2201 -0.1638
  801MPD2    C411800   2.427   1.542  14.337 -0.9991 -0.0156  0.0400
  801MPD2    C511801   2.561   1.567  14.315 -0.5332  0.4145 -0.1572
  801MPD2     H11802   2.356   1.350  14.083 -2.5970  1.6949 -0.0704
  801MPD2    H111803   2.390   1.590  14.427  0.0169 -1.4551  1.2179
  801MPD2    H211804   2.733   1.518  14.199  0.2645 -1.0072  0.8973
  801MPD2    H311805   2.620   1.624  14.386  1.3299 -2.0250  0.2699
  801MPD2     N11806   2.215   1.444  14.289  0.0795  0.4715  0.2077
  801MPD2    H511807   2.169   1.482  14.371  0.7499  1.4196  0.1399
  801MPD2    N111808   2.609   1.353  14.014  0.0884 -0.9242 -0.2730
  801MPD2    H711809   2.546   1.289  13.968 -1.7072  1.8620 -1.7304
  802MPD2     C11810   1.931   2.526  17.546  0.4300  0.5626  0.6918
  802MPD2    C111811   1.893   2.430  17.632 -0.1669 -0.1544 -0.2201
  802MPD2    C211812   1.971   2.318  17.648  0.6717  0.0944 -0.4563
  802MPD2    C311813   2.100   2.308  17.588  0.0895  0.1521 -0.4865
  802MPD2    C411814   2.137   2.414  17.508  0.0225  0.0385  0.5108
  802MPD2    C511815   2.049   2.522  17.479 -0.2435 -0.2925  0.4241
  802MPD2     H11816   1.947   2.244   0.030 -0.8986  0.1017 -0.9591
  802MPD2    H111817   2.227   2.404  17.449 -0.3327  0.3914 -0.0890
  802MPD2    H211818   1.866   2.601  17.501  0.1106 -1.1994 -1.7587
  802MPD2    H311819   2.081   2.588  17.399  2.5899 -0.8777  1.0738
  802MPD2     N11820   2.170   2.189  17.605  0.2758  0.2829  0.0342
  802MPD2    H511821   2.129   2.117  17.663 -1.9412  1.5167  0.0211
  802MPD2    N111822   1.775   2.441   0.020  0.2990 -0.7112  0.2951
  802MPD2    H711823   1.751   2.370   0.089  0.5820  0.0600  1.1773
  803MPD2     C11824   3.097   4.597  11.457  0.0260 -0.0681  0.6085
  803MPD2    C111825   3.188   4.621  11.562 -0.2410  0.4444  0.1907
  803MPD2    C211826   3.163   4.570  11.689  0.3202 -0.3116 -0.2657
  803MPD2    C311827   3.045   4.493  11.701  0.4320  0.1135  0.3516
  803MPD2    C411828   2.960   4.471  11.595  0.0202 -0.6206  0.6401
  803MPD2    C511829   2.984   4.522  11.472  0.1696 -0.2710 -0.0308
  803MPD2     H11830   3.231   4.593  11.770 -1.2543  2.5707  0.2254
  803MPD2    H111831   2.865   4.420  11.607 -1.1945  1.5765  0.4688
  803MPD2    H211832   3.114   4.641  11.360  1.2967  0.2896  0.9939
  803MPD2    H311833   2.921   4.507  11.385  0.0752  2.0465 -0.3453
  803MPD2     N11834   3.012   4.420  11.818  0.3567  0.5590  0.0529
  803MPD2    H511835   2.915   4.391  11.825 -0.3408  2.6668 -0.9104
  803MPD2    N111836   3.302   4.704  11.551 -0.3251  0.5444  0.4554
  803MPD2    H711837   3.354   4.720  11.637 -0.3583 -1.1953  0.7909
  804MPD2     C11838   2.740   1.195  17.400  0.4033  0.5289  0.0222
  804MPD2    C111839   2.796   1.068  17.386  0.2678  0.0468  0.0403
  804MPD2    C211840   2.923   1.047  17.435  0.4173 -0.5447 -0.9217
  804MPD2    C311841   2.995   1.143  17.506 -0.2931 -0.2232  0.5594
  804MPD2    C411842   2.932   1.270  17.521  0.1517 -0.3278 -0.3227
  804MPD2    C511843   2.811   1.295  17.470  0.2990 -0.0599 -0.0372
  804MPD2     H11844   2.980   0.956  17.418 -0.9538 -1.6256  0.2554
  804MPD2    H111845   2.969   1.352  17.582  0.1133  0.1763 -0.9808
  804MPD2    H211846   2.645   1.231  17.363  0.0800  1.5461  1.8284
  804MPD2    H311847   2.762   1.391  17.481 -0.8109 -0.8597  1.8343
  804MPD2     N11848   3.122   1.116  17.548 -0.0882  0.1474  0.1145
  804MPD2    H511849   3.149   1.021  17.529 -0.1315  0.5632 -2.0316
  804MPD2    N111850   2.715   0.965  17.332 -0.1968 -0.6781  0.3256
  804MPD2    H711851   2.620   0.986  17.303 -0.1783 -0.3109  0.5180
  805MPD2     C11852   2.016   4.473  15.318  0.3672 -0.4169 -0.4913
  805MPD2    C111853   2.124   4.482  15.225  0.1902  0.4688  0.2585
  805MPD2    C211854   2.255   4.493  15.274 -0.0425  0.1716 -0.6858
  805MPD2    C311855   2.275   4.485  15.411  0.0135  0.4151  0.5875
  805MPD2    C411856   2.163   4.477  15.492 -0.2392  0.4974 -0.0041
  805MPD2    C511857   2.036   4.470  15.447 -0.2284  0.7418  0.1726
  805MPD2     H11858   2.336   4.505  15.203  0.7564  1.3295  0.4130
  805MPD2    H111859   2.164   4.479  15.601 -0.8037 -0.8557  0.0279
  805MPD2    H211860   1.910   4.462  15.296  0.1695 -0.5211  0.5129
  805MPD2    H311861   1.953   4.462  15.517  0.5463 -2.0268  0.8139
  805MPD2     N11862   2.407   4.504  15.466 -0.2015 -0.2648 -0.1242
  805MPD2    H511863   2.475   4.544  15.402 -1.1267 -0.2092 -1.0664
  805MPD2    N111864   2.098   4.481  15.084 -0.2002 -0.3276 -0.0704
  805MPD2    H711865   2.180   4.478  15.023 -1.1536 -1.1580 -1.3080
  806MPD2     C11866   2.549   3.435   0.039  0.1253 -0.2771 -1.1281
  806MPD2    C111867   2.457   3.506   0.106 -0.5206  0.1695 -0.1170
  806MPD2    C211868   2.470   3.640   0.099 -0.0332  0.2191  0.5429
  806MPD2    C311869   2.574   3.704   0.045  0.6153  0.9938  0.2458
  806MPD2    C411870   2.670   3.629  17.669  0.1391  0.3799 -0.6880
  806MPD2    C511871   2.658   3.495  17.680  0.3500  0.6020  0.3559
  806MPD2     H11872   2.392   3.706   0.134  0.6844  0.8012  1.0313
  806MPD2    H111873   2.752   3.666  17.608  1.2472  0.0824  0.6117
  806MPD2    H211874   2.533   3.329   0.023 -0.1459 -0.2366 -1.1216
  806MPD2    H311875   2.723   3.440  17.612  2.3258  1.8846  1.1967
  806MPD2     N11876   2.573   3.847   0.026  0.3492 -0.3851 -0.0414
  806MPD2    H511877   2.488   3.896   0.053  1.3684 -1.0304  4.2645
  806MPD2    N111878   2.359   3.437   0.180 -0.3433 -0.1756  0.0495
  806MPD2    H711879   2.369   3.337   0.176  0.7787 -0.1233  1.7215
  807MPD2     C11880   2.269   2.761   0.407 -0.3391  0.5101 -0.4066
  807MPD2    C111881   2.164   2.816   0.473 -0.5016  0.5394  0.3589
  807MPD2    C211882   2.088   2.744   0.565 -0.1936 -0.1749  0.1347
  807MPD2    C311883   2.110   2.612   0.593  0.0742  0.4705 -0.7100
  807MPD2    C411884   2.208   2.552   0.521 -0.5876  0.1932 -0.0329
  807MPD2    C511885   2.288   2.626   0.432  1.1677  0.3018  0.2016
  807MPD2     H11886   1.999   2.789   0.608 -0.6817 -1.2533  0.2430
  807MPD2    H111887   2.219   2.444   0.520 -0.8299  0.1767 -0.8785
  807MPD2    H211888   2.330   2.819   0.339  0.3825 -0.5358 -0.6639
  807MPD2    H311889   2.366   2.567   0.385 -0.6553 -4.4063  3.0879
  807MPD2     N11890   2.034   2.551   0.695 -0.6513  0.0991 -0.0436
  807MPD2    H511891   1.954   2.599   0.736 -0.0244  0.9626  0.1774
  807MPD2    N111892   2.136   2.954   0.459 -0.3161 -0.5904  0.1064
  807MPD2    H711893   2.072   2.998   0.524  0.4059 -1.1411  1.1940
  808MPD2     C11894   3.639   0.538   9.919 -0.3628  0.1844 -0.0869
  808MPD2    C111895   3.619   0.660   9.868 -0.0799 -0.2986 -0.9473
  808MPD2    C211896   3.728   0.748   9.864 -0.0336  0.3787 -0.6486
  808MPD2    C311897   3.856   0.722   9.917 -0.4391  0.6111 -0.2261
  808MPD2    C411898   3.876   0.591   9.947  0.0497 -0.1333  0.5446
  808MPD2    C511899   3.770   0.500   9.946  0.3983 -0.2085  0.0712
  808MPD2     H11900   3.715   0.847   9.820  1.9906  0.2358 -1.5848
  808MPD2    H111901   3.970   0.541   9.967 -0.0486 -0.6496 -0.2903
  808MPD2    H211902   3.554   0.471   9.920  0.6144 -1.0296  1.0580
  808MPD2    H311903   3.785   0.395   9.972 -0.5620 -0.2069  0.6531
  808MPD2     N11904   3.968   0.811   9.912  0.1891  0.2820  0.7043
  808MPD2    H511905   4.057   0.769   9.940 -0.8144 -1.8027  0.7963
  808MPD2    N111906   3.500   0.697   9.804 -0.4243 -0.2379  0.2366
  808MPD2    H711907   3.501   0.792   9.767  0.1089 -0.2210  0.2910
  809MPD2     C11908   4.654   0.515   9.551 -0.3255  0.1750  0.5403
  809MPD2    C111909   4.617   0.621   9.472 -0.0258 -0.1620 -0.7397
  809MPD2    C211910   4.549   0.726   9.526  0.4705  0.2050 -0.1237
  809MPD2    C311911   4.507   0.728   9.658  0.1062  0.3261  0.0997
  809MPD2    C411912   4.552   0.620   9.733 -0.2723 -0.6440  0.3036
  809MPD2    C511913   4.620   0.514   9.675  1.0293  0.3717 -0.3003
  809MPD2     H11914   4.526   0.806   9.458 -2.2591 -0.2376  0.2808
  809MPD2    H111915   4.525   0.610   9.837 -1.8397 -1.6960 -0.1975
  809MPD2    H211916   4.696   0.421   9.517 -1.5463 -0.6970  1.4400
  809MPD2    H311917   4.644   0.429   9.738 -1.6211  0.5751  0.9939
  809MPD2     N11918   4.425   0.831   9.717 -0.1053 -0.2174  0.3394
  809MPD2    H511919   4.403   0.826   9.816  0.1255  1.5833  0.4800
  809MPD2    N111920   4.628   0.618   9.335 -0.0276 -0.3383 -0.4137
  809MPD2    H711921   4.631   0.703   9.280  0.1707 -0.8676 -1.2331
  810MPD2     C11922   2.967   3.978  10.135  0.3426  0.1038  0.5482
  810MPD2    C111923   2.883   4.042  10.047  0.8124 -0.2561 -0.3931
  810MPD2    C211924   2.911   4.166   9.997  0.0845 -0.1794  0.0122
  810MPD2    C311925   3.036   4.219  10.030  0.0412  0.0857  0.0448
  810MPD2    C411926   3.134   4.143  10.104  0.5284 -0.3400  0.1943
  810MPD2    C511927   3.088   4.029  10.161  0.0162 -0.1951  0.0894
  810MPD2     H11928   2.849   4.215   9.923  0.8487 -0.0901 -0.5794
  810MPD2    H111929   3.231   4.189  10.124 -0.0236  0.1640  1.7060
  810MPD2    H211930   2.944   3.882  10.179  2.3650 -1.0260 -0.8938
  810MPD2    H311931   3.153   3.960  10.214  1.1954  0.5633 -0.3635
  810MPD2     N11932   3.066   4.351   9.983  0.2288 -0.3176  0.1393
  810MPD2    H511933   3.153   4.389  10.018  0.1951 -1.3984  1.4202
  810MPD2    N111934   2.761   3.966  10.014  0.0033 -0.0368  0.0226
  810MPD2    H711935   2.750   3.870  10.044  0.1405 -0.1040 -0.1407
  811MPD2     C11936   1.946   3.877   9.554 -0.6685  0.6391  0.4044
  811MPD2    C111937   2.062   3.947   9.575 -0.3456 -0.3071  0.5516
  811MPD2    C211938   2.081   4.055   9.490  0.2704 -0.5876 -0.3514
  811MPD2    C311939   1.996   4.087   9.387  0.6508 -0.1122  0.4920
  811MPD2    C411940   1.885   4.006   9.367  0.3691 -0.3291 -0.5557
  811MPD2    C511941   1.868   3.904   9.451  0.6391 -0.1397 -0.2310
  811MPD2     H11942   2.170   4.117   9.498 -0.4144  0.1817  1.0703
  811MPD2    H111943   1.809   4.036   9.296  0.9556  2.8373  0.1436
  811MPD2    H211944   1.915   3.791   9.613 -1.1966  0.3158 -0.3431
  811MPD2    H311945   1.775   3.848   9.442  0.9702 -0.8505  0.7384
  811MPD2     N11946   2.014   4.217   9.323  0.3629  0.1896 -0.4076
  811MPD2    H511947   2.099   4.267   9.347  0.5893 -1.1903  1.6709
  811MPD2    N111948   2.144   3.911   9.680  0.1528 -1.0318 -0.0831
  811MPD2    H711949   2.126   3.827   9.734 -1.2069 -0.7545 -0.0930
  812MPD2     C11950   1.493   4.456  12.186 -0.0151  0.2843  0.6638
  812MPD2    C111951   1.379   4.483  12.252 -0.0315  0.1842 -0.4273
  812MPD2    C211952   1.316   4.386  12.334 -0.0494  0.0916  0.5705
  812MPD2    C311953   1.354   4.254  12.339  0.8090  0.1704  0.0955
  812MPD2    C411954   1.478   4.225  12.281 -0.6006 -0.3601 -0.2854
  812MPD2    C511955   1.536   4.326  12.207 -0.1369  0.2762 -0.5160
  812MPD2     H11956   1.224   4.422  12.379  1.4335  1.8645  2.1793
  812MPD2    H111957   1.524   4.127  12.284 -0.8452 -0.4276  1.0654
  812MPD2    H211958   1.548   4.530  12.127  2.3271 -2.1413 -0.1895
  812MPD2    H311959   1.627   4.292  12.161 -0.1969 -2.1011  1.1257
  812MPD2     N11960   1.282   4.165  12.413  0.0879  0.9394 -0.1224
  812MPD2    H511961   1.212   4.208  12.473  0.9212  2.2864 -0.1227
  812MPD2    N111962   1.326   4.614  12.235  0.2273 -0.0466  0.0846
  812MPD2    H711963   1.388   4.679  12.188 -1.0332  0.7794 -0.4113
  813MPD2     C11964   0.176   1.724  12.770 -0.2302 -0.6334  0.2081
  813MPD2    C111965   0.204   1.854  12.754 -0.8319 -0.3593  0.1030
  813MPD2    C211966   0.097   1.942  12.776  0.5183  0.0699 -0.0133
  813MPD2    C311967   4.695   1.898  12.828 -0.3814 -0.0096  0.1286
  813MPD2    C411968   4.673   1.762  12.831  0.5236 -1.2521  0.2382
  813MPD2    C511969   0.051   1.674  12.802 -0.1623 -0.1537 -0.5105
  813MPD2     H11970   0.119   2.047  12.769  1.4257 -0.1708 -0.8934
  813MPD2    H111971   4.585   1.721  12.880 -1.1608  0.6161 -1.2420
  813MPD2    H211972   0.247   1.644  12.752 -1.1999 -1.4113 -0.1327
  813MPD2    H311973   0.046   1.568  12.820 -1.6864 -0.1587 -0.9772
  813MPD2     N11974   4.616   1.999  12.892 -0.5536 -0.2289 -0.1029
  813MPD2    H511975   4.664   2.083  12.922  1.4261 -1.6589  0.7852
  813MPD2    N111976   0.333   1.899  12.723 -0.6675 -1.2221 -0.0999
  813MPD2    H711977   0.403   1.825  12.722  0.4674 -0.1331 -1.9377
  814MPD2     C11978   0.620   3.319  12.175 -0.6872 -0.0861 -0.5074
  814MPD2    C111979   0.667   3.332  12.048  0.4418  0.3762  0.5670
  814MPD2    C211980   0.751   3.436  12.019  0.3586  0.1397 -1.0746
  814MPD2    C311981   0.793   3.526  12.113  0.5136 -0.1318  0.0573
  814MPD2    C411982   0.742   3.515  12.240  0.3890 -0.0349  0.1673
  814MPD2    C511983   0.653   3.415  12.268 -0.0968  0.2051 -0.4100
  814MPD2     H11984   0.778   3.456  11.916 -3.9706  1.6230 -1.9532
  814MPD2    H111985   0.770   3.591  12.312  0.3120  0.3631 -0.2188
  814MPD2    H211986   0.541   3.247  12.192  0.0366 -0.7733 -0.0300
  814MPD2    H311987   0.603   3.422  12.364 -1.5717  1.2525 -1.2766
  814MPD2     N11988   0.885   3.630  12.097  0.0884  0.3874 -0.3482
  814MPD2    H511989   0.888   3.692  12.178 -0.0610 -1.4704  1.0876
  814MPD2    N111990   0.639   3.241  11.939  0.3142  0.3151 -1.0817
  814MPD2    H711991   0.657   3.272  11.844 -0.8085  0.5677 -1.2191
  815MPD2     C11992   1.543   1.417  11.904 -0.5941  0.2765 -0.1793
  815MPD2    C111993   1.437   1.334  11.869  0.2256 -0.1868 -0.1465
  815MPD2    C211994   1.312   1.344  11.933 -0.2643 -0.1908 -0.4248
  815MPD2    C311995   1.299   1.436  12.042 -0.1880 -0.1119 -0.1883
  815MPD2    C411996   1.403   1.516  12.069 -0.5379  0.5929 -0.1286
  815MPD2    C511997   1.525   1.499  12.011  0.5891  0.0644  0.2814
  815MPD2     H11998   1.237   1.275  11.897  1.6087 -1.2420 -2.3210
  815MPD2    H111999   1.400   1.588  12.150  2.0325  0.8845 -0.2862
  815MPD2    H212000   1.645   1.410  11.868 -1.0702 -1.9013 -1.1101
  815MPD2    H312001   1.607   1.567  12.035  1.9018 -1.6718  0.6866
  815MPD2     N12002   1.175   1.454  12.097 -0.7900  0.4755 -0.0823
  815MPD2    H512003   1.107   1.399  12.046  0.8297 -0.3100 -1.4339
  815MPD2    N112004   1.466   1.232  11.769  0.0180  0.3369  0.1079
  815MPD2    H712005   1.555   1.233  11.721  0.5172 -3.1138  0.9411
  816MPD2     C12006   1.765   0.415  17.347  0.0142  0.7376 -0.1939
  816MPD2    C112007   1.695   0.492  17.256 -0.2102 -0.0731 -0.7412
  816MPD2    C212008   1.702   0.461  17.122  0.2461  0.2206  0.2034
  816MPD2    C312009   1.788   0.364  17.073  0.4570 -0.3249  0.1031
  816MPD2    C412010   1.862   0.296  17.165  0.2685 -0.6036  0.6380
  816MPD2    C512011   1.852   0.319  17.304  0.9494 -0.1136  0.1953
  816MPD2     H12012   1.638   0.516  17.054  0.8559 -1.7019 -1.9261
  816MPD2    H112013   1.931   0.217  17.134  3.3553  2.2844  0.1814
  816MPD2    H212014   1.755   0.437  17.453  0.1812  0.7940 -0.1890
  816MPD2    H312015   1.921   0.267  17.370 -0.9819  0.2716  2.5143
  816MPD2     N12016   1.787   0.341  16.938  0.1125 -0.3333 -0.4338
  816MPD2    H512017   1.724   0.401  16.886 -0.1218 -0.8735 -0.7667
  816MPD2    N112018   1.608   0.594  17.289  0.4898  0.3852  0.1921
  816MPD2    H712019   1.568   0.633  17.205 -1.9771 -0.3167  1.0480
  817MPD2     C12020   1.322   2.006  10.267 -0.2591 -0.0128 -0.3760
  817MPD2    C112021   1.439   2.068  10.258  0.6678  0.5215  0.2250
  817MPD2    C212022   1.451   2.182  10.176 -0.2650 -0.8326  0.7456
  817MPD2    C312023   1.340   2.228  10.105 -0.7791 -0.5552  0.1315
  817MPD2    C412024   1.226   2.152  10.108 -0.0245 -0.3426 -0.0469
  817MPD2    C512025   1.215   2.044  10.193 -0.0753 -0.2667 -0.0525
  817MPD2     H12026   1.545   2.235  10.170  0.4468 -1.8597  2.8655
  817MPD2    H112027   1.138   2.176  10.050  1.1148 -1.5838 -2.3079
  817MPD2    H212028   1.303   1.920  10.331 -0.9654  0.3433 -0.1143
  817MPD2    H312029   1.122   1.990  10.207 -0.2644  0.4276  1.4395
  817MPD2     N12030   1.354   2.338  10.025 -0.3074 -0.6829 -0.0899
  817MPD2    H512031   1.441   2.390  10.022 -1.4393  1.2111 -0.0219
  817MPD2    N112032   1.555   2.020  10.319 -0.1356  0.2282  0.2670
  817MPD2    H712033   1.642   2.072  10.319 -0.0714  0.1143 -0.1134
  818MPD2     C12034   0.222   1.864   9.812  0.3738 -0.0651 -0.2696
  818MPD2    C112035   0.199   1.845   9.943 -0.0311  0.6508  0.0285
  818MPD2    C212036   0.237   1.731  10.005  0.1167  0.9634  0.4002
  818MPD2    C312037   0.290   1.623   9.933 -0.8971 -0.3815  0.7288
  818MPD2    C412038   0.311   1.642   9.800 -0.2013 -0.4550  0.3794
  818MPD2    C512039   0.290   1.766   9.743  0.3152  0.5075  0.1009
  818MPD2     H12040   0.221   1.724  10.112 -1.4690 -0.3503  0.0796
  818MPD2    H112041   0.346   1.560   9.740 -1.4279  0.8813 -2.1590
  818MPD2    H212042   0.194   1.954   9.758 -0.6822 -0.0918  0.2401
  818MPD2    H312043   0.309   1.788   9.639  2.3629 -1.3492  0.0795
  818MPD2     N12044   0.309   1.489   9.990 -0.0881  0.0755  0.3376
  818MPD2    H512045   0.340   1.418   9.925  0.9470  0.8027  0.0363
  818MPD2    N112046   0.120   1.937  10.026  0.1445  0.0437 -0.3938
  818MPD2    H712047   0.110   1.917  10.125  0.1914  2.8011  0.1657
  819MPD2     C12048   2.818   4.025  15.374 -0.1458 -0.6704 -0.4114
  819MPD2    C112049   2.782   3.898  15.419 -0.1704 -0.6738  0.4421
  819MPD2    C212050   2.857   3.842  15.525 -0.0077  0.1313 -0.3965
  819MPD2    C312051   2.977   3.910  15.563  0.3867 -0.4197 -0.1474
  819MPD2    C412052   3.006   4.033  15.508 -0.2511 -0.5374  0.2480
  819MPD2    C512053   2.928   4.088  15.417 -0.2610  0.7949 -0.7417
  819MPD2     H12054   2.822   3.749  15.568 -0.8067  1.9450  2.8616
  819MPD2    H112055   3.100   4.078  15.534 -0.4380  1.5562 -2.7175
  819MPD2    H212056   2.760   4.073  15.296  0.9982 -0.0102 -0.8483
  819MPD2    H312057   2.944   4.185  15.372  0.7966  0.7729 -0.4032
  819MPD2     N12058   3.061   3.840  15.655  0.0161 -0.4198 -0.8726
  819MPD2    H512059   3.048   3.740  15.651  0.2944 -0.4794 -0.3179
  819MPD2    N112060   2.657   3.844  15.371  0.5515  0.2712 -0.0257
  819MPD2    H712061   2.615   3.897  15.295  1.1587  1.7502  0.6753
  820MPD2     C12062   2.025   3.857  14.636 -0.0288  0.6120  0.2163
  820MPD2    C112063   2.082   3.959  14.707 -0.4267  0.2452 -0.5739
  820MPD2    C212064   2.146   3.927  14.826 -0.0629 -0.2231  0.6045
  820MPD2    C312065   2.158   3.798  14.863  1.0019  0.2718  0.7888
  820MPD2    C412066   2.117   3.690  14.787  0.9661 -0.3883  0.0277
  820MPD2    C512067   2.042   3.728  14.671 -0.6806 -0.4674  0.3266
  820MPD2     H12068   2.193   4.005  14.885 -1.7860  0.7165  0.7429
  820MPD2    H112069   2.129   3.585  14.809  0.6971  0.1487  2.7313
  820MPD2    H212070   1.978   3.876  14.540 -0.0610  2.4455  0.6045
  820MPD2    H312071   2.007   3.646  14.609  1.0167 -0.2138 -0.9840
  820MPD2     N12072   2.218   3.763  14.982 -0.2484 -0.2835 -0.3725
  820MPD2    H512073   2.216   3.665  15.008  0.9676  0.0630  1.0945
  820MPD2    N112074   2.053   4.098  14.667  0.0006 -0.3761  0.7976
  820MPD2    H712075   1.976   4.112  14.603  0.0310 -1.6719  0.4943
  821MPD2     C12076   2.767   0.560  12.728  0.0120 -0.0683 -0.2472
  821MPD2    C112077   2.808   0.515  12.856 -0.5168 -0.1677  0.2949
  821MPD2    C212078   2.940   0.513  12.878  0.2760 -0.1465 -0.6527
  821MPD2    C312079   3.038   0.536  12.784 -0.0820 -0.1970 -0.0543
  821MPD2    C412080   2.999   0.577  12.653  0.3725  0.0479 -0.7213
  821MPD2    C512081   2.863   0.594  12.634  0.5471  0.3023  0.5478
  821MPD2     H12082   2.969   0.473  12.974  0.7805 -0.2156 -0.8331
  821MPD2    H112083   3.073   0.589  12.574  1.1184  0.7249  0.0891
  821MPD2    H212084   2.662   0.573  12.703 -0.6053 -1.9522  1.3857
  821MPD2    H312085   2.837   0.626  12.534  0.4191 -0.1502  0.4367
  821MPD2     N12086   3.175   0.530  12.804 -0.3353 -0.1284  0.4178
  821MPD2    H512087   3.233   0.585  12.742 -1.1998  0.4835  0.1410
  821MPD2    N112088   2.725   0.475  12.965  0.2527 -0.7168  0.3950
  821MPD2    H712089   2.766   0.447  13.053 -0.9933  2.2313  1.9320
  822MPD2     C12090   3.524   0.657  15.692 -0.0465 -0.0217 -0.2969
  822MPD2    C112091   3.621   0.695  15.783  0.2551 -0.3506 -0.0052
  822MPD2    C212092   3.593   0.800  15.870  0.3498  0.3331 -0.7063
  822MPD2    C312093   3.474   0.861  15.868  0.6445 -0.1574  0.1288
  822MPD2    C412094   3.385   0.818  15.783 -0.0903  0.2101 -0.1774
  822MPD2    C512095   3.407   0.730  15.691 -0.1573  0.9991  0.4763
  822MPD2     H12096   3.673   0.819  15.940 -0.6077  0.4137  0.3600
  822MPD2    H112097   3.288   0.866  15.772 -0.2272  0.3122  1.4975
  822MPD2    H212098   3.536   0.571  15.627  2.3898 -0.9754  1.3936
  822MPD2    H312099   3.326   0.698  15.627  1.7929 -0.9906 -0.9644
  822MPD2     N12100   3.443   0.968  15.957 -0.4511  0.0144 -0.2262
  822MPD2    H512101   3.348   1.004  15.957 -0.8040 -0.9439  3.2899
  822MPD2    N112102   3.746   0.618  15.806 -0.2994 -0.3018  0.0989
  822MPD2    H712103   3.803   0.654  15.882 -1.1368 -0.5991  0.8537
  823MPD2     C12104   3.208   0.981  16.768  0.0803 -0.6136 -0.6123
  823MPD2    C112105   3.302   0.958  16.672  0.1001 -0.2423 -0.6925
  823MPD2    C212106   3.394   0.851  16.685  1.4072 -0.5064 -0.4719
  823MPD2    C312107   3.389   0.778  16.808  0.4324  0.0589  0.0889
  823MPD2    C412108   3.278   0.789  16.888  0.0859  0.3627 -0.2230
  823MPD2    C512109   3.196   0.895  16.872 -0.5587  0.2276  0.2832
  823MPD2     H12110   3.475   0.840  16.614 -0.9618  2.3725 -3.6329
  823MPD2    H112111   3.259   0.728  16.975  2.6697  0.0795  0.1497
  823MPD2    H212112   3.135   1.061  16.757  0.9242  0.3135  0.5564
  823MPD2    H312113   3.118   0.910  16.946 -2.2564  2.9103 -2.0750
  823MPD2     N12114   3.468   0.668  16.834  0.2574  1.1342 -0.7222
  823MPD2    H512115   3.435   0.613  16.912 -0.3579  2.1760 -0.2457
  823MPD2    N112116   3.297   1.037  16.558 -0.1615  0.0086  0.6054
  823MPD2    H712117   3.238   1.119  16.553 -2.0559 -1.4308 -0.5109
  824MPD2     C12118   3.864   4.611  15.549  0.0339 -0.1623 -0.5216
  824MPD2    C112119   3.980   4.667  15.589  0.4582 -0.0059 -0.4911
  824MPD2    C212120   4.100   4.592  15.590  0.0716  0.2830  0.6698
  824MPD2    C312121   4.089   4.462  15.539 -0.3113 -0.0126  0.2807
  824MPD2    C412122   3.970   4.413  15.493  0.0336 -0.2694 -0.0493
  824MPD2    C512123   3.861   4.486  15.494 -0.0814  0.0135 -0.5632
  824MPD2     H12124   4.196   4.628  15.624  1.2239 -1.3699 -0.8560
  824MPD2    H112125   3.956   4.314  15.453 -0.5408  0.1129 -0.8045
  824MPD2    H212126   3.773   4.670  15.553  0.4746  0.4650  0.1735
  824MPD2    H312127   3.771   4.442  15.453 -2.0824  1.4110  2.3052
  824MPD2     N12128   4.210   4.398  15.518  0.0860  0.0138  0.8467
  824MPD2    H512129   4.289   4.441  15.565 -0.8934  0.2255  2.3149
  824MPD2    N112130   3.977   0.076  15.648  0.3812 -0.0901  0.3109
  824MPD2    H712131   3.885   0.118  15.642  0.6296  0.7624  2.4864
  825MPD2     C12132   0.196   4.658  15.391  0.2108  0.0954  0.4577
  825MPD2    C112133   0.080   4.631  15.312 -0.7017  0.1827 -0.4188
  825MPD2    C212134   0.034   0.003  15.226  0.3536 -0.3290  0.1456
  825MPD2    C312135   0.075   0.131  15.240  0.2422  0.4283 -0.2787
  825MPD2    C412136   0.186   0.162  15.316  0.2432  0.2220 -0.1006
  825MPD2    C512137   0.247   0.064  15.386  0.0601  0.6265  0.7277
  825MPD2     H12138   4.684   4.700  15.150  0.0200  0.6260  0.1395
  825MPD2    H112139   0.216   0.265  15.333  0.8429 -0.0780  0.6868
  825MPD2    H212140   0.229   4.575  15.454 -2.6095 -1.9684 -0.7903
  825MPD2    H312141   0.333   0.090  15.446  1.2398 -2.8583  0.5457
  825MPD2     N12142   0.021   0.237  15.168  0.2234  0.1680 -0.1860
  825MPD2    H512143   0.042   0.333  15.194 -0.8647  0.1238  0.8350
  825MPD2    N112144   0.024   4.502  15.324 -0.2060  0.0484  0.1713
  825MPD2    H712145   0.077   4.448  15.391 -1.2829 -1.1864  0.0320
  826MPD2     C12146   4.253   4.392  13.740  0.4855 -0.5422  0.2007
  826MPD2    C112147   4.168   4.400  13.629  0.0313 -0.1944  0.1933
  826MPD2    C212148   4.045   4.469  13.646  1.1921 -0.0463 -0.4654
  826MPD2    C312149   4.017   4.541  13.765 -0.1378 -0.5887  0.4780
  826MPD2    C412150   4.110   4.526  13.869  0.3951 -1.3804 -0.4691
  826MPD2    C512151   4.228   4.464  13.857  0.1590 -0.3499 -0.3274
  826MPD2     H12152   3.966   4.478  13.573  0.2349  1.2046  0.7385
  826MPD2    H112153   4.089   4.572  13.965 -0.0316 -1.1052 -0.6953
  826MPD2    H212154   4.350   4.343  13.738  1.3004  1.0908  0.0604
  826MPD2    H312155   4.297   4.468  13.941  1.4669 -0.8541 -1.3849
  826MPD2     N12156   3.908   4.623  13.786 -0.2995 -0.6794 -0.2350
  826MPD2    H512157   3.916   4.662  13.879 -1.1364 -1.7647  0.2963
  826MPD2    N112158   4.213   4.352  13.507 -0.6759 -0.3481  0.1324
  826MPD2    H712159   4.301   4.302  13.511 -0.9214 -0.6264  1.9124
  827MPD2     C12160   0.663   1.075  10.024 -0.7238 -0.9596 -0.4314
  827MPD2    C112161   0.621   0.955  10.073 -0.0703  0.6909  0.2899
  827MPD2    C212162   0.610   0.845   9.992  0.4106  0.1613 -0.0652
  827MPD2    C312163   0.657   0.854   9.863 -0.0072  0.0513  0.2687
  827MPD2    C412164   0.693   0.971   9.804 -0.1791  0.0425  0.2078
  827MPD2    C512165   0.692   1.078   9.889 -0.9289 -0.2821 -0.0719
  827MPD2     H12166   0.578   0.747  10.026  1.3223 -0.9052 -2.2752
  827MPD2    H112167   0.723   0.989   9.702  0.3650 -0.2867  0.3106
  827MPD2    H212168   0.674   1.161  10.090 -0.5018  0.0596 -1.7936
  827MPD2    H312169   0.719   1.173   9.845  1.1243 -0.3881  0.9665
  827MPD2     N12170   0.650   0.733   9.787  0.1206  0.7203 -0.0485
  827MPD2    H512171   0.604   0.650   9.825 -1.3031  1.6161  0.1907
  827MPD2    N112172   0.631   0.946  10.210  0.1404  0.5175  0.2591
  827MPD2    H712173   0.682   1.019  10.259 -0.5051 -0.4949  2.4503
  828MPD2     C12174   3.586   0.797  12.398 -0.7982 -1.0737  0.6188
  828MPD2    C112175   3.529   0.804  12.266 -0.0022  0.1319 -0.4312
  828MPD2    C212176   3.611   0.768  12.160  1.2426  0.5569  0.1112
  828MPD2    C312177   3.738   0.729  12.170 -0.1760 -0.5121 -0.0984
  828MPD2    C412178   3.794   0.725  12.296  0.1535 -0.4621  0.4741
  828MPD2    C512179   3.721   0.758  12.406  0.5994 -0.2668  0.3535
  828MPD2     H12180   3.552   0.777  12.070 -0.9016 -0.1783  1.4288
  828MPD2    H112181   3.899   0.704  12.306  0.5545  1.0018 -0.6835
  828MPD2    H212182   3.545   0.839  12.489  1.7458  0.5356  1.0289
  828MPD2    H312183   3.768   0.770  12.503  3.0878 -0.9799 -0.7720
  828MPD2     N12184   3.819   0.709  12.054  0.2331 -0.0402 -0.6472
  828MPD2    H512185   3.915   0.681  12.075 -1.2855 -2.1679  3.4864
  828MPD2    N112186   3.401   0.862  12.232  0.5711 -0.6577  0.5620
  828MPD2    H712187   3.361   0.853  12.139 -1.8066 -0.1142  1.5252
  829MPD2     C12188   3.070   1.030  11.457 -0.3469  0.0979  0.0718
  829MPD2    C112189   2.977   1.091  11.541  0.3777  0.0915 -0.1521
  829MPD2    C212190   2.989   1.088  11.676  0.7859  0.0617  0.0625
  829MPD2    C312191   3.100   1.036  11.737 -0.8167  0.4317  0.1625
  829MPD2    C412192   3.202   0.984  11.656 -0.1636  1.3489  0.3343
  829MPD2    C512193   3.180   0.976  11.517  0.4296 -0.4902  0.3613
  829MPD2     H12194   2.905   1.114  11.740 -1.7531 -3.3715 -1.8692
  829MPD2    H112195   3.287   0.935  11.701  0.3689  0.8787 -1.1998
  829MPD2    H212196   3.048   1.022  11.351 -0.3206 -0.7729  0.1294
  829MPD2    H312197   3.258   0.925  11.462  1.2215 -0.5169  1.5028
  829MPD2     N12198   3.116   1.027  11.877  0.6663  0.0128  0.4100
  829MPD2    H512199   3.186   0.964  11.915  1.5502  1.1866  0.6868
  829MPD2    N112200   2.858   1.131  11.478  0.1450  0.9187 -0.1578
  829MPD2    H712201   2.852   1.114  11.379 -0.8558  2.2962 -0.3240
  830MPD2     C12202   3.957   3.697  15.629  0.4364  0.2521 -0.0659
  830MPD2    C112203   3.846   3.738  15.563  0.6460 -0.7749 -0.7083
  830MPD2    C212204   3.850   3.836  15.462  0.0504 -0.9834 -0.2882
  830MPD2    C312205   3.973   3.893  15.433 -0.1254  0.8928  0.2564
  830MPD2    C412206   4.087   3.857  15.514 -0.2972  0.3686 -0.2215
  830MPD2    C512207   4.081   3.756  15.601 -0.1454  0.2278  0.0338
  830MPD2     H12208   3.760   3.873  15.414  0.0273  2.7269  2.5686
  830MPD2    H112209   4.181   3.910  15.509  0.1473 -0.5729 -2.0958
  830MPD2    H212210   3.946   3.619  15.703  1.6382  0.4534  0.3238
  830MPD2    H312211   4.170   3.711  15.644 -0.1654 -1.3558 -1.5732
  830MPD2     N12212   3.984   3.995  15.338  0.0198 -0.1220 -0.0603
  830MPD2    H512213   4.071   4.047  15.343  0.2188 -0.2443 -2.5293
  830MPD2    N112214   3.719   3.696  15.622 -0.1283  0.5698 -0.4229
  830MPD2    H712215   3.724   3.625  15.695 -0.4676 -0.3760 -1.3168
  831MPD2     C12216   4.103   0.703  16.311 -0.2225  0.1505  0.9636
  831MPD2    C112217   4.026   0.700  16.195  0.3794  0.0280  0.1623
  831MPD2    C212218   3.894   0.680  16.208 -0.6053  0.0948 -0.3482
  831MPD2    C312219   3.829   0.681  16.326 -0.0477 -0.8540  0.0022
  831MPD2    C412220   3.902   0.690  16.441  0.0913  0.5086  0.8366
  831MPD2    C512221   4.037   0.684  16.432  0.3724 -1.2034  0.6174
  831MPD2     H12222   3.833   0.702  16.122 -1.5872 -1.5115 -0.0519
  831MPD2    H112223   3.843   0.690  16.532  0.0664 -1.0224  0.8202
  831MPD2    H212224   4.211   0.711  16.308 -0.1912  0.1110  2.2502
  831MPD2    H312225   4.100   0.680  16.520  2.0272 -0.8570 -0.5635
  831MPD2     N12226   3.690   0.658  16.343  0.1886 -0.1943 -0.3652
  831MPD2    H512227   3.645   0.656  16.434  0.7085  0.8807 -0.0950
  831MPD2    N112228   4.085   0.728  16.070 -0.2931  0.3466  0.1665
  831MPD2    H712229   4.186   0.731  16.061 -0.0931  0.5015  2.2867
  832MPD2     C12230   2.245   1.939  17.260  0.2321 -0.4060  0.1775
  832MPD2    C112231   2.201   2.049  17.185  0.3817  0.4744 -0.0035
  832MPD2    C212232   2.088   2.022  17.106  0.2412  0.0706  0.0214
  832MPD2    C312233   2.040   1.893  17.086 -0.4892 -0.4778  0.4926
  832MPD2    C412234   2.093   1.791  17.161  0.4861  0.0374 -0.2142
  832MPD2    C512235   2.196   1.813  17.249  0.0224  0.2181 -0.5672
  832MPD2     H12236   2.063   2.103  17.039  2.5555 -0.3538 -1.3445
  832MPD2    H112237   2.065   1.687  17.144 -2.3943  1.1149 -2.1241
  832MPD2    H212238   2.331   1.951  17.325 -1.4084 -1.9366  2.6034
  832MPD2    H312239   2.239   1.731  17.306  0.9366 -1.1154 -3.1711
  832MPD2     N12240   1.931   1.864  17.001 -0.2917  0.2495 -0.2494
  832MPD2    H512241   1.897   1.768  17.004  0.3909 -0.0008 -0.5996
  832MPD2    N112242   2.275   2.174  17.201 -0.0518  0.2101 -0.0978
  832MPD2    H712243   2.351   2.174  17.267  1.0109  1.0899 -1.3058
  833MPD2     C12244   4.218   3.653  12.187  0.2192 -0.8181 -0.0107
  833MPD2    C112245   4.189   3.728  12.071 -1.1448 -0.0678 -0.3500
  833MPD2    C212246   4.255   3.693  11.953 -0.3754  0.3526 -0.2537
  833MPD2    C312247   4.344   3.591  11.947 -0.3321 -0.3851  0.2055
  833MPD2    C412248   4.384   3.532  12.065 -0.3255 -0.5374 -0.2528
  833MPD2    C512249   4.322   3.562  12.180 -0.3629  0.3650  0.3116
  833MPD2     H12250   4.223   3.744  11.863 -0.7628  1.5040  0.5440
  833MPD2    H112251   4.457   3.452  12.058  3.2346  2.6178  1.4128
  833MPD2    H212252   4.162   3.658  12.280  0.5315  0.3052  0.1213
  833MPD2    H312253   4.357   3.513  12.269  0.3880 -0.1968 -0.2903
  833MPD2     N12254   4.400   3.541  11.828  0.8513  0.1513  0.1983
  833MPD2    H512255   4.462   3.460  11.833  0.0294 -0.4955 -0.0065
  833MPD2    N112256   4.073   3.814  12.070 -0.2720 -0.1375 -0.4181
  833MPD2    H712257   4.025   3.823  12.159  1.0370  3.3523 -0.0528
  834MPD2     C12258   3.996   2.774  11.409 -0.4915 -1.0020 -0.0603
  834MPD2    C112259   4.063   2.815  11.294  0.2035  0.2922  0.2387
  834MPD2    C212260   4.135   2.935  11.306  0.4864  0.0797 -0.3042
  834MPD2    C312261   4.137   3.009  11.424  0.4137 -0.0827 -0.3227
  834MPD2    C412262   4.066   2.954  11.535 -0.3747  0.7804 -0.6650
  834MPD2    C512263   4.001   2.831  11.526 -0.1258 -0.5069 -0.0587
  834MPD2     H12264   4.195   2.972  11.223  0.6704 -1.2499 -0.7564
  834MPD2    H112265   4.066   2.998  11.634  1.3321 -2.5060  0.7977
  834MPD2    H212266   3.940   2.681  11.404  3.2375 -3.4375  2.5822
  834MPD2    H312267   3.952   2.792  11.614 -0.7465 -0.3207 -0.3189
  834MPD2     N12268   4.206   3.127  11.428  0.9106 -0.3543  0.3572
  834MPD2    H512269   4.266   3.150  11.349  0.9740 -1.4912  0.0781
  834MPD2    N112270   4.033   2.741  11.177  0.5207  0.2740  0.3502
  834MPD2    H712271   3.976   2.658  11.190  1.0895 -0.2243 -0.3006
  835MPD2     C12272   4.236   0.636  11.072 -0.0055 -0.1047  0.3518
  835MPD2    C112273   4.130   0.686  11.134 -0.0343  0.3615  0.4195
  835MPD2    C212274   4.150   0.773  11.238  0.6725  0.2251 -0.5524
  835MPD2    C312275   4.276   0.809  11.284  0.5441  0.6684  0.0303
  835MPD2    C412276   4.384   0.754  11.221  0.1179  0.2498  0.4722
  835MPD2    C512277   4.362   0.666  11.120  0.2143 -0.0344  0.2896
  835MPD2     H12278   4.065   0.815  11.290  0.9498 -0.1328  0.1980
  835MPD2    H112279   4.486   0.771  11.255  0.3333  0.9874 -0.5378
  835MPD2    H212280   4.224   0.569  10.988  0.5335 -0.3767  0.4912
  835MPD2    H312281   4.446   0.613  11.076  0.0119  1.7103 -2.2116
  835MPD2     N12282   4.305   0.896  11.392 -0.1110 -0.3880 -0.2597
  835MPD2    H512283   4.402   0.927  11.399  0.3889 -1.5709 -1.8347
  835MPD2    N112284   3.996   0.665  11.091  0.2230 -0.6599  0.1229
  835MPD2    H712285   3.925   0.716  11.141 -2.9257 -2.1318 -2.8550
  836MPD2     C12286   3.817   1.429  11.687  0.2820  0.1834 -0.2497
  836MPD2    C112287   3.919   1.401  11.779 -0.8112 -1.0959 -0.2202
  836MPD2    C212288   3.898   1.418  11.915 -0.6323 -0.0310  0.3981
  836MPD2    C312289   3.781   1.477  11.958  0.7244 -0.4803  0.2291
  836MPD2    C412290   3.687   1.511  11.865  0.4279  0.3778  1.0838
  836MPD2    C512291   3.706   1.485  11.732  0.8284  0.1706 -0.0024
  836MPD2     H12292   3.970   1.381  11.988 -0.7676 -0.9149  0.0855
  836MPD2    H112293   3.588   1.550  11.887  0.7276  0.8148  1.6789
  836MPD2    H212294   3.819   1.410  11.581  0.3859  1.6411 -0.5153
  836MPD2    H312295   3.638   1.516  11.653  1.8012 -1.0104 -1.3173
  836MPD2     N12296   3.754   1.497  12.092  0.3064 -0.6328 -0.2814
  836MPD2    H512297   3.665   1.545  12.105 -0.1811 -1.2168 -1.4139
  836MPD2    N112298   4.031   1.342  11.724  0.0689 -0.2297  0.5480
  836MPD2    H712299   4.034   1.337  11.623  1.0386  0.6876  0.5289
  837MPD2     C12300   2.286   0.219   9.467  0.4399 -0.1463 -0.3722
  837MPD2    C112301   2.156   0.216   9.421  0.8197  0.1704 -0.5524
  837MPD2    C212302   2.086   0.336   9.408 -0.4633  0.5718  0.0757
  837MPD2    C312303   2.148   0.456   9.437 -0.6291 -0.1268  0.2844
  837MPD2    C412304   2.277   0.463   9.481  0.0634 -0.3870  0.3019
  837MPD2    C512305   2.347   0.346   9.489  0.4567 -0.2546 -0.2527
  837MPD2     H12306   1.989   0.336   9.361  0.4690  0.1035 -1.8473
  837MPD2    H112307   2.332   0.557   9.475 -1.9794  0.9186  2.0711
  837MPD2    H212308   2.345   0.128   9.479 -0.3940 -0.9714 -2.4983
  837MPD2    H312309   2.454   0.351   9.508  0.6663 -1.9474 -0.9282
  837MPD2     N12310   2.082   0.576   9.393  0.0081  0.1936 -0.1000
  837MPD2    H512311   2.013   0.562   9.319  1.2901 -1.2134 -1.0425
  837MPD2    N112312   2.100   0.099   9.363 -0.0684  0.0645 -0.2719
  837MPD2    H712313   2.015   0.103   9.307 -0.9795  0.4944  1.1405
  838MPD2     C12314   0.964   3.756  11.337 -0.1111 -0.4135  0.6690
  838MPD2    C112315   0.887   3.739  11.221 -0.3682  1.2945 -0.1921
  838MPD2    C212316   0.752   3.712  11.230  0.2319 -0.8137  0.2592
  838MPD2    C312317   0.697   3.689  11.352  0.2029 -0.3298  0.4038
  838MPD2    C412318   0.773   3.704  11.468 -0.7419 -0.4603 -0.8667
  838MPD2    C512319   0.908   3.742  11.462 -0.3978  0.3989  0.2403
  838MPD2     H12320   0.699   3.691  11.138 -2.9525  3.5409  1.0854
  838MPD2    H112321   0.731   3.699  11.568  1.8120  0.1488  0.2279
  838MPD2    H212322   1.069   3.777  11.324 -0.1066 -0.4745  0.6081
  838MPD2    H312323   0.958   3.762  11.556  0.6940  0.5661 -0.3769
  838MPD2     N12324   0.564   3.636  11.353 -0.4497 -0.1562  0.1160
  838MPD2    H512325   0.514   3.632  11.264  1.1075  0.6221 -0.7980
  838MPD2    N112326   0.944   3.724  11.092 -0.1447 -0.1525  0.2574
  838MPD2    H712327   0.880   3.708  11.015 -1.4025 -0.3360  1.3263
  839MPD2     C12328   0.376   3.526  10.816  0.3104 -0.0644 -0.4650
  839MPD2    C112329   0.457   3.427  10.758  0.6057 -0.3410  0.0828
  839MPD2    C212330   0.586   3.461  10.724 -0.3292 -0.2289 -0.4447
  839MPD2    C312331   0.626   3.596  10.747  0.4448  0.1171 -0.4420
  839MPD2    C412332   0.537   3.693  10.794 -1.0151 -0.4538  0.2131
  839MPD2    C512333   0.413   3.654  10.826 -0.2558  0.5323 -0.0055
  839MPD2     H12334   0.660   3.393  10.682 -1.2983 -0.7659 -1.2920
  839MPD2    H112335   0.570   3.796  10.808  0.4128 -1.0592  1.4273
  839MPD2    H212336   0.272   3.516  10.845  0.5905 -3.2313 -0.5573
  839MPD2    H312337   0.348   3.724  10.878 -0.5556  1.0121 -1.0207
  839MPD2     N12338   0.759   3.640  10.725  0.3362  0.7776  0.6949
  839MPD2    H512339   0.787   3.735  10.746 -2.8691  1.4203  1.9682
  839MPD2    N112340   0.413   3.297  10.727 -0.1462 -0.9097  0.2855
  839MPD2    H712341   0.481   3.241  10.676 -0.2840 -1.5013  0.7497
  840MPD2     C12342   1.257   0.943  10.354 -0.1384 -0.0870  0.6125
  840MPD2    C112343   1.178   0.962  10.468  0.0998  1.0246  0.0213
  840MPD2    C212344   1.220   1.049  10.566 -0.3635  0.1386  0.1531
  840MPD2    C312345   1.339   1.114  10.545  0.4973 -0.1628  0.5018
  840MPD2    C412346   1.418   1.089  10.440 -0.1960  0.6843 -0.0421
  840MPD2    C512347   1.377   1.010  10.343  0.3791  0.3247  0.4464
  840MPD2     H12348   1.160   1.068  10.654  2.4079  0.3597  1.9840
  840MPD2    H112349   1.522   1.119  10.435 -0.1922  0.8479  1.0298
  840MPD2    H212350   1.224   0.882  10.270  0.1155  0.4828  0.0990
  840MPD2    H312351   1.437   0.996  10.254 -1.7834 -3.7374 -0.3951
  840MPD2     N12352   1.389   1.208  10.635  0.2537  0.3182  0.5706
  840MPD2    H512353   1.481   1.244  10.610  0.2832 -0.2781 -0.1770
  840MPD2    N112354   1.049   0.900  10.477 -0.4061  0.1925 -1.2463
  840MPD2    H712355   1.022   0.854  10.390 -1.6816  0.5651 -1.0549
  841MPD2     C12356   0.517   0.877  15.016  0.3928  0.0313 -0.6974
  841MPD2    C112357   0.609   0.890  14.916  0.2673  0.1372 -0.0481
  841MPD2    C212358   0.694   1.002  14.915 -0.5197  0.1883  0.3406
  841MPD2    C312359   0.695   1.084  15.024  0.0217 -0.2128  0.3195
  841MPD2    C412360   0.600   1.065  15.121 -0.6791  0.0767 -0.8880
  841MPD2    C512361   0.514   0.967  15.120  0.8133  0.1330  0.3512
  841MPD2     H12362   0.769   0.994  14.837  1.1536  2.3329  1.7368
  841MPD2    H112363   0.600   1.126  15.211  0.9071 -0.5497 -0.4684
  841MPD2    H212364   0.443   0.797  15.016 -1.6069  1.8629 -3.5305
  841MPD2    H312365   0.437   0.964  15.195  0.9452 -1.0348  0.4403
  841MPD2     N12366   0.800   1.174  15.052  0.0036 -0.0341  0.4397
  841MPD2    H512367   0.785   1.226  15.138  1.7691 -1.2347  1.4756
  841MPD2    N112368   0.616   0.798  14.813 -1.0108 -0.4715  0.2760
  841MPD2    H712369   0.664   0.843  14.736  2.1853  0.8548  3.0531
  842MPD2     C12370   1.507   2.118  16.983 -0.4083  0.3349  0.2882
  842MPD2    C112371   1.385   2.061  17.000 -0.1780 -0.1146 -0.1899
  842MPD2    C212372   1.364   1.975  17.109  0.0029 -1.0746 -0.3119
  842MPD2    C312373   1.468   1.943  17.204  0.4307  0.7847  0.4867
  842MPD2    C412374   1.591   2.005  17.179  0.6571  0.2613  0.5479
  842MPD2    C512375   1.605   2.091  17.069  0.4043 -0.6119 -0.5752
  842MPD2     H12376   1.270   1.921  17.104 -0.4469 -0.5415  2.4630
  842MPD2    H112377   1.673   2.004  17.250 -0.4889 -1.4010  1.8588
  842MPD2    H212378   1.526   2.193  16.907 -1.5523  0.2883 -0.0528
  842MPD2    H312379   1.703   2.136  17.060 -0.2868  0.5639 -2.3324
  842MPD2     N12380   1.460   1.857  17.316 -0.1951  0.0790  0.0739
  842MPD2    H512381   1.550   1.822  17.348 -0.5145  0.6267  1.5625
  842MPD2    N112382   1.280   2.106  16.917  0.4076  0.0192  0.0088
  842MPD2    H712383   1.300   2.181  16.852  0.7166 -1.8070 -1.9941
  843MPD2     C12384   3.228   2.200   1.053  0.0453  0.4306  0.5152
  843MPD2    C112385   3.128   2.225   0.964 -0.8281 -0.3480 -0.1798
  843MPD2    C212386   3.157   2.317   0.865 -0.1249  0.6514  1.0903
  843MPD2    C312387   3.288   2.376   0.857 -0.3390 -0.2339 -0.4002
  843MPD2    C412388   3.387   2.333   0.946 -0.1483  0.6231 -1.0442
  843MPD2    C512389   3.350   2.255   1.056  0.7659  0.0458  0.2898
  843MPD2     H12390   3.087   2.352   0.790  2.8945 -0.9787 -2.4581
  843MPD2    H112391   3.482   2.385   0.945 -1.0909  2.4616  3.6765
  843MPD2    H212392   3.211   2.139   1.140 -1.9389  1.2949  0.7299
  843MPD2    H312393   3.422   2.236   1.134  0.9028  0.6546  0.3107
  843MPD2     N12394   3.330   2.468   0.759 -0.3559 -0.3402 -0.0010
  843MPD2    H512395   3.428   2.493   0.761  0.2497 -2.7276 -0.2142
  843MPD2    N112396   2.992   2.176   0.989 -0.4601 -0.1222  0.8543
  843MPD2    H712397   2.987   2.133   1.081 -0.0149  2.7069  2.1960
  844MPD2     C12398   1.786   1.389  16.700  0.3316  0.1901  0.4642
  844MPD2    C112399   1.811   1.435  16.569 -0.4350 -0.1450  0.8106
  844MPD2    C212400   1.895   1.542  16.545  0.5776 -0.2525 -0.3956
  844MPD2    C312401   1.971   1.582  16.645 -0.1203 -0.2972 -0.2197
  844MPD2    C412402   1.971   1.520  16.763 -0.0389 -0.1188 -0.5555
  844MPD2    C512403   1.872   1.437  16.796  0.6672  0.3648  0.2391
  844MPD2     H12404   1.889   1.598  16.452 -0.9091 -0.0864 -0.2029
  844MPD2    H112405   2.041   1.535  16.845 -1.2573  1.5218  0.1903
  844MPD2    H212406   1.708   1.322  16.735  1.0967 -1.0894 -0.2642
  844MPD2    H312407   1.861   1.404  16.899  1.0442  1.2386  0.5589
  844MPD2     N12408   2.057   1.692  16.622 -0.7590 -0.0626  0.1358
  844MPD2    H512409   2.039   1.736  16.533 -1.5922 -1.1801 -0.2538
  844MPD2    N112410   1.725   1.398  16.465 -0.9337  0.4874  0.3965
  844MPD2    H712411   1.727   1.444  16.375 -0.6491 -0.2597  0.0221
  845MPD2     C12412   1.990   2.707  16.707  0.0277 -0.3900  0.8118
  845MPD2    C112413   2.003   2.654  16.831 -0.5280 -0.1720  0.2338
  845MPD2    C212414   2.025   2.523  16.844  0.4505 -0.3787 -0.1366
  845MPD2    C312415   2.048   2.442  16.737 -0.1204  0.3752 -0.6034
  845MPD2    C412416   2.035   2.490  16.609 -0.4278  0.4553  0.4006
  845MPD2    C512417   2.008   2.627  16.597  0.1080  0.3516 -0.7706
  845MPD2     H12418   2.043   2.484  16.944  0.2487 -1.8163 -0.6596
  845MPD2    H112419   2.068   2.433  16.522  3.9910 -1.0498  3.0698
  845MPD2    H212420   1.960   2.808  16.682 -1.0197 -1.1019 -0.7931
  845MPD2    H312421   2.005   2.677  16.501 -0.0954  1.1996 -0.3188
  845MPD2     N12422   2.089   2.312  16.766  0.3508  0.2975  0.1750
  845MPD2    H512423   2.112   2.292  16.863  1.6808  0.3255 -0.1428
  845MPD2    N112424   1.974   2.733  16.946  0.2620  0.3043  0.2080
  845MPD2    H712425   1.947   2.829  16.926  2.0838  0.5405 -1.0360
  846MPD2     C12426   3.636   3.100  13.924 -0.7454 -0.3069 -0.1485
  846MPD2    C112427   3.498   3.104  13.902 -0.3078 -0.2273  0.6605
  846MPD2    C212428   3.411   3.092  14.010 -0.7667  0.3662 -0.7183
  846MPD2    C312429   3.460   3.066  14.137 -0.6901  0.9465 -0.6196
  846MPD2    C412430   3.594   3.038  14.153  0.0723  0.0860 -0.1823
  846MPD2    C512431   3.679   3.064  14.046 -0.1492 -0.2178 -0.0622
  846MPD2     H12432   3.304   3.107  13.997 -0.8658  1.2727  1.2103
  846MPD2    H112433   3.636   3.005  14.247 -0.5563 -0.9093 -0.2574
  846MPD2    H212434   3.708   3.108  13.843  0.8439 -0.4835  1.2292
  846MPD2    H312435   3.782   3.043  14.070  0.4604  0.5964 -1.9340
  846MPD2     N12436   3.366   3.065  14.241 -0.6189  0.1942 -0.0433
  846MPD2    H512437   3.274   3.095  14.208 -0.3479 -1.1629 -2.0054
  846MPD2    N112438   3.441   3.144  13.780  0.5483 -0.1682  0.3456
  846MPD2    H712439   3.344   3.174  13.785 -0.4741 -3.1169 -1.4141
  847MPD2     C12440   3.489   3.900  14.105 -0.6028 -0.4095  0.4094
  847MPD2    C112441   3.606   3.939  14.172 -0.5934 -0.4054 -0.4115
  847MPD2    C212442   3.627   3.866  14.289  0.8590  0.6036  0.5636
  847MPD2    C312443   3.543   3.766  14.333  0.1630 -0.3376  0.8787
  847MPD2    C412444   3.422   3.745  14.269  0.3298  0.5921 -0.2681
  847MPD2    C512445   3.398   3.815  14.157 -0.8748 -0.1082  0.6881
  847MPD2     H12446   3.692   3.902  14.368  1.1467 -1.3955  1.2336
  847MPD2    H112447   3.351   3.673  14.306 -1.7037  1.8774 -1.6524
  847MPD2    H212448   3.466   3.956  14.015 -0.1069 -0.7365  0.0788
  847MPD2    H312449   3.315   3.791  14.092 -0.9281 -1.6871  1.3364
  847MPD2     N12450   3.565   3.691  14.447  0.4896  0.2970 -0.0241
  847MPD2    H512451   3.491   3.627  14.473  1.4206 -1.1312 -0.9060
  847MPD2    N112452   3.688   4.051  14.133 -0.0301 -0.6248  0.1363
  847MPD2    H712453   3.774   4.059  14.186  0.4819 -0.2103 -0.7564
  848MPD2     C12454   1.595   1.918  16.218 -0.6159  0.1258  0.1386
  848MPD2    C112455   1.652   1.998  16.322 -0.2865  0.7190  0.6234
  848MPD2    C212456   1.675   2.128  16.292  0.5411 -0.1288  0.1125
  848MPD2    C312457   1.668   2.174  16.162  0.2918  0.0458  0.6184
  848MPD2    C412458   1.614   2.095  16.062  0.3088  0.1759  0.0854
  848MPD2    C512459   1.580   1.965  16.088 -0.2308  0.5971 -0.1217
  848MPD2     H12460   1.713   2.190  16.372 -0.7725  4.2479 -2.6566
  848MPD2    H112461   1.610   2.132  15.960 -2.2444 -0.1789  0.0468
  848MPD2    H212462   1.571   1.812  16.222  0.0249 -0.1233 -2.6705
  848MPD2    H312463   1.558   1.903  16.003  0.3406  1.5231 -0.9393
  848MPD2     N12464   1.691   2.308  16.127 -0.2408 -0.4254 -0.1181
  848MPD2    H512465   1.654   2.338  16.038 -0.1480 -0.2321 -0.0901
  848MPD2    N112466   1.664   1.959  16.461 -0.1702 -0.2079 -0.1100
  848MPD2    H712467   1.678   2.034  16.527 -0.7671  0.8201 -1.1634
  849MPD2     C12468   0.230   2.072  14.399  0.2882  0.9964 -0.0035
  849MPD2    C112469   0.320   2.131  14.309 -0.4398  0.4163  0.2498
  849MPD2    C212470   0.454   2.153  14.355  0.2610  0.2044 -0.1717
  849MPD2    C312471   0.490   2.119  14.485  0.7245 -0.4934 -0.0530
  849MPD2    C412472   0.401   2.072  14.574 -0.0392  0.6313 -0.5105
  849MPD2    C512473   0.277   2.041  14.526 -0.0007  0.6674  0.0646
  849MPD2     H12474   0.521   2.211  14.292  2.2726  0.6327  2.3621
  849MPD2    H112475   0.430   2.042  14.674  1.6758  0.1694 -1.1552
  849MPD2    H212476   0.129   2.049  14.367  0.3339  0.5787  0.1466
  849MPD2    H312477   0.209   1.988  14.592  1.1519  2.6624  2.8818
  849MPD2     N12478   0.623   2.150  14.502 -0.1364  0.0577  0.6681
  849MPD2    H512479   0.675   2.187  14.422  0.3821 -0.5636  0.7179
  849MPD2    N112480   0.290   2.193  14.192 -0.2915  0.0347  0.2612
  849MPD2    H712481   0.359   2.260  14.159 -0.5333  2.0501  3.9058
  850MPD2     C12482   3.449   4.519  14.539 -0.0778  1.0458 -0.3226
  850MPD2    C112483   3.433   4.651  14.586  0.3489 -0.0962 -0.4325
  850MPD2    C212484   3.551   4.722  14.617 -0.5626  0.1250 -0.3236
  850MPD2    C312485   3.672   4.648  14.621  0.1880  0.1388 -0.1373
  850MPD2    C412486   3.683   4.520  14.568 -0.3124 -0.1401  0.5712
  850MPD2    C512487   3.572   4.460  14.528 -0.1377 -0.1531  0.1029
  850MPD2     H12488   3.547   0.105  14.642 -0.7738 -0.3168  1.5132
  850MPD2    H112489   3.777   4.468  14.578 -1.2453 -1.8321  0.7401
  850MPD2    H212490   3.369   4.460  14.496 -1.0728  0.6401  2.0861
  850MPD2    H312491   3.591   4.358  14.497  0.8977 -0.9242  3.3680
  850MPD2     N12492   3.791   4.697  14.678  0.4870 -0.9273 -0.6080
  850MPD2    H512493   3.865   4.627  14.671 -0.3875 -1.8353 -0.8101
  850MPD2    N112494   3.302   4.698  14.605  0.1196  0.2890 -0.0965
  850MPD2    H712495   3.238   4.641  14.550  1.0814 -0.0966 -0.8075
  851MPD2     C12496   3.789   0.142  15.246  0.4279 -0.0334  0.4103
  851MPD2    C112497   3.713   0.063  15.169  0.5686 -0.0813 -0.0278
  851MPD2    C212498   3.770   4.671  15.116  0.2281 -0.0818  0.2161
  851MPD2    C312499   3.895   4.631  15.152  0.2807 -0.0428 -0.6378
  851MPD2    C412500   3.970   4.712  15.237 -0.0451 -0.5189 -0.5136
  851MPD2    C512501   3.919   0.107  15.281  0.0916 -0.3808  0.3720
  851MPD2     H12502   3.728   4.598  15.048  1.1585 -0.9832  0.6221
  851MPD2    H112503   4.072   4.693  15.267 -0.6469  0.4597  2.1842
  851MPD2    H212504   3.749   0.233  15.290  0.7836  0.2286  0.1877
  851MPD2    H312505   3.983   0.159  15.352  1.4160  1.2236 -1.9761
  851MPD2     N12506   3.939   4.510  15.098 -0.0643  0.5082 -0.1396
  851MPD2    H512507   3.880   4.458  15.034  1.4669  0.2063 -1.3249
  851MPD2    N112508   3.578   0.100  15.140 -0.2154  0.0203  0.5239
  851MPD2    H712509   3.550   0.190  15.177 -0.5524  0.3583 -0.5492
  852MPD2     C12510   4.564   0.921  10.004  0.2597 -0.0544 -0.5374
  852MPD2    C112511   4.449   0.931  10.075  0.8303 -0.1203 -0.5962
  852MPD2    C212512   4.396   1.056  10.093  0.0571 -0.0214  0.1941
  852MPD2    C312513   4.450   1.168  10.031 -1.3158  0.3828 -1.0320
  852MPD2    C412514   4.563   1.153   9.948 -0.4188 -0.0719  0.0232
  852MPD2    C512515   4.618   1.029   9.938  0.4694 -0.2767  0.2069
  852MPD2     H12516   4.321   1.072  10.169  2.7693 -0.1120  2.8989
  852MPD2    H112517   4.613   1.234   9.897 -0.1994 -0.7406 -0.8374
  852MPD2    H212518   4.600   0.819   9.992 -0.6899 -0.1646 -2.5567
  852MPD2    H312519   4.712   1.027   9.885  0.0822  1.5346 -0.5544
  852MPD2     N12520   4.391   1.294  10.066 -0.0773 -0.5942  0.0842
  852MPD2    H512521   4.321   1.288  10.139 -0.6980 -1.2655 -0.5567
  852MPD2    N112522   4.395   0.812  10.127 -0.1691  0.1270  0.3661
  852MPD2    H712523   4.451   0.728  10.112  0.7571  0.6062  1.1261
  853MPD2     C12524   0.254   2.272  12.317 -0.2294 -0.4006  0.4273
  853MPD2    C112525   0.201   2.372  12.239  0.1795  0.2436  0.0364
  853MPD2    C212526   0.217   2.365  12.103  0.5232 -0.0293 -0.4304
  853MPD2    C312527   0.264   2.242  12.054 -0.0414 -0.1471  0.2824
  853MPD2    C412528   0.323   2.137  12.133  0.8666  0.1984  0.1071
  853MPD2    C512529   0.311   2.157  12.273 -0.3368  0.1007  0.2279
  853MPD2     H12530   0.187   2.449  12.041  0.3036  0.0763 -0.1822
  853MPD2    H112531   0.368   2.045  12.095  0.0151  1.1458 -3.1763
  853MPD2    H212532   0.227   2.275  12.422 -0.9182  2.3402  0.1729
  853MPD2    H312533   0.333   2.078  12.345 -0.6081 -0.2037 -0.0226
  853MPD2     N12534   0.269   2.217  11.912 -0.1666 -0.3250 -0.5492
  853MPD2    H512535   0.324   2.134  11.892  0.7651 -0.0110  0.7405
  853MPD2    N112536   0.138   2.476  12.307 -0.5941  0.0456 -0.1120
  853MPD2    H712537   0.147   2.471  12.408 -1.0315 -0.4745 -0.1006
  854MPD2     C12538   1.432   2.626  13.034 -0.3344 -0.1531  0.6130
  854MPD2    C112539   1.493   2.658  12.913 -0.4221  0.1767  0.1051
  854MPD2    C212540   1.605   2.588  12.872 -0.1827  0.6720  0.6460
  854MPD2    C312541   1.651   2.484  12.946  0.4363 -0.5170  0.2977
  854MPD2    C412542   1.590   2.455  13.062  0.5145 -0.0302 -0.0237
  854MPD2    C512543   1.485   2.525  13.104  0.2653 -0.4844 -0.0098
  854MPD2     H12544   1.645   2.603  12.773  0.7505 -0.1783  0.8957
  854MPD2    H112545   1.633   2.382  13.129 -1.7440 -0.9229  0.4418
  854MPD2    H212546   1.357   2.689  13.082 -0.8717 -1.9597  2.1532
  854MPD2    H312547   1.447   2.510  13.205  1.5575  0.7164  0.6470
  854MPD2     N12548   1.762   2.404  12.907  0.5984  0.1373  0.0237
  854MPD2    H512549   1.815   2.345  12.970  1.1385  2.0056  1.3338
  854MPD2    N112550   1.439   2.760  12.836 -0.0972  0.1155  0.1637
  854MPD2    H712551   1.347   2.800  12.850 -0.2426  0.0169 -0.5261
  855MPD2     C12552   2.451   2.383  13.338 -0.0363  0.3062 -0.7330
  855MPD2    C112553   2.414   2.253  13.308  0.2129 -0.2721 -0.2766
  855MPD2    C212554   2.347   2.219  13.197 -1.0477  0.4737  0.0690
  855MPD2    C312555   2.312   2.325  13.109 -0.0605 -0.0638 -0.2198
  855MPD2    C412556   2.360   2.452  13.131 -0.3824  0.5869  0.2386
  855MPD2    C512557   2.432   2.476  13.242 -0.7563  0.0033 -0.5062
  855MPD2     H12558   2.330   2.117  13.166 -2.3086  0.8523 -0.5020
  855MPD2    H112559   2.343   2.533  13.061  0.2305 -0.5983 -1.2933
  855MPD2    H212560   2.512   2.406  13.425  0.3075 -1.8964 -0.3711
  855MPD2    H312561   2.463   2.579  13.258 -1.6067  0.1877 -0.0371
  855MPD2     N12562   2.235   2.308  12.994 -0.0103 -0.2136  0.4689
  855MPD2    H512563   2.205   2.394  12.949  0.7194  0.3084  0.9930
  855MPD2    N112564   2.449   2.140  13.391 -0.1101  0.5419  0.0768
  855MPD2    H712565   2.429   2.053  13.345  3.4247 -1.6456  2.6737
  856MPD2     C12566   4.323   3.264  14.239 -0.1862 -0.2563  0.3422
  856MPD2    C112567   4.409   3.344  14.166 -0.0074 -0.4005 -0.3351
  856MPD2    C212568   4.358   3.437  14.072  0.6929 -0.5962 -0.1109
  856MPD2    C312569   4.223   3.446  14.058  0.1875 -0.4677 -0.0725
  856MPD2    C412570   4.137   3.362  14.123  0.1465 -0.5700  1.0629
  856MPD2    C512571   4.184   3.278  14.222 -0.7504  0.5901  0.8153
  856MPD2     H12572   4.420   3.503  14.012  0.1717  0.9745  1.0488
  856MPD2    H112573   4.034   3.354  14.092  0.0432  0.5979  1.1132
  856MPD2    H212574   4.351   3.185  14.308 -0.5915 -0.6887  0.0049
  856MPD2    H312575   4.110   3.223  14.278 -0.1382  0.4526  1.4882
  856MPD2     N12576   4.152   3.542  13.983  0.2727  0.3804  0.2081
  856MPD2    H512577   4.054   3.557  14.005  0.1269  0.0199 -0.2167
  856MPD2    N112578   4.545   3.361  14.197  0.2588 -0.3896 -0.0413
  856MPD2    H712579   4.587   3.441  14.150  0.6854 -0.0610  0.9062
  857MPD2     C12580   1.089   0.310  13.058  0.5922 -0.9292  0.3808
  857MPD2    C112581   1.190   0.321  12.963  0.3045 -0.4831 -0.2801
  857MPD2    C212582   1.234   0.444  12.924  0.3271 -0.5703  0.0150
  857MPD2    C312583   1.178   0.559  12.990  0.7049  0.2566 -0.1516
  857MPD2    C412584   1.095   0.545  13.105  0.0305  0.2604 -0.1336
  857MPD2    C512585   1.046   0.415  13.130 -0.3026  0.5746 -0.1162
  857MPD2     H12586   1.323   0.458  12.863  0.2045 -3.0851 -0.7610
  857MPD2    H112587   1.052   0.624  13.165 -0.5646 -1.6465  1.9387
  857MPD2    H212588   1.046   0.213  13.084 -0.1770 -0.6719  0.0769
  857MPD2    H312589   0.981   0.412  13.216 -1.3449  0.3402 -0.9213
  857MPD2     N12590   1.220   0.677  12.934 -0.7495 -0.1157  0.1968
  857MPD2    H512591   1.303   0.672  12.876 -1.6771  0.3136 -1.1539
  857MPD2    N112592   1.238   0.206  12.907  0.0347  0.1863 -0.3031
  857MPD2    H712593   1.204   0.117  12.942 -1.3784  0.1270 -1.8477
  858MPD2     C12594   1.667   4.653  16.564  0.5554  0.1271 -0.1880
  858MPD2    C112595   1.748   4.561  16.619 -0.5397 -0.3198 -0.1034
  858MPD2    C212596   1.764   4.558  16.752 -0.0479 -0.3008  0.4012
  858MPD2    C312597   1.688   4.649  16.825  0.7617  0.1400 -0.1269
  858MPD2    C412598   1.606   0.022  16.772 -0.3878  0.2115  0.2327
  858MPD2    C512599   1.591   0.015  16.641 -0.1245 -0.3908 -0.1501
  858MPD2     H12600   1.833   4.492  16.804  0.3514  0.4076  0.7612
  858MPD2    H112601   1.561   0.103  16.829 -0.0546  2.1450 -2.2816
  858MPD2    H212602   1.650   4.660  16.457  1.0431  0.0475 -0.2681
  858MPD2    H312603   1.533   0.092  16.592  1.0912  2.4448  2.9168
  858MPD2     N12604   1.700   4.664  16.970 -0.2706 -0.8027 -0.2031
  858MPD2    H512605   1.638   0.010  17.009 -0.7638 -0.8306 -0.9467
  858MPD2    N112606   1.817   4.473  16.522  0.4542 -0.1546  0.2745
  858MPD2    H712607   1.789   4.490  16.426  0.7057 -2.4155 -0.1992
  859MPD2     C12608   0.369   1.830  15.342  0.8683 -0.8748  0.2124
  859MPD2    C112609   0.428   1.886  15.457 -0.4718 -0.1747 -0.4540
  859MPD2    C212610   0.424   1.811  15.570 -0.0300  0.5982  0.1202
  859MPD2    C312611   0.357   1.692  15.571  0.2580  0.1241 -1.0876
  859MPD2    C412612   0.310   1.632  15.458 -0.0652  0.0135  0.2990
  859MPD2    C512613   0.312   1.706  15.340 -0.1140  0.2190 -0.2127
  859MPD2     H12614   0.472   1.852  15.657 -1.2013 -2.9196  2.4311
  859MPD2    H112615   0.263   1.534  15.456 -1.5190  0.6396  3.7202
  859MPD2    H212616   0.360   1.884  15.249  2.4343 -1.9382 -0.5482
  859MPD2    H312617   0.268   1.669  15.248 -1.7128 -0.5961  0.8835
  859MPD2     N12618   0.349   1.603  15.683  0.1763 -0.3058 -0.5956
  859MPD2    H512619   0.315   1.508  15.674 -0.8543  0.0036 -0.0346
  859MPD2    N112620   0.493   2.016  15.443 -0.8546  0.0015 -0.0874
  859MPD2    H712621   0.461   2.074  15.366  1.0405  2.6124  1.0993
  860MPD2     C12622   3.288   2.284  11.520  0.0472 -0.1474 -0.4629
  860MPD2    C112623   3.357   2.264  11.639 -0.6361 -0.8597 -0.1845
  860MPD2    C212624   3.298   2.186  11.735  1.2832  0.4144  0.3516
  860MPD2    C312625   3.169   2.128  11.718  0.5808  0.0556 -0.1449
  860MPD2    C412626   3.107   2.142  11.599 -0.0373  0.0332  0.2801
  860MPD2    C512627   3.166   2.216  11.502  0.7852  0.1464 -0.6929
  860MPD2     H12628   3.350   2.174  11.829 -2.8543 -1.5684  2.3390
  860MPD2    H112629   3.010   2.099  11.581 -0.7406  1.5849  0.3526
  860MPD2    H212630   3.323   2.339  11.433  0.5935 -1.1268 -0.8601
  860MPD2    H312631   3.117   2.216  11.405  0.2701 -0.1800 -0.4292
  860MPD2     N12632   3.114   2.053  11.823  0.0427  0.5706  0.9266
  860MPD2    H512633   3.172   2.039  11.905  0.2678 -0.7749  0.5393
  860MPD2    N112634   3.481   2.323  11.671 -0.2910  0.8321  0.2864
  860MPD2    H712635   3.501   2.315  11.770 -0.8368 -1.6290  0.2125
  861MPD2     C12636   2.019   0.119  10.786 -0.2869 -0.2920  0.0541
  861MPD2    C112637   1.914   0.144  10.872 -0.5823 -0.0785 -0.1747
  861MPD2    C212638   1.794   0.186  10.807  0.0997 -0.6744  0.0954
  861MPD2    C312639   1.781   0.207  10.670 -0.1924  0.2358 -0.8236
  861MPD2    C412640   1.886   0.181  10.590  0.3213 -0.6734 -0.0251
  861MPD2    C512641   2.000   0.139  10.651  0.8363 -0.7251 -0.4790
  861MPD2     H12642   1.711   0.196  10.876 -1.5743 -0.3847 -1.9725
  861MPD2    H112643   1.889   0.188  10.482  1.0793  1.5336  0.1453
  861MPD2    H212644   2.115   0.080  10.818  0.2487  0.9276 -0.0613
  861MPD2    H312645   2.082   0.125  10.582  0.1399  2.1692 -1.8834
  861MPD2     N12646   1.667   0.265  10.610 -0.2311  0.7217 -0.2000
  861MPD2    H512647   1.685   0.301  10.517  1.4799  0.0543 -0.1181
  861MPD2    N112648   1.920   0.125  11.011 -0.1769  0.5806 -0.4935
  861MPD2    H712649   1.835   0.131  11.066 -0.0475 -1.4674 -0.0742
  862MPD2     C12650   1.367   0.519   9.987  1.0304  0.0533  0.1875
  862MPD2    C112651   1.453   0.437  10.055  0.1876 -0.0151 -0.5965
  862MPD2    C212652   1.520   0.337   9.991  1.0204  0.4389 -0.2478
  862MPD2    C312653   1.494   0.305   9.858  0.6679  0.0724 -0.7430
  862MPD2    C412654   1.400   0.384   9.791 -0.0379  0.2428 -0.3945
  862MPD2    C512655   1.341   0.492   9.852 -0.0069 -0.2395  0.4817
  862MPD2     H12656   1.588   0.269  10.040  0.2206 -0.7355 -0.7723
  862MPD2    H112657   1.366   0.360   9.691 -1.1387 -0.1563  0.0687
  862MPD2    H212658   1.316   0.602  10.034  0.3299 -0.0365 -0.4201
  862MPD2    H312659   1.277   0.557   9.794  0.3742 -0.0748  0.2389
  862MPD2     N12660   1.533   0.184   9.802  0.6977  0.6470 -0.5427
  862MPD2    H512661   1.485   0.159   9.717  0.3852  1.4101 -0.5922
  862MPD2    N112662   1.472   0.451  10.194  0.1708 -0.1845 -0.1127
  862MPD2    H712663   1.542   0.391  10.236  1.0892  1.9452  1.4132
  863MPD2     C12664   0.139   3.667  17.254  0.6084  0.2546  0.1126
  863MPD2    C112665   0.223   3.624  17.152 -0.9050 -0.4841  0.5163
  863MPD2    C212666   0.355   3.604  17.180  0.7063 -0.2494 -0.2507
  863MPD2    C312667   0.404   3.630  17.306 -0.8650 -0.0470 -0.5265
  863MPD2    C412668   0.314   3.669  17.404  0.4947  0.2575 -0.0490
  863MPD2    C512669   0.184   3.691  17.379  0.2556 -0.0191  0.7968
  863MPD2     H12670   0.416   3.585  17.092  1.3967 -0.2859  0.2296
  863MPD2    H112671   0.341   3.673  17.509 -0.0149 -1.1065  0.1327
  863MPD2    H212672   0.031   3.668  17.242  0.8015 -1.3821 -1.5961
  863MPD2    H312673   0.113   3.703  17.460  0.6372  1.7511  0.8762
  863MPD2     N12674   0.542   3.594  17.330  0.4180  0.2562 -0.4061
  863MPD2    H512675   0.594   3.559  17.250  1.4531 -0.7539  0.7079
  863MPD2    N112676   0.161   3.594  17.029  0.0137 -0.6743  0.1810
  863MPD2    H712677   0.064   3.623  17.024  0.2718  0.0221 -0.8724
  864MPD2     C12678   0.749   0.249  16.812 -0.5663 -0.4802  0.2014
  864MPD2    C112679   0.698   0.192  16.699  0.6613 -0.1798  0.2082
  864MPD2    C212680   0.748   0.232  16.571  0.6735 -0.0319 -0.2669
  864MPD2    C312681   0.836   0.332  16.564 -0.0999 -0.1388 -0.2948
  864MPD2    C412682   0.876   0.392  16.685 -0.2529  0.2386  0.0708
  864MPD2    C512683   0.842   0.345  16.808  0.4874  0.4042  0.1213
  864MPD2     H12684   0.715   0.180  16.482  0.6100 -1.0031  0.3326
  864MPD2    H112685   0.954   0.467  16.686 -0.6108  0.6124  0.4433
  864MPD2    H212686   0.717   0.211  16.908 -2.3315  1.8936  0.5605
  864MPD2    H312687   0.890   0.382  16.898 -1.1966  1.5608  0.5328
  864MPD2     N12688   0.898   0.369  16.444 -0.2223  0.0991  0.0990
  864MPD2    H512689   0.954   0.453  16.445 -0.4815  0.2711 -0.1064
  864MPD2    N112690   0.610   0.083  16.717 -0.6692  0.5810  0.4240
  864MPD2    H712691   0.602   0.042  16.810 -0.1863 -1.3379 -0.3887
  865MPD2     C12692   0.882   0.254  15.381  0.0547  0.0626  0.4657
  865MPD2    C112693   0.836   0.183  15.494 -0.3386  0.1416  0.0449
  865MPD2    C212694   0.836   0.251  15.617 -0.4359  0.3794 -0.0437
  865MPD2    C312695   0.869   0.384  15.633 -0.1844 -0.1143 -0.2308
  865MPD2    C412696   0.889   0.455  15.516  0.0712  0.1903  0.2739
  865MPD2    C512697   0.896   0.392  15.397  0.1686  0.5193 -0.0402
  865MPD2     H12698   0.817   0.197  15.709  0.3162 -0.8287 -0.5948
  865MPD2    H112699   0.903   0.562  15.512  1.0998  0.0727  0.7195
  865MPD2    H212700   0.911   0.201  15.291  0.9810 -0.1909  0.9147
  865MPD2    H312701   0.915   0.452  15.309 -1.1425  0.1997 -0.5377
  865MPD2     N12702   0.887   0.446  15.758 -0.3929  0.2828 -0.3385
  865MPD2    H512703   0.941   0.531  15.758 -2.7502  1.7874  1.8970
  865MPD2    N112704   0.798   0.044  15.483 -0.3819 -0.3037  0.5328
  865MPD2    H712705   0.800   0.005  15.389 -1.1060 -1.8850  1.1631
  866MPD2     C12706   2.615   0.490  11.291 -0.3555  0.3250 -0.1110
  866MPD2    C112707   2.618   0.379  11.210  0.4241 -0.4386 -0.3452
  866MPD2    C212708   2.538   0.373  11.105  0.0976 -0.1544 -0.1466
  866MPD2    C312709   2.442   0.476  11.086  0.0948 -0.2614 -1.0890
  866MPD2    C412710   2.438   0.587  11.173  0.6960 -0.2255  0.1866
  866MPD2    C512711   2.520   0.587  11.283  0.0864  0.3539  0.8048
  866MPD2     H12712   2.536   0.293  11.032 -0.6595 -0.2137 -0.0619
  866MPD2    H112713   2.369   0.670  11.163  1.1160  0.1301  0.2241
  866MPD2    H212714   2.686   0.491  11.373  0.5128  2.3404 -0.8744
  866MPD2    H312715   2.517   0.662  11.361 -2.5404 -0.2815  1.3167
  866MPD2     N12716   2.345   0.469  10.983 -0.5008 -0.0175 -0.3350
  866MPD2    H512717   2.271   0.539  10.986 -0.8212 -0.2868 -1.8220
  866MPD2    N112718   2.729   0.288  11.227 -0.7111 -0.0321  0.6716
  866MPD2    H712719   2.802   0.309  11.295 -0.9463 -0.1255  0.9502
  867MPD2     C12720   4.636   0.145  16.984  0.1953 -0.3531 -0.3458
  867MPD2    C112721   0.040   0.111  16.951  0.8668 -0.0821 -0.7482
  867MPD2    C212722   0.146   0.197  16.981 -0.5867 -0.0735 -0.7056
  867MPD2    C312723   0.119   0.318  17.050 -0.6219 -0.2722 -0.0641
  867MPD2    C412724   4.714   0.343  17.092  0.3914  0.4079 -0.7257
  867MPD2    C512725   4.612   0.255  17.060 -0.4029  0.4109  0.5915
  867MPD2     H12726   0.246   0.183  16.942 -0.2331  2.7605 -0.8550
  867MPD2    H112727   4.683   0.430  17.148 -1.3359  0.9706 -2.5488
  867MPD2    H212728   4.553   0.082  16.957  1.3861 -2.6405  1.2974
  867MPD2    H312729   4.511   0.279  17.091 -1.3746  2.6433 -4.3857
  867MPD2     N12730   0.215   0.410  17.088  0.0220 -0.1529  0.2431
  867MPD2    H512731   0.185   0.491  17.141  1.7297  0.8110 -0.2565
  867MPD2    N112732   0.058   4.712  16.884 -0.2705 -0.2454 -0.0534
  867MPD2    H712733   4.708   4.642  16.898 -1.5766  1.1939  0.3631
  868MPD2     C12734   1.399   3.119  13.034 -0.1009  0.4555 -0.4614
  868MPD2    C112735   1.430   3.252  13.017 -0.3614  0.2114 -0.2776
  868MPD2    C212736   1.331   3.352  13.025 -0.5889  0.2164  0.0656
  868MPD2    C312737   1.200   3.311  13.054 -0.3144  0.5270  0.2718
  868MPD2    C412738   1.170   3.174  13.082  0.1866  1.5106 -0.5617
  868MPD2    C512739   1.269   3.083  13.066 -0.2071  0.0914  0.5106
  868MPD2     H12740   1.345   3.459  13.020 -0.2618  0.1718  0.0580
  868MPD2    H112741   1.074   3.134  13.110  0.6757 -0.3689 -1.5640
  868MPD2    H212742   1.468   3.040  13.006  0.5500  0.7240  0.3788
  868MPD2    H312743   1.242   2.979  13.079 -3.0712  0.9262  1.2679
  868MPD2     N12744   1.106   3.413  13.075  0.0167  0.6404 -0.0072
  868MPD2    H512745   1.133   3.511  13.078  3.1823 -0.2422  0.3118
  868MPD2    N112746   1.568   3.283  13.000  0.5634  0.3712  0.2923
  868MPD2    H712747   1.638   3.210  12.994  0.9360  0.8648 -1.4133
  869MPD2     C12748   2.202   0.800   1.244  0.0819  0.3342  1.0623
  869MPD2    C112749   2.321   0.843   1.183 -0.2217  0.0763  0.8528
  869MPD2    C212750   2.313   0.924   1.069  0.1125 -0.0473  0.3437
  869MPD2    C312751   2.194   0.948   1.007  0.8366 -0.1752 -0.0670
  869MPD2    C412752   2.079   0.911   1.070  0.1567 -0.2236  0.7701
  869MPD2    C512753   2.084   0.837   1.190 -0.2556  0.0767 -0.5970
  869MPD2     H12754   2.401   0.937   1.007 -0.1701 -1.1523 -0.2808
  869MPD2    H112755   1.978   0.916   1.029  0.1631  1.8639  1.0288
  869MPD2    H212756   2.204   0.743   1.337  0.3810 -0.2193  0.7144
  869MPD2    H312757   1.989   0.805   1.232  0.0843  1.9706  1.6441
  869MPD2     N12758   2.192   1.012   0.882  0.1650  0.0899  0.2421
  869MPD2    H512759   2.279   1.051   0.848  0.6147 -2.2082 -1.2616
  869MPD2    N112760   2.445   0.810   1.240  0.3334  0.4486 -0.6213
  869MPD2    H712761   2.445   0.756   1.325  0.6555  0.7422 -0.4346
  870MPD2     C12762   1.761   0.216   1.877  0.2634 -0.5705  0.1068
  870MPD2    C112763   1.873   0.251   1.810  0.4970  0.0012  0.7841
  870MPD2    C212764   1.885   0.248   1.671  0.2416  0.1377 -0.2585
  870MPD2    C312765   1.775   0.217   1.598  0.3641  0.1360  0.2291
  870MPD2    C412766   1.659   0.171   1.669  0.2413  0.3753  0.8064
  870MPD2    C512767   1.654   0.181   1.807 -0.6362  0.4504  0.1330
  870MPD2     H12768   1.973   0.284   1.619  0.4927 -1.2216 -0.7789
  870MPD2    H112769   1.570   0.141   1.615  0.2107  1.4277  0.2783
  870MPD2    H212770   1.747   0.230   1.983  2.8301  1.8948  0.1290
  870MPD2    H312771   1.569   0.144   1.863 -0.5790 -0.1479 -0.1749
  870MPD2     N12772   1.774   0.234   1.454  0.0133  0.4956 -0.3582
  870MPD2    H512773   1.858   0.269   1.408 -0.4468 -0.2047 -1.7325
  870MPD2    N112774   1.980   0.287   1.895 -0.2774 -0.3241  0.1771
  870MPD2    H712775   1.961   0.286   1.995 -1.5892  1.5956 -0.0476
  871MPD2     C12776   3.491   0.218  16.292 -0.9715  0.3015 -0.3731
  871MPD2    C112777   3.575   0.174  16.396 -0.0754 -0.9208  0.6972
  871MPD2    C212778   3.662   0.070  16.361  0.2621  0.1836 -0.3847
  871MPD2    C312779   3.643   0.004  16.239  0.1602 -0.5871  0.0862
  871MPD2    C412780   3.554   0.047  16.140  0.2348  0.8721 -0.9493
  871MPD2    C512781   3.482   0.158  16.169 -0.0941  0.7791  0.1065
  871MPD2     H12782   3.736   0.033  16.430 -1.2282 -1.3567  0.3951
  871MPD2    H112783   3.537   4.714  16.049  0.9130  1.6521 -1.5411
  871MPD2    H212784   3.425   0.303  16.305 -3.4201 -1.6141 -0.3650
  871MPD2    H312785   3.413   0.203  16.097 -1.2139 -0.9260  0.1180
  871MPD2     N12786   3.715   4.607  16.233 -0.0151 -0.1680 -0.4429
  871MPD2    H512787   3.797   4.602  16.293 -0.0706  1.3701 -0.2246
  871MPD2    N112788   3.581   0.239  16.522 -0.7467 -0.5849  0.7730
  871MPD2    H712789   3.525   0.322  16.535  0.4218 -0.1088  2.8232
  872MPD2     C12790   4.063   2.555  13.523  0.1080  0.0737 -0.4310
  872MPD2    C112791   4.120   2.649  13.611 -0.4604  0.5104  0.2469
  872MPD2    C212792   4.047   2.694  13.717 -0.2429 -1.1011  0.4039
  872MPD2    C312793   3.915   2.651  13.735  0.3750 -0.3318 -0.4819
  872MPD2    C412794   3.862   2.556  13.647  0.1148  0.1371 -0.4070
  872MPD2    C512795   3.934   2.515  13.539  0.3017 -0.0391  0.0148
  872MPD2     H12796   4.090   2.753  13.798 -0.6633  0.9666 -0.8691
  872MPD2    H112797   3.759   2.525  13.661  0.1000  0.6270  0.5623
  872MPD2    H212798   4.126   2.518  13.443  1.4016  3.1379 -0.8129
  872MPD2    H312799   3.890   2.443  13.472 -0.5607 -1.0557  1.6694
  872MPD2     N12800   3.830   2.687  13.843  0.6693 -0.9632 -0.2670
  872MPD2    H512801   3.746   2.630  13.853 -0.9346  1.8045  1.8123
  872MPD2    N112802   4.249   2.704  13.592  0.1863  0.4385  0.7768
  872MPD2    H712803   4.286   2.777  13.652 -0.1549  0.7199  0.6474
  873MPD2     C12804   0.342   1.718   0.397 -0.1675 -0.0856  0.8911
  873MPD2    C112805   0.382   1.684   0.530  0.1750 -0.7369 -0.1481
  873MPD2    C212806   0.401   1.546   0.559 -0.5689  0.5681 -0.2475
  873MPD2    C312807   0.379   1.450   0.463 -0.0906 -1.1280  0.3845
  873MPD2    C412808   0.326   1.488   0.337  0.1772 -0.2806  0.1895
  873MPD2    C512809   0.314   1.622   0.308  0.3838 -0.3491  0.1647
  873MPD2     H12810   0.433   1.520   0.659  0.1831  2.9558  0.1492
  873MPD2    H112811   0.329   1.421   0.252  1.2622 -1.2429  0.9830
  873MPD2    H212812   0.329   1.821   0.363  0.4151 -0.0193  0.8694
  873MPD2    H312813   0.290   1.658   0.209  3.7765 -0.7156 -0.7785
  873MPD2     N12814   0.397   1.306   0.487  0.1118  0.1116 -0.2511
  873MPD2    H512815   0.389   1.244   0.407  0.3096 -2.0940  1.4357
  873MPD2    N112816   0.401   1.795   0.620 -0.1320  0.5887  0.2159
  873MPD2    H712817   0.370   1.885   0.586  2.5922  0.6066 -2.1829
  874MPD2     C12818   0.895   2.615  16.344 -0.2943 -0.0865 -0.4667
  874MPD2    C112819   1.004   2.564  16.405  0.5915  0.0897 -0.4922
  874MPD2    C212820   1.134   2.599  16.362 -0.2708 -0.0557  0.7656
  874MPD2    C312821   1.151   2.677  16.246 -0.5906  0.5215  0.0915
  874MPD2    C412822   1.044   2.726  16.183  0.0460 -0.0396  0.2095
  874MPD2    C512823   0.916   2.695  16.234  0.8182 -0.1783  0.6232
  874MPD2     H12824   1.220   2.566  16.420  0.0357  0.2098  0.4621
  874MPD2    H112825   1.056   2.783  16.091 -1.3206 -1.2550 -0.7287
  874MPD2    H212826   0.793   2.592  16.374 -0.2910  2.7025  1.6576
  874MPD2    H312827   0.825   2.720  16.180 -0.1702  2.7940  3.6143
  874MPD2     N12828   1.278   2.710  16.189  0.3017  1.0245  0.2509
  874MPD2    H512829   1.279   2.775  16.112 -1.4509  0.7060 -0.0346
  874MPD2    N112830   0.977   2.463  16.505  0.2250  0.6008  0.1138
  874MPD2    H712831   0.881   2.438  16.522 -0.2157  2.0874 -0.1735
  875MPD2     C12832   2.132   1.025  14.425 -0.0922 -0.7172  0.3561
  875MPD2    C112833   2.006   1.013  14.487 -0.1989 -0.4954  0.0810
  875MPD2    C212834   1.999   1.057  14.618 -0.0406 -0.4415 -0.9209
  875MPD2    C312835   2.105   1.123  14.680  0.3593  0.1907 -0.5121
  875MPD2    C412836   2.218   1.151  14.604  0.3206  0.3622  0.7514
  875MPD2    C512837   2.240   1.078  14.495  0.2652 -0.6297  0.3651
  875MPD2     H12838   1.904   1.049  14.669  1.0482 -2.8351  0.7335
  875MPD2    H112839   2.315   1.181  14.643 -0.8262  3.7285  1.0120
  875MPD2    H212840   2.161   0.983  14.329 -0.2924 -3.6932  1.5767
  875MPD2    H312841   2.328   1.080  14.433  0.6832  1.9738  1.0190
  875MPD2     N12842   2.097   1.181  14.810 -0.2614  0.1149 -0.0704
  875MPD2    H512843   2.175   1.241  14.836 -0.9872  1.2727 -0.6010
  875MPD2    N112844   1.893   0.959  14.426  0.3169  0.6628  0.0405
  875MPD2    H712845   1.807   0.953  14.479  0.2344 -1.7973 -0.3896
  876MPD2     C12846   0.770   2.040  15.919 -0.3063  0.0158 -1.0168
  876MPD2    C112847   0.898   2.030  15.953 -0.3291 -0.4334 -0.6969
  876MPD2    C212848   0.951   1.906  15.984  0.3549  0.4843 -0.6812
  876MPD2    C312849   0.864   1.790  15.996 -0.2627 -0.2340  0.1599
  876MPD2    C412850   0.730   1.802  15.968 -0.7368  0.1598 -0.2035
  876MPD2    C512851   0.688   1.929  15.931  0.3708 -0.8329 -0.4301
  876MPD2     H12852   1.059   1.900  15.997 -0.1196 -0.4442  2.8599
  876MPD2    H112853   0.661   1.718  15.968 -2.3541  1.4825 -1.3390
  876MPD2    H212854   0.732   2.128  15.869  2.9206  1.3402 -1.1546
  876MPD2    H312855   0.591   1.942  15.884 -0.1154 -1.5263  0.3686
  876MPD2     N12856   0.921   1.657  16.024 -0.1198 -0.6935 -0.4000
  876MPD2    H512857   1.021   1.647  16.017  0.0782  1.3744 -0.5592
  876MPD2    N112858   0.981   2.149  15.949 -0.0844 -0.0099  0.8598
  876MPD2    H712859   0.942   2.230  15.902  2.4635  1.0555  0.5549
  877MPD2     C12860   0.840   2.665  15.580 -0.5107  0.4445 -0.2969
  877MPD2    C112861   0.977   2.683  15.583  0.6068  0.5327 -0.8676
  877MPD2    C212862   1.030   2.742  15.469 -0.7613 -0.2645  0.3815
  877MPD2    C312863   0.954   2.768  15.353 -0.2041 -0.2040  0.3965
  877MPD2    C412864   0.817   2.748  15.354  0.4633 -0.2866 -0.5133
  877MPD2    C512865   0.766   2.699  15.467  0.6327 -0.6203 -0.2754
  877MPD2     H12866   1.135   2.770  15.476 -0.8202 -0.5144  2.1153
  877MPD2    H112867   0.749   2.782  15.277  2.2844 -0.6289 -2.2609
  877MPD2    H212868   0.783   2.629  15.665 -0.6185 -0.7058 -0.8636
  877MPD2    H312869   0.660   2.675  15.465  0.9521 -1.8529 -1.8361
  877MPD2     N12870   1.004   2.821  15.227  0.2020  1.0497  0.1625
  877MPD2    H512871   0.935   2.808  15.154  0.3773  1.7948 -0.1368
  877MPD2    N112872   1.061   2.644  15.697 -0.3737  0.1559  0.5467
  877MPD2    H712873   1.160   2.664  15.688 -1.0809  2.2026 -2.7907
  878MPD2     C12874   0.166   1.979  13.142  0.7203  0.1729  0.4267
  878MPD2    C112875   0.292   2.025  13.167 -0.9290 -1.0918 -0.1724
  878MPD2    C212876   0.325   2.045  13.299  0.5637  0.3032  0.0310
  878MPD2    C312877   0.242   2.019  13.402  0.3838  0.3896 -0.4101
  878MPD2    C412878   0.120   1.954  13.375  0.0375 -0.4020 -0.1556
  878MPD2    C512879   0.084   1.931  13.243  0.3875 -0.0056 -0.5034
  878MPD2     H12880   0.421   2.094  13.314  0.9344  0.7069 -3.5241
  878MPD2    H112881   0.048   1.930  13.452  0.3562  1.1494  0.6361
  878MPD2    H212882   0.121   1.955  13.046  0.3406 -0.1871  0.6959
  878MPD2    H312883   4.714   1.877  13.224  0.1863  0.2811 -0.3395
  878MPD2     N12884   0.281   2.057  13.532  0.0086 -0.4078  0.6041
  878MPD2    H512885   0.377   2.091  13.540 -0.2450  0.1536  1.2326
  878MPD2    N112886   0.372   2.067  13.055 -0.0278  0.0274 -0.1974
  878MPD2    H712887   0.339   2.051  12.960 -0.4476  1.0067 -0.2148
  879MPD2     C12888   1.485   3.428  17.177 -0.4825 -0.8585  0.5934
  879MPD2    C112889   1.378   3.355  17.228  0.4107 -0.4255  0.4025
  879MPD2    C212890   1.324   3.246  17.156  0.0204  0.8172  0.1959
  879MPD2    C312891   1.398   3.200  17.044 -0.1773  0.0236  0.2402
  879MPD2    C412892   1.505   3.275  17.000 -0.3193  0.4595 -0.1074
  879MPD2    C512893   1.552   3.385  17.071 -0.3073  0.2363  0.4871
  879MPD2     H12894   1.234   3.194  17.186  0.5846  0.6684  1.6585
  879MPD2    H112895   1.547   3.251  16.903  1.1356  1.0380  0.3904
  879MPD2    H212896   1.514   3.518  17.229 -0.7285  1.2657 -2.9157
  879MPD2    H312897   1.637   3.435  17.026 -2.5921  1.9859 -1.8826
  879MPD2     N12898   1.347   3.103  16.968  0.0567  0.3731  0.2319
  879MPD2    H512899   1.389   3.100  16.875  2.5407  2.3697  1.3015
  879MPD2    N112900   1.320   3.406  17.344  0.3482  0.5255  0.3811
  879MPD2    H712901   1.357   3.497  17.368 -0.2846  0.5977  1.0581
  880MPD2     C12902   2.509   4.162   0.357 -0.0977  0.2404  0.2204
  880MPD2    C112903   2.585   4.276   0.341 -0.6589  0.1282 -0.0121
  880MPD2    C212904   2.723   4.263   0.320 -0.0849 -0.0529  0.0586
  880MPD2    C312905   2.784   4.139   0.308 -0.2819 -0.1775  0.2229
  880MPD2    C412906   2.708   4.024   0.328 -0.3251  0.0456 -0.7767
  880MPD2    C512907   2.573   4.036   0.359 -0.1889  0.3323  0.2263
  880MPD2     H12908   2.787   4.350   0.318  2.6763 -2.0296  3.0388
  880MPD2    H112909   2.745   3.922   0.325 -1.2878 -0.3623  1.0337
  880MPD2    H212910   2.401   4.159   0.361 -0.0861 -1.0739 -0.4158
  880MPD2    H312911   2.519   3.945   0.379  0.7318 -0.7461 -2.1347
  880MPD2     N12912   2.914   4.138   0.269  0.3235 -0.3571  0.8148
  880MPD2    H512913   2.958   4.229   0.261 -1.8140  0.7441  1.7698
  880MPD2    N112914   2.510   4.386   0.344  0.4975  0.0532  0.5147
  880MPD2    H712915   2.414   4.382   0.378  0.8747 -1.6229  1.3960
  881MPD2     C12916   2.219   0.639  17.677  0.0701 -0.3302  0.3389
  881MPD2    C112917   2.307   0.557  17.626 -0.6018 -0.2591  0.1933
  881MPD2    C212918   2.343   0.447   0.008  0.4110  0.8838  0.9033
  881MPD2    C312919   2.285   0.422   0.132  0.0022 -0.0753  0.0449
  881MPD2    C412920   2.200   0.514   0.186  0.4603  0.5919 -0.4681
  881MPD2    C512921   2.170   0.623   0.114 -0.6318 -0.1273 -0.1019
  881MPD2     H12922   2.415   0.380  17.656 -1.2502  1.1745 -2.1780
  881MPD2    H112923   2.140   0.508   0.276  1.8382  1.0285  0.4724
  881MPD2    H212924   2.203   0.734  17.627  0.2738 -1.1964 -1.3960
  881MPD2    H312925   2.098   0.686   0.165 -1.4403 -0.4661 -0.8225
  881MPD2     N12926   2.312   0.308   0.206  0.2610 -0.2515 -0.1778
  881MPD2    H512927   2.263   0.303   0.295 -0.0585 -0.4426 -0.3660
  881MPD2    N112928   2.380   0.601  17.511 -0.0317 -0.3670 -0.2304
  881MPD2    H712929   2.360   0.690  17.468  1.0773 -1.0512 -2.1619
  882MPD2     C12930   1.081   2.647  14.434  0.4862  0.5252 -0.2904
  882MPD2    C112931   1.013   2.690  14.551  0.2548  0.4271 -0.0245
  882MPD2    C212932   0.883   2.652  14.570 -0.4831 -0.1211  0.0332
  882MPD2    C312933   0.819   2.583  14.473  0.0848  0.0355 -0.2927
  882MPD2    C412934   0.880   2.553  14.352 -0.2645  0.5611 -0.1101
  882MPD2    C512935   1.011   2.591  14.327 -0.3442  0.1090 -0.1547
  882MPD2     H12936   0.839   2.679  14.666  0.6442 -0.5163  0.6580
  882MPD2    H112937   0.825   2.494  14.279  1.4640 -1.6002  0.3074
  882MPD2    H212938   1.179   2.685  14.407 -0.2334  2.4889 -0.1621
  882MPD2    H312939   1.068   2.573  14.236 -1.1342 -1.1551 -0.3936
  882MPD2     N12940   0.682   2.551  14.485  0.7510 -0.1473 -0.1289
  882MPD2    H512941   0.623   2.540  14.403 -0.4391  0.5059  0.6432
  882MPD2    N112942   1.076   2.768  14.647 -0.1213  0.3824  0.1903
  882MPD2    H712943   1.178   2.769  14.649 -0.0543 -1.0536 -2.8311
  883MPD2     C12944   2.733   2.655  16.174  0.1636 -0.1947 -0.1092
  883MPD2    C112945   2.807   2.638  16.056  0.0818 -0.1771  0.3786
  883MPD2    C212946   2.944   2.646  16.062 -0.4865  0.0935  0.0274
  883MPD2    C312947   3.003   2.661  16.183  0.2167 -0.2041 -0.1627
  883MPD2    C412948   2.935   2.676  16.296  0.4297  0.0456  0.7936
  883MPD2    C512949   2.797   2.679  16.295  0.1612  0.2494 -0.3341
  883MPD2     H12950   3.002   2.650  15.970 -1.0933  0.7881 -0.3262
  883MPD2    H112951   2.984   2.678  16.392 -0.4445  1.2041  1.2180
  883MPD2    H212952   2.626   2.668  16.174  0.3483  1.3110 -0.3996
  883MPD2    H312953   2.735   2.701  16.381  1.6661  1.3085  0.4811
  883MPD2     N12954   3.143   2.650  16.173  0.0182 -0.2188 -0.4798
  883MPD2    H512955   3.182   2.640  16.080 -0.3155  0.5241 -0.7024
  883MPD2    N112956   2.751   2.631  15.929  0.0598  0.0344 -0.0103
  883MPD2    H712957   2.816   2.626  15.852 -0.7459 -1.0939 -0.6204
  884MPD2     C12958   0.264   3.244  15.142 -0.4410  0.2138  0.8456
  884MPD2    C112959   0.268   3.381  15.104 -0.9625  0.6849  0.0074
  884MPD2    C212960   0.145   3.453  15.111  0.0333  0.5849  0.7661
  884MPD2    C312961   0.036   3.404  15.177  1.3524  0.0773 -1.2515
  884MPD2    C412962   0.033   3.257  15.195  0.5550 -0.3586 -0.2297
  884MPD2    C512963   0.151   3.188  15.185  0.0179 -0.0936 -0.0211
  884MPD2     H12964   0.145   3.553  15.069  1.1812  0.2770  0.0332
  884MPD2    H112965   4.671   3.208  15.240  0.6781 -2.2592 -2.0585
  884MPD2    H212966   0.350   3.179  15.129  0.0740  1.1775 -0.4489
  884MPD2    H312967   0.145   3.082  15.207 -0.7531 -0.4544 -1.9730
  884MPD2     N12968   4.647   3.493  15.205  0.2613  0.0258  0.3221
  884MPD2    H512969   4.661   3.592  15.186  1.5261  0.0060  1.1800
  884MPD2    N112970   0.384   3.434  15.043  0.0878 -0.8288  0.0307
  884MPD2    H712971   0.383   3.525  14.997 -0.6795  0.4516  2.5995
  885MPD2     C12972   2.733   3.041   0.177  0.2187 -0.0666  0.0840
  885MPD2    C112973   2.814   3.148   0.174  0.6048 -0.0217 -0.1798
  885MPD2    C212974   2.838   3.207   0.051 -0.1943 -0.2236 -0.2341
  885MPD2    C312975   2.780   3.158  17.627 -0.2117  0.2536  0.2341
  885MPD2    C412976   2.702   3.047  17.632 -0.4264  0.4242  0.2379
  885MPD2    C512977   2.676   2.996   0.065  0.3382 -0.0168 -0.3213
  885MPD2     H12978   2.893   3.300   0.048  0.1553 -0.4409 -0.6161
  885MPD2    H112979   2.649   3.011  17.544 -0.1527  3.4064 -1.1331
  885MPD2    H212980   2.707   2.988   0.268 -3.0074 -0.3516 -1.0002
  885MPD2    H312981   2.607   2.912   0.058  0.8604 -0.5884  1.6886
  885MPD2     N12982   2.821   3.215  17.507 -0.0280 -0.3783  0.0320
  885MPD2    H512983   2.900   3.279  17.504  1.6401 -2.4976 -0.6507
  885MPD2    N112984   2.862   3.204   0.296  0.3665 -0.2992 -0.1299
  885MPD2    H712985   2.855   3.155   0.385 -0.5450 -0.1029 -0.0941
  886MPD2     C12986   4.422   1.936  15.676 -0.0480 -0.0072  0.1912
  886MPD2    C112987   4.396   1.962  15.546  0.0523  0.5788  0.0382
  886MPD2    C212988   4.358   2.086  15.499  0.4144 -0.4225 -0.2737
  886MPD2    C312989   4.345   2.197  15.588  0.3242  0.2645 -0.3198
  886MPD2    C412990   4.383   2.167  15.723 -0.3106  0.4175  0.5618
  886MPD2    C512991   4.414   2.042  15.765 -0.7923  0.2095 -0.7661
  886MPD2     H12992   4.341   2.097  15.393  0.9222 -1.9763 -0.5253
  886MPD2    H112993   4.377   2.234  15.808 -2.8138  0.4347  0.3609
  886MPD2    H212994   4.450   1.838  15.714 -1.3812  0.0824  1.4085
  886MPD2    H312995   4.424   2.021  15.871 -1.0250  0.5326 -0.6780
  886MPD2     N12996   4.302   2.320  15.547  0.0595 -0.2184 -0.0380
  886MPD2    H512997   4.298   2.399  15.611 -2.3629 -0.3342 -0.0541
  886MPD2    N112998   4.399   1.864  15.448 -0.3169  0.6341 -0.1963
  886MPD2    H712999   4.363   1.889  15.356  0.8244 -0.3162 -0.9077
  887MPD2     C13000   0.120   2.063  15.171 -0.3598  0.0220 -0.1169
  887MPD2    C113001   0.055   2.006  15.278 -0.2621 -1.1657 -0.4330
  887MPD2    C213002   0.065   2.055  15.404  0.2078  0.0245 -0.1078
  887MPD2    C313003   0.139   2.169  15.435 -0.0689  0.1463 -0.7055
  887MPD2    C413004   0.204   2.225  15.327  0.1689 -0.0640  0.3883
  887MPD2    C513005   0.195   2.174  15.200  0.4160 -0.2804 -0.2352
  887MPD2     H13006   0.021   2.004  15.489 -0.7463 -2.1965 -1.9335
  887MPD2    H113007   0.268   2.312  15.340 -0.6635  0.8363 -1.4778
  887MPD2    H213008   0.096   2.040  15.068 -1.6086  1.2754 -0.1171
  887MPD2    H313009   0.248   2.220  15.117 -0.5387  0.5655 -0.3709
  887MPD2     N13010   0.140   2.223  15.566  0.4745 -0.1419  0.3409
  887MPD2    H513011   0.075   2.177  15.630  0.8911  0.9602  1.5423
  887MPD2    N113012   4.707   1.890  15.256 -0.1660 -0.2968 -0.2592
  887MPD2    H713013   4.647   1.859  15.331 -1.5325  0.0042 -1.2339
  888MPD2     C13014   1.945   2.067  14.645  0.2965  0.0385  0.2528
  888MPD2    C113015   1.926   2.124  14.766 -0.7703  0.4297  0.4851
  888MPD2    C213016   1.990   2.241  14.796 -0.1384  0.2968 -0.1341
  888MPD2    C313017   2.075   2.306  14.717 -0.0428 -0.5709  0.2082
  888MPD2    C413018   2.092   2.254  14.591  0.5729 -0.8918  0.3323
  888MPD2    C513019   2.030   2.137  14.555  0.1840 -0.2678  0.8508
  888MPD2     H13020   1.973   2.292  14.891 -1.5212  2.3287 -1.4852
  888MPD2    H113021   2.154   2.295  14.512  0.4617 -1.1750  0.0971
  888MPD2    H213022   1.918   1.964  14.625  1.5515 -0.0073 -1.2286
  888MPD2    H313023   2.035   2.105  14.451 -2.0357  2.3339 -0.0518
  888MPD2     N13024   2.115   2.436  14.756 -0.1553 -0.3343 -0.0397
  888MPD2    H513025   2.092   2.457  14.852 -0.1169 -0.1692 -0.0679
  888MPD2    N113026   1.836   2.071  14.859 -0.1040  0.2016 -0.8442
  888MPD2    H713027   1.831   2.116  14.950 -0.7811  1.0953 -1.3335
  889MPD2     C13028   0.827   1.369  12.987 -0.0303 -0.2297 -0.4083
  889MPD2    C113029   0.967   1.388  12.989  0.5230 -0.1116 -0.4137
  889MPD2    C213030   1.019   1.516  13.014  0.7728  0.9558 -0.0399
  889MPD2    C313031   0.931   1.622  13.026  0.7810  0.4625  0.3393
  889MPD2    C413032   0.790   1.605  13.032 -0.3320  0.7423  0.0082
  889MPD2    C513033   0.752   1.479  13.012 -0.0738 -0.3918 -0.2553
  889MPD2     H13034   1.124   1.532  12.992  0.7613 -1.3893 -1.8589
  889MPD2    H113035   0.717   1.685  13.037 -1.3726 -0.1969 -0.2157
  889MPD2    H213036   0.784   1.280  12.942 -0.5606 -1.2720  2.1463
  889MPD2    H313037   0.647   1.464  12.988  0.3822  2.1509 -3.8018
  889MPD2     N13038   0.992   1.750  13.049  0.1692  0.0090 -0.0421
  889MPD2    H513039   1.092   1.755  13.061  0.1089 -0.4174  0.5965
  889MPD2    N113040   1.044   1.279  12.943 -0.5901 -0.2492 -0.5157
  889MPD2    H713041   0.983   1.202  12.917  1.0095 -1.0352 -1.9081
  890MPD2     C13042   0.865   3.280  14.781 -0.0184  0.8508 -0.0147
  890MPD2    C113043   0.975   3.351  14.827 -0.3449 -0.4408 -0.7583
  890MPD2    C213044   1.021   3.320  14.957 -0.1113 -0.4307  0.3917
  890MPD2    C313045   0.959   3.230  15.035  0.7167 -0.2666  0.0058
  890MPD2    C413046   0.858   3.154  14.982 -0.0469  0.0945 -0.1165
  890MPD2    C513047   0.809   3.183  14.851 -0.7593  0.4256 -0.1261
  890MPD2     H13048   1.105   3.376  14.998  1.2071 -3.0318  1.2440
  890MPD2    H113049   0.808   3.072  15.034 -1.8097  1.2525  0.0272
  890MPD2    H213050   0.829   3.300  14.680 -0.7173  0.8493  0.2357
  890MPD2    H313051   0.740   3.124  14.792 -2.2365  3.0464 -1.0073
  890MPD2     N13052   1.000   3.218  15.169 -0.0088 -0.1791  0.4883
  890MPD2    H513053   1.082   3.273  15.193 -0.3238  1.9326 -3.2781
  890MPD2    N113054   1.037   3.454  14.762  0.3158  0.1919 -0.1311
  890MPD2    H713055   1.102   3.507  14.820 -0.4598  0.9179  0.0637
  891MPD2     C13056   3.722   1.021  16.737  0.1004 -0.3605  0.3417
  891MPD2    C113057   3.687   1.094  16.847 -0.1007  0.2942 -0.1326
  891MPD2    C213058   3.783   1.157  16.921  0.2432 -0.6166 -0.1433
  891MPD2    C313059   3.910   1.161  16.870  0.7592  0.5091 -0.2193
  891MPD2    C413060   3.947   1.082  16.766  0.1774 -0.0633  0.1983
  891MPD2    C513061   3.854   1.004  16.702  0.9056  0.9345  0.4343
  891MPD2     H13062   3.766   1.204  17.018  0.4957 -0.2013 -0.3000
  891MPD2    H113063   4.045   1.092  16.721  0.4468  0.7772  0.9629
  891MPD2    H213064   3.647   0.960  16.687 -0.6063  1.1010 -0.3636
  891MPD2    H313065   3.872   0.945  16.614  0.5846  0.2951  0.8004
  891MPD2     N13066   3.991   1.259  16.940 -0.4148  0.4049 -0.2508
  891MPD2    H513067   3.951   1.293  17.027 -1.3114 -0.8287 -0.1859
  891MPD2    N113068   3.544   1.111  16.868 -0.6161 -0.5392 -0.1903
  891MPD2    H713069   3.480   1.060  16.809 -0.1602  0.7824 -1.8373
  892MPD2     C13070   0.175   3.221  14.810 -0.6180 -0.2956 -0.4310
  892MPD2    C113071   0.078   3.123  14.826  0.8207  0.0492  0.0619
  892MPD2    C213072   0.114   2.993  14.802  0.1812 -0.0091 -0.4707
  892MPD2    C313073   0.241   2.958  14.779  0.0748  0.0991 -0.2971
  892MPD2    C413074   0.334   3.056  14.770 -0.4769 -0.1578 -0.2821
  892MPD2    C513075   0.304   3.186  14.802 -0.3919  0.3852  0.4806
  892MPD2     H13076   0.033   2.921  14.804 -0.6385  0.9470  0.5246
  892MPD2    H113077   0.433   3.025  14.740 -1.3799 -1.1727 -2.2205
  892MPD2    H213078   0.140   3.324  14.818  0.0988  0.1683 -3.1131
  892MPD2    H313079   0.374   3.269  14.801  1.7567 -1.4012 -1.2638
  892MPD2     N13080   0.288   2.827  14.747  0.4757  0.4682  0.3829
  892MPD2    H513081   0.388   2.808  14.742  0.2376 -0.5585 -0.4649
  892MPD2    N113082   4.667   3.155  14.835  0.6288 -1.1783 -0.2564
  892MPD2    H713083   4.605   3.077  14.817 -0.1241 -0.5084 -0.5436
  893MPD2     C13084   1.635   0.611   2.153  0.0689  0.2629  0.3721
  893MPD2    C113085   1.569   0.580   2.040  0.1694 -0.2575  0.0127
  893MPD2    C213086   1.443   0.522   2.048  0.1056  0.0731 -0.4700
  893MPD2    C313087   1.385   0.510   2.166 -0.0712  0.4087 -0.0498
  893MPD2    C413088   1.449   0.540   2.286  0.5402 -0.6814  0.1566
  893MPD2    C513089   1.577   0.593   2.274 -0.4016  0.2802  0.6054
  893MPD2     H13090   1.394   0.485   1.959  1.1102  1.8877 -1.7918
  893MPD2    H113091   1.405   0.524   2.384  2.1690  2.6190  1.4244
  893MPD2    H213092   1.737   0.648   2.149  0.7974 -1.8239 -0.7223
  893MPD2    H313093   1.626   0.633   2.362 -1.5440  1.1507  0.8566
  893MPD2     N13094   1.261   0.438   2.181  0.2499  0.1554  0.6354
  893MPD2    H513095   1.248   0.417   2.279 -0.7173 -0.4426  0.3759
  893MPD2    N113096   1.636   0.597   1.913  0.1009 -0.9246 -0.3044
  893MPD2    H713097   1.735   0.622   1.910 -0.3451  1.0433  1.6537
  894MPD2     C13098   4.232   3.751   1.226 -0.0001 -0.0734  0.4402
  894MPD2    C113099   4.338   3.665   1.256  0.1400 -0.2053  0.0114
  894MPD2    C213100   4.465   3.710   1.216 -0.0062  0.2303  0.2624
  894MPD2    C313101   4.487   3.841   1.169 -0.9815 -0.5258  0.0935
  894MPD2    C413102   4.379   3.927   1.158 -0.2599 -0.0894 -0.2687
  894MPD2    C513103   4.256   3.875   1.176 -0.3047  0.3007 -0.4584
  894MPD2     H13104   4.547   3.642   1.234  0.5148  1.1766  1.3794
  894MPD2    H113105   4.399   4.028   1.127 -2.3008  1.0270  2.0870
  894MPD2    H213106   4.130   3.715   1.220 -0.6009  1.5613  0.7938
  894MPD2    H313107   4.175   3.942   1.150 -0.6559  0.1553  0.2867
  894MPD2     N13108   4.622   3.873   1.136  0.6959 -0.4814 -0.1158
  894MPD2    H513109   4.690   3.802   1.160  2.0236  1.0826  0.7753
  894MPD2    N113110   4.326   3.532   1.297 -0.2180  0.5952 -0.5466
  894MPD2    H713111   4.408   3.473   1.299 -1.0864 -0.5530  0.5700
  895MPD2     C13112   3.796   2.240  13.852  0.2102  0.5822  0.7778
  895MPD2    C113113   3.703   2.219  13.751 -0.5411  1.0733 -0.8110
  895MPD2    C213114   3.725   2.105  13.670  0.0266 -0.3415  0.2352
  895MPD2    C313115   3.846   2.031  13.672 -0.2617 -0.2139 -1.1618
  895MPD2    C413116   3.942   2.065  13.767 -0.0161  0.3778 -0.4151
  895MPD2    C513117   3.914   2.165  13.856 -0.5264 -0.6356  0.5273
  895MPD2     H13118   3.658   2.080  13.588  0.2116  2.0945 -0.6532
  895MPD2    H113119   4.038   2.015  13.779  1.0283  2.0927 -1.6986
  895MPD2    H213120   3.780   2.315  13.928  0.4187  0.5635  0.8414
  895MPD2    H313121   3.991   2.171  13.932 -0.5453 -0.1241  0.5035
  895MPD2     N13122   3.856   1.929  13.580 -0.1651 -0.4183  0.0353
  895MPD2    H513123   3.786   1.924  13.507 -0.1259 -0.0239 -0.0261
  895MPD2    N113124   3.584   2.286  13.732 -0.0339 -0.1519  0.1876
  895MPD2    H713125   3.531   2.240  13.659  1.0678 -2.3504  0.7922
  896MPD2     C13126   1.411   4.021   2.024  0.0619  0.4110  0.7697
  896MPD2    C113127   1.363   4.097   1.918  0.9274  0.4708 -0.0244
  896MPD2    C213128   1.259   4.047   1.850  0.0226  0.5687  0.5862
  896MPD2    C313129   1.219   3.913   1.877  0.5508  0.0861  0.3080
  896MPD2    C413130   1.268   3.836   1.978  0.3902  0.6097  0.8420
  896MPD2    C513131   1.359   3.898   2.055 -0.2807  0.1103 -0.4522
  896MPD2     H13132   1.222   4.085   1.756  1.8592 -2.1754 -1.2400
  896MPD2    H113133   1.227   3.739   2.006 -0.4805  1.1114  1.3153
  896MPD2    H213134   1.481   4.061   2.096 -1.4554  0.1438  2.4066
  896MPD2    H313135   1.396   3.842   2.141  1.0186  0.1367 -1.0029
  896MPD2     N13136   1.125   3.864   1.788  0.2242  0.7120  0.4234
  896MPD2    H513137   1.074   3.929   1.728  1.1023  2.1034  1.1757
  896MPD2    N113138   1.422   4.220   1.890  0.4891 -0.8731  0.0887
  896MPD2    H713139   1.507   4.248   1.938  0.4492  0.1315 -0.4398
  897MPD2     C13140   2.844   2.013  10.459 -0.6310 -0.5959  0.3992
  897MPD2    C113141   2.723   2.006  10.530  0.1867  0.1800 -0.2305
  897MPD2    C213142   2.648   1.891  10.527 -0.1601  0.2090  0.2445
  897MPD2    C313143   2.677   1.785  10.446 -0.3258 -0.2025  0.4389
  897MPD2    C413144   2.807   1.787  10.382 -0.0801  0.0321 -0.2124
  897MPD2    C513145   2.883   1.899  10.388 -0.3248  1.0497 -0.3010
  897MPD2     H13146   2.547   1.904  10.561 -1.0448 -1.2229 -1.8235
  897MPD2    H113147   2.850   1.704  10.328 -3.8031 -2.6207  0.9285
  897MPD2    H213148   2.907   2.101  10.453  2.0187 -2.5374 -0.6566
  897MPD2    H313149   2.972   1.904  10.326 -0.5512 -2.0993 -0.8636
  897MPD2     N13150   2.595   1.668  10.457  0.0507 -0.3050 -0.2973
  897MPD2    H513151   2.509   1.675  10.511  0.0397 -0.0491 -0.3472
  897MPD2    N113152   2.691   2.118  10.597  0.2800 -0.1466  0.0806
  897MPD2    H713153   2.742   2.200  10.566 -2.3363  1.4382 -0.0282
  898MPD2     C13154   3.787   2.859  17.646  0.0013  0.2588  0.7995
  898MPD2    C113155   3.880   2.860  17.545 -0.4036  0.1700 -0.0915
  898MPD2    C213156   3.865   2.942  17.437 -0.3357 -0.0717  0.0154
  898MPD2    C313157   3.771   3.037  17.438  0.2272 -0.2423 -0.3737
  898MPD2    C413158   3.687   3.044  17.546  0.4455  0.4897 -0.3637
  898MPD2    C513159   3.694   2.957  17.648  0.2025 -0.2710  0.1477
  898MPD2     H13160   3.928   2.938  17.349 -0.0196 -0.5893  0.2657
  898MPD2    H113161   3.605   3.114  17.553 -0.1621 -0.2161 -0.4397
  898MPD2    H213162   3.790   2.799   0.043  0.7750 -2.0215 -0.7408
  898MPD2    H313163   3.611   2.954   0.025 -1.4534  1.3359 -1.7577
  898MPD2     N13164   3.776   3.131  17.337 -0.1491 -0.2006  0.2611
  898MPD2    H513165   3.850   3.116  17.268 -0.3874  1.2019 -0.3014
  898MPD2    N113166   3.984   2.762  17.542 -0.0914  0.0826  0.0571
  898MPD2    H713167   4.038   2.763  17.456  1.6824 -0.6941  1.1638
  899MPD2     C13168   0.978   3.248  16.895 -0.7630  0.2497 -0.7968
  899MPD2    C113169   0.933   3.230  17.026  0.0401 -0.0028  0.1031
  899MPD2    C213170   0.854   3.117  17.059  0.4244  0.8225  0.5254
  899MPD2    C313171   0.829   3.021  16.963 -0.1372  0.6602 -0.8046
  899MPD2    C413172   0.877   3.041  16.836 -0.8178  0.0786  0.2034
  899MPD2    C513173   0.950   3.149  16.807  0.1064 -0.4152 -0.2606
  899MPD2     H13174   0.817   3.102  17.160 -2.2670 -2.0312 -0.8877
  899MPD2    H113175   0.852   2.979  16.751 -1.6197  0.0260  0.4760
  899MPD2    H213176   1.030   3.336  16.860 -0.6676  0.5902  0.2331
  899MPD2    H313177   0.999   3.154  16.711  0.4439  0.7298 -0.0178
  899MPD2     N13178   0.743   2.913  16.978  0.6394 -0.0897 -0.2070
  899MPD2    H513179   0.720   2.851  16.901  2.1176  1.4981 -1.9215
  899MPD2    N113180   0.968   3.337  17.115  0.4530 -0.4947 -0.7947
  899MPD2    H713181   1.001   3.424  17.075  0.3992  0.0918  0.4705
  900MPD2     C13182   0.109   0.150  12.308 -0.2410 -0.1838  0.7550
  900MPD2    C113183   0.046   0.045  12.243  0.0975 -0.4576  0.4622
  900MPD2    C213184   4.646   0.071  12.177  0.1221 -0.3546 -0.4922
  900MPD2    C313185   4.608   0.198  12.167 -0.3159 -0.2274  0.7717
  900MPD2    C413186   4.673   0.295  12.241  0.3606 -0.3037  0.2069
  900MPD2    C513187   0.067   0.276  12.307  0.2096  0.1691 -0.5828
  900MPD2     H13188   4.591   4.722  12.117 -0.6280 -0.9517  0.9128
  900MPD2    H113189   4.632   0.396  12.237  1.3068  0.0128 -1.8748
  900MPD2    H213190   0.205   0.146  12.357 -0.5050  3.3458  1.5658
  900MPD2    H313191   0.125   0.357  12.350  0.5591 -0.7999  0.7908
  900MPD2     N13192   4.481   0.216  12.100 -0.0215  0.3225  0.3369
  900MPD2    H513193   4.445   0.149  12.033  0.0942 -0.5430  1.1546
  900MPD2    N113194   0.104   4.637  12.262 -0.7619 -0.5789 -0.4198
  900MPD2    H713195   0.199   4.627  12.296 -0.3717 -1.0531 -1.6562
  901MPD2     C13196   4.635   3.600  12.595 -0.2977  0.0303  0.7566
  901MPD2    C113197   0.044   3.617  12.562  0.5146  0.9296  0.5392
  901MPD2    C213198   0.092   3.747  12.537  0.0678  0.2312 -0.3739
  901MPD2    C313199   0.010   3.854  12.539 -0.2587  0.4469  0.6333
  901MPD2    C413200   4.601   3.839  12.572 -0.4354  0.2133  1.1624
  901MPD2    C513201   4.559   3.713  12.588 -0.2599 -0.0361 -0.2637
  901MPD2     H13202   0.193   3.761  12.499  0.3366 -1.3420 -0.2451
  901MPD2    H113203   4.518   3.905  12.551  0.7140  2.0022  2.3209
  901MPD2    H213204   4.591   3.503  12.615 -1.0432 -0.1746 -1.8972
  901MPD2    H313205   4.450   3.710  12.587 -0.2542 -0.5490  1.1560
  901MPD2     N13206   0.070   3.985  12.510  0.3760  0.2809 -0.0245
  901MPD2    H513207   0.170   3.985  12.489  0.3323 -0.7922 -0.2039
  901MPD2    N113208   0.115   3.496  12.545  0.3048 -0.4700  0.6706
  901MPD2    H713209   0.078   3.409  12.581 -0.5232 -0.4113 -0.0553
  902MPD2     C13210   4.448   2.486  12.627 -0.8460 -0.2828 -0.0395
  902MPD2    C113211   4.417   2.499  12.492  0.3414 -0.1259 -0.1207
  902MPD2    C213212   4.471   2.413  12.399 -0.3299  0.5928  0.3201
  902MPD2    C313213   4.555   2.303  12.438 -0.5212  0.1234  0.6640
  902MPD2    C413214   4.588   2.294  12.575 -0.7745 -0.3490 -0.4924
  902MPD2    C513215   4.533   2.379  12.666  0.3611 -0.2255 -0.4526
  902MPD2     H13216   4.434   2.422  12.297 -0.4775  0.6394  0.3782
  902MPD2    H113217   4.661   2.220  12.605 -2.0653 -0.6894  1.8252
  902MPD2    H213218   4.413   2.555  12.704  1.4459 -0.9175  1.5876
  902MPD2    H313219   4.557   2.374  12.772  0.6107 -0.3200 -0.5140
  902MPD2     N13220   4.621   2.216  12.343 -0.0536 -0.5779 -0.5199
  902MPD2    H513221   4.678   2.139  12.375 -2.6247 -1.5250  1.7380
  902MPD2    N113222   4.330   2.605  12.456 -0.0155 -0.3442 -0.5656
  902MPD2    H713223   4.294   2.613  12.361 -0.6652  0.6253 -0.2374
  903MPD2     C13224   4.520   2.437  11.606  0.0697 -0.3162 -0.6810
  903MPD2    C113225   4.482   2.325  11.676  0.0816  0.4341 -0.3272
  903MPD2    C213226   4.340   2.309  11.698 -0.3345 -0.4359  0.0328
  903MPD2    C313227   4.253   2.396  11.644  0.3782 -0.2633  0.2270
  903MPD2    C413228   4.301   2.502  11.565 -0.2913  0.0738 -0.4128
  903MPD2    C513229   4.434   2.525  11.550  0.3736 -0.2317 -0.3784
  903MPD2     H13230   4.309   2.234  11.769  0.7813  0.7035  1.7280
  903MPD2    H113231   4.249   2.587  11.521 -0.1196  0.6151  0.4044
  903MPD2    H213232   4.625   2.456  11.586  0.0030 -1.4219 -2.1139
  903MPD2    H313233   4.458   2.621  11.506 -0.8394  0.4833  0.5260
  903MPD2     N13234   4.118   2.372  11.676 -0.1290  0.0904  0.0065
  903MPD2    H513235   4.088   2.317  11.756 -2.5100 -0.0769 -1.0053
  903MPD2    N113236   4.579   2.250  11.743  0.4363 -0.4271 -0.4188
  903MPD2    H713237   4.669   2.290  11.765 -0.1022 -0.1302  1.2583
  904MPD2     C13238   3.565   1.467  14.143 -0.2304  0.5219  0.5878
  904MPD2    C113239   3.583   1.590  14.088  0.0542  0.1851  0.0973
  904MPD2    C213240   3.704   1.653  14.097 -0.1053 -0.3985 -0.2544
  904MPD2    C313241   3.802   1.601  14.181 -0.2243  0.4016 -0.3701
  904MPD2    C413242   3.769   1.492  14.255  0.5788  0.3812 -0.1031
  904MPD2    C513243   3.658   1.421  14.232 -0.0132  0.0341 -1.5028
  904MPD2     H13244   3.723   1.744  14.041 -0.0517  0.2213  0.7716
  904MPD2    H113245   3.836   1.449  14.330 -0.7903  3.5135  2.9105
  904MPD2    H213246   3.472   1.411  14.139 -0.1265  0.3807  0.1468
  904MPD2    H313247   3.639   1.330  14.289  0.6741  0.5851 -0.3937
  904MPD2     N13248   3.932   1.654  14.177 -0.5211  0.0124  0.3861
  904MPD2    H513249   3.948   1.728  14.108 -0.1847  0.7331  1.2426
  904MPD2    N113250   3.477   1.666  14.028 -0.2873  0.3390 -0.3982
  904MPD2    H713251   3.508   1.754  13.990 -2.2631 -0.1350 -3.0544
  905MPD2     C13252   3.199   1.681  13.392  0.2773 -0.2173  0.6578
  905MPD2    C113253   3.288   1.755  13.463 -0.4317 -0.3537 -0.2069
  905MPD2    C213254   3.411   1.790  13.412 -0.2663  0.2474  0.6670
  905MPD2    C313255   3.444   1.752  13.286  0.1313 -0.0289 -0.2796
  905MPD2    C413256   3.351   1.682  13.211 -0.8099  0.3443  0.4835
  905MPD2    C513257   3.229   1.646  13.267 -0.0261  0.4774  0.3063
  905MPD2     H13258   3.484   1.840  13.475 -0.7245 -0.6499  1.9078
  905MPD2    H113259   3.360   1.655  13.107 -0.0421 -0.3371  0.7223
  905MPD2    H213260   3.104   1.644  13.431 -0.2324  0.5322  0.1159
  905MPD2    H313261   3.157   1.590  13.209  3.1086 -1.9942 -1.1974
  905MPD2     N13262   3.571   1.767  13.230 -0.1956  0.0894  0.5289
  905MPD2    H513263   3.597   1.723  13.142 -2.1811 -0.0388  0.0222
  905MPD2    N113264   3.253   1.785  13.594  0.1344 -0.2799 -0.3113
  905MPD2    H713265   3.162   1.753  13.626  1.3496 -3.3466  0.0625
  906MPD2     C13266   1.284   1.484  11.428 -0.1594  0.1047 -0.6767
  906MPD2    C113267   1.243   1.401  11.329 -0.0232  0.3460 -0.8806
  906MPD2    C213268   1.158   1.296  11.369  0.6828 -0.1346 -1.7615
  906MPD2    C313269   1.126   1.267  11.499 -0.4314 -0.0753 -0.4912
  906MPD2    C413270   1.177   1.356  11.595 -0.7688  0.4924  0.4501
  906MPD2    C513271   1.254   1.464  11.555  0.0454 -0.5364  0.3783
  906MPD2     H13272   1.117   1.230  11.294 -1.9909  1.8011 -2.0081
  906MPD2    H113273   1.170   1.344  11.702  0.2084  0.3980  0.5013
  906MPD2    H213274   1.344   1.571  11.402 -0.6936  0.7047  0.1190
  906MPD2    H313275   1.305   1.519  11.634  0.4591  2.0112 -1.6724
  906MPD2     N13276   1.050   1.152  11.524  0.0569 -0.4710  0.0137
  906MPD2    H513277   1.038   1.084  11.449  1.3841  1.4596 -1.9745
  906MPD2    N113278   1.284   1.412  11.194  0.0875 -0.2369 -0.9383
  906MPD2    H713279   1.252   1.341  11.129  0.6198 -0.6209 -0.7832
  907MPD2     C13280   4.422   0.793  15.469 -0.2780  0.1105 -0.6707
  907MPD2    C113281   4.499   0.684  15.452  1.2771 -0.4376  0.0869
  907MPD2    C213282   4.590   0.642  15.550 -0.6023  0.3627  0.6120
  907MPD2    C313283   4.596   0.719  15.666 -0.2399  0.4794  0.0801
  907MPD2    C413284   4.512   0.829  15.683 -0.6479 -0.0802 -0.1976
  907MPD2    C513285   4.424   0.863  15.587  0.3378  0.5062 -0.4456
  907MPD2     H13286   4.672   0.575  15.527 -0.0197  0.8711  1.2071
  907MPD2    H113287   4.522   0.901  15.764 -0.0271  2.2453 -2.3644
  907MPD2    H213288   4.353   0.817  15.388 -0.0338 -0.6582 -1.0994
  907MPD2    H313289   4.361   0.951  15.584  0.5333  0.6543 -0.2275
  907MPD2     N13290   4.702   0.681  15.759 -0.5693  0.3198  0.4443
  907MPD2    H513291   0.021   0.590  15.742 -2.2890 -0.4605  0.3730
  907MPD2    N113292   4.491   0.587  15.347  0.6298 -0.3138  0.0934
  907MPD2    H713293   4.570   0.523  15.344 -0.2037 -1.1818 -2.8647
  908MPD2     C13294   2.232   2.384   9.999  0.0090  0.8336 -0.7598
  908MPD2    C113295   2.316   2.472  10.043  0.0239  0.2817 -0.9720
  908MPD2    C213296   2.357   2.466  10.173  0.2852  0.9729  0.0881
  908MPD2    C313297   2.294   2.380  10.262  0.1824  0.2853 -0.3828
  908MPD2    C413298   2.193   2.297  10.217 -0.2746 -0.9842  0.6204
  908MPD2    C513299   2.161   2.300  10.082 -0.5494  0.4966  0.2795
  908MPD2     H13300   2.442   2.529  10.196  0.9488  1.0317 -2.5348
  908MPD2    H113301   2.133   2.239  10.287  2.2941 -1.0253  2.7538
  908MPD2    H213302   2.209   2.382   9.894 -0.1282 -1.6859 -0.6900
  908MPD2    H313303   2.093   2.225  10.043 -1.1828  1.0337  0.3495
  908MPD2     N13304   2.347   2.382  10.394 -0.2019  0.6132  0.1824
  908MPD2    H513305   2.439   2.423  10.406 -0.1172  0.7137 -0.7983
  908MPD2    N113306   2.394   2.540   9.945 -0.1040 -0.2472 -0.1331
  908MPD2    H713307   2.383   2.497   9.855 -1.1847  0.0819 -0.1564
  909MPD2     C13308   3.031   3.532  11.654  0.0807  0.2906 -0.2127
  909MPD2    C113309   3.031   3.656  11.587  0.0259  0.3610  0.8472
  909MPD2    C213310   2.953   3.760  11.631 -0.3890  0.5647 -0.9461
  909MPD2    C313311   2.872   3.746  11.743  0.5230 -0.5897  0.4330
  909MPD2    C413312   2.878   3.620  11.807  0.2905  0.0587  0.3272
  909MPD2    C513313   2.959   3.518  11.769  0.1041 -0.0348 -0.5940
  909MPD2     H13314   2.949   3.854  11.578 -0.3875 -0.5165 -2.8618
  909MPD2    H113315   2.838   3.610  11.907 -0.6758  1.1613  0.0519
  909MPD2    H213316   3.099   3.453  11.624 -1.8604 -1.2222 -0.6439
  909MPD2    H313317   2.960   3.423  11.822  0.5354  0.9610  1.1841
  909MPD2     N13318   2.797   3.858  11.795 -0.1604  0.6808  0.1081
  909MPD2    H513319   2.815   3.943  11.744  2.7981 -0.8341 -1.4011
  909MPD2    N113320   3.102   3.675  11.472  0.3457 -0.0571  0.5685
  909MPD2    H713321   3.102   3.767  11.430  1.2376  0.6932  2.2086
  910MPD2     C13322   4.047   1.287  16.147 -0.7906 -0.2353 -0.0768
  910MPD2    C113323   4.137   1.243  16.051 -0.0946  1.1888 -0.6071
  910MPD2    C213324   4.086   1.229  15.923 -0.1712 -0.0295  0.3353
  910MPD2    C313325   3.949   1.252  15.890  0.2343 -0.1587 -0.5155
  910MPD2    C413326   3.868   1.299  15.988 -0.5028 -0.7768  0.0820
  910MPD2    C513327   3.912   1.308  16.114  0.1233 -0.4333  0.4155
  910MPD2     H13328   4.159   1.202  15.848 -1.1255  0.6063 -0.8245
  910MPD2    H113329   3.761   1.315  15.973 -0.5566  0.7471  2.1141
  910MPD2    H213330   4.062   1.301  16.253 -1.8365 -0.4657  0.0981
  910MPD2    H313331   3.846   1.329  16.198 -0.8203  0.8061 -0.6553
  910MPD2     N13332   3.898   1.254  15.760  0.5193 -0.4765  0.0485
  910MPD2    H513333   3.798   1.270  15.761  0.6258  0.1303  0.4842
  910MPD2    N113334   4.269   1.193  16.082 -0.9667 -0.2544  0.6291
  910MPD2    H713335   4.325   1.149  16.011 -0.3594 -0.9796  1.5566
  911MPD2     C13336   2.525   2.048  16.505 -0.6647 -0.0802 -0.6492
  911MPD2    C113337   2.461   1.949  16.438  0.1923  0.8185 -0.5881
  911MPD2    C213338   2.352   1.986  16.366 -0.3262  0.1937  0.1390
  911MPD2    C313339   2.305   2.118  16.356  0.1391  0.3037 -0.2788
  911MPD2    C413340   2.369   2.213  16.434 -0.2807  0.0428  0.2034
  911MPD2    C513341   2.485   2.182  16.503 -0.3851  0.5773  0.5664
  911MPD2     H13342   2.304   1.910  16.305 -0.9259  1.2443 -0.6967
  911MPD2    H113343   2.338   2.317  16.439  1.2933  0.6495 -2.3455
  911MPD2    H213344   2.614   2.021  16.561 -0.9754  0.4056  0.0911
  911MPD2    H313345   2.535   2.260  16.558  1.4551 -1.1067  1.3026
  911MPD2     N13346   2.199   2.143  16.269  0.2998  0.0927  0.0503
  911MPD2    H513347   2.144   2.061  16.245  0.6528 -0.0144 -0.3808
  911MPD2    N113348   2.500   1.812  16.463 -0.4793 -0.0531 -0.2772
  911MPD2    H713349   2.592   1.800  16.504 -1.1256  3.5668  2.2407
  912MPD2     C13350   1.709   1.805  15.749 -0.3588 -0.5431 -0.3741
  912MPD2    C113351   1.773   1.804  15.867 -0.0641 -0.7385 -0.6714
  912MPD2    C213352   1.743   1.714  15.967 -0.7356  0.0105  0.1004
  912MPD2    C313353   1.638   1.629  15.958 -0.1102  0.0212  0.7430
  912MPD2    C413354   1.576   1.631  15.836 -0.1413 -0.2660 -0.3277
  912MPD2    C513355   1.609   1.718  15.734  0.0960  0.1091 -0.1955
  912MPD2     H13356   1.794   1.735  16.060 -1.1811 -1.5344  0.6835
  912MPD2    H113357   1.503   1.556  15.808 -0.0938 -0.6861  0.6626
  912MPD2    H213358   1.734   1.874  15.668  0.5776  0.2092  0.5627
  912MPD2    H313359   1.555   1.705  15.641  1.4911 -0.4577 -0.9311
  912MPD2     N13360   1.602   1.543  16.061  0.7027 -0.0923 -0.4085
  912MPD2    H513361   1.675   1.520  16.129 -0.7824  1.5549  1.7359
  912MPD2    N113362   1.868   1.906  15.880 -0.4107  0.2949 -0.3582
  912MPD2    H713363   1.874   1.967  15.799  0.8245 -1.3822 -1.5295
  913MPD2     C13364   2.283   2.794  10.669  0.8072  0.1697  0.6060
  913MPD2    C113365   2.162   2.726  10.672 -0.1468  0.2799  1.1808
  913MPD2    C213366   2.101   2.704  10.550 -0.6257 -1.2837 -0.8156
  913MPD2    C313367   2.158   2.740  10.428 -0.4253 -0.3311 -0.2396
  913MPD2    C413368   2.283   2.796  10.427  0.6047  0.6227  0.6420
  913MPD2    C513369   2.342   2.825  10.547 -0.5368  0.0806 -0.5034
  913MPD2     H13370   2.004   2.655  10.553 -1.2769  0.1495  1.7175
  913MPD2    H113371   2.337   2.811  10.334  0.1398 -0.0012  0.2739
  913MPD2    H213372   2.336   2.815  10.761  2.2015 -1.1786  0.1096
  913MPD2    H313373   2.435   2.879  10.553 -1.0140  1.2721 -3.8519
  913MPD2     N13374   2.097   2.711  10.302 -0.4498 -0.4773  0.1828
  913MPD2    H513375   2.145   2.736  10.217 -1.9177 -0.6175 -0.6793
  913MPD2    N113376   2.094   2.700  10.793  0.3872  0.5914 -0.5035
  913MPD2    H713377   1.995   2.682  10.783  0.2431  1.5508 -0.9082
  914MPD2     C13378   0.055   3.078  11.734 -0.0283  0.2663 -0.6577
  914MPD2    C113379   0.143   3.183  11.753 -0.2805  0.0204 -1.1840
  914MPD2    C213380   0.200   3.193  11.880 -0.3571  0.2189 -0.0718
  914MPD2    C313381   0.152   3.116  11.991 -0.0836  0.6525 -0.2994
  914MPD2    C413382   0.063   3.016  11.965  1.1048  0.2643 -0.2829
  914MPD2    C513383   0.020   2.992  11.839  0.2885 -0.6615  0.5272
  914MPD2     H13384   0.273   3.267  11.912 -1.0775  0.0966  1.8495
  914MPD2    H113385   0.046   2.946  12.046 -1.4873  0.4642 -0.6723
  914MPD2    H213386   0.007   3.062  11.638  0.1726 -2.9602 -0.2155
  914MPD2    H313387   4.670   2.911  11.831 -0.2561 -0.2516  1.3014
  914MPD2     N13388   0.208   3.136  12.118 -0.2313 -0.2818  0.7382
  914MPD2    H513389   0.275   3.210  12.135  0.2787 -0.8952  1.4213
  914MPD2    N113390   0.187   3.261  11.650 -0.2902  0.2472  0.0136
  914MPD2    H713391   0.245   3.342  11.669 -0.5705  0.1737  1.1821
  915MPD2     C13392   2.562   2.977  15.568 -0.1975  0.0074  0.1399
  915MPD2    C113393   2.667   3.055  15.526  0.2515  0.2063 -0.2135
  915MPD2    C213394   2.718   3.147  15.618 -0.7354  0.1304 -0.8566
  915MPD2    C313395   2.655   3.166  15.742 -0.4480 -0.0444  0.2095
  915MPD2    C413396   2.560   3.085  15.786  0.2189 -0.2962  0.2272
  915MPD2    C513397   2.517   2.997  15.695 -0.6654 -0.1668 -0.6521
  915MPD2     H13398   2.798   3.212  15.586 -0.0538  0.1819  0.9304
  915MPD2    H113399   2.512   3.088  15.883  0.8289  2.3328  0.4544
  915MPD2    H213400   2.513   2.901  15.508 -0.3708 -0.1417  0.4676
  915MPD2    H313401   2.441   2.931  15.734 -1.0737  0.9953  0.4928
  915MPD2     N13402   2.692   3.269  15.836 -0.7018 -0.1923 -0.3810
  915MPD2    H513403   2.661   3.271  15.933 -0.7666  0.4268 -0.4171
  915MPD2    N113404   2.713   3.030  15.397 -0.4842  0.7759  0.0496
  915MPD2    H713405   2.655   2.972  15.338  1.6579  0.3290 -1.6009
  916MPD2     C13406   1.308   1.418  15.622 -0.6054 -0.6244 -0.4508
  916MPD2    C113407   1.284   1.306  15.699 -0.3089 -0.5820  0.7342
  916MPD2    C213408   1.351   1.191  15.662 -0.0921  0.2027 -0.0803
  916MPD2    C313409   1.434   1.187  15.549  0.4208  0.1190 -0.3214
  916MPD2    C413410   1.449   1.296  15.470 -0.6659 -0.0188 -0.0177
  916MPD2    C513411   1.396   1.414  15.518 -0.1895  0.4515  0.4621
  916MPD2     H13412   1.345   1.107  15.730 -2.3687  1.2684  1.0423
  916MPD2    H113413   1.511   1.295  15.381 -0.8427 -1.8975 -0.1197
  916MPD2    H213414   1.278   1.518  15.651 -0.9198 -0.2208 -2.1371
  916MPD2    H313415   1.399   1.505  15.460 -0.0023 -0.4569 -0.9330
  916MPD2     N13416   1.506   1.067  15.534 -0.3186  0.2515 -0.5548
  916MPD2    H513417   1.494   0.999  15.608  1.3981 -0.2870 -0.7722
  916MPD2    N113418   1.212   1.327  15.812 -0.3036 -0.4631  0.1335
  916MPD2    H713419   1.178   1.418  15.840 -0.0819  0.6643 -3.3086
  917MPD2     C13420   1.426   3.529  10.785  0.0230 -0.4683 -0.6633
  917MPD2    C113421   1.495   3.617  10.870 -0.0258 -0.0888 -0.9256
  917MPD2    C213422   1.608   3.682  10.829  0.1372  0.5298 -0.1968
  917MPD2    C313423   1.645   3.668  10.692 -0.2113  0.1217 -0.7501
  917MPD2    C413424   1.560   3.601  10.610  0.4947  0.2632 -0.4850
  917MPD2    C513425   1.449   3.537  10.651  0.0831  0.0173  0.4023
  917MPD2     H13426   1.678   3.726  10.899 -0.3753 -1.1661  1.3530
  917MPD2    H113427   1.579   3.583  10.505 -2.4100 -1.2217 -0.7509
  917MPD2    H213428   1.348   3.465  10.823 -0.3869 -0.4729 -1.5042
  917MPD2    H313429   1.396   3.480  10.575  1.2462  0.4984 -0.7655
  917MPD2     N13430   1.766   3.724  10.637 -0.6290 -0.8088 -0.0356
  917MPD2    H513431   1.776   3.716  10.536  2.4069 -0.0299  0.2318
  917MPD2    N113432   1.455   3.606  11.001 -0.0730  0.6739 -0.1187
  917MPD2    H713433   1.380   3.539  11.018  0.7799 -1.0938 -3.1824
  918MPD2     C13434   1.616   4.145  11.899 -0.2230  0.3736 -0.5644
  918MPD2    C113435   1.710   4.059  11.839  0.9265  0.5348  0.2247
  918MPD2    C213436   1.668   3.986  11.733  0.6397 -0.0812 -0.2446
  918MPD2    C313437   1.538   3.988  11.686 -0.5517 -0.3719 -0.8347
  918MPD2    C413438   1.448   4.075  11.750  0.1417  0.4562  0.0782
  918MPD2    C513439   1.483   4.143  11.867 -1.0868 -0.0768 -0.0144
  918MPD2     H13440   1.740   3.931  11.673  2.2209  2.6376 -0.8240
  918MPD2    H113441   1.347   4.093  11.715  0.2588 -1.7107 -1.4119
  918MPD2    H213442   1.634   4.209  11.985  0.9170 -1.1317  0.3237
  918MPD2    H313443   1.403   4.194  11.919  0.0805 -0.5051  2.1829
  918MPD2     N13444   1.500   3.912  11.565 -0.2366  0.6220  0.0637
  918MPD2    H513445   1.571   3.866  11.510 -2.6141 -1.6236 -1.1508
  918MPD2    N113446   1.844   4.045  11.894 -0.6308 -0.5543  0.3164
  918MPD2    H713447   1.900   3.973  11.851  0.4351  0.2214  0.4194
  919MPD2     C13448   2.039   3.057  11.925  0.2221  0.0671  0.1936
  919MPD2    C113449   1.930   2.968  11.926  0.3746 -0.0264 -0.7302
  919MPD2    C213450   1.846   2.961  11.814 -0.0323 -0.2306  0.4205
  919MPD2    C313451   1.868   3.038  11.702 -0.4161  0.4164 -0.3612
  919MPD2    C413452   1.978   3.121  11.701  0.3273  0.2839  0.0845
  919MPD2    C513453   2.061   3.123  11.805 -0.6051  0.0007  0.5078
  919MPD2     H13454   1.758   2.898  11.820 -0.7884  0.8757  0.9704
  919MPD2    H113455   1.999   3.187  11.618 -0.5079  2.4350  1.5686
  919MPD2    H213456   2.095   3.086  12.013  1.2908 -0.1428 -0.4102
  919MPD2    H313457   2.129   3.207  11.804 -0.2430 -0.2933 -0.2205
  919MPD2     N13458   1.784   3.038  11.590 -0.2124  1.1002  0.2589
  919MPD2    H513459   1.814   3.102  11.518  0.3893  0.4616 -0.0506
  919MPD2    N113460   1.896   2.899  12.044  0.4475  0.0183  0.4382
  919MPD2    H713461   1.809   2.847  12.048  1.8024 -2.1115  2.2302
  920MPD2     C13462   2.040   3.047  10.642 -0.1290  0.2827  0.5992
  920MPD2    C113463   1.913   2.987  10.634 -0.6771 -0.7100  0.6761
  920MPD2    C213464   1.856   2.943  10.750  0.9360 -0.4367  0.2059
  920MPD2    C313465   1.907   2.975  10.869  0.9559 -0.0438  0.0376
  920MPD2    C413466   2.022   3.049  10.877  0.2794  0.4404  0.0528
  920MPD2    C513467   2.095   3.069  10.766 -0.5161 -0.2705 -0.2205
  920MPD2     H13468   1.761   2.890  10.742  1.6006 -1.7059  0.6943
  920MPD2    H113469   2.073   3.078  10.968 -0.2085  2.9155 -0.4680
  920MPD2    H213470   2.105   3.070  10.559  0.3995 -2.6683  0.1884
  920MPD2    H313471   2.189   3.122  10.774 -2.6460  3.5675 -0.9497
  920MPD2     N13472   1.817   2.954  10.982 -0.2989 -0.4939  0.3539
  920MPD2    H513473   1.732   2.905  10.955 -0.1451  0.5089 -1.9660
  920MPD2    N113474   1.847   2.973  10.509 -0.3439  0.2553 -0.1630
  920MPD2    H713475   1.773   2.904  10.506 -0.2183  0.1024  0.2115
  921MPD2     C13476   2.890   1.612  17.184 -1.2016  0.1718 -1.4204
  921MPD2    C113477   2.906   1.491  17.120  0.1433  0.0141  0.5045
  921MPD2    C213478   2.828   1.453  17.005 -0.7621  0.3612 -0.3354
  921MPD2    C313479   2.751   1.555  16.948 -1.0224 -0.1067  0.1318
  921MPD2    C413480   2.737   1.682  17.021 -1.1101  0.4214  0.3579
  921MPD2    C513481   2.803   1.704  17.139 -1.0105 -0.0888  0.3262
  921MPD2     H13482   2.843   1.361  16.950  1.3433  1.2202 -1.2027
  921MPD2    H113483   2.660   1.746  16.981  1.1611  1.5211 -2.2383
  921MPD2    H213484   2.941   1.638  17.276 -0.5834  2.4509 -2.3963
  921MPD2    H313485   2.785   1.795  17.197 -0.5772  0.4692 -0.4150
  921MPD2     N13486   2.678   1.541  16.825  0.3825  0.6318 -0.0365
  921MPD2    H513487   2.627   1.619  16.785  0.0756 -0.4887 -1.8305
  921MPD2    N113488   3.006   1.407  17.175  0.0526 -0.4053 -0.3630
  921MPD2    H713489   3.070   1.451  17.240 -1.7609  0.0992  1.0721
  922MPD2     C13490   3.901   4.256  16.968  0.6423  0.2092  0.5573
  922MPD2    C113491   3.851   4.322  17.076  0.2266 -0.1671  0.3492
  922MPD2    C213492   3.739   4.270  17.135  0.8031 -0.0752  0.4462
  922MPD2    C313493   3.680   4.155  17.091 -0.7735 -0.5241 -0.7123
  922MPD2    C413494   3.729   4.089  16.979 -0.1291 -0.3892 -0.6853
  922MPD2    C513495   3.841   4.144  16.917  0.0078  0.2773 -0.3417
  922MPD2     H13496   3.701   4.314  17.227 -0.3153 -0.3196  0.1033
  922MPD2    H113497   3.687   4.000  16.935  0.1845 -1.6395  1.5337
  922MPD2    H213498   3.995   4.286  16.925  0.4213  0.4925  0.2697
  922MPD2    H313499   3.891   4.078  16.847  0.3887  0.6903 -0.4635
  922MPD2     N13500   3.550   4.124  17.147  0.6102 -0.0888 -0.3651
  922MPD2    H513501   3.521   4.181  17.226 -0.4234 -0.0617 -0.7627
  922MPD2    N113502   3.905   4.438  17.134 -0.4463  0.5396  0.0978
  922MPD2    H713503   3.841   4.502  17.180  0.4137  1.7992 -0.4538
  923MPD2     C13504   1.944   1.694   9.296 -1.1727 -0.2331 -0.0185
  923MPD2    C113505   1.806   1.692   9.287 -0.3030  0.2613  0.2471
  923MPD2    C213506   1.731   1.652   9.403  0.1332  0.1010 -0.1896
  923MPD2    C313507   1.793   1.617   9.522  0.0198  0.0505  0.5280
  923MPD2    C413508   1.932   1.605   9.524  0.1950  0.0143  0.1841
  923MPD2    C513509   2.007   1.660   9.417 -0.0431 -0.1214 -0.8603
  923MPD2     H13510   1.623   1.650   9.394  0.1478  0.5878 -0.5134
  923MPD2    H113511   1.973   1.570   9.618 -0.1514  1.8778  1.0185
  923MPD2    H213512   2.014   1.726   9.219  0.9077 -1.3197  1.4125
  923MPD2    H313513   2.115   1.669   9.411  0.1220  0.7299  3.4075
  923MPD2     N13514   1.737   1.583   9.643  0.2501 -0.2696 -0.2827
  923MPD2    H513515   1.803   1.551   9.714  0.2938  0.2791 -0.0751
  923MPD2    N113516   1.741   1.730   9.174 -0.1821 -0.0840  0.4848
  923MPD2    H713517   1.803   1.732   9.093  1.4328 -0.1438  1.7290
  924MPD2     C13518   0.219   4.673  15.871  0.4247 -0.6536  0.3219
  924MPD2    C113519   0.233   0.017  15.994  0.3309  0.0079 -0.0512
  924MPD2    C213520   0.267   0.151  15.988 -0.2381  0.4133 -1.2788
  924MPD2    C313521   0.297   0.213  15.872 -0.8104  0.1202  0.5142
  924MPD2    C413522   0.254   0.153  15.757  0.3565 -0.7691 -0.2629
  924MPD2    C513523   0.228   0.019  15.754  0.1402  0.7408  0.4926
  924MPD2     H13524   0.290   0.208  16.077  1.5058 -1.4492 -0.5456
  924MPD2    H113525   0.269   0.193  15.658  3.4363  1.3362  1.0560
  924MPD2    H213526   0.196   4.567  15.868 -1.6018 -0.2668  1.9739
  924MPD2    H313527   0.212   4.682  15.665 -0.1744  2.1067 -0.3580
  924MPD2     N13528   0.339   0.350  15.864  0.8389  0.0626  0.1878
  924MPD2    H513529   0.318   0.396  15.776 -3.7681 -0.5635  0.9555
  924MPD2    N113530   0.213   4.668  16.119 -0.1716 -0.3569  0.0763
  924MPD2    H713531   0.158   4.584  16.109 -2.9102  1.5073 -0.3945
  925MPD2     C13532   3.985   2.584  14.638 -0.3148 -0.0592  0.6319
  925MPD2    C113533   3.846   2.578  14.626 -0.3012  0.3666  0.2735
  925MPD2    C213534   3.767   2.536  14.727  0.2308  0.1290 -0.0689
  925MPD2    C313535   3.825   2.513  14.847 -0.1824  0.0578 -0.0303
  925MPD2    C413536   3.960   2.528  14.860  0.4123 -0.0017 -0.1069
  925MPD2    C513537   4.040   2.569  14.756 -0.1830 -0.4715 -0.1296
  925MPD2     H13538   3.663   2.514  14.705  0.1352  1.7028 -1.1861
  925MPD2    H113539   4.002   2.506  14.957  2.0522 -1.9547 -1.2559
  925MPD2    H213540   4.054   2.591  14.555  1.3724  0.0336  2.0336
  925MPD2    H313541   4.147   2.572  14.771 -0.3814 -0.8028  1.3041
  925MPD2     N13542   3.762   2.472  14.967 -0.2313  0.2347  0.4623
  925MPD2    H513543   3.819   2.458  15.050 -0.6830 -2.1515  0.3763
  925MPD2    N113544   3.784   2.628  14.500  0.3801  0.0707 -0.0745
  925MPD2    H713545   3.688   2.596  14.494  0.1606  0.9868 -1.3844
  926MPD2     C13546   2.406   0.910  12.944 -0.1428 -0.3014  0.4414
  926MPD2    C113547   2.344   1.034  12.963  0.2866 -0.6035 -0.3411
  926MPD2    C213548   2.379   1.142  12.884  0.2839  0.3349  0.4264
  926MPD2    C313549   2.474   1.133  12.782 -0.0140  0.4181  0.3793
  926MPD2    C413550   2.525   1.004  12.760  0.9227  0.7497  0.6600
  926MPD2    C513551   2.486   0.899  12.835 -1.0424 -0.3376 -0.0566
  926MPD2     H13552   2.340   1.241  12.905 -3.0567 -0.9769  0.3229
  926MPD2    H113553   2.585   0.986  12.672  2.1316  1.5026  1.3166
  926MPD2    H213554   2.384   0.825  13.008 -0.7885 -1.3548 -1.1804
  926MPD2    H313555   2.517   0.796  12.822 -0.5116 -0.3338  1.1898
  926MPD2     N13556   2.510   1.237  12.697  0.5593  0.1041 -0.2932
  926MPD2    H513557   2.578   1.208  12.628  0.3954  1.5393 -1.0751
  926MPD2    N113558   2.252   1.056  13.066  0.4001  0.0360  0.7209
  926MPD2    H713559   2.214   1.149  13.080 -2.2967 -0.8628 -0.7277
  927MPD2     C13560   1.927   3.448   0.103 -0.5082  0.5246  0.1061
  927MPD2    C113561   1.947   3.320   0.062  0.2980  0.2185 -0.2994
  927MPD2    C213562   2.041   3.308  17.647 -0.8261 -1.5516  0.4906
  927MPD2    C313563   2.123   3.411  17.612  0.3614  0.1252  0.0625
  927MPD2    C413564   2.104   3.538  17.664  0.3445 -0.8690  0.5326
  927MPD2    C513565   2.007   3.559   0.066  0.3106  0.7271 -0.0352
  927MPD2     H13566   2.042   3.209  17.602  0.4064 -0.9437 -0.8174
  927MPD2    H113567   2.166   3.623  17.637  0.8344 -1.3229  0.2303
  927MPD2    H213568   1.853   3.473   0.179 -0.7582  1.9100 -0.5852
  927MPD2    H313569   1.998   3.662   0.100  1.7114  1.0501 -0.6515
  927MPD2     N13570   2.219   3.393  17.506 -0.2820 -0.8106 -0.0347
  927MPD2    H513571   2.232   3.301  17.464 -2.2618 -1.1259  0.0218
  927MPD2    N113572   1.890   3.222   0.136 -0.0980  0.5519  0.5270
  927MPD2    H713573   1.835   3.250   0.216 -1.4210  0.6031 -0.4099
  928MPD2     C13574   4.465   0.839   0.070  1.0386 -0.0428 -0.3966
  928MPD2    C113575   4.408   0.952   0.115  0.4470 -0.3349 -0.0920
  928MPD2    C213576   4.463   1.079   0.084  0.2222  0.2565 -0.2587
  928MPD2    C313577   4.595   1.078   0.031  0.0519 -0.4264  0.8900
  928MPD2    C413578   4.650   0.957   0.007  0.2790  0.4201 -0.2352
  928MPD2    C513579   4.591   0.841   0.019 -0.8730 -0.0421  0.1269
  928MPD2     H13580   4.413   1.172   0.108 -0.0775 -0.4976  2.0728
  928MPD2    H113581   0.024   0.956  17.651 -0.8163 -0.1168 -2.3997
  928MPD2    H213582   4.413   0.745   0.085  0.5298  0.5517  1.4783
  928MPD2    H313583   4.641   0.749  17.684 -2.0725 -0.3760 -0.9179
  928MPD2     N13584   4.670   1.191   0.016 -0.0000 -0.1892  0.6915
  928MPD2    H513585   0.042   1.171  17.677  0.5702  3.1991  0.2159
  928MPD2    N113586   4.304   0.931   0.211  0.1517  0.2973 -0.0858
  928MPD2    H713587   4.282   0.835   0.234  0.7757 -0.0794 -1.0416
  929MPD2     C13588   0.614   1.094  10.880 -0.1842 -0.1687 -0.1494
  929MPD2    C113589   0.486   1.053  10.859  0.0950  0.4159  0.7244
  929MPD2    C213590   0.445   1.064  10.724 -0.2718  0.4053 -0.8840
  929MPD2    C313591   0.529   1.096  10.617  0.0834 -0.0724  0.5937
  929MPD2    C413592   0.659   1.129  10.644  0.4741  0.6942  1.2803
  929MPD2    C513593   0.699   1.129  10.776  0.2588 -0.0733 -0.2135
  929MPD2     H13594   0.346   1.027  10.698  0.1890 -0.1387 -1.8550
  929MPD2    H113595   0.725   1.163  10.564  0.7146  0.5799  1.4298
  929MPD2    H213596   0.654   1.100  10.981  2.1602  0.7049 -1.1308
  929MPD2    H313597   0.804   1.145  10.799 -0.5107  2.9271  1.1804
  929MPD2     N13598   0.480   1.119  10.486 -0.3775 -0.3846 -0.5717
  929MPD2    H513599   0.545   1.171  10.427  0.0051  0.2824  0.4341
  929MPD2    N113600   0.400   1.033  10.967 -0.1417  0.0916 -0.1822
  929MPD2    H713601   0.436   1.032  11.062 -1.0428 -0.2286  0.1601
  930MPD2     C13602   1.939   3.610  14.022  0.2456  0.3975  0.2810
  930MPD2    C113603   1.936   3.695  13.915 -0.2639  0.1455  0.4252
  930MPD2    C213604   1.894   3.648  13.795 -0.1075  0.1342  0.3615
  930MPD2    C313605   1.873   3.509  13.782  0.0656 -0.0136  0.5114
  930MPD2    C413606   1.874   3.421  13.888  0.6838 -0.1448 -0.2540
  930MPD2    C513607   1.905   3.480  14.012  0.1758  0.4618 -0.4690
  930MPD2     H13608   1.915   3.707  13.706  1.7532  2.4460  2.3513
  930MPD2    H113609   1.862   3.313  13.877 -0.0119 -0.2859  1.8881
  930MPD2    H213610   1.961   3.650  14.120 -0.0768 -0.9037  0.8859
  930MPD2    H313611   1.910   3.417  14.100  0.9167  1.1556 -0.0130
  930MPD2     N13612   1.878   3.446  13.651  0.4860  0.1938  0.2087
  930MPD2    H513613   1.893   3.346  13.649  0.6654  0.2131  0.5823
  930MPD2    N113614   1.962   3.836  13.933  0.3919  0.0899 -0.0603
  930MPD2    H713615   1.976   3.860  14.031 -1.2164 -1.5525  0.5592
  931MPD2     C13616   2.037   2.414   0.294 -0.6494  0.3862 -0.1824
  931MPD2    C113617   1.925   2.468   0.346  0.4178 -0.3440 -1.0366
  931MPD2    C213618   1.844   2.400   0.435  0.2582 -0.2233  0.1207
  931MPD2    C313619   1.868   2.265   0.460  0.0521  0.1902  0.1863
  931MPD2    C413620   1.967   2.203   0.388  0.0909  0.2985  0.0649
  931MPD2    C513621   2.057   2.281   0.312  0.6206 -1.0502 -0.5023
  931MPD2     H13622   1.749   2.443   0.465  0.8407  0.3659  1.1359
  931MPD2    H113623   1.982   2.096   0.398 -2.7973 -0.0406  0.7581
  931MPD2    H213624   2.107   2.480   0.244 -0.5022 -0.2867 -0.8754
  931MPD2    H313625   2.142   2.238   0.259  0.6581 -0.2503 -1.0875
  931MPD2     N13626   1.767   2.182   0.528 -0.8536  0.2082 -0.5723
  931MPD2    H513627   1.771   2.081   0.520  2.4752  0.2550  0.2504
  931MPD2    N113628   1.890   2.605   0.317  0.2209  0.0255 -0.8399
  931MPD2    H713629   1.945   2.658   0.250  1.2227  0.9472  0.7093
  932MPD2     C13630   3.559   2.254  10.986 -0.2937  0.5531 -0.0688
  932MPD2    C113631   3.666   2.301  11.065  0.3793  0.2861  0.0555
  932MPD2    C213632   3.680   2.247  11.187  0.1782 -0.1741 -0.9490
  932MPD2    C313633   3.591   2.156  11.237 -0.6717  0.3641  0.1727
  932MPD2    C413634   3.488   2.110  11.157 -0.1836  0.3992 -0.2432
  932MPD2    C513635   3.472   2.154  11.033  0.0121  0.1689  0.5739
  932MPD2     H13636   3.760   2.281  11.251 -2.2242  0.7804  1.5539
  932MPD2    H113637   3.420   2.032  11.191  0.1016  1.1358  2.0006
  932MPD2    H213638   3.544   2.281  10.881  3.0004  2.6837  0.0141
  932MPD2    H313639   3.403   2.106  10.964  0.4040  1.0328 -0.4212
  932MPD2     N13640   3.599   2.115  11.374  0.5700 -0.5067 -0.1401
  932MPD2    H513641   3.519   2.057  11.401 -0.9738  1.7811  0.2198
  932MPD2    N113642   3.759   2.398  11.024  0.0867 -0.2548 -0.0637
  932MPD2    H713643   3.821   2.439  11.093  2.0236 -4.6279  0.7476
  933MPD2     C13644   3.562   0.868   0.657 -0.1929  0.2429  0.3896
  933MPD2    C113645   3.650   0.975   0.662  0.0513 -0.7161 -0.3633
  933MPD2    C213646   3.592   1.098   0.682  0.1016 -0.1318 -0.2861
  933MPD2    C313647   3.457   1.120   0.685 -0.2854  0.4633 -1.0018
  933MPD2    C413648   3.374   1.003   0.690  0.2102  0.3972 -0.0313
  933MPD2    C513649   3.428   0.880   0.661 -0.1688 -0.4360 -0.1034
  933MPD2     H13650   3.659   1.183   0.677 -0.6504  0.5046  0.5291
  933MPD2    H113651   3.265   0.999   0.697  0.3870  0.9419  2.8541
  933MPD2    H213652   3.602   0.769   0.637  1.1895  0.8035  0.4110
  933MPD2    H313653   3.365   0.794   0.641 -1.6530  0.7781 -0.6127
  933MPD2     N13654   3.408   1.248   0.712 -0.4899 -0.0943  0.8133
  933MPD2    H513655   3.476   1.320   0.735  0.8918 -0.9025 -0.7577
  933MPD2    N113656   3.792   0.960   0.633 -0.0973  0.0196  0.4312
  933MPD2    H713657   3.827   0.865   0.629 -1.2614 -0.3161 -1.8693
  934MPD2     C13658   0.406   2.540   1.767 -0.3569  0.0301 -0.6610
  934MPD2    C113659   0.390   2.676   1.744  0.0592  0.1605  0.1395
  934MPD2    C213660   0.396   2.727   1.619 -0.5266  0.4819  0.7011
  934MPD2    C313661   0.415   2.653   1.511  0.5618 -0.0949 -0.2857
  934MPD2    C413662   0.422   2.513   1.529 -0.0028  0.8974  0.7257
  934MPD2    C513663   0.422   2.462   1.656 -0.3484 -0.7898 -0.6122
  934MPD2     H13664   0.402   2.835   1.606 -0.0446  0.5632  1.6483
  934MPD2    H113665   0.444   2.439   1.453 -2.1314  0.2086  0.7907
  934MPD2    H213666   0.410   2.505   1.869 -1.5739  2.2625  0.1569
  934MPD2    H313667   0.440   2.356   1.669  0.2889 -0.4914  0.8507
  934MPD2     N13668   0.418   2.711   1.381  0.4564  0.4538 -0.1773
  934MPD2    H513669   0.427   2.642   1.306  0.8469 -0.7268  0.9610
  934MPD2    N113670   0.391   2.768   1.844  0.1808  0.1560 -0.3976
  934MPD2    H713671   0.400   2.863   1.808  1.3651  0.2755  0.2137
  935MPD2     C13672   0.714   2.276   0.803  0.1378  0.2482  0.9510
  935MPD2    C113673   0.621   2.334   0.718  0.8459  0.2562 -0.1858
  935MPD2    C213674   0.574   2.457   0.754 -0.2018  0.0535 -0.4619
  935MPD2    C313675   0.608   2.506   0.880 -0.0835  0.2665 -0.1321
  935MPD2    C413676   0.703   2.445   0.959 -0.0050  0.3002  0.1138
  935MPD2    C513677   0.756   2.331   0.919 -0.3160  0.4765  0.4490
  935MPD2     H13678   0.506   2.512   0.689 -1.5551  0.8189  1.6100
  935MPD2    H113679   0.746   2.484   1.051 -0.6718  1.7232 -0.1709
  935MPD2    H213680   0.764   2.181   0.791  0.9667  0.9018 -0.6525
  935MPD2    H313681   0.834   2.285   0.979 -3.1269  1.0338  4.5214
  935MPD2     N13682   0.553   2.629   0.939  0.4381  0.0822 -0.0079
  935MPD2    H513683   0.577   2.646   1.037 -0.1795  0.1483  0.1310
  935MPD2    N113684   0.580   2.272   0.596  0.5117 -0.1612  0.0655
  935MPD2    H713685   0.510   2.318   0.539  0.8146  0.6574  0.3618
  936MPD2     C13686   4.665   0.631  12.477 -0.3926 -0.5437 -0.4627
  936MPD2    C113687   4.611   0.682  12.593 -0.3367 -0.1524 -0.3010
  936MPD2    C213688   4.576   0.814  12.587  0.1275 -0.6792  0.6388
  936MPD2    C313689   4.584   0.891  12.476  0.1318 -0.4336 -0.3452
  936MPD2    C413690   4.641   0.843  12.359 -0.4419  0.2249  0.0415
  936MPD2    C513691   4.682   0.707  12.362 -0.2688  0.5671  0.0952
  936MPD2     H13692   4.525   0.859  12.671  2.8615 -0.7913  2.3368
  936MPD2    H113693   4.646   0.901  12.267  1.2739 -0.6218 -0.4078
  936MPD2    H213694   4.700   0.528  12.471  2.2591  0.3177  0.1788
  936MPD2    H313695   0.001   0.655  12.277  0.5062  1.9434 -0.3529
  936MPD2     N13696   4.555   1.027  12.497 -0.2834 -0.0777 -0.0722
  936MPD2    H513697   4.517   1.047  12.589 -0.4599  0.9379 -0.3658
  936MPD2    N113698   4.604   0.612  12.712  0.0263 -0.1295  0.4794
  936MPD2    H713699   4.566   0.656  12.795 -1.4602 -0.8410  0.1823
  937MPD2     C13700   2.301   2.411  12.502 -0.0187  0.3854 -0.6220
  937MPD2    C113701   2.234   2.408  12.388  0.6729 -0.1712  0.1364
  937MPD2    C213702   2.293   2.354  12.274  0.0609 -0.4294 -0.4210
  937MPD2    C313703   2.424   2.308  12.288  1.1740 -0.7880 -0.1504
  937MPD2    C413704   2.490   2.305  12.413 -0.3872  0.1466  0.2975
  937MPD2    C513705   2.429   2.359  12.520  0.6589 -0.3076  0.1236
  937MPD2     H13706   2.240   2.356  12.179 -0.0741  0.8297 -0.3254
  937MPD2    H113707   2.591   2.267  12.426 -0.3828  0.3382  0.8176
  937MPD2    H213708   2.256   2.443  12.595  0.1363  4.2770 -1.8735
  937MPD2    H313709   2.471   2.350  12.619  2.3140 -0.8238 -0.6319
  937MPD2     N13710   2.492   2.273  12.168  0.0335  0.3491 -0.5471
  937MPD2    H513711   2.438   2.300  12.086 -0.4609  0.2038 -0.2657
  937MPD2    N113712   2.141   2.508  12.367  0.1408  0.8022  0.1036
  937MPD2    H713713   2.126   2.547  12.274 -0.3367  0.6750  0.1241
  938MPD2     C13714   0.116   2.922   0.635 -0.2523  0.5069  0.5975
  938MPD2    C113715   0.114   3.032   0.718  1.1736  0.0292 -0.2944
  938MPD2    C213716   0.025   3.040   0.826  0.5089  0.0071  0.6544
  938MPD2    C313717   4.657   2.931   0.856 -0.4880  0.4464 -0.2721
  938MPD2    C413718   4.660   2.821   0.768  0.3914  0.3237 -0.1957
  938MPD2    C513719   0.020   2.822   0.658 -0.6368  0.2216 -0.4293
  938MPD2     H13720   0.023   3.134   0.880  1.4221  0.7828 -0.6639
  938MPD2    H113721   4.595   2.735   0.780 -0.5876  1.2778  1.2437
  938MPD2    H213722   0.196   2.905   0.563 -1.4492  0.5222 -0.7430
  938MPD2    H313723   0.029   2.730   0.602  2.4193  0.1073  0.2522
  938MPD2     N13724   4.572   2.922   0.974 -0.2316 -0.3785 -0.1577
  938MPD2    H513725   4.544   2.826   0.991 -0.6030  0.2320  2.6539
  938MPD2    N113726   0.191   3.150   0.688  0.0045 -0.0387  0.4036
  938MPD2    H713727   0.176   3.230   0.748 -1.4975  1.0376 -1.4015
  939MPD2     C13728   1.413   4.157   1.471  0.9168  0.5552  0.3082
  939MPD2    C113729   1.308   4.228   1.399 -0.0795  0.1873 -0.0771
  939MPD2    C213730   1.338   4.252   1.265 -0.8358  0.2651 -0.3552
  939MPD2    C313731   1.453   4.207   1.206  0.7643 -0.1626 -0.1178
  939MPD2    C413732   1.545   4.130   1.270 -0.4008 -0.0834  0.4546
  939MPD2    C513733   1.529   4.118   1.409  0.2330 -0.0904 -0.5672
  939MPD2     H13734   1.272   4.318   1.209 -0.2188  2.0072  0.9667
  939MPD2    H113735   1.638   4.091   1.231 -0.0470 -0.5194  1.7322
  939MPD2    H213736   1.405   4.135   1.577 -1.1983 -0.5362 -0.0846
  939MPD2    H313737   1.613   4.079   1.466 -0.6533 -2.8728 -1.1468
  939MPD2     N13738   1.471   4.257   1.076 -0.3392  0.4135 -0.0897
  939MPD2    H513739   1.410   4.328   1.037 -1.5959 -0.3192  0.5601
  939MPD2    N113740   1.195   4.279   1.463  0.5463  0.0551 -0.6210
  939MPD2    H713741   1.204   4.287   1.564 -0.7916 -1.0407 -0.4132
  940MPD2     C13742   0.309   0.877  13.036  0.0889  0.3528  0.2660
  940MPD2    C113743   0.386   0.790  13.113 -0.1161  0.6319  0.1298
  940MPD2    C213744   0.440   0.679  13.049 -0.3296  0.3516 -0.5168
  940MPD2    C313745   0.440   0.671  12.913  0.0082  0.6222 -0.1080
  940MPD2    C413746   0.355   0.746  12.837  0.4005 -0.8582  0.1668
  940MPD2    C513747   0.294   0.851  12.902 -0.3551  0.3952  0.0436
  940MPD2     H13748   0.498   0.608  13.107 -3.6037 -0.6462  1.5747
  940MPD2    H113749   0.346   0.722  12.732 -1.4602  0.8288 -0.0669
  940MPD2    H213750   0.257   0.963  13.079  0.6533  0.7304  0.1914
  940MPD2    H313751   0.240   0.924  12.843 -0.2180  0.1905 -0.3359
  940MPD2     N13752   0.518   0.575  12.844  0.2206  0.0583 -0.1420
  940MPD2    H513753   0.512   0.586  12.743  0.1937  1.4130  0.0018
  940MPD2    N113754   0.404   0.802  13.254  0.3200  1.0973 -0.6135
  940MPD2    H713755   0.448   0.726  13.305  0.2384  1.8565  0.5765
  941MPD2     C13756   0.096   4.457   9.079  0.4605 -0.3482  0.3042
  941MPD2    C113757   0.091   4.398   9.204 -0.4514  0.5691 -0.7217
  941MPD2    C213758   0.050   4.269   9.210 -0.4696  0.5962 -1.1446
  941MPD2    C313759   4.718   4.206   9.098 -0.1533  0.2580  0.4033
  941MPD2    C413760   4.717   4.261   8.972  0.1522  0.0386  0.6961
  941MPD2    C513761   0.034   4.393   8.969 -0.6120  0.4184  0.2603
  941MPD2     H13762   0.059   4.220   9.306 -1.4769  4.7901  1.0982
  941MPD2    H113763   4.677   4.209   8.886  1.6301 -1.7194  1.0857
  941MPD2    H213764   0.138   4.555   9.061  0.8778 -0.9888 -2.1263
  941MPD2    H313765   0.010   4.443   8.876 -0.4018 -0.9982 -0.5548
  941MPD2     N13766   4.662   4.082   9.098  0.2119  0.0227 -0.2245
  941MPD2    H513767   4.624   4.054   9.008 -0.7758 -3.1948  1.2021
  941MPD2    N113768   0.140   4.449   9.319  0.5035  0.4891 -0.2930
  941MPD2    H713769   0.159   4.386   9.397 -0.2796 -1.0699 -1.3454
  942MPD2     C13770   1.155   1.643   8.691 -0.0194 -0.0007  0.4158
  942MPD2    C113771   1.094   1.715   8.791  0.5803  0.3007  0.7266
  942MPD2    C213772   1.118   1.680   8.932  0.5711  0.1330  0.5617
  942MPD2    C313773   1.209   1.579   8.963  0.3381  0.7046 -0.6959
  942MPD2    C413774   1.262   1.515   8.854 -0.6680 -0.1004  0.2292
  942MPD2    C513775   1.238   1.543   8.724 -0.4033 -0.4652 -0.0920
  942MPD2     H13776   1.063   1.730   9.011  0.9348  0.3490  0.6789
  942MPD2    H113777   1.329   1.430   8.868  0.2776  0.4798 -0.7501
  942MPD2    H213778   1.142   1.658   8.584  0.8483  0.5913  0.3938
  942MPD2    H313779   1.278   1.482   8.645  0.5524 -0.8456  0.6888
  942MPD2     N13780   1.258   1.541   9.090  0.5595 -0.5976 -0.4019
  942MPD2    H513781   1.327   1.468   9.096  2.3360  0.8782 -3.0137
  942MPD2    N113782   0.996   1.822   8.769 -0.0841 -0.4687 -0.2588
  942MPD2    H713783   0.958   1.884   8.839  0.5996 -0.3626  0.0183
  943MPD2     C13784   2.780   3.389   9.866 -1.6656  0.1466 -0.3084
  943MPD2    C113785   2.760   3.469   9.760 -0.0958  0.2170 -0.5414
  943MPD2    C213786   2.833   3.586   9.749 -0.3831 -0.2246 -0.2099
  943MPD2    C313787   2.928   3.618   9.845  0.9894  0.2759 -0.6981
  943MPD2    C413788   2.950   3.534   9.949  0.0656 -0.1728 -0.9126
  943MPD2    C513789   2.864   3.428   9.960  0.0428  0.1422  0.0752
  943MPD2     H13790   2.826   3.651   9.662 -0.0025  0.3382  0.1822
  943MPD2    H113791   3.019   3.561  10.029  0.5598  0.6131 -1.6084
  943MPD2    H213792   2.726   3.296   9.881 -1.0762  0.0547  1.1529
  943MPD2    H313793   2.874   3.366  10.049 -1.3906  1.7598  1.3759
  943MPD2     N13794   3.000   3.736   9.844 -0.1895  0.3624 -0.3510
  943MPD2    H513795   3.068   3.748   9.919  0.5468  0.9487 -1.1012
  943MPD2    N113796   2.670   3.422   9.664  0.5293  0.1782  0.0605
  943MPD2    H713797   2.626   3.332   9.679 -0.3251  0.5765 -0.0966
  944MPD2     C13798   3.268   3.696  10.707 -0.6062 -0.5951 -0.8884
  944MPD2    C113799   3.241   3.560  10.737  0.6837  0.3245  0.4478
  944MPD2    C213800   3.154   3.536  10.845  0.2998  0.1488 -0.7653
  944MPD2    C313801   3.092   3.634  10.918  0.2790 -0.5645 -0.0146
  944MPD2    C413802   3.116   3.768  10.880  0.4391 -0.1423  0.1437
  944MPD2    C513803   3.201   3.794  10.772  0.5040 -0.0696  0.5523
  944MPD2     H13804   3.134   3.435  10.879  1.5874  0.6291  1.3839
  944MPD2    H113805   3.084   3.858  10.930 -0.3807 -0.3641  0.0175
  944MPD2    H213806   3.325   3.724  10.619 -0.0835  0.0144 -0.3518
  944MPD2    H313807   3.223   3.894  10.736 -1.3890  0.4259  0.7738
  944MPD2     N13808   3.005   3.592  11.022 -0.4811 -0.4804  0.4503
  944MPD2    H513809   3.003   3.492  11.036 -1.2501 -0.4506  0.5476
  944MPD2    N113810   3.278   3.464  10.645 -0.7299  0.6624  0.3489
  944MPD2    H713811   3.333   3.488  10.564 -0.5911 -1.7832 -0.2688
    1TCq1    O113812   0.574   4.620  15.128  0.2390 -0.7259 -0.7130
    1TCq1    C113813   0.679   4.703  15.131 -0.9748  0.0902 -0.1729
    1TCq1    O213814   0.765   4.704  15.215  0.1320  0.5726 -0.5614
    1TCq1    C213815   0.677   0.057  15.011 -0.6685  0.1538  0.1335
    1TCq1    C313816   0.651   4.711  14.894 -0.3302  0.6243  0.2758
    1TCq1    C413817   0.679   0.055  14.781 -0.3810 -0.3695 -0.2861
    1TCq1    C513818   0.727   0.182  14.777  0.0668  0.1016  0.6756
    1TCq1    C613819   0.763   0.245  14.899 -0.0392 -0.4866  0.1816
    1TCq1    C713820   0.736   0.181  15.016 -0.4889  0.0530  0.7748
    1TCq1    C813821   0.817   0.379  14.907  0.5005 -0.7178 -0.0506
    1TCq1    O413822   0.831   0.425  15.023 -0.3979  0.2585 -0.3263
    1TCq1    C913823   0.641   4.714  14.655  0.0538 -1.1425 -0.1349
    1TCq1    O513824   0.625   4.589  14.655 -0.2155 -0.1925 -0.5397
    1TCq1    O613825   0.632   0.058  14.551 -0.2314  0.2087 -0.1410
    1TCq1    H113826   0.511   4.644  15.056 -1.2146 -2.5354 -0.0551
    1TCq1    H213827   0.601   4.615  14.888  0.2986  0.3612 -0.7231
    1TCq1    H313828   0.731   0.222  14.677  2.1294  0.0156  0.7246
    1TCq1    H413829   0.753   0.224  15.114 -1.1058 -2.7525  2.1072
    2MPD2     C13830   1.004   0.797  14.704  0.6169  0.5164 -0.1680
    2MPD2    C113831   0.983   0.714  14.597 -0.1963  0.0121 -0.2342
    2MPD2    C213832   0.927   0.591  14.633  0.1655  0.3370 -0.0195
    2MPD2    C313833   0.905   0.555  14.769 -0.0165 -0.2716  0.3399
    2MPD2    C413834   0.921   0.649  14.871 -0.4853 -0.1212  0.5522
    2MPD2    C513835   0.971   0.773  14.833  0.0801  0.4096 -0.2914
    2MPD2     H13836   0.915   0.513  14.559 -0.4263  0.7975 -0.4082
    2MPD2    H113837   0.899   0.640  14.976 -1.7112  0.9632  0.3839
    2MPD2    H213838   1.050   0.893  14.679 -1.0857  1.4276  0.1893
    2MPD2    H313839   0.981   0.845  14.913  2.3811  0.6354 -0.7802
    2MPD2     N13840   0.848   0.426  14.784 -0.1229 -0.2313 -0.1667
    2MPD2    H513841   0.831   0.362  14.707  0.0780 -3.1276  2.1967
    2MPD2    N113842   1.006   0.760  14.465  0.0813  1.3685  0.0788
    2MPD2    H713843   1.026   0.859  14.466 -1.6005  1.7084 -0.1574
    3TMC2    C113844   1.059   0.764  14.235 -0.4063 -0.0524 -0.5437
    3TMC2    C213845   1.090   0.896  14.240  0.2350  0.5962 -0.9538
    3TMC2    C313846   1.100   0.959  14.119 -0.1511 -0.4674 -0.1132
    3TMC2    C413847   1.044   0.700  14.115 -0.1199  0.0358  0.1037
    3TMC2    C513848   1.035   0.774  14.000 -0.1830  0.1435 -0.1659
    3TMC2    C613849   1.049   0.911  13.999  0.0788  0.9000  0.0044
    3TMC2     C13850   1.017   0.683  14.353  0.3072  0.4277  0.5999
    3TMC2     O13851   1.001   0.561  14.346  0.1290 -0.2534 -0.1273
    3TMC2     H13852   1.111   0.950  14.332 -1.0990 -2.4691  1.1695
    3TMC2    H113853   1.035   0.592  14.113  2.6991 -0.2150  1.4339
    3TMC2    H213854   1.044   0.972  13.909 -3.2415 -0.7723 -0.9257
    3TMC2    C713855   1.011   0.710  13.873  0.7684 -0.9585 -0.5062
    3TMC2    C813856   1.095   1.102  14.123  0.4646 -0.0646 -0.0036
    3TMC2    O113857   1.071   0.604  13.850 -0.3677  0.7351 -0.1415
    3TMC2    O213858   1.038   1.171  14.201  0.3187 -0.3984  0.0713
    3TMC2    O513859   1.164   1.139  14.010 -0.1271 -0.6761 -0.2403
    3TMC2    H513860   1.211   1.064  13.970 -0.7169 -0.3307 -1.5786
    4MPD2     C13861   4.637   1.657  13.365  0.5359  0.3368 -0.5097
    4MPD2    C113862   4.643   1.596  13.248  0.2999 -0.6103 -0.4682
    4MPD2    C213863   0.025   1.514  13.209  0.1499 -0.1724  0.0529
    4MPD2    C313864   0.130   1.489  13.298 -0.1300 -0.4986 -0.3064
    4MPD2    C413865   0.104   1.535  13.425  0.0809  0.0990  0.8438
    4MPD2    C513866   0.010   1.625  13.452 -0.4555  0.0062  0.1168
    4MPD2     H13867   0.046   1.475  13.110 -1.0435 -2.4424  0.6889
    4MPD2    H113868   0.175   1.518  13.506 -0.6685 -1.3791  1.1979
    4MPD2    H213869   4.565   1.730  13.400 -0.0034 -0.0526 -0.8274
    4MPD2    H313870   0.005   1.674  13.549  0.0487  0.9021 -0.3127
    4MPD2     N13871   0.239   1.405  13.260 -0.2509  0.3156 -0.1995
    4MPD2    H513872   0.236   1.370  13.165  1.5782 -2.2088  0.6717
    4MPD2    N113873   4.537   1.629  13.159  0.0755  0.1280  0.0321
    4MPD2    H713874   4.472   1.703  13.185  0.7850  0.4298  0.9600
    5TCq2    C113875   0.346   1.367  13.345  0.4468  0.0425 -0.1794
    5TCq2    O213876   0.365   1.396  13.461  0.3285  0.0128  0.0831
    5TCq2    C213877   0.455   1.291  13.278  0.3842 -0.0845 -0.0049
    5TCq2    C313878   0.450   1.273  13.146 -0.4695 -1.1128 -0.4662
    5TCq2    C413879   0.546   1.191  13.086 -0.6071 -0.6605  0.5592
    5TCq2    C513880   0.636   1.119  13.166  0.0443 -0.2972  0.2668
    5TCq2    C613881   0.632   1.132  13.304  0.0536  0.0519 -0.6271
    5TCq2    C713882   0.542   1.222  13.359 -0.4591 -0.2343 -0.3758
    5TCq2    C813883   0.715   1.060  13.400 -0.9737 -0.5791 -0.6903
    5TCq2    O413884   0.682   1.088  13.518 -0.2618 -0.2096 -0.0503
    5TCq2    C913885   0.537   1.172  12.943 -0.2678 -0.8282  0.0835
    5TCq2    O513886   0.630   1.116  12.882 -0.0728  0.2098  0.0636
    5TCq2    O613887   0.443   1.229  12.883  0.3704  0.2042 -0.5832
    5TCq2    H213888   0.370   1.318  13.088  1.1844 -1.1313 -2.7720
    5TCq2    H313889   0.711   1.057  13.117 -1.1816 -2.1253  0.7062
    5TCq2    H413890   0.532   1.247  13.464 -1.9321 -0.9336 -0.3387
    6MPD1     C13891   3.629   3.085  12.288 -0.6234  0.9076 -0.4380
    6MPD1    C113892   3.676   3.118  12.415 -0.1462 -0.0815 -0.1695
    6MPD1    C213893   3.710   3.008  12.491  0.0750  0.1513  0.1968
    6MPD1    C313894   3.728   2.877  12.444 -0.5024  0.0985 -0.1855
    6MPD1    C413895   3.686   2.858  12.313 -0.0797 -0.0820  0.3377
    6MPD1    C513896   3.628   2.959  12.243  0.5571  0.4383  0.3626
    6MPD1     H13897   3.736   3.031  12.594 -2.0565 -1.7333  1.1454
    6MPD1    H113898   3.700   2.761  12.266 -2.2671 -0.7503  1.0576
    6MPD1    H213899   3.583   3.157  12.222 -1.1623  1.0250  0.0602
    6MPD1    H313900   3.584   2.938  12.146  2.1109 -1.2026  0.0129
    6MPD1     N13901   3.782   2.761  12.504  0.0042 -0.0040  0.0507
    6MPD1    H513902   3.779   2.677  12.447  1.7557  0.3950 -0.6207
    6MPD1    N113903   3.646   3.243  12.482  0.4001 -0.1811 -0.3667
    6MPD1    H613904   3.694   3.267  12.569 -0.9911  2.1681 -0.2782
    6MPD1    H713905   3.641   3.325  12.423  2.0788  0.9639  1.0741
    7MPD2     C13906   4.070   2.310  13.221 -0.8447 -0.0023 -0.6979
    7MPD2    C113907   4.083   2.270  13.090  0.8382 -0.3998  0.1675
    7MPD2    C213908   4.115   2.133  13.064 -0.0706  0.0069  0.2729
    7MPD2    C313909   4.129   2.046  13.174 -0.3640  0.2109  0.5188
    7MPD2    C413910   4.117   2.089  13.301 -0.9036 -0.9050  0.1277
    7MPD2    C513911   4.084   2.222  13.323 -0.5290 -0.1508  0.7426
    7MPD2     H13912   4.114   2.095  12.962 -1.8020  0.2035  0.2217
    7MPD2    H113913   4.125   2.021  13.385  2.0107  0.5201  1.0070
    7MPD2    H213914   4.044   2.411  13.249 -1.3123  0.0521 -1.3212
    7MPD2    H313915   4.070   2.255  13.426 -2.2745  1.5565 -0.0382
    7MPD2     N13916   4.155   1.902  13.156  0.0316  0.1963 -0.0910
    7MPD2    H513917   4.195   1.862  13.240  1.1548  0.9003 -0.2934
    7MPD2    N113918   4.079   2.342  12.972 -0.0726  0.2091  0.3278
    7MPD2    H713919   4.092   2.287  12.888  1.4134 -0.2949  0.8980
    8TMC3    C113920   4.182   1.706  13.012  0.2948  0.2741 -0.3166
    8TMC3    C213921   4.286   1.656  13.082 -0.8712 -0.6381  0.0314
    8TMC3    C313922   4.378   1.594  13.002 -0.4675  0.3566 -0.3231
    8TMC3    C413923   4.155   1.673  12.880 -0.0556  0.1578  0.6768
    8TMC3    C513924   4.250   1.610  12.810  0.0736  1.2429 -0.6007
    8TMC3    C613925   4.361   1.562  12.869 -0.1052 -0.4016 -0.3147
    8TMC3     C13926   4.126   1.834  13.038 -0.0285  0.1585 -0.0941
    8TMC3     O13927   4.076   1.880  12.934  0.4959  0.0211  0.3205
    8TMC3     H13928   4.299   1.676  13.187 -3.4297  0.8361  0.0563
    8TMC3    H113929   4.059   1.699  12.837  0.7893 -2.2596 -2.7387
    8TMC3    H213930   4.432   1.522  12.797 -2.0946 -1.0998 -1.9211
    8TMC3    C713931   4.283   1.670  12.681  0.3766 -0.0381  0.3301
    8TMC3    C813932   4.506   1.564  13.041 -0.1166  0.1179 -0.3897
    8TMC3    O113933   4.363   1.616  12.606  0.5943  0.1518 -0.4328
    8TMC3    O213934   4.563   1.474  12.980 -0.0698 -0.0802 -0.2663
    9TMC3    C113935   3.905   2.628  12.655  0.4817 -0.4683 -0.3178
    9TMC3    C213936   3.968   2.557  12.555  0.2856  0.1210 -0.0744
    9TMC3    C313937   4.053   2.454  12.597 -0.0844  0.2427  0.5889
    9TMC3    C413938   3.942   2.604  12.785 -0.5106  0.0964 -0.4657
    9TMC3    C513939   4.029   2.509  12.819 -0.2039 -0.0817  0.4907
    9TMC3    C613940   4.087   2.429  12.725  1.3956  0.8937 -0.8198
    9TMC3     C13941   3.839   2.757  12.629 -0.3775 -0.5995  0.0954
    9TMC3     O13942   3.805   2.832  12.721  0.1751 -0.1959 -0.0194
    9TMC3     H13943   3.936   2.570  12.453 -0.4890 -0.8868  0.0376
    9TMC3    H113944   3.918   2.671  12.867 -0.3647 -0.8507  0.3460
    9TMC3    H213945   4.167   2.360  12.749 -0.6434 -0.7947  1.1572
    9TMC3    C713946   4.050   2.476  12.957  0.4378  0.5887  0.5262
    9TMC3    C813947   4.090   2.356  12.506  0.1568 -0.3621 -0.2875
    9TMC3    O113948   4.016   2.556  13.045 -0.1802 -0.2739 -0.0495
    9TMC3    O213949   4.095   2.392  12.390 -0.7733  0.2472 -0.4457
   10MPD2     C13950   4.321   1.887  12.481  0.2177 -0.3327 -0.0407
   10MPD2    C113951   4.232   1.894  12.587 -0.3071 -0.3364  0.3485
   10MPD2    C213952   4.147   2.005  12.613 -0.4865  0.2269 -0.0477
   10MPD2    C313953   4.157   2.112  12.528  0.4472  0.3081 -0.4711
   10MPD2    C413954   4.244   2.108  12.423 -0.0759  0.0662  0.5304
   10MPD2    C513955   4.316   1.993  12.389  0.1565 -0.6234  0.0736
   10MPD2     H13956   4.076   1.998  12.695  0.7966  0.9723  1.1226
   10MPD2    H113957   4.258   2.191  12.355  0.0979 -0.1975  0.2409
   10MPD2    H213958   4.378   1.798  12.459 -0.5053 -0.5956 -0.8333
   10MPD2    H313959   4.369   1.990  12.295  2.8256 -1.5444  1.6117
   10MPD2     N13960   4.090   2.228  12.567  0.3535  0.0884  0.2105
   10MPD2    H513961   4.021   2.225  12.642 -1.2293 -2.2916 -1.3290
   10MPD2    N113962   4.221   1.793  12.681 -0.2947  0.0118  0.1912
   10MPD2    H713963   4.176   1.817  12.769  3.0094  2.2530  1.2817
   11MPD2     C13964   1.049   0.716  13.582  0.3866 -0.3882 -0.2403
   11MPD2    C113965   0.959   0.793  13.649 -0.1106 -0.0795  0.4987
   11MPD2    C213966   0.870   0.875  13.579  0.8603  0.1740  0.9630
   11MPD2    C313967   0.879   0.884  13.443 -0.1268 -0.4456  0.3445
   11MPD2    C413968   0.969   0.806  13.380 -0.5776  0.0797 -0.4928
   11MPD2    C513969   1.053   0.720  13.444 -0.1852 -0.2890  0.3445
   11MPD2     H13970   0.798   0.929  13.638  1.2800  0.6655  1.0295
   11MPD2    H113971   0.965   0.790  13.273 -0.9849  0.2667 -0.5030
   11MPD2    H213972   1.114   0.640  13.623 -1.1916 -1.9036 -0.5532
   11MPD2    H313973   1.107   0.655  13.376 -0.1645 -1.1118  1.1559
   11MPD2     N13974   0.807   0.968  13.355  0.2660  0.3199 -0.2434
   11MPD2    H513975   0.822   0.954  13.255 -0.4876  0.6633 -0.4057
   11MPD2    N113976   0.950   0.792  13.790  0.0341 -0.1909  0.6212
   11MPD2    H713977   0.891   0.863  13.832  0.0296  1.4655 -2.2048
    1MPD1     C13978   3.103   2.080  17.215 -0.9228 -0.6655  0.2199
    1MPD1    C113979   3.210   2.157  17.169 -0.4927  0.9138  0.1627
    1MPD1    C213980   3.243   2.143  17.033  0.5828  0.1423  0.4626
    1MPD1    C313981   3.157   2.076  16.942 -0.3887 -0.2105 -1.3032
    1MPD1    C413982   3.042   2.018  16.992  0.0843  0.7600  0.3081
    1MPD1    C513983   3.020   2.016  17.125 -0.2509 -1.0077 -0.2382
    1MPD1     H13984   3.336   2.185  16.996 -0.0178  0.2435 -0.9402
    1MPD1    H113985   2.981   1.970  16.917  1.2365 -1.7085  0.9633
    1MPD1    H213986   3.080   2.070  17.320  2.0199 -1.7089  0.7632
    1MPD1    H313987   2.936   1.961  17.166 -2.2255  0.3415 -2.5498
    1MPD1     N13988   3.174   2.058  16.802  0.2669 -0.2610 -0.4230
    1MPD1    H513989   3.111   2.002  16.745  0.0814 -0.7477  0.2598
    1MPD1    N113990   3.309   2.209  17.259 -0.2511  0.2097 -0.1081
    1MPD1    H613991   3.370   2.278  17.217 -0.1448  0.3848  0.3370
    1MPD1    H713992   3.267   2.239  17.347 -0.5473  0.4126 -0.3149
    2MPD1     C13993   3.216   1.408  16.058  0.0757  0.3041  0.7228
    2MPD1    C113994   3.254   1.521  15.992  0.1385 -0.2175  0.1229
    2MPD1    C213995   3.290   1.634  16.067  0.3479  0.3575  0.8742
    2MPD1    C313996   3.280   1.640  16.201 -0.4670 -0.1718  1.0576
    2MPD1    C413997   3.237   1.525  16.264 -0.1721  0.3313 -0.1254
    2MPD1    C513998   3.209   1.416  16.193  0.5939  0.4634  0.1748
    2MPD1     H13999   3.328   1.730  16.032  1.4325  0.3660  2.0632
    2MPD1    H114000   3.218   1.537  16.370 -0.7133 -1.6219 -0.0116
    2MPD1    H214001   3.198   1.314  16.007  2.0639  0.2384  0.1241
    2MPD1    H314002   3.168   1.329  16.243 -1.5488  1.8652  0.8120
    2MPD1     N14003   3.305   1.763  16.269  0.1182  0.2202  0.2432
    2MPD1    H514004   3.311   1.848  16.214  3.5830 -0.2817 -0.1318
    2MPD1    N114005   3.284   1.525  15.856 -0.2151  0.6383 -0.5129
    2MPD1    H614006   3.280   1.617  15.811  1.6317 -0.6257 -3.2802
    2MPD1    H714007   3.221   1.460  15.810  0.4299 -0.9236  0.8203
    3TMC3    C114008   3.328   1.921  16.440  0.0892  0.3281 -0.2907
    3TMC3    C214009   3.383   2.002  16.348 -0.3501  0.6060 -0.3839
    3TMC3    C314010   3.387   2.132  16.387 -0.4896  0.6308  0.8492
    3TMC3    C414011   3.276   1.961  16.558 -0.0721  0.6000  0.1747
    3TMC3    C514012   3.292   2.086  16.592 -0.2732 -0.4009 -0.4538
    3TMC3    C614013   3.347   2.176  16.506 -0.2229 -0.0272 -0.0929
    3TMC3     C14014   3.294   1.784  16.404 -0.4305  0.8102  0.3516
    3TMC3     O14015   3.280   1.699  16.495 -0.2065  0.4534 -0.2047
    3TMC3     H14016   3.434   1.960  16.263  1.7387  0.7463  0.7950
    3TMC3    H114017   3.234   1.890  16.629  1.4557 -0.7585 -0.2844
    3TMC3    H214018   3.353   2.277  16.543 -1.4451 -0.2332  0.6582
    3TMC3    C714019   3.282   2.124  16.735  0.0304 -0.5879 -0.2891
    3TMC3    C814020   3.337   2.222  16.287 -0.1094  0.5055 -0.2837
    3TMC3    O114021   3.364   2.209  16.773  0.2004  0.0556  0.2982
    3TMC3    O214022   3.232   2.274  16.319 -0.1594  0.0036 -0.5299
    4MPD1     C14023   3.304   2.452  15.848 -0.7512  0.3102  0.4707
    4MPD1    C114024   3.443   2.419  15.870 -0.1146  0.0562 -0.1560
    4MPD1    C214025   3.477   2.332  15.974 -0.1037  0.0637 -0.2503
    4MPD1    C314026   3.374   2.299  16.066 -0.3123 -0.2043 -0.0182
    4MPD1    C414027   3.239   2.338  16.046  0.3349  0.5472  0.4080
    4MPD1    C514028   3.209   2.418  15.942  0.4577  0.6899  0.0782
    4MPD1     H14029   3.577   2.295  15.991  0.5246  2.2585  0.8833
    4MPD1    H114030   3.164   2.303  16.116  0.0995  1.1556  0.4628
    4MPD1    H214031   3.275   2.502  15.757 -1.3907 -0.7868  0.0687
    4MPD1    H314032   3.111   2.464  15.933  0.6825  0.9900 -0.8568
    4MPD1     N14033   3.415   2.221  16.179 -0.1247  0.3116  0.3879
    4MPD1    H514034   3.512   2.193  16.190 -0.1896  0.0194  0.2061
    4MPD1    N114035   3.531   2.462  15.773  0.3398 -0.4527  0.3706
    4MPD1    H614036   3.622   2.470  15.818 -0.6161 -1.1866  2.4211
    4MPD1    H714037   3.499   2.550  15.733  1.4326  0.1062  0.7249
    1TCq1    O114038   4.130   2.368  10.885  0.3059 -0.2560 -0.4696
    1TCq1    C114039   4.126   2.237  10.863 -0.0159  0.0636  0.3497
    1TCq1    O214040   4.039   2.164  10.911 -0.4915  0.7677 -0.1188
    1TCq1    C214041   4.266   2.202  10.862  0.8237 -0.6436  0.5580
    1TCq1    C314042   4.324   2.111  10.946  0.0799 -0.1056 -0.9660
    1TCq1    C414043   4.458   2.064  10.927  1.3964  0.3074  0.4336
    1TCq1    C514044   4.546   2.125  10.844 -0.2383  0.5062  0.3479
    1TCq1    C614045   4.491   2.229  10.770  0.2000  0.1315 -0.0039
    1TCq1    C714046   4.353   2.262  10.774 -0.1031 -0.0823 -0.4757
    1TCq1    C814047   4.578   2.277  10.660 -0.2064  0.0263 -0.1607
    1TCq1    O414048   4.533   2.351  10.571  0.3408 -0.0735  0.0732
    1TCq1    C914049   4.511   1.978  11.025 -0.3666  0.2530 -0.5439
    1TCq1    O514050   4.424   1.928  11.099  0.4748 -0.1364 -0.7724
    1TCq1    O614051   4.634   1.947  11.036 -0.1224  0.2258  0.2184
    1TCq1    H114052   4.216   2.407  10.861  1.6334 -1.0887  2.8621
    1TCq1    H214053   4.255   2.056  11.009  1.0236 -0.5635 -0.3143
    1TCq1    H314054   4.653   2.112  10.854 -0.0849  0.6163 -1.0896
    1TCq1    H414055   4.314   2.329  10.698 -1.3458 -0.5958 -0.2902
    2MPD1     C14056   0.281   2.216  10.370 -0.2928  0.5937  0.0203
    2MPD1    C114057   0.278   2.115  10.463 -0.6561  0.9446 -0.1779
    2MPD1    C214058   0.163   2.105  10.540  0.5990 -0.7640 -0.3033
    2MPD1    C314059   0.064   2.204  10.541  0.2077 -0.3041  0.0146
    2MPD1    C414060   0.077   2.305  10.450 -0.7765 -0.5168 -0.5804
    2MPD1    C514061   0.186   2.318  10.372 -0.3152  0.3295  0.0256
    2MPD1     H14062   0.148   2.026  10.613 -2.4180  0.0325 -0.0651
    2MPD1    H114063   0.019   2.397  10.450  1.1300  0.6853 -0.2554
    2MPD1    H214064   0.371   2.242  10.315 -0.7806  1.8423 -0.1699
    2MPD1    H314065   0.193   2.398  10.299  2.2821 -0.5548 -0.6995
    2MPD1     N14066   4.683   2.188  10.634 -0.3631  0.0770  0.4149
    2MPD1    H514067   4.701   2.107  10.693  1.2353 -0.5159 -0.8819
    2MPD1    N114068   0.384   2.028  10.481 -0.3689  0.2339  0.5656
    2MPD1    H614069   0.373   1.966  10.561  3.2009 -0.9077  0.1908
    2MPD1    H714070   0.464   2.090  10.491  0.6535 -0.5053 -2.6663
    1TCq1    O114071   1.664   3.536   9.105 -0.3767 -0.2664  0.0258
    1TCq1    C114072   1.726   3.576   9.216 -0.4651 -0.2279 -0.4158
    1TCq1    O214073   1.668   3.599   9.321 -0.1432  0.0214  0.1083
    1TCq1    C214074   1.866   3.553   9.218 -0.0767  0.1372 -0.4991
    1TCq1    C314075   1.934   3.542   9.103 -0.0236 -0.2603  0.2189
    1TCq1    C414076   2.055   3.588   9.091 -0.7547 -0.0540  0.1762
    1TCq1    C514077   2.132   3.610   9.199 -0.5275 -0.2383 -0.4162
    1TCq1    C614078   2.069   3.621   9.321  0.1872  0.1449  0.3793
    1TCq1    C714079   1.942   3.585   9.328  0.3940 -0.2323  0.1056
    1TCq1    C814080   2.164   3.626   9.432 -0.7224 -0.5814 -0.0739
    1TCq1    O414081   2.264   3.688   9.421 -0.0785 -0.3417 -0.5662
    1TCq1    C914082   2.117   3.540   8.970 -0.4211 -0.1402 -0.6882
    1TCq1    O514083   2.091   3.423   8.935  0.3564 -0.3368  0.0477
    1TCq1    O614084   2.224   3.591   8.934  0.5283 -0.2939  0.1456
    1TCq1    H114085   1.708   3.465   9.053  0.1502  0.9065 -1.1357
    1TCq1    H214086   1.877   3.533   9.011  0.8626  3.2502 -0.6825
    1TCq1    H314087   2.238   3.629   9.185 -0.4251 -1.2413 -1.0734
    1TCq1    H414088   1.890   3.601   9.422  0.3385  1.0634 -0.1465
    2MPD1     C14089   2.303   3.421   9.886  0.5000 -0.2076 -0.4562
    2MPD1    C114090   2.177   3.376   9.860  0.1379  0.7696 -0.5456
    2MPD1    C214091   2.107   3.425   9.747 -0.4707 -0.1200 -0.3256
    2MPD1    C314092   2.177   3.502   9.655  0.1980 -0.6601  0.0347
    2MPD1    C414093   2.310   3.535   9.676 -0.2010 -0.2733 -0.3550
    2MPD1    C514094   2.362   3.510   9.802 -0.1766  1.3548 -0.5562
    2MPD1     H14095   2.004   3.399   9.724 -2.0235  3.4635  2.5567
    2MPD1    H114096   2.370   3.592   9.605 -0.8095  1.0874  0.2200
    2MPD1    H214097   2.351   3.378   9.973  0.0163  3.3994  1.6123
    2MPD1    H314098   2.464   3.536   9.826 -0.4806  0.9361  1.1968
    2MPD1     N14099   2.115   3.542   9.533  0.3808 -0.3733  0.4775
    2MPD1    H514100   2.025   3.496   9.523  1.7762 -3.1958  0.5879
    2MPD1    N114101   2.118   3.300   9.964  0.4789  1.0718  0.2046
    2MPD1    H614102   2.183   3.271  10.036 -0.2844 -0.0944  0.4353
    2MPD1    H714103   2.069   3.219   9.925 -3.1515  2.1953  2.4999
    1MPD1     C14104   1.155   1.823  12.690 -0.2937 -0.4426 -0.0073
    1MPD1    C114105   1.251   1.918  12.703  0.5540  0.0545 -0.8082
    1MPD1    C214106   1.241   2.024  12.616 -0.7503  0.1169 -0.1858
    1MPD1    C314107   1.149   2.045  12.514  0.4927  0.1317 -0.3360
    1MPD1    C414108   1.062   1.946  12.498 -0.9088  0.6571 -0.3947
    1MPD1    C514109   1.067   1.847  12.592  0.4334  0.4963  0.1539
    1MPD1     H14110   1.325   2.091  12.622  0.1151 -0.8729 -1.3035
    1MPD1    H114111   0.987   1.941  12.420 -1.0284  0.5729 -0.2736
    1MPD1    H214112   1.139   1.741  12.759 -2.7230 -0.9961 -1.2199
    1MPD1    H314113   0.981   1.780  12.591  0.2065  0.7615  2.2501
    1MPD1     N14114   1.167   2.159  12.431  0.2006  0.1408  0.2481
    1MPD1    H514115   1.254   2.209  12.436  1.9722 -2.9677  0.5050
    1MPD1    N114116   1.336   1.914  12.815  0.0552 -0.6281 -0.3464
    1MPD1    H614117   1.424   1.963  12.796  1.1866 -1.7469  2.0425
    1MPD1    H714118   1.360   1.818  12.838 -0.6762 -0.5531  0.7433
    2MPD1     C14119   0.512   2.509  11.752 -0.2027 -0.0078 -0.0795
    2MPD1    C114120   0.513   2.509  11.615  0.4921  0.3980 -0.9402
    2MPD1    C214121   0.606   2.439  11.538  0.0553 -0.1161 -0.0387
    2MPD1    C314122   0.701   2.364  11.605  0.7246  0.4819 -0.1659
    2MPD1    C414123   0.697   2.366  11.743 -0.0314 -0.6640 -0.0929
    2MPD1    C514124   0.603   2.438  11.817  0.4900  0.4916 -0.8902
    2MPD1     H14125   0.586   2.439  11.431 -0.6667  0.6151  0.0984
    2MPD1    H114126   0.769   2.317  11.809  2.2961  2.3431 -0.4231
    2MPD1    H214127   0.430   2.547  11.811 -0.3859 -0.2640 -0.1679
    2MPD1    H314128   0.593   2.448  11.924 -0.3198 -1.0597 -0.8193
    2MPD1     N14129   0.807   2.291  11.541  0.3536  0.6629 -0.0872
    2MPD1    H514130   0.871   2.232  11.593 -0.8222  0.2602  0.9229
    2MPD1    N114131   0.394   2.565  11.555  0.2844  0.2005  0.2369
    2MPD1    H614132   0.364   2.639  11.617 -1.2229 -2.1288  2.3200
    2MPD1    H714133   0.395   2.578  11.454 -1.3391 -0.4861  0.1260
    3MPD1     C14134   1.240   1.893  10.628 -0.3119 -0.2500 -0.0311
    3MPD1    C114135   1.241   1.788  10.715 -0.4394  0.2945 -0.5131
    3MPD1    C214136   1.185   1.808  10.840  0.4105  0.0669  0.3865
    3MPD1    C314137   1.130   1.929  10.878  0.3974  0.4605 -0.4948
    3MPD1    C414138   1.124   2.034  10.786  0.2914 -0.2564 -0.2963
    3MPD1    C514139   1.177   2.013  10.657 -0.3282 -0.0001 -0.0821
    3MPD1     H14140   1.178   1.729  10.913 -1.3454 -0.6474 -0.5405
    3MPD1    H114141   1.073   2.127  10.807  0.8334 -0.5909  2.4683
    3MPD1    H214142   1.287   1.880  10.531  2.1874  0.4007  1.0750
    3MPD1    H314143   1.182   2.095  10.585 -1.3879 -0.7046 -0.9576
    3MPD1     N14144   1.079   1.942  11.016  0.5110  0.3930  0.5285
    3MPD1    H514145   1.110   1.870  11.080 -0.0404 -0.5443 -0.2642
    3MPD1    N114146   1.312   1.670  10.694 -0.1581  0.0400  0.6173
    3MPD1    H614147   1.300   1.631  10.601 -3.9791 -1.0682  1.5826
    3MPD1    H714148   1.270   1.598  10.752  1.6985 -2.4633 -1.1456
    4MPD2     C14149   1.157   2.475  11.653 -0.6495 -0.0219  0.8431
    4MPD2    C114150   1.241   2.518  11.754 -0.3308  0.4731  0.0530
    4MPD2    C214151   1.377   2.549  11.727 -0.4795  0.6479  0.1884
    4MPD2    C314152   1.421   2.536  11.597  0.2164  0.1166  0.0655
    4MPD2    C414153   1.343   2.489  11.501  0.0600 -0.0230  0.2566
    4MPD2    C514154   1.214   2.452  11.530  1.0354 -0.0285  0.5154
    4MPD2     H14155   1.436   2.586  11.810 -0.4999  0.6982  0.1804
    4MPD2    H114156   1.392   2.468  11.406 -0.7772  0.3940 -0.2630
    4MPD2    H214157   1.052   2.455  11.671 -0.2536  1.9405  5.5071
    4MPD2    H314158   1.149   2.418  11.450  0.2718  0.7130  0.8174
    4MPD2     N14159   1.560   2.550  11.563  0.1518 -0.3549 -0.3644
    4MPD2    H514160   1.581   2.532  11.465  1.6602 -0.6117  0.0176
    4MPD2    N114161   1.203   2.531  11.893 -0.4967 -0.0267 -0.3491
    4MPD2    H714162   1.276   2.570  11.951 -0.1823  0.3561 -0.9958
    5TMC3    C114163   1.096   2.498  12.097 -0.6578  0.3260 -0.1193
    5TMC3    C214164   1.054   2.385  12.164 -0.2065  0.3323  0.0410
    5TMC3    C314165   1.133   2.310  12.250  0.3051  0.3586 -0.2871
    5TMC3    C414166   1.214   2.553  12.148  0.3518 -0.0059  0.4033
    5TMC3    C514167   1.296   2.475  12.222  0.2713  1.1370  0.1453
    5TMC3    C614168   1.258   2.351  12.271  0.8949 -0.5449 -0.1095
    5TMC3     C14169   1.086   2.480  11.952  0.3549 -0.6875 -0.1739
    5TMC3     O14170   0.994   2.404  11.911 -0.0634 -0.3096  0.2170
    5TMC3     H14171   0.964   2.334  12.132  0.0086  0.5871 -0.9748
    5TMC3    H114172   1.242   2.654  12.121 -0.0447 -0.1141 -0.4103
    5TMC3    H214173   1.334   2.283  12.309  0.1885  0.2775  2.7326
    5TMC3    C714174   1.434   2.495  12.186  0.3332 -0.0433 -0.8323
    5TMC3    C814175   1.085   2.197  12.329  0.7736  0.0785  0.2629
    5TMC3    O114176   1.438   2.549  12.076  0.6834  0.0402 -0.7333
    5TMC3    O214177   0.975   2.150  12.302 -0.2601  0.2593  0.1256
    6TMC3    C114178   0.904   2.163  11.384 -0.9627 -0.7166 -0.0633
    6TMC3    C214179   0.891   2.108  11.257 -0.2307 -0.0811  0.1640
    6TMC3    C314180   0.992   2.035  11.208  0.2717 -0.1423  0.1017
    6TMC3    C414181   1.019   2.157  11.450  0.1702 -0.3120 -0.3534
    6TMC3    C514182   1.121   2.075  11.406  0.4857  0.2591  0.2180
    6TMC3    C614183   1.106   2.021  11.283  0.1522 -0.0417  0.0256
    6TMC3     C14184   0.804   2.260  11.411  0.2400 -0.3737 -0.4493
    6TMC3     O14185   0.753   2.312  11.315  0.1014  0.2564  0.2712
    6TMC3     H14186   0.805   2.117  11.192 -1.5453  0.3250  1.9295
    6TMC3    H114187   1.036   2.226  11.533  0.1048 -0.1630 -0.4643
    6TMC3    H214188   1.193   1.963  11.254 -0.1361  0.4699 -1.8658
    6TMC3    C714189   1.255   2.092  11.462 -0.0232 -0.5307 -0.7518
    6TMC3    C814190   1.013   2.053  11.065 -0.4500 -0.1247  0.0247
    6TMC3    O114191   1.351   2.071  11.394 -0.4546 -0.0503 -0.0165
    6TMC3    O214192   0.941   2.133  11.005  0.4389  0.1772 -0.1637
    7MPD2     C14193   1.924   2.341  12.146  0.3884  0.3621 -0.6137
    7MPD2    C114194   1.845   2.418  12.064 -0.4098 -0.3678  0.0791
    7MPD2    C214195   1.713   2.443  12.104 -0.7219  0.0358  0.7616
    7MPD2    C314196   1.654   2.396  12.217 -0.4986 -0.0848  0.0751
    7MPD2    C414197   1.734   2.328  12.302  1.3850 -0.3347 -0.8143
    7MPD2    C514198   1.868   2.305  12.271 -0.1909  0.7308 -0.3246
    7MPD2     H14199   1.658   2.500  12.030 -2.1231 -0.8006  1.1516
    7MPD2    H114200   1.704   2.310  12.404  2.2503  0.8609 -0.3553
    7MPD2    H214201   2.031   2.327  12.130  0.3390  0.3388 -0.9420
    7MPD2    H314202   1.938   2.269  12.345  0.1962  3.2367  0.5238
    7MPD2     N14203   1.526   2.424  12.260 -0.3916  0.1377 -0.1044
    7MPD2    H514204   1.505   2.381  12.349 -0.4212  1.0357  0.3155
    7MPD2    N114205   1.874   2.469  11.941 -0.0658 -0.5235  0.3265
    7MPD2    H714206   1.798   2.526  11.905  0.1377 -1.0586 -0.9539
    8TMC3    C114207   1.958   2.464  11.730 -0.2037  0.5990 -0.0009
    8TMC3    C214208   1.945   2.346  11.654 -0.5129  0.2048  0.2029
    8TMC3    C314209   1.870   2.344  11.543  0.3055  0.1155  0.3343
    8TMC3    C414210   1.878   2.575  11.701 -0.0442  1.1545 -0.4291
    8TMC3    C514211   1.794   2.567  11.594 -0.1398 -0.0799 -0.8358
    8TMC3    C614212   1.794   2.455  11.514 -0.5062 -0.6271  0.6122
    8TMC3     C14213   1.985   2.439  11.868  0.3503 -0.1592 -0.0384
    8TMC3     O14214   2.074   2.357  11.886  0.0034 -0.0404  0.0908
    8TMC3     H14215   2.000   2.259  11.687  0.8911  0.3618 -1.7092
    8TMC3    H114216   1.886   2.659  11.769 -1.1269  1.4902 -0.7249
    8TMC3    H214217   1.736   2.461  11.423 -1.6442 -0.6425  1.3374
    8TMC3    C714218   1.658   2.580  11.648 -0.1396 -0.1345  0.1216
    8TMC3    C814219   1.775   2.234  11.545  0.6941 -0.6608  0.5454
    8TMC3    O114220   1.657   2.615  11.764  0.3118  0.1066  0.0622
    8TMC3    O214221   1.711   2.224  11.442 -0.0881  0.1887  0.0799
    9MPD2     C14222   1.576   2.202  11.851 -0.7658  1.2668  0.0214
    9MPD2    C114223   1.599   2.190  11.715 -0.5203  0.7960  0.0488
    9MPD2    C214224   1.497   2.171  11.619 -0.7401  0.7987  0.5370
    9MPD2    C314225   1.365   2.159  11.664  0.1410 -1.3444 -0.0667
    9MPD2    C414226   1.344   2.175  11.801  0.3971 -0.8319 -0.3368
    9MPD2    C514227   1.446   2.205  11.891  0.0904  0.6069  0.2231
    9MPD2     H14228   1.522   2.168  11.514 -0.6154  1.0736  0.5586
    9MPD2    H114229   1.244   2.176  11.843  0.5106 -0.0070 -0.0966
    9MPD2    H214230   1.652   2.226  11.924 -0.0799  0.1389 -0.3322
    9MPD2    H314231   1.419   2.219  11.995 -0.4582  0.3290  0.1193
    9MPD2     N14232   1.255   2.122  11.590  0.0482 -0.3888 -0.0551
    9MPD2    H514233   1.166   2.120  11.639 -0.7572 -1.7913 -1.5396
    9MPD2    N114234   1.734   2.220  11.675  0.1034 -0.2104  0.1130
    9MPD2    H714235   1.811   2.225  11.741  0.5806  0.2293 -0.4883
    1MPD1     C14236   3.132   4.445  16.565 -0.4208  0.3137  0.6821
    1MPD1    C114237   3.124   4.498  16.694  0.1872 -0.6727 -0.0311
    1MPD1    C214238   3.055   4.612  16.708  0.2246 -0.7221  0.6459
    1MPD1    C314239   2.972   4.662  16.606 -0.1175  0.2264  0.0136
    1MPD1    C414240   2.999   4.616  16.479  0.2716  0.3370 -0.0725
    1MPD1    C514241   3.081   4.509  16.456 -0.0393  0.7428  0.0699
    1MPD1     H14242   3.056   4.651  16.809  0.1053  0.2690  0.2737
    1MPD1    H114243   2.956   4.659  16.389 -1.2224 -0.6186  0.1759
    1MPD1    H214244   3.190   4.357  16.539 -1.7452 -0.4110  0.1738
    1MPD1    H314245   3.087   4.479  16.353 -0.8429 -0.7484  0.4554
    1MPD1     N14246   2.884   0.051  16.629 -0.2157 -0.0321  1.4694
    1MPD1    H514247   2.849   0.096  16.545 -0.8616  0.2012  1.8684
    1MPD1    N114248   3.222   4.458  16.789 -0.0939 -0.0496  0.1647
    1MPD1    H614249   3.253   4.362  16.778 -1.5088 -0.4135 -0.7637
    1MPD1    H714250   3.186   4.464  16.884  2.1802  0.8290  0.9591
    2MPD1     C14251   2.554   0.859  16.231 -0.8871 -0.1818  0.1536
    2MPD1    C114252   2.450   0.829  16.316 -0.0389  0.0659  0.5938
    2MPD1    C214253   2.472   0.728  16.408  0.2567  0.0387  0.7298
    2MPD1    C314254   2.600   0.684  16.438 -0.0535 -0.4999 -0.2151
    2MPD1    C414255   2.706   0.738  16.367 -0.1627 -0.6876  0.2734
    2MPD1    C514256   2.680   0.817  16.259  0.5537  0.4042 -0.0100
    2MPD1     H14257   2.389   0.695  16.469 -0.2116 -0.7492 -0.3197
    2MPD1    H114258   2.809   0.713  16.392  0.2070 -1.5127 -2.0698
    2MPD1    H214259   2.544   0.925  16.146  1.0453 -0.0381  0.0422
    2MPD1    H314260   2.757   0.861  16.198 -2.1047  1.7107 -2.4538
    2MPD1     N14261   2.622   0.589  16.539  0.5669 -0.4118 -0.0292
    2MPD1    H514262   2.536   0.558  16.583  0.0541 -0.6772 -1.2314
    2MPD1    N114263   2.315   0.868  16.271 -0.3218  0.3846 -0.2709
    2MPD1    H614264   2.242   0.867  16.342  0.2199  1.6298  0.3067
    2MPD1    H714265   2.318   0.959  16.225 -0.2705  1.4525  1.8717
    3TCq2    C114266   2.734   0.517  16.557 -0.0730 -0.4371 -0.0326
    3TCq2    O214267   2.837   0.504  16.492 -0.3638  0.2349 -0.1829
    3TCq2    C214268   2.715   0.416  16.664 -0.0049  1.0123  0.2832
    3TCq2    C314269   2.614   0.430  16.747  0.7967  0.0732  0.4254
    3TCq2    C414270   2.580   0.321  16.819  0.1705  0.0657 -1.1363
    3TCq2    C514271   2.646   0.200  16.817  0.0488  0.0109 -0.2533
    3TCq2    C614272   2.753   0.198  16.735  0.6157 -0.2033  0.0050
    3TCq2    C714273   2.786   0.298  16.648 -0.4860  0.1953 -0.1396
    3TCq2    C814274   2.842   0.090  16.751  0.1176 -0.8774 -0.6391
    3TCq2    O414275   2.846   0.026  16.853  0.4118 -0.3908 -0.0786
    3TCq2    C914276   2.465   0.330  16.898  0.1545 -0.7680  0.5254
    3TCq2    O514277   2.372   0.411  16.862  0.4761  0.1121  0.0172
    3TCq2    O614278   2.459   0.246  16.993  0.3619 -0.0389  0.1513
    3TCq2    H214279   2.563   0.526  16.757  0.6045  0.1882 -1.8560
    3TCq2    H314280   2.628   0.114  16.882  0.2443  1.0759  1.2202
    3TCq2    H414281   2.872   0.291  16.582  0.4585  1.2193  0.9891
    1TCq1    O114282   3.429   0.276  12.524  0.6787 -0.3795  0.2599
    1TCq1    C114283   3.557   0.319  12.541  0.1519 -0.2544  0.5958
    1TCq1    O214284   3.587   0.439  12.535 -0.3972 -0.0354  0.1611
    1TCq1    C214285   3.610   0.231  12.643  0.1486  0.2811 -0.1007
    1TCq1    C314286   3.516   0.189  12.739  0.4586  0.0150  0.2226
    1TCq1    C414287   3.569   0.122  12.845  0.3009 -0.1754 -0.7401
    1TCq1    C514288   3.693   0.081  12.851 -0.2097  0.6680 -1.0266
    1TCq1    C614289   3.778   0.118  12.750 -0.0319 -0.2696  1.0191
    1TCq1    C714290   3.738   0.201  12.645 -0.2186  0.6114  0.5322
    1TCq1    C814291   3.920   0.108  12.766  0.1054  0.1466  0.5240
    1TCq1    O414292   3.987   0.145  12.672  0.0305 -0.4451 -0.0096
    1TCq1    C914293   3.483   0.083  12.946  0.8253  0.1366  0.2300
    1TCq1    O514294   3.539   0.033  13.051  0.1098  0.0781 -0.4543
    1TCq1    O614295   3.359   0.082  12.920  0.4078  0.1629 -0.3163
    1TCq1    H114296   3.423   0.178  12.532  0.2346 -0.4317 -0.6537
    1TCq1    H214297   3.414   0.226  12.745  0.2140 -0.5267 -0.6530
    1TCq1    H314298   3.720   0.007  12.925  0.6550  0.9024 -1.1169
    1TCq1    H414299   3.802   0.224  12.560  1.0055  0.0142  1.2824
    2MPD2     C14300   4.195   0.041  12.841  0.2497 -0.7891  0.1038
    2MPD2    C114301   4.093   0.045  12.932 -0.6648 -0.2054 -0.4727
    2MPD2    C214302   4.114   0.018  13.066 -0.0748 -0.0980 -0.0813
    2MPD2    C314303   4.235   4.711  13.119 -0.0341 -0.0464 -0.1978
    2MPD2    C414304   4.339   4.702  13.026  0.2314 -0.1311  0.5646
    2MPD2    C514305   4.318   0.007  12.892 -0.2757  0.1446 -0.1731
    2MPD2     H14306   4.033   0.019  13.138 -0.9068  1.0166 -1.0486
    2MPD2    H114307   4.443   4.692  13.054  1.0009  1.8289 -1.6348
    2MPD2    H214308   4.176   0.052  12.735 -1.8271  3.7477  0.9590
    2MPD2    H314309   4.403   0.002  12.825 -2.5813 -1.2180 -2.9589
    2MPD2     N14310   4.246   4.708  13.261 -0.5840  0.2727  0.2866
    2MPD2    H514311   4.161   0.008  13.313 -1.3201 -0.1578 -0.7224
    2MPD2    N114312   3.957   0.067  12.894  0.6632 -0.0722 -0.6026
    2MPD2    H714313   3.890   0.067  12.971  0.1812 -0.2955 -1.0193
    3TCq1    O114314   4.248   0.151  13.873  0.2702  0.0279 -0.0656
    3TCq1    C114315   4.231   0.166  13.741  0.2110  0.4697 -0.6730
    3TCq1    O214316   4.140   0.226  13.691 -0.5434  0.2408  0.2780
    3TCq1    C214317   4.319   0.076  13.669  0.4815  0.3431  0.4846
    3TCq1    C314318   4.434   0.028  13.723  0.0770 -0.2635  0.3152
    3TCq1    C414319   4.499   4.647  13.656 -0.1071 -0.2347  0.0977
    3TCq1    C514320   4.461   4.616  13.529  0.7392  0.1181  0.1989
    3TCq1    C614321   4.347   4.675  13.474 -0.3077  0.0863  0.7277
    3TCq1    C714322   4.272   0.042  13.538  0.2617 -0.4481 -0.4650
    3TCq1    C814323   4.358   4.671  13.330 -0.2439  0.0986 -1.5452
    3TCq1    O414324   4.454   4.621  13.276  0.3682  0.1785 -0.2251
    3TCq1    C914325   4.622   4.590  13.717  0.1481 -0.2279  0.3418
    3TCq1    O514326   4.685   4.506  13.649  0.3851 -0.2017  0.1368
    3TCq1    O614327   4.651   4.644  13.822 -0.4310  0.1473 -0.1237
    3TCq1    H114328   4.302   0.072  13.897 -0.0680 -0.5944 -1.3170
    3TCq1    H214329   4.474   0.053  13.820  2.0646  1.1715 -0.8599
    3TCq1    H314330   4.516   4.539  13.477 -1.2871 -0.4502 -1.0854
    3TCq1    H414331   4.187   0.089  13.490 -0.4621 -2.2951 -0.9924
    1MPD2     C14332   3.685   1.234  14.866 -0.2629  0.5631  0.1401
    1MPD2    C114333   3.598   1.122  14.852 -0.3878  0.0538 -0.3083
    1MPD2    C214334   3.659   1.002  14.884 -0.4543 -0.1377  0.2898
    1MPD2    C314335   3.786   0.995  14.933  0.5517  0.2109 -0.1859
    1MPD2    C414336   3.865   1.104  14.951  0.0029  0.4216 -0.4949
    1MPD2    C514337   3.811   1.222  14.924 -0.6547 -0.6255  0.6859
    1MPD2     H14338   3.598   0.916  14.859 -0.7031 -0.4195  1.8521
    1MPD2    H114339   3.970   1.101  14.979 -0.5109 -0.4900  1.2749
    1MPD2    H214340   3.638   1.329  14.844 -1.3756  0.0378  0.2423
    1MPD2    H314341   3.883   1.303  14.934  0.8955 -2.2122  2.2371
    1MPD2     N14342   3.825   0.864  14.968  0.4271 -1.1955  0.1544
    1MPD2    H514343   3.757   0.791  14.950 -0.3453 -0.4660  0.1157
    1MPD2    N114344   3.472   1.142  14.789  0.6610  0.7171  0.1225
    1MPD2    H714345   3.445   1.235  14.762 -2.4005  0.4455  2.2062
    2TMC3    C114346   3.241   1.056  14.716  0.2793 -0.0070 -0.3940
    2TMC3    C214347   3.181   0.936  14.695  0.6472 -0.0017 -0.3931
    2TMC3    C314348   3.139   0.900  14.570 -0.0124 -0.3114  0.2284
    2TMC3    C414349   3.237   1.156  14.620 -0.2607 -0.1709 -0.2470
    2TMC3    C514350   3.179   1.123  14.498  0.3595  0.0407  0.3178
    2TMC3    C614351   3.137   0.996  14.467  0.6535 -0.3179  0.5041
    2TMC3     C14352   3.373   1.036  14.782 -0.3333 -0.2043 -0.5019
    2TMC3     O14353   3.387   0.916  14.809 -0.1661  0.2055 -0.5080
    2TMC3     H14354   3.164   0.885  14.789  1.4250 -0.8552 -0.7100
    2TMC3    H114355   3.278   1.252  14.647  1.7206 -0.5433 -1.9549
    2TMC3    H214356   3.084   0.968  14.377  1.1467 -0.7830  0.3556
    2TMC3    C714357   3.151   1.224  14.398 -0.5625 -0.1753 -0.2503
    2TMC3    C814358   3.186   0.766  14.530 -0.2681  0.6915 -0.1983
    2TMC3    O114359   3.066   1.207  14.310  0.2924 -0.0879 -0.2984
    2TMC3    O214360   3.169   0.730  14.412 -0.1129 -0.7167 -0.1903
    3TCq1    O114361   3.346   2.386  14.576 -0.0110 -0.3827  0.3760
    3TCq1    C114362   3.459   2.385  14.505 -0.0318 -0.6253  0.1008
    3TCq1    O214363   3.549   2.469  14.503 -0.0052 -0.3768 -0.1084
    3TCq1    C214364   3.492   2.239  14.508 -0.0411 -0.1123  0.3202
    3TCq1    C314365   3.595   2.199  14.589 -0.2720 -0.1195  0.0550
    3TCq1    C414366   3.610   2.066  14.623  0.3911 -0.2709 -0.5837
    3TCq1    C514367   3.523   1.972  14.573  0.5405  0.0628 -0.1167
    3TCq1    C614368   3.423   2.011  14.490  0.8105 -0.4531  0.5348
    3TCq1    C714369   3.397   2.150  14.470  0.1569  0.7165  0.6413
    3TCq1    C814370   3.319   1.923  14.431 -0.4261 -0.8421  0.0698
    3TCq1    O414371   3.211   1.981  14.415  0.2387 -0.3565 -0.6434
    3TCq1    C914372   3.715   2.019  14.711 -0.1946  0.0040  0.0699
    3TCq1    O514373   3.806   2.100  14.742 -0.3760 -0.0806  0.0090
    3TCq1    O614374   3.703   1.900  14.764 -0.2108  0.3597  0.0982
    3TCq1    H114375   3.313   2.302  14.613 -0.4965  0.2680  1.4358
    3TCq1    H214376   3.666   2.263  14.640 -1.8538  0.7131  1.1919
    3TCq1    H314377   3.547   1.868  14.585  1.1557  0.0657 -1.3680
    3TCq1    H414378   3.315   2.181  14.405 -0.0579  1.1346  1.1074
    4MPD2     C14379   3.131   1.727  14.327  0.6597  0.1962  0.0691
    4MPD2    C114380   3.253   1.698  14.382  0.2895 -0.3939  0.2737
    4MPD2    C214381   3.278   1.565  14.406  0.2314 -0.5067 -0.2344
    4MPD2    C314382   3.191   1.467  14.377  0.0526 -0.3799  0.0039
    4MPD2    C414383   3.071   1.497  14.317 -1.3442  0.1172  0.4271
    4MPD2    C514384   3.045   1.628  14.287  0.3570  0.3336 -0.2529
    4MPD2     H14385   3.378   1.548  14.445  0.5190  0.7913 -0.4054
    4MPD2    H114386   3.008   1.425  14.266  0.9734 -1.1530 -0.6361
    4MPD2    H214387   3.114   1.828  14.290 -0.1902  0.4835  1.2414
    4MPD2    H314388   2.967   1.650  14.216 -0.7084 -2.2309  0.1007
    4MPD2     N14389   3.228   1.339  14.408  0.5234  0.2357 -0.2154
    4MPD2    H514390   3.315   1.324  14.458  0.4128  0.5388  0.0707
    4MPD2    N114391   3.356   1.794  14.412 -0.3086 -0.7950 -0.0682
    4MPD2    H714392   3.447   1.754  14.433 -0.7404 -2.7543 -1.8930
    5TMC2    C114393   3.793   0.521  14.982 -0.5955 -0.4189 -0.2193
    5TMC2    C214394   3.771   0.517  15.119  0.3912  0.0999 -0.5006
    5TMC2    C314395   3.849   0.581  15.211  0.0643 -0.0025 -0.6314
    5TMC2    C414396   3.881   0.620  14.937 -0.1761  0.4756 -0.0768
    5TMC2    C514397   3.962   0.682  15.029  0.0215 -0.0892  0.9812
    5TMC2    C614398   3.960   0.650  15.165  0.0625  0.6770 -0.3187
    5TMC2     C14399   3.661   0.557  14.927  0.0564 -0.4935 -0.6874
    5TMC2     O14400   3.616   0.672  14.945 -0.4778  0.1181  0.5475
    5TMC2     H14401   3.701   0.441  15.153 -0.1932  1.2336  0.8100
    5TMC2    H114402   3.897   0.620  14.829 -1.5323  3.8402 -0.2555
    5TMC2    H214403   4.020   0.702  15.238  1.0468 -0.5005 -0.2912
    5TMC2    C714404   3.955   0.822  15.016  1.1902 -0.5656 -0.6236
    5TMC2    C814405   3.857   0.532  15.347  0.1238 -0.2011 -0.7264
    5TMC2    O114406   4.038   0.891  15.076 -0.1116 -0.1140  0.1206
    5TMC2    O214407   3.960   0.506  15.411 -0.0543  0.5974  0.5689
    5TMC2    O514408   3.741   0.485  15.381  0.2084  0.8240 -0.3194
    5TMC2    H514409   3.661   0.532  15.349 -1.8891 -1.4755  1.5283
    6MPD2     C14410   3.343   0.513  14.527  1.0689  0.2110 -0.2724
    6MPD2    C114411   3.342   0.596  14.631  0.0999 -0.4046  0.3603
    6MPD2    C214412   3.431   0.581  14.737  0.6197 -0.0659 -0.2096
    6MPD2    C314413   3.524   0.478  14.737  0.0072 -0.5267  1.1652
    6MPD2    C414414   3.530   0.390  14.632 -0.3483 -0.1702  0.8175
    6MPD2    C514415   3.442   0.411  14.527  0.0110 -0.5906 -0.0832
    6MPD2     H14416   3.424   0.655  14.816 -2.0974 -0.1432 -0.3885
    6MPD2    H114417   3.605   0.312  14.621  0.5211  0.6863  0.6714
    6MPD2    H214418   3.273   0.525  14.446 -1.5775 -1.2674  1.7670
    6MPD2    H314419   3.447   0.337  14.448  0.1024  0.4430 -1.0458
    6MPD2     N14420   3.618   0.458  14.837  0.0371 -0.6006 -0.2053
    6MPD2    H514421   3.675   0.375  14.823  0.5372  0.2056 -3.0144
    6MPD2    N114422   3.267   0.715  14.631  0.4507 -0.1903  0.1888
    6MPD2    H714423   3.282   0.778  14.710  2.4775  1.4603 -1.5397
  945NH4     N114424   2.808   2.309   0.516 -0.4622 -0.3843 -0.0621
  945NH4     H214425   2.863   2.396   0.499 -1.6367  0.4434  0.3077
  945NH4     H314426   2.845   2.232   0.458 -1.2253 -1.4350  0.8465
  945NH4     H414427   2.712   2.332   0.484 -0.3590 -0.9342 -0.7513
  945NH4     H514428   2.802   2.288   0.618  1.2662 -1.4995 -0.1927
  946SOD     NA14429   0.659   3.444  16.583  0.3619 -0.1964  0.1519
  947SOD     NA14430   0.334   2.964  16.600  0.0469 -0.1273  0.1574
  948SOD     NA14431   4.211   1.240  10.475 -0.0606  0.5599 -0.3376
  949SOD     NA14432   2.135   0.087  16.959 -0.1017  0.6140  0.2128
  950SOD     NA14433   3.807   1.717  14.808  0.1916 -0.0814  0.8133
  951SOD     NA14434   0.322   0.146   2.314 -0.1661 -0.6528  0.2279
  952SOD     NA14435   2.589   3.888  10.696  0.2096  0.2753  0.1757
  953SOD     NA14436   0.109   4.509  13.488 -0.1905  0.0260  0.0598
  954SOD     NA14437   4.400   4.175  11.689 -0.3170  0.0878 -0.0788
  955SOD     NA14438   4.099   3.184   6.583 -0.0652  0.1320 -0.3864
  956SOD     NA14439   2.439   4.195  14.760 -0.1174 -0.4804 -0.1843
  957SOD     NA14440   2.454   4.259   9.802  0.2690  0.2397  0.1258
  958SOD     NA14441   4.306   1.413  16.437 -0.0512  0.0876 -0.2819
  959SOD     NA14442   2.354   3.429   8.874  0.2134  0.0925  0.0612
  960SOD     NA14443   1.427   1.506  12.932  0.1463 -0.1088  0.1799
  961SOD     NA14444   2.937   0.721  10.193  0.2110 -0.2878  0.3167
  962SOD     NA14445   1.446   2.651   3.248 -0.0103  0.4831 -0.2903
  963SOD     NA14446   4.405   1.979  11.543  0.0026  0.2563  0.2775
  964SOD     NA14447   2.193   0.402  16.106  0.0607 -0.4719  0.3258
  965SOD     NA14448   0.240   3.856  12.142  0.7148  0.1527 -0.3154
  966SOD     NA14449   3.603   4.573   9.977 -0.2235 -0.0070 -0.1568
  967SOD     NA14450   1.544   2.463   1.315  0.1738 -1.0817 -0.0883
  968SOD     NA14451   4.718   1.533   4.820  0.3739 -0.1239  0.2484
  969SOD     NA14452   3.662   3.748  10.013 -0.0399  0.0693  0.2753
  970SOD     NA14453   3.499   4.376   9.821 -0.1210 -0.2192 -0.0228
  971SOD     NA14454   0.428   0.019  14.431 -0.1076 -0.0964  0.0340
  972SOD     NA14455   1.716   0.950  14.959 -0.0658  0.7833 -0.1255
  973SOD     NA14456   3.512   2.955  11.406  0.3174  0.3420 -0.3704
  974SOD     NA14457   3.132   0.803   4.372 -0.1616  0.4355  0.5048
  975SOD     NA14458   0.926   3.085  14.141 -0.0061  0.2002 -0.2747
  976SOD     NA14459   2.104   4.381  12.963  0.1398  0.6266 -0.0376
  977SOD     NA14460   1.516   1.789   5.923 -0.4545 -0.1492 -0.1490
  978SOD     NA14461   3.954   2.811   9.911  0.1152  0.0091  0.0096
  979SOD     NA14462   2.821   2.230   3.432  0.4719 -0.2384 -0.1334
  980SOD     NA14463   0.445   4.484  14.581 -0.5107  0.2019  0.4606
  981SOD     NA14464   0.898   3.087   0.030  0.3320  0.0945  0.4073
  982SOD     NA14465   4.035   0.272  11.384  0.1483 -0.5339 -0.1414
  983SOD     NA14466   1.116   4.438   0.847 -0.1388 -0.3793 -0.1536
  984SOD     NA14467   4.683   4.166   9.721  0.0147 -0.6533 -0.7695
  985SOD     NA14468   3.878   3.580   9.855  0.3320 -0.0582 -0.1075
  986SOD     NA14469   1.755   2.739   1.296 -0.4467  0.3526  0.2092
  987SOD     NA14470   0.576   0.132  16.291 -0.0041 -0.0090 -0.4381
  988SOD     NA14471   0.985   1.522  16.990 -0.2911 -0.0776  0.2266
  989SOD     NA14472   2.404   1.756   1.339 -0.0915 -0.0336  0.1623
  990SOD     NA14473   4.153   1.222  12.120  0.4896  0.0848 -0.1959
  991SOD     NA14474   4.060   0.041  11.535  0.2196  0.1116 -0.0996
  992SOD     NA14475   3.510   0.111  13.262 -0.4564  0.5662  0.2059
  993SOD     NA14476   0.884   1.317  14.159  0.0081  0.0191  0.4297
  994SOD     NA14477   4.503   0.966  14.954 -0.3284 -0.3260  0.0884
  995SOD     NA14478   1.566   4.306   8.346 -0.4981 -0.3010  0.2683
  996SOD     NA14479   3.555   4.559  13.108  0.0187  0.6132  0.4018
  997SOD     NA14480   3.994   1.628   9.195 -0.5248  0.2243 -0.2357
  998SOD     NA14481   4.452   0.467  11.618 -0.3679  0.2008  0.3668
  999SOD     NA14482   0.055   0.531   5.999 -0.0467 -0.2408 -0.1107
 1000SOD     NA14483   3.008   1.216  10.112 -0.1261 -0.0014  0.2752
 1001SOD     NA14484   0.338   1.802  16.310  0.0603  0.0388  0.1175
 1002SOD     NA14485   3.610   2.665   9.352 -0.4156 -0.2998  0.0002
 1003SOD     NA14486   0.087   4.269   9.987  0.3447  0.2901  0.2973
 1004SOD     NA14487   0.780   4.589  14.146  0.6508 -0.2334 -0.3698
 1005SOD     NA14488   0.841   0.564   0.088 -0.1383  0.2186 -0.0433
 1006SOD     NA14489   2.640   2.619  13.758 -0.1831  0.1143 -0.3326
 1007SOD     NA14490   3.187   3.417   6.087  0.2037 -0.3445  0.0304
 1008SOD     NA14491   3.109   0.572   2.690  0.1263 -0.4626 -0.0658
 1009SOD     NA14492   1.115   0.723  10.793 -0.3067 -0.5608  0.0251
 1010SOD     NA14493   3.268   0.626   1.182 -0.5632  0.0717 -0.5333
 1011SOL     OW14494   1.460   4.375  17.291 -0.2808 -0.2166 -0.3884
 1011SOL    HW114495   1.466   4.421  17.375  0.2328 -0.6373 -0.1950
 1011SOL    HW214496   1.374   4.407  17.262  0.0948  0.2032 -1.0341
 1012SOL     OW14497   3.511   2.043   4.797 -0.6937 -0.0196  0.1421
 1012SOL    HW114498   3.488   2.111   4.861 -0.7326  0.1962 -0.0991
 1012SOL    HW214499   3.468   1.965   4.830  0.9031 -1.6632 -1.7092
 1013SOL     OW14500   1.010   1.249   5.355 -0.5939 -0.7981  0.3254
 1013SOL    HW114501   1.021   1.324   5.413  2.0811 -0.7093 -0.2996
 1013SOL    HW214502   1.098   1.230   5.323 -1.1921 -0.6335 -1.4125
 1014SOL     OW14503   4.229   2.067   3.848 -0.2150  0.2977  0.4583
 1014SOL    HW114504   4.308   2.031   3.888 -0.5012 -0.7418  0.0763
 1014SOL    HW214505   4.248   2.061   3.754  2.6864  1.5040  0.9612
 1015SOL     OW14506   2.887   0.220   8.307 -0.4672  0.5344 -0.3412
 1015SOL    HW114507   2.965   0.190   8.261 -1.5799  1.2447 -2.7189
 1015SOL    HW214508   2.895   0.165   8.385 -0.5501 -0.6223 -1.1632
 1016SOL     OW14509   4.311   3.801  10.191 -0.0237 -0.6560  0.2424
 1016SOL    HW114510   4.389   3.761  10.228 -0.2166 -0.1366  1.2372
 1016SOL    HW214511   4.260   3.808  10.272 -1.8289 -2.0175 -0.7709
 1017SOL     OW14512   4.542   3.348   1.182 -0.1001  0.2383  0.0215
 1017SOL    HW114513   4.535   3.283   1.112  0.8734  0.5881 -0.4001
 1017SOL    HW214514   4.622   3.398   1.167 -0.7245  1.1840 -0.1545
 1018SOL     OW14515   3.717   4.142   2.697 -0.0924 -0.4619 -0.3411
 1018SOL    HW114516   3.704   4.201   2.771  2.3970 -0.2573 -0.0721
 1018SOL    HW214517   3.799   4.178   2.665  0.5277  0.0480  1.8329
 1019SOL     OW14518   4.326   0.896  12.325  0.0320  0.0940  0.1101
 1019SOL    HW114519   4.355   0.815  12.282  1.6586  0.5906  0.2382
 1019SOL    HW214520   4.382   0.892  12.403 -0.8531  1.8951  0.8271
 1020SOL     OW14521   0.484   1.452  13.706  0.3518 -0.3114 -0.0079
 1020SOL    HW114522   0.437   1.443  13.623 -1.3900 -1.0285  1.0551
 1020SOL    HW214523   0.422   1.411  13.767 -1.3477 -1.6446 -2.6408
 1021SOL     OW14524   2.275   4.315   3.317  0.4820 -0.1278 -0.3540
 1021SOL    HW114525   2.215   4.306   3.391  0.3306  0.0841 -0.4488
 1021SOL    HW214526   2.311   4.228   3.300 -2.7352 -1.7995  1.4817
 1022SOL     OW14527   3.616   4.306  15.152 -0.0726  0.3013 -0.3058
 1022SOL    HW114528   3.623   4.217  15.119  1.8079  0.3715 -0.1537
 1022SOL    HW214529   3.668   4.358  15.090 -0.0251  0.2718 -0.2914
 1023SOL     OW14530   2.660   0.911   4.473  0.1120 -0.4785  0.3449
 1023SOL    HW114531   2.630   0.821   4.465  0.6608 -0.8040  2.1503
 1023SOL    HW214532   2.654   0.936   4.380 -0.8364  3.5711  1.4567
 1024SOL     OW14533   3.993   1.948  11.091 -0.5590  0.3468  0.4803
 1024SOL    HW114534   4.005   1.999  11.011  0.9439 -0.6490  0.0498
 1024SOL    HW214535   4.038   1.864  11.076 -0.6894  0.4761 -0.6611
 1025SOL     OW14536   2.985   4.266   0.950 -0.3362 -0.2781  0.4691
 1025SOL    HW114537   2.943   4.184   0.973 -2.6854  0.0019 -2.7779
 1025SOL    HW214538   2.936   4.333   0.998 -1.2059 -0.4488 -0.1872
 1026SOL     OW14539   0.474   2.599  12.066 -0.0637 -0.1360 -0.3602
 1026SOL    HW114540   0.560   2.628  12.036  0.0926 -0.7367 -0.4964
 1026SOL    HW214541   0.412   2.643  12.008  0.6302 -0.0797 -1.0440
 1027SOL     OW14542   1.745   4.145   5.643 -0.0546  0.5985  0.1347
 1027SOL    HW114543   1.790   4.224   5.671 -3.0004  2.1602  0.4509
 1027SOL    HW214544   1.674   4.177   5.588 -0.7748  1.3354  1.4711
 1028SOL     OW14545   0.826   3.509   4.240 -0.6801 -0.4825 -0.6376
 1028SOL    HW114546   0.843   3.602   4.255 -0.8572 -0.6230  0.4502
 1028SOL    HW214547   0.815   3.506   4.145  0.7576 -1.1913 -0.7734
 1029SOL     OW14548   2.471   1.952  12.940 -0.0573 -0.3863 -0.0813
 1029SOL    HW114549   2.392   2.007  12.938  2.1971  2.8370  0.2742
 1029SOL    HW214550   2.533   2.001  12.993  0.2250  2.0186 -2.6383
 1030SOL     OW14551   2.010   2.805   6.294 -0.4472 -0.6866 -0.5541
 1030SOL    HW114552   1.954   2.778   6.221 -2.0936  3.2567 -0.7278
 1030SOL    HW214553   2.068   2.729   6.296  3.1156  2.0657 -0.3583
 1031SOL     OW14554   1.713   4.176   3.387 -0.4949  0.0590  0.1374
 1031SOL    HW114555   1.763   4.250   3.421 -0.8325  0.3068  0.1029
 1031SOL    HW214556   1.781   4.127   3.342  1.5605  1.5816  1.6208
 1032SOL     OW14557   2.987   4.063   7.504 -0.6611  0.1500  0.1182
 1032SOL    HW114558   2.975   4.134   7.567 -1.7387 -2.3364  2.6962
 1032SOL    HW214559   3.079   4.078   7.482 -0.7382 -1.1456 -1.1357
 1033SOL     OW14560   2.446   3.250   4.756 -0.4093 -0.1370 -0.0117
 1033SOL    HW114561   2.435   3.159   4.729 -0.3564  0.0559 -0.6854
 1033SOL    HW214562   2.489   3.285   4.678 -0.7343  0.0059 -0.1265
 1034SOL     OW14563   4.029   3.332   6.077  0.5164 -0.0486  0.1494
 1034SOL    HW114564   4.058   3.422   6.064  0.6411 -0.2929 -1.2618
 1034SOL    HW214565   4.118   3.299   6.066  0.2690 -0.6595 -0.0664
 1035SOL     OW14566   3.806   1.373  10.373  0.1197  0.6790 -0.1790
 1035SOL    HW114567   3.813   1.467  10.358 -0.7632  0.3173 -2.8167
 1035SOL    HW214568   3.730   1.379  10.431  0.5069 -1.6759  0.5746
 1036SOL     OW14569   0.689   0.686   5.449  0.0234  0.2569 -0.5057
 1036SOL    HW114570   0.655   0.754   5.391 -0.1655  1.1907  0.6894
 1036SOL    HW214571   0.613   0.668   5.504  0.7805 -0.0166  0.4518
 1037SOL     OW14572   3.939   3.261   7.873  0.2581 -0.2996 -0.7451
 1037SOL    HW114573   3.861   3.209   7.854  0.1914 -0.4469 -0.0512
 1037SOL    HW214574   3.952   3.233   7.963 -2.3615  0.6362 -0.0780
 1038SOL     OW14575   0.172   0.328   8.105  0.6101 -0.5309 -0.3575
 1038SOL    HW114576   0.132   0.266   8.166  2.5096  1.4643  2.9409
 1038SOL    HW214577   0.103   0.394   8.100 -0.5018 -1.6776 -0.1830
 1039SOL     OW14578   1.478   4.478   5.725  0.6751 -0.9478  0.4927
 1039SOL    HW114579   1.529   4.464   5.805  1.8661 -1.4160 -0.3520
 1039SOL    HW214580   1.393   4.501   5.764  0.3017  0.2895 -1.0826
 1040SOL     OW14581   0.872   2.544   3.699  0.4400 -0.4161 -0.7357
 1040SOL    HW114582   0.855   2.465   3.750 -0.8135  0.7476  0.6636
 1040SOL    HW214583   0.825   2.615   3.744 -0.3508 -2.1592  1.1663
 1041SOL     OW14584   3.724   2.343  12.920 -0.2519 -0.8690 -0.1276
 1041SOL    HW114585   3.654   2.293  12.963 -0.0983  0.0049  1.1468
 1041SOL    HW214586   3.727   2.415  12.983 -1.5046  0.7685 -1.9728
 1042SOL     OW14587   0.930   4.145  10.820  0.0264 -0.0812 -0.2034
 1042SOL    HW114588   0.938   4.237  10.846 -0.3270  0.5379 -2.2830
 1042SOL    HW214589   1.015   4.114  10.853  0.4754 -0.7667 -2.0249
 1043SOL     OW14590   0.400   3.940  11.756  0.3970  0.1887  0.4791
 1043SOL    HW114591   0.388   3.845  11.769  1.9269  0.1446  1.5876
 1043SOL    HW214592   0.380   3.970  11.845  2.5008  1.5876  0.4713
 1044SOL     OW14593   0.058   1.419  17.147  0.3779 -0.0070  0.1087
 1044SOL    HW114594   0.044   1.512  17.133 -1.6459 -0.1283  1.2180
 1044SOL    HW214595   0.109   1.423  17.228 -1.8124  0.4399  1.4628
 1045SOL     OW14596   2.026   4.646   5.729  0.5163  0.4146 -0.3050
 1045SOL    HW114597   1.971   4.609   5.660 -0.9545  2.9264 -0.4737
 1045SOL    HW214598   1.954   4.687   5.776  0.7268 -1.0046  1.2788
 1046SOL     OW14599   1.076   0.662   8.150  0.3561  0.7982  0.7640
 1046SOL    HW114600   1.064   0.753   8.178 -1.1995  0.3083  1.7095
 1046SOL    HW214601   1.137   0.633   8.218  2.4292  1.6418 -0.7396
 1047SOL     OW14602   1.820   1.467   1.133 -0.1544 -0.5781  0.1383
 1047SOL    HW114603   1.904   1.496   1.168  0.6888 -0.5152 -1.9534
 1047SOL    HW214604   1.830   1.485   1.040  0.5197 -2.6475 -0.1796
 1048SOL     OW14605   4.533   3.442   5.497  0.3518  0.0544  0.5556
 1048SOL    HW114606   4.608   3.423   5.440  0.8649  0.5151  1.0682
 1048SOL    HW214607   4.496   3.519   5.455 -0.6893 -0.1671  1.0681
 1049SOL     OW14608   2.261   0.443   3.354 -0.3484 -0.3376  0.4140
 1049SOL    HW114609   2.204   0.370   3.331 -1.7587  0.6834  0.7201
 1049SOL    HW214610   2.203   0.477   3.422 -0.0848 -0.3574  0.6515
 1050SOL     OW14611   3.336   4.545  16.228  0.5127  1.0553  0.1398
 1050SOL    HW114612   3.355   4.576  16.317 -1.6507  0.2594  0.8820
 1050SOL    HW214613   3.420   4.525  16.188  0.2259 -1.4039  0.7961
 1051SOL     OW14614   4.145   3.603   7.706 -0.6949  0.3291 -0.4980
 1051SOL    HW114615   4.140   3.686   7.753  0.4834 -0.3181  0.7704
 1051SOL    HW214616   4.064   3.610   7.654 -0.5697 -1.5847 -0.9609
 1052SOL     OW14617   2.951   1.981   4.206  0.1129 -0.5699 -0.2251
 1052SOL    HW114618   3.011   1.941   4.143  0.5283 -0.6655  0.2217
 1052SOL    HW214619   3.010   2.020   4.272 -1.0643 -0.4501  0.7554
 1053SOL     OW14620   2.195   3.902   2.347  0.6141 -0.4535 -0.1806
 1053SOL    HW114621   2.166   3.985   2.310 -1.6045 -1.1586 -0.0047
 1053SOL    HW214622   2.266   3.934   2.402 -0.7678  1.9151  0.2034
 1054SOL     OW14623   1.969   3.879  10.011  0.4860 -0.7130  0.0977
 1054SOL    HW114624   2.024   3.827  10.070 -0.7330 -0.1614  1.7444
 1054SOL    HW214625   1.969   3.818   9.938 -2.2090 -0.4856 -0.0944
 1055SOL     OW14626   1.113   2.090   2.408  0.1426  0.0659 -1.0464
 1055SOL    HW114627   1.026   2.071   2.442 -0.9285  3.7692 -1.6947
 1055SOL    HW214628   1.108   2.185   2.415 -1.0396 -0.3363  3.8127
 1056SOL     OW14629   2.983   3.699  15.185  0.2549 -0.3598 -0.1312
 1056SOL    HW114630   3.060   3.750  15.157 -2.0472  3.4659  0.5698
 1056SOL    HW214631   2.947   3.754  15.254  1.9325 -0.9516  1.2161
 1057SOL     OW14632   2.761   1.513  12.957  0.5868  0.0320 -0.1150
 1057SOL    HW114633   2.679   1.487  12.998  0.5750 -2.4762 -1.7279
 1057SOL    HW214634   2.796   1.424  12.950 -0.7627 -0.2930 -2.7165
 1058SOL     OW14635   1.967   0.114   3.593  0.5185 -0.6160 -0.2947
 1058SOL    HW114636   1.998   0.157   3.513  0.7398 -1.1512 -0.5032
 1058SOL    HW214637   1.881   0.155   3.598 -0.8612 -3.1154 -2.9676
 1059SOL     OW14638   2.374   0.193   2.660 -0.1453 -0.4024 -0.0083
 1059SOL    HW114639   2.415   0.147   2.587  0.4743 -0.4593  0.3718
 1059SOL    HW214640   2.304   0.131   2.681 -0.6932  0.3929  0.5153
 1060SOL     OW14641   4.602   1.650   5.824 -0.3329 -0.5360  0.4479
 1060SOL    HW114642   4.648   1.732   5.838 -2.6320  1.0871 -1.5008
 1060SOL    HW214643   4.643   1.597   5.893  1.4729 -0.1530 -0.3373
 1061SOL     OW14644   0.803   2.755  11.112  0.2529 -0.2779 -0.2793
 1061SOL    HW114645   0.715   2.726  11.089  0.0299  0.3692 -0.2111
 1061SOL    HW214646   0.820   2.702  11.191 -0.1717 -0.4068 -0.2725
 1062SOL     OW14647   1.008   1.895   6.179  0.6224  0.3862  0.7817
 1062SOL    HW114648   1.100   1.896   6.204  1.0336  1.1429 -0.7848
 1062SOL    HW214649   0.981   1.980   6.213  1.2091  0.6035  0.6921
 1063SOL     OW14650   2.394   0.655   4.634 -0.2390  0.4933  0.5818
 1063SOL    HW114651   2.460   0.665   4.702 -0.3496 -0.0914  0.7693
 1063SOL    HW214652   2.442   0.653   4.551  1.2844 -1.7628  1.5271
 1064SOL     OW14653   2.293   3.982   5.863 -0.3118 -0.5774 -0.2772
 1064SOL    HW114654   2.371   4.025   5.829 -1.3076  0.5709 -1.1501
 1064SOL    HW214655   2.240   3.965   5.785 -2.8438  1.5899  0.9565
 1065SOL     OW14656   1.394   3.702   8.560 -0.1652  0.5569 -0.4210
 1065SOL    HW114657   1.359   3.686   8.473  0.4285 -0.9856 -0.3663
 1065SOL    HW214658   1.378   3.614   8.593 -0.0933 -0.1500 -2.3033
 1066SOL     OW14659   2.507   3.020   4.366  0.3347  0.8348  0.4270
 1066SOL    HW114660   2.427   3.052   4.324  0.8199  0.5629 -0.7320
 1066SOL    HW214661   2.520   2.936   4.322 -0.7531  1.8866 -1.9235
 1067SOL     OW14662   0.889   4.065  14.447  0.4269  0.1158 -0.0147
 1067SOL    HW114663   0.827   4.133  14.423  0.4634 -0.8953 -2.9698
 1067SOL    HW214664   0.917   4.093  14.535 -3.1367 -0.4817  1.3045
 1068SOL     OW14665   0.437   2.522   4.707  0.3142  0.0860  0.5380
 1068SOL    HW114666   0.497   2.595   4.692 -0.5452  0.2646 -2.0495
 1068SOL    HW214667   0.378   2.566   4.768  1.5367  0.6310  1.3189
 1069SOL     OW14668   4.230   2.918   7.485 -0.1921  0.4792 -0.1206
 1069SOL    HW114669   4.225   2.826   7.512 -1.5741  0.6066  0.1028
 1069SOL    HW214670   4.203   2.958   7.568  0.5951  0.0619  0.3322
 1070SOL     OW14671   4.285   1.041   8.927  0.8254  0.2529  0.0402
 1070SOL    HW114672   4.379   1.022   8.919  0.8422  0.5703 -0.4960
 1070SOL    HW214673   4.250   0.952   8.930  0.8462  0.1921 -1.8366
 1071SOL     OW14674   2.066   1.374   1.930  0.0612 -0.6252  0.2838
 1071SOL    HW114675   2.013   1.450   1.907  1.5210  0.4965  0.6681
 1071SOL    HW214676   2.135   1.405   1.989 -0.5318 -0.0633  0.6910
 1072SOL     OW14677   3.822   0.798   1.862  0.5585  0.1431  0.0209
 1072SOL    HW114678   3.852   0.784   1.952 -0.5811  1.0358  0.5294
 1072SOL    HW214679   3.732   0.767   1.860  0.3601  0.6688  1.4932
 1073SOL     OW14680   4.101   3.227  12.859 -0.1613  0.0487 -0.2103
 1073SOL    HW114681   4.169   3.199  12.798 -0.4083 -1.4307  0.1901
 1073SOL    HW214682   4.028   3.168  12.839 -2.2137  2.4782  0.0812
 1074SOL     OW14683   0.368   4.426   5.794 -0.2171 -0.2549  0.7801
 1074SOL    HW114684   0.405   4.390   5.714  0.5481  0.9876  0.5726
 1074SOL    HW214685   0.423   4.501   5.817  0.2065  0.1942 -1.6711
 1075SOL     OW14686   2.584   2.359   6.200 -0.0522 -0.2651 -0.3459
 1075SOL    HW114687   2.612   2.272   6.172  0.3380  0.0759 -1.0254
 1075SOL    HW214688   2.543   2.337   6.283  1.2735 -2.5274 -0.2946
 1076SOL     OW14689   2.105   3.947  13.473  0.0616  0.4837 -0.2295
 1076SOL    HW114690   2.034   3.951  13.538 -0.2389  0.0048 -0.5224
 1076SOL    HW214691   2.133   4.038  13.480  0.9011  0.1238  1.0257
 1077SOL     OW14692   0.485   3.610   4.699  0.5075  0.3189  0.5387
 1077SOL    HW114693   0.513   3.660   4.776 -2.0018  0.2219  1.5117
 1077SOL    HW214694   0.562   3.559   4.674  0.2766 -1.5474  3.5984
 1078SOL     OW14695   1.555   3.179   3.124  0.1917 -0.4576 -0.1128
 1078SOL    HW114696   1.589   3.202   3.210 -2.8839  1.2340  0.6283
 1078SOL    HW214697   1.612   3.109   3.092 -0.1035 -0.7275 -0.0518
 1079SOL     OW14698   2.457   1.230   4.078 -0.1498 -0.5916  0.1026
 1079SOL    HW114699   2.409   1.193   4.153  2.7686 -2.6425  0.9452
 1079SOL    HW214700   2.492   1.155   4.030 -1.6104 -0.1118 -1.6929
 1080SOL     OW14701   0.097   4.216   3.197 -0.7172  0.0818 -0.1651
 1080SOL    HW114702   0.081   4.202   3.104 -1.6410  2.8454 -0.4043
 1080SOL    HW214703   0.186   4.189   3.217 -0.8986 -0.8126 -0.5411
 1081SOL     OW14704   4.610   3.635   9.705  0.4312  0.5420 -0.1836
 1081SOL    HW114705   4.537   3.594   9.751  2.6221 -0.4791  2.3129
 1081SOL    HW214706   4.580   3.642   9.614 -1.7813 -1.0720  0.4218
 1082SOL     OW14707   0.425   1.651  13.040  1.1629 -0.5392  0.5304
 1082SOL    HW114708   0.445   1.689  12.954  0.7292 -0.2785  0.5477
 1082SOL    HW214709   0.386   1.570  13.009 -1.8303  0.5567  1.4535
 1083SOL     OW14710   1.948   0.763   4.879 -0.1019 -0.4367 -0.4239
 1083SOL    HW114711   1.919   0.750   4.970  3.2548 -2.0363  0.4292
 1083SOL    HW214712   1.969   0.673   4.853  1.2386  0.1629 -1.3988
 1084SOL     OW14713   0.867   1.311  16.985 -0.3393 -0.2349 -0.1695
 1084SOL    HW114714   0.787   1.291  17.032 -0.6083 -1.4199 -1.1303
 1084SOL    HW214715   0.906   1.224  16.974 -0.7359 -0.3185 -0.9094
 1085SOL     OW14716   2.264   4.143   2.977  0.1250  0.2221  0.2571
 1085SOL    HW114717   2.316   4.094   3.041 -1.7085 -2.6698 -0.4871
 1085SOL    HW214718   2.312   4.226   2.977  0.6614 -0.0885 -2.6805
 1086SOL     OW14719   4.657   1.392   2.068 -0.4377  0.6809  0.6521
 1086SOL    HW114720   4.635   1.299   2.074 -0.3647  0.6738  0.8173
 1086SOL    HW214721   4.698   1.411   2.153  0.6569 -0.2243  0.3280
 1087SOL     OW14722   2.686   4.168  12.809 -0.0327 -0.1569  0.3370
 1087SOL    HW114723   2.703   4.232  12.739 -1.4402  0.0477  0.1718
 1087SOL    HW214724   2.746   4.199  12.877 -0.4256  0.2011  0.5243
 1088SOL     OW14725   2.320   2.743   4.654  0.3547 -0.3670 -0.1324
 1088SOL    HW114726   2.332   2.669   4.594  0.9180 -1.5323  1.4187
 1088SOL    HW214727   2.391   2.713   4.710 -2.0107  0.2090  3.2032
 1089SOL     OW14728   3.273   4.570  12.893 -0.7563  0.3515 -0.2967
 1089SOL    HW114729   3.326   4.526  12.960 -0.1132  1.8529  0.1926
 1089SOL    HW214730   3.300   4.660  12.909 -2.1668  0.9063 -1.1104
 1090SOL     OW14731   1.093   0.073   3.526  0.3243  0.0536  0.3007
 1090SOL    HW114732   1.122   4.711   3.559 -1.7415 -0.5851  0.4222
 1090SOL    HW214733   1.024   0.052   3.463 -0.3157 -0.7287  1.2646
 1091SOL     OW14734   4.245   0.311   8.689  0.4184  0.1324 -0.6238
 1091SOL    HW114735   4.151   0.324   8.676  0.2524  1.5881  2.0796
 1091SOL    HW214736   4.255   0.298   8.783  0.6985  1.0450 -0.5285
 1092SOL     OW14737   0.616   4.468   5.493 -1.1631  0.2266 -0.0132
 1092SOL    HW114738   0.578   4.544   5.538  0.6475 -0.4441  2.6628
 1092SOL    HW214739   0.709   4.481   5.514 -0.8641 -0.8448 -0.6958
 1093SOL     OW14740   4.159   0.400   6.953 -0.2313 -0.3552  0.2986
 1093SOL    HW114741   4.197   0.486   6.934  0.4236 -0.4612  1.0967
 1093SOL    HW214742   4.184   0.366   6.867 -0.2546 -0.7207  0.4393
 1094SOL     OW14743   1.985   3.447   8.560  0.9350 -0.0384 -0.0489
 1094SOL    HW114744   2.010   3.501   8.635  1.4566  1.9086 -1.6346
 1094SOL    HW214745   2.026   3.496   8.489 -2.3377  1.6505 -0.7716
 1095SOL     OW14746   2.218   4.048   5.050 -0.2489  0.5328 -0.0735
 1095SOL    HW114747   2.131   4.056   5.088 -0.5387  0.8132 -0.7894
 1095SOL    HW214748   2.254   4.114   5.109 -0.8804  1.1538 -0.3781
 1096SOL     OW14749   1.368   3.068  14.118 -0.4037  0.4212  0.5102
 1096SOL    HW114750   1.431   3.132  14.086 -1.7860  1.6584  0.2895
 1096SOL    HW214751   1.389   3.073  14.212  1.2701  3.7420 -0.0268
 1097SOL     OW14752   4.165   4.635  14.362 -0.0225  0.6967  0.4052
 1097SOL    HW114753   4.224   4.625  14.437  4.1123  1.6697 -2.7207
 1097SOL    HW214754   4.113   4.554  14.358 -0.0262  0.5686  3.4964
 1098SOL     OW14755   1.083   0.485   7.489  0.3475 -0.1081  0.3557
 1098SOL    HW114756   1.152   0.529   7.538  0.7299  1.5756 -1.6745
 1098SOL    HW214757   1.121   0.399   7.471  0.3548  0.0483 -0.3774
 1099SOL     OW14758   0.346   2.396   5.237  0.3009  0.2216  0.0407
 1099SOL    HW114759   0.376   2.402   5.146  0.4876  1.7727  0.2013
 1099SOL    HW214760   0.427   2.378   5.285  0.2076  0.9480  0.4716
 1100SOL     OW14761   3.405   4.355   1.423  0.0836  0.3700  0.5421
 1100SOL    HW114762   3.413   4.279   1.480  1.3789  0.1693  0.0963
 1100SOL    HW214763   3.355   4.319   1.350 -1.8274  2.6186  0.7465
 1101SOL     OW14764   2.001   0.756  10.077  0.4628  0.4129  0.2442
 1101SOL    HW114765   1.919   0.756  10.125 -0.6304 -0.7089 -1.5900
 1101SOL    HW214766   1.977   0.727   9.988  2.2614  0.8042 -0.3790
 1102SOL     OW14767   0.893   1.928   0.375  0.2387 -0.2447  0.0088
 1102SOL    HW114768   0.906   1.999   0.438 -1.4161 -1.9495  2.2879
 1102SOL    HW214769   0.938   1.861   0.427 -2.1175 -1.4431  0.5172
 1103SOL     OW14770   2.042   2.302   2.700 -0.1749 -0.1064  0.4948
 1103SOL    HW114771   1.978   2.307   2.770  1.2848  3.0522  1.6231
 1103SOL    HW214772   1.999   2.359   2.636 -1.5266 -0.7855  0.8072
 1104SOL     OW14773   4.247   4.141   2.543  0.1356  0.0188 -0.3802
 1104SOL    HW114774   4.290   4.142   2.629  1.1168 -1.1993 -0.8579
 1104SOL    HW214775   4.172   4.199   2.557 -0.5357 -1.4092  1.9637
 1105SOL     OW14776   3.987   1.376  12.898 -0.4241 -0.4369 -0.1084
 1105SOL    HW114777   4.070   1.332  12.917  1.0058  2.7671  1.2060
 1105SOL    HW214778   4.001   1.405  12.808 -1.3086  0.0792 -0.0825
 1106SOL     OW14779   3.739   1.201   9.697 -0.4806  0.0486 -0.1504
 1106SOL    HW114780   3.797   1.144   9.747 -0.8048  0.0029  0.1695
 1106SOL    HW214781   3.745   1.286   9.740  1.5456  1.4932 -3.2374
 1107SOL     OW14782   4.111   2.118   6.310  0.1740 -0.1260 -0.3255
 1107SOL    HW114783   4.094   2.211   6.324  1.4720  0.1828 -0.7932
 1107SOL    HW214784   4.188   2.114   6.367 -1.2733 -2.3829  1.4827
 1108SOL     OW14785   3.344   2.122   4.059 -0.3748 -0.3010  0.1155
 1108SOL    HW114786   3.388   2.200   4.026 -1.2291  0.0034 -0.3029
 1108SOL    HW214787   3.378   2.123   4.149 -4.5825 -2.7691  1.7097
 1109SOL     OW14788   1.518   2.939   1.906 -0.0104  0.3714 -0.0221
 1109SOL    HW114789   1.452   2.968   1.842 -0.6862  0.2617  0.6249
 1109SOL    HW214790   1.551   2.866   1.853 -2.2273 -0.2126 -0.6343
 1110SOL     OW14791   1.973   0.905   1.602 -0.1085  0.7118  0.6183
 1110SOL    HW114792   1.897   0.946   1.560 -0.7363 -0.2451  0.8202
 1110SOL    HW214793   1.978   0.965   1.677 -1.4416  1.0689  0.4227
 1111SOL     OW14794   2.729   1.878   3.962  0.2125  0.3816  0.0467
 1111SOL    HW114795   2.700   1.885   3.871  1.9065 -0.4217 -0.5427
 1111SOL    HW214796   2.814   1.922   3.956  0.8661 -1.3426 -2.9825
 1112SOL     OW14797   0.404   1.901   3.011 -0.1288 -0.2693 -0.0821
 1112SOL    HW114798   0.344   1.866   2.945 -0.1178 -0.4285 -0.0057
 1112SOL    HW214799   0.359   1.966   3.064  0.7422 -0.4924  0.9191
 1113SOL     OW14800   0.090   0.734   8.053  0.5815  0.1894  0.7206
 1113SOL    HW114801   0.181   0.716   8.076  0.5522 -1.5533 -0.5221
 1113SOL    HW214802   0.109   0.822   8.023  0.8392  0.3147  1.2682
 1114SOL     OW14803   1.688   0.593   6.358 -0.1159 -0.5080  0.3467
 1114SOL    HW114804   1.650   0.514   6.321 -0.7498 -0.6476  1.3081
 1114SOL    HW214805   1.637   0.601   6.438  0.2040 -1.2273  0.6163
 1115SOL     OW14806   4.192   2.168   7.942  0.2927 -0.2101  0.7048
 1115SOL    HW114807   4.243   2.248   7.957 -0.1722  0.6587 -2.4014
 1115SOL    HW214808   4.123   2.204   7.887 -1.1152 -3.2503  0.5311
 1116SOL     OW14809   3.354   1.828   2.146 -0.3683 -0.0273 -0.4223
 1116SOL    HW114810   3.332   1.788   2.062 -0.1986 -0.6316 -0.1771
 1116SOL    HW214811   3.418   1.764   2.178 -1.5554 -0.7544  0.5101
 1117SOL     OW14812   0.358   4.125   6.408  0.0371  0.5621  0.3605
 1117SOL    HW114813   0.358   4.167   6.494  2.2633 -1.1121  1.1487
 1117SOL    HW214814   0.342   4.034   6.432 -2.4923 -0.4120 -4.9631
 1118SOL     OW14815   2.843   3.728   0.460 -0.0594 -0.6033 -0.3628
 1118SOL    HW114816   2.897   3.785   0.405  1.0020 -3.8513 -2.6957
 1118SOL    HW214817   2.844   3.783   0.538  3.3074  1.1379 -1.6472
 1119SOL     OW14818   4.017   0.274   4.269 -0.0307 -0.2620  0.4799
 1119SOL    HW114819   4.021   0.311   4.181  0.8250 -0.1487  0.5691
 1119SOL    HW214820   3.993   0.346   4.327  0.0220  0.4912 -0.4268
 1120SOL     OW14821   0.243   4.388   5.013  0.3660  0.3036 -0.3273
 1120SOL    HW114822   0.294   4.449   5.067 -1.1481  1.1712  0.1215
 1120SOL    HW214823   0.243   4.434   4.929  0.2767  1.5745  0.3720
 1121SOL     OW14824   3.956   4.535  10.667  0.5524 -0.5881 -0.2450
 1121SOL    HW114825   3.887   4.510  10.729 -0.6864  0.0388 -1.3886
 1121SOL    HW214826   4.023   4.470  10.688  0.5247 -0.1338  1.2456
 1122SOL     OW14827   2.091   1.555   8.147 -0.2006 -0.2909 -0.5448
 1122SOL    HW114828   2.010   1.588   8.186 -0.2411 -0.5229 -0.4275
 1122SOL    HW214829   2.065   1.478   8.097  0.3791 -0.5229 -0.4955
 1123SOL     OW14830   4.460   1.320   1.467  0.7451 -0.1628  0.5625
 1123SOL    HW114831   4.492   1.376   1.537  0.6912 -1.3607  1.5398
 1123SOL    HW214832   4.423   1.384   1.406  0.3399  0.8469  1.8723
 1124SOL     OW14833   2.800   2.775   4.308  0.2577  0.5253  0.8007
 1124SOL    HW114834   2.708   2.755   4.293  1.0016 -2.2424 -0.1096
 1124SOL    HW214835   2.838   2.781   4.220  1.3825 -1.5328  1.1509
 1125SOL     OW14836   1.043   3.324   4.010 -0.1379  0.2252 -0.7310
 1125SOL    HW114837   1.124   3.332   4.061 -0.1101  3.3363 -1.2558
 1125SOL    HW214838   1.007   3.413   4.007 -1.1224 -0.0612  2.1145
 1126SOL     OW14839   3.817   3.505  16.031 -0.4257 -0.2101  0.3172
 1126SOL    HW114840   3.876   3.572  16.067 -1.6309  0.3364  1.2701
 1126SOL    HW214841   3.738   3.527  16.080 -1.3815 -1.2688 -0.7471
 1127SOL     OW14842   0.279   2.068   3.194 -0.1640  0.0590 -0.0435
 1127SOL    HW114843   0.256   2.060   3.286  0.4630  0.2606  0.1294
 1127SOL    HW214844   0.209   2.123   3.158  2.6472  3.3597 -0.3373
 1128SOL     OW14845   1.166   0.782  12.218  0.3209 -0.3208  0.3205
 1128SOL    HW114846   1.241   0.836  12.197  1.3621 -1.7959  0.2522
 1128SOL    HW214847   1.180   0.752  12.307  1.5999  0.0928  0.2560
 1129SOL     OW14848   0.690   4.115  12.880 -0.8028  0.1747  0.2866
 1129SOL    HW114849   0.785   4.105  12.869 -1.1305  1.5422 -3.7729
 1129SOL    HW214850   0.668   4.115  12.787 -1.6002  0.5976  0.4811
 1130SOL     OW14851   4.478   3.511   3.055 -0.1168 -0.3037 -0.6845
 1130SOL    HW114852   4.439   3.426   3.036 -1.0963 -0.2092  0.9112
 1130SOL    HW214853   4.560   3.467   3.078 -0.4109 -1.0633 -1.0856
 1131SOL     OW14854   3.198   1.617  10.672 -0.4025 -0.0488 -0.1525
 1131SOL    HW114855   3.168   1.655  10.754  0.3344  0.8513 -0.3012
 1131SOL    HW214856   3.115   1.607  10.626 -0.8229 -0.5351  0.7208
 1132SOL     OW14857   0.898   4.315   7.120  0.2338  0.6471 -0.5685
 1132SOL    HW114858   0.964   4.257   7.082  1.2191  1.6909 -0.4182
 1132SOL    HW214859   0.926   4.306   7.211 -0.8177 -0.2573 -0.3270
 1133SOL     OW14860   3.795   3.565   3.284  0.4388 -0.2683  0.0262
 1133SOL    HW114861   3.889   3.550   3.293  0.8583  1.8781 -0.6343
 1133SOL    HW214862   3.783   3.558   3.189  1.0524  0.3097 -0.0982
 1134SOL     OW14863   3.274   1.348  14.914  0.3828 -0.2383  0.3102
 1134SOL    HW114864   3.307   1.325  15.001 -1.7801 -2.7564  0.4738
 1134SOL    HW214865   3.352   1.398  14.889  0.2489  0.8497  2.0479
 1135SOL     OW14866   0.424   2.737   3.630  0.6728 -0.3768  0.4967
 1135SOL    HW114867   0.396   2.658   3.675 -0.2990  0.4680  1.3652
 1135SOL    HW214868   0.382   2.797   3.691  0.0641  0.7444 -1.0168
 1136SOL     OW14869   4.070   0.042   8.054  0.6767  0.1638  0.4765
 1136SOL    HW114870   4.124   0.030   7.976 -2.1409 -0.7797 -1.3348
 1136SOL    HW214871   3.984   0.016   8.021  0.3174  0.8053  0.9121
 1137SOL     OW14872   0.388   1.288   9.771  0.1683 -0.0990 -0.1885
 1137SOL    HW114873   0.427   1.314   9.688 -0.0481  2.2137  0.4511
 1137SOL    HW214874   0.298   1.286   9.739  0.5703 -0.4462 -1.2812
 1138SOL     OW14875   1.699   3.853   9.075 -0.6656  0.7319  0.2544
 1138SOL    HW114876   1.787   3.890   9.066 -1.1604  2.0209  0.7131
 1138SOL    HW214877   1.656   3.925   9.120  0.0672  0.4340  1.4464
 1139SOL     OW14878   3.355   1.190  13.799  0.3233 -0.5433  0.5100
 1139SOL    HW114879   3.413   1.176  13.873  0.5777 -1.0376  0.2153
 1139SOL    HW214880   3.367   1.113  13.743 -1.1175 -0.5152  0.1453
 1140SOL     OW14881   2.346   0.076  10.516 -0.3192 -0.5375 -0.1379
 1140SOL    HW114882   2.437   0.092  10.490 -0.4329 -0.7079 -0.6471
 1140SOL    HW214883   2.355   4.723  10.574  0.9036  1.1408  1.8732
 1141SOL     OW14884   1.042   1.823   4.944  0.0240  0.2303 -0.1724
 1141SOL    HW114885   1.035   1.866   4.859 -0.6118 -2.3870 -1.4227
 1141SOL    HW214886   0.994   1.745   4.917 -0.7288  0.0189  1.8218
 1142SOL     OW14887   3.247   3.450   8.467 -0.2973 -0.2431  0.5660
 1142SOL    HW114888   3.278   3.360   8.469  1.7546  0.4901  1.5668
 1142SOL    HW214889   3.152   3.438   8.460 -0.1314 -2.2780  1.6935
 1143SOL     OW14890   0.505   1.382   9.531  0.0624 -0.3123  0.1338
 1143SOL    HW114891   0.446   1.421   9.466 -0.4821  2.3447  2.2573
 1143SOL    HW214892   0.570   1.452   9.536 -1.1183  0.6469  1.8466
 1144SOL     OW14893   0.318   1.487  14.898 -0.0525  0.1943  0.4810
 1144SOL    HW114894   0.242   1.539  14.872  0.6919  0.7542 -0.5702
 1144SOL    HW214895   0.369   1.562  14.929  0.8584 -0.2050 -0.0624
 1145SOL     OW14896   1.954   2.461   7.836  0.2997  0.0805 -0.1661
 1145SOL    HW114897   1.892   2.394   7.808  0.2326 -0.3291  0.9769
 1145SOL    HW214898   1.908   2.545   7.835  2.6506  1.3998 -0.7584
 1146SOL     OW14899   3.454   1.253   3.999 -0.0273  0.3011 -0.0561
 1146SOL    HW114900   3.450   1.246   3.904  0.1794  1.2730 -0.1391
 1146SOL    HW214901   3.362   1.271   4.022 -0.0929 -0.3130  0.1445
 1147SOL     OW14902   3.881   2.356   8.056  0.4834  0.4484  0.2141
 1147SOL    HW114903   3.871   2.272   8.100 -0.3138  1.4880  2.0247
 1147SOL    HW214904   3.790   2.385   8.061 -0.4682 -2.6125  0.9147
 1148SOL     OW14905   1.911   4.065  11.385  0.6904 -0.7774 -0.2836
 1148SOL    HW114906   1.815   4.067  11.385  0.7199  0.5995 -0.9687
 1148SOL    HW214907   1.920   4.099  11.296  1.2542 -0.8290 -0.2442
 1149SOL     OW14908   0.683   0.397  17.418 -0.1757 -0.2928  0.1205
 1149SOL    HW114909   0.705   0.413  17.326 -4.2051  0.1422 -0.7743
 1149SOL    HW214910   0.693   0.304  17.437 -1.3524 -0.3347  0.5101
 1150SOL     OW14911   1.098   0.325   6.252 -0.3378  0.0662 -0.3687
 1150SOL    HW114912   1.111   0.259   6.320 -2.4782 -1.2758 -1.2249
 1150SOL    HW214913   1.090   0.273   6.171  1.5403 -0.6650 -0.0813
 1151SOL     OW14914   0.569   1.394  12.710  0.2316 -0.4991  0.2219
 1151SOL    HW114915   0.652   1.347  12.713  0.4063 -0.2526 -0.5530
 1151SOL    HW214916   0.522   1.336  12.769 -0.0058  0.4644  0.9797
 1152SOL     OW14917   2.969   2.778  14.467  0.9796  0.0157  0.2032
 1152SOL    HW114918   3.062   2.756  14.457  0.5047 -1.7489 -0.4368
 1152SOL    HW214919   2.964   2.852  14.408 -0.2354  0.1336  0.4721
 1153SOL     OW14920   1.329   0.847  15.168 -0.2206  0.3797 -0.1826
 1153SOL    HW114921   1.340   0.752  15.176  0.5559  0.6996  2.4293
 1153SOL    HW214922   1.403   0.863  15.110  0.2227 -0.7294  0.0838
 1154SOL     OW14923   1.490   3.796   9.386 -0.0360  0.5081  0.2770
 1154SOL    HW114924   1.538   3.727   9.340 -0.4608 -0.4433  1.2492
 1154SOL    HW214925   1.533   3.795   9.472  0.9256  0.1869 -0.2087
 1155SOL     OW14926   1.189   3.229   4.377  0.4251  0.2107 -0.5943
 1155SOL    HW114927   1.177   3.169   4.450 -1.0668 -2.2471 -2.8797
 1155SOL    HW214928   1.103   3.221   4.335 -0.2908  0.2295  0.8578
 1156SOL     OW14929   3.854   2.787   4.452 -0.5700  0.2214 -0.1009
 1156SOL    HW114930   3.901   2.740   4.520 -0.6311  0.8759  0.3914
 1156SOL    HW214931   3.770   2.740   4.459 -0.4552 -0.2201 -1.6889
 1157SOL     OW14932   2.162   0.761   4.497 -0.2654 -0.3001 -0.1286
 1157SOL    HW114933   2.248   0.740   4.532 -0.7046 -1.7467  0.0857
 1157SOL    HW214934   2.169   0.855   4.480 -0.4331 -0.4399 -0.9477
 1158SOL     OW14935   0.342   0.386  10.379  0.7455  0.4142  0.0111
 1158SOL    HW114936   0.259   0.386  10.428  0.4106 -0.5765 -0.5705
 1158SOL    HW214937   0.403   0.375  10.452  0.0215 -0.7642  0.4287
 1159SOL     OW14938   1.325   2.151   3.531 -0.0789  0.0068 -0.1045
 1159SOL    HW114939   1.280   2.107   3.459 -0.5242 -2.7436  1.8449
 1159SOL    HW214940   1.361   2.074   3.575  1.4425  1.2324  0.7599
 1160SOL     OW14941   1.412   3.459   5.888  0.1517  0.6825  0.0912
 1160SOL    HW114942   1.428   3.544   5.930  1.6412  0.6923 -0.5072
 1160SOL    HW214943   1.467   3.401   5.941 -0.8469 -0.0253  0.3543
 1161SOL     OW14944   1.896   3.210   8.422 -0.6446  0.3326 -0.1146
 1161SOL    HW114945   1.926   3.154   8.494  0.2373  3.3835  1.9083
 1161SOL    HW214946   1.911   3.295   8.464 -4.2976  0.3032  1.3034
 1162SOL     OW14947   1.655   4.555   5.384 -0.0986 -0.1995 -0.6715
 1162SOL    HW114948   1.706   4.562   5.465  0.8853  0.9233 -1.3854
 1162SOL    HW214949   1.724   4.559   5.318  1.0998  1.5368  0.6968
 1163SOL     OW14950   1.421   3.749   3.818 -0.3952  0.0750 -0.1074
 1163SOL    HW114951   1.440   3.840   3.793  1.3734  0.0326  1.0870
 1163SOL    HW214952   1.393   3.715   3.733  0.7264 -0.3203 -0.3201
 1164SOL     OW14953   3.834   4.659   7.977 -0.1680  0.3840  0.3581
 1164SOL    HW114954   3.870   4.650   7.889  0.0405  1.7337  0.3022
 1164SOL    HW214955   3.792   4.574   7.992  0.0947 -0.1593 -2.0173
 1165SOL     OW14956   2.817   1.288   7.920 -0.0435 -0.7890 -0.5364
 1165SOL    HW114957   2.832   1.222   7.852  1.4325  0.0673 -1.0400
 1165SOL    HW214958   2.778   1.361   7.871  1.4515 -0.5883 -1.4204
 1166SOL     OW14959   4.309   2.183   5.610 -0.1396 -0.5318 -0.1626
 1166SOL    HW114960   4.239   2.119   5.619 -0.2742 -0.5830 -1.6355
 1166SOL    HW214961   4.257   2.262   5.596  2.3199  1.1063 -0.1087
 1167SOL     OW14962   1.205   1.937   3.360 -0.4670  0.9625 -0.2412
 1167SOL    HW114963   1.178   1.965   3.272  0.2345  1.4726 -0.3029
 1167SOL    HW214964   1.117   1.922   3.392 -0.4347 -1.0635 -1.1360
 1168SOL     OW14965   0.792   4.307   7.545  0.3997  0.1304  0.0222
 1168SOL    HW114966   0.828   4.329   7.631 -1.7203 -2.1933  1.5057
 1168SOL    HW214967   0.721   4.371   7.544 -1.5267 -1.9981  0.2807
 1169SOL     OW14968   1.155   0.225   9.922 -0.1143  0.3222  0.2624
 1169SOL    HW114969   1.235   0.276   9.911 -1.4804  2.6920  1.0948
 1169SOL    HW214970   1.143   0.185   9.836  2.2679  0.4935 -0.1304
 1170SOL     OW14971   1.681   2.652   6.435  0.1805  0.0841 -0.3549
 1170SOL    HW114972   1.705   2.597   6.510  0.3431 -0.1915 -0.6080
 1170SOL    HW214973   1.721   2.734   6.462 -0.3912  0.8455 -1.8445
 1171SOL     OW14974   2.077   1.130  16.992 -0.4705  0.0318 -0.7013
 1171SOL    HW114975   2.046   1.078  16.918 -1.0558 -1.4442  0.5862
 1171SOL    HW214976   2.156   1.164  16.951 -1.2549  2.5928 -0.0856
 1172SOL     OW14977   2.704   3.789  17.363 -0.0639  0.8471  0.0360
 1172SOL    HW114978   2.726   3.808  17.454  0.0859  0.8123  0.0078
 1172SOL    HW214979   2.688   3.878  17.330 -0.0467  0.6297 -0.5486
 1173SOL     OW14980   2.797   3.665   1.357 -0.1531  0.0869  0.5358
 1173SOL    HW114981   2.711   3.627   1.375 -0.8041  1.8910  1.2710
 1173SOL    HW214982   2.827   3.614   1.282 -0.3724  0.8147 -0.0551
 1174SOL     OW14983   3.727   3.949   5.238  0.1526 -0.9348 -0.2922
 1174SOL    HW114984   3.654   3.999   5.203  0.5535  0.1307  0.3653
 1174SOL    HW214985   3.691   3.861   5.239 -1.4880 -0.2684 -2.4912
 1175SOL     OW14986   1.063   0.087  11.757 -0.2142 -0.4634  0.6809
 1175SOL    HW114987   1.114   0.144  11.815  2.4498 -0.7339 -1.4160
 1175SOL    HW214988   1.049   0.013  11.817  1.7736 -2.5121 -1.3348
 1176SOL     OW14989   3.511   2.000  10.623  0.3509  0.0428  0.2979
 1176SOL    HW114990   3.510   2.095  10.639 -0.6329 -0.1091  1.1442
 1176SOL    HW214991   3.519   2.006  10.528 -1.4753 -0.3263  0.1351
 1177SOL     OW14992   1.099   1.648   6.638 -0.2972  0.6011  0.3831
 1177SOL    HW114993   1.080   1.733   6.679 -1.1802  0.9836 -0.8412
 1177SOL    HW214994   1.082   1.664   6.545  0.3330  1.3224  0.3847
 1178SOL     OW14995   1.266   2.307   3.743  0.3081  0.6799  0.7012
 1178SOL    HW114996   1.197   2.360   3.703  2.1511  1.4446 -1.4625
 1178SOL    HW214997   1.290   2.257   3.665 -1.2560  0.0520  0.6141
 1179SOL     OW14998   2.332   2.397  14.180 -0.7784  0.3165 -0.2773
 1179SOL    HW114999   2.262   2.384  14.116 -1.9957  0.6316  0.9976
 1179SOL    HW215000   2.406   2.404  14.120 -1.7522  1.1636 -1.3758
 1180SOL     OW15001   1.402   0.483   6.070  0.1063  0.1979 -0.1699
 1180SOL    HW115002   1.459   0.416   6.108 -0.7788 -0.2319  0.3990
 1180SOL    HW215003   1.468   0.537   6.026  0.5237 -0.2489 -0.0824
 1181SOL     OW15004   1.684   3.529   8.542 -0.2015  0.2561  0.2525
 1181SOL    HW115005   1.771   3.543   8.503 -0.1368  0.3899  0.4443
 1181SOL    HW215006   1.691   3.566   8.630  3.1637 -2.0386  0.9563
 1182SOL     OW15007   2.774   0.694   2.409 -0.0070 -0.0458 -0.0587
 1182SOL    HW115008   2.763   0.727   2.320  0.0902 -0.8870 -0.3877
 1182SOL    HW215009   2.809   0.608   2.387 -2.3224 -1.3197  1.2786
 1183SOL     OW15010   4.561   2.229   6.185  0.3661 -0.1684  1.0876
 1183SOL    HW115011   4.613   2.283   6.246  0.8357  0.1231  0.4307
 1183SOL    HW215012   4.472   2.261   6.198 -0.5201 -1.7434 -1.2239
 1184SOL     OW15013   1.643   3.114   1.422  0.5646  0.3859 -0.6452
 1184SOL    HW115014   1.681   3.027   1.407 -0.4551 -0.3989  1.3884
 1184SOL    HW215015   1.613   3.133   1.333  0.6136  0.5806 -0.6183
 1185SOL     OW15016   1.549   4.296  16.913  0.8119 -0.3001  0.3919
 1185SOL    HW115017   1.514   4.215  16.950 -0.8441  0.4524  0.4514
 1185SOL    HW215018   1.601   4.335  16.984 -0.5008  0.8750  0.6846
 1186SOL     OW15019   3.538   0.066   9.172 -0.2399 -0.0835 -0.6407
 1186SOL    HW115020   3.507   0.121   9.244  1.9947  1.2413 -0.6788
 1186SOL    HW215021   3.456   0.020   9.152 -1.2416  0.6430  1.7976
 1187SOL     OW15022   2.793   2.692  12.195  0.3594 -0.1483 -0.5816
 1187SOL    HW115023   2.749   2.666  12.276 -0.8044  0.8482 -0.8965
 1187SOL    HW215024   2.811   2.785  12.211 -0.8987  0.3197 -1.8837
 1188SOL     OW15025   2.009   1.088   7.590 -0.1297 -0.0532 -0.6653
 1188SOL    HW115026   2.037   1.034   7.664  4.3292  1.5348 -1.1480
 1188SOL    HW215027   1.932   1.040   7.561  0.8817 -1.2051 -1.4314
 1189SOL     OW15028   0.545   1.832   3.897 -0.3881 -0.7084 -0.4907
 1189SOL    HW115029   0.507   1.906   3.850 -2.0492 -0.3421  1.4436
 1189SOL    HW215030   0.601   1.861   3.969 -0.7495 -0.6106 -0.2470
 1190SOL     OW15031   2.463   0.848   5.650 -0.6004 -0.6712 -0.3104
 1190SOL    HW115032   2.438   0.916   5.588 -0.0021  0.4704  0.7077
 1190SOL    HW215033   2.409   0.772   5.627 -0.8706 -1.5656  3.2034
 1191SOL     OW15034   0.659   1.022  15.438 -0.7970  0.0821  0.1663
 1191SOL    HW115035   0.721   0.960  15.400 -1.0210 -1.6892  2.6932
 1191SOL    HW215036   0.582   0.966  15.439 -2.2899  2.1519  1.7884
 1192SOL     OW15037   2.259   3.511   1.576 -0.1496 -0.1140  0.4051
 1192SOL    HW115038   2.204   3.437   1.552  0.8232 -1.1746  1.4053
 1192SOL    HW215039   2.199   3.585   1.586  2.1874  1.8063  0.3911
 1193SOL     OW15040   2.643   4.003  17.214  0.2277  0.3072  0.4362
 1193SOL    HW115041   2.581   3.938  17.180  0.7081  0.4431 -0.6746
 1193SOL    HW215042   2.585   4.078  17.226 -0.6059 -0.5424  1.7504
 1194SOL     OW15043   1.567   3.211  13.417 -0.1918  0.0798 -0.0397
 1194SOL    HW115044   1.646   3.158  13.413 -0.5077 -0.6478  3.0935
 1194SOL    HW215045   1.498   3.146  13.412 -0.2587  0.2406 -1.1367
 1195SOL     OW15046   4.092   1.855   1.847 -0.1981 -0.0987  0.0037
 1195SOL    HW115047   4.091   1.777   1.792  1.0628 -0.1274  0.0297
 1195SOL    HW215048   4.050   1.914   1.785  0.1647 -0.0079 -0.1576
 1196SOL     OW15049   3.262   3.061   7.078 -0.0401 -0.0444 -0.9790
 1196SOL    HW115050   3.293   3.150   7.090  0.6463 -0.1649 -1.8387
 1196SOL    HW215051   3.267   3.030   7.169 -0.2805  0.7978 -0.6794
 1197SOL     OW15052   0.296   0.458   4.502  0.1954 -0.5786 -0.0132
 1197SOL    HW115053   0.233   0.518   4.462 -2.4988 -1.5212  2.8019
 1197SOL    HW215054   0.298   0.484   4.595  1.8032 -1.0581  0.0862
 1198SOL     OW15055   0.058   0.129   8.308 -0.3457 -0.4847 -0.2014
 1198SOL    HW115056   0.077   0.148   8.400  0.4567 -2.6067  0.0532
 1198SOL    HW215057   4.685   0.131   8.308 -0.3426 -0.5570 -0.7858
 1199SOL     OW15058   4.396   0.089   8.703  1.2113  0.2759 -0.1282
 1199SOL    HW115059   4.456   0.108   8.775 -0.3669  0.3217  1.1664
 1199SOL    HW215060   4.358   0.174   8.682  1.5976  0.1662 -1.2947
 1200SOL     OW15061   4.694   4.512   8.406  0.2127  0.0190 -0.3811
 1200SOL    HW115062   4.647   4.522   8.489  1.0963  2.3711 -0.1670
 1200SOL    HW215063   4.659   4.423   8.396  0.3011  0.1952 -2.2004
 1201SOL     OW15064   3.332   2.278   8.001  0.1100  0.0807  0.0030
 1201SOL    HW115065   3.313   2.204   7.944  0.8823 -0.7190  0.7970
 1201SOL    HW215066   3.273   2.348   7.972 -0.8372 -0.4448  0.6528
 1202SOL     OW15067   2.277   3.414  11.647 -0.1319 -0.3257  0.2404
 1202SOL    HW115068   2.241   3.502  11.636  0.1516 -0.2853 -0.3373
 1202SOL    HW215069   2.368   3.437  11.663  0.1256  0.0132 -1.7148
 1203SOL     OW15070   3.711   3.718   1.373  0.2079  0.1091 -0.2936
 1203SOL    HW115071   3.729   3.625   1.364  0.3358  0.0591  0.5136
 1203SOL    HW215072   3.741   3.720   1.464 -1.1155  2.3588  0.0988
 1204SOL     OW15073   3.145   4.210  12.869 -0.3081 -0.2211  0.1750
 1204SOL    HW115074   3.208   4.142  12.844 -0.6139 -0.6419  0.5668
 1204SOL    HW215075   3.087   4.206  12.793  0.6594 -1.4212 -0.4929
 1205SOL     OW15076   0.766   3.099   4.444  0.2774 -0.2137  0.3698
 1205SOL    HW115077   0.835   3.151   4.402 -1.0972 -0.2214 -1.8931
 1205SOL    HW215078   0.705   3.097   4.370  1.7921 -1.5897 -0.8438
 1206SOL     OW15079   3.084   0.425   6.078  0.4774  0.0829  0.0437
 1206SOL    HW115080   3.032   0.503   6.097 -0.9675 -1.2692  1.6236
 1206SOL    HW215081   3.033   0.352   6.112 -1.4523  1.0632 -0.7522
 1207SOL     OW15082   0.495   3.807   5.060 -0.3947  0.1201 -0.0891
 1207SOL    HW115083   0.538   3.821   4.976  1.9686 -0.3945  1.0361
 1207SOL    HW215084   0.498   3.896   5.092 -1.0121 -0.1510  0.7153
 1208SOL     OW15085   2.812   0.264   2.467 -0.4319  1.0943 -0.0729
 1208SOL    HW115086   2.805   0.206   2.543 -2.3890 -1.3847 -2.1268
 1208SOL    HW215087   2.767   0.205   2.407  0.2133  0.3813  0.1515
 1209SOL     OW15088   4.677   0.949   4.197  0.1605 -0.1937  0.0878
 1209SOL    HW115089   4.661   1.031   4.150 -0.1002  0.3105  1.0512
 1209SOL    HW215090   0.010   0.903   4.134  1.1821  0.6996  0.3387
 1210SOL     OW15091   2.011   2.214   3.125  0.6660  0.0315 -0.1419
 1210SOL    HW115092   1.952   2.151   3.165 -0.7308  1.7290  0.4691
 1210SOL    HW215093   2.081   2.155   3.096 -0.8453 -1.8634  0.0728
 1211SOL     OW15094   2.760   2.828   1.045  0.4120  0.4846  0.3899
 1211SOL    HW115095   2.785   2.738   1.068 -0.0858  0.0263 -0.8148
 1211SOL    HW215096   2.732   2.814   0.954  2.1246  1.1814 -0.2510
 1212SOL     OW15097   3.704   4.153  15.657  0.3528  0.7947 -0.0897
 1212SOL    HW115098   3.659   4.182  15.578 -1.3188  0.8005  0.8763
 1212SOL    HW215099   3.631   4.100  15.688 -0.1662  1.6208  0.0967
 1213SOL     OW15100   2.601   1.516   1.957 -0.2933 -0.1962  0.1078
 1213SOL    HW115101   2.692   1.521   1.928 -0.0838  3.0366  1.3340
 1213SOL    HW215102   2.573   1.427   1.934  2.0973 -1.0123  0.3478
 1214SOL     OW15103   4.273   1.694   2.666 -0.3420  0.2276 -0.4469
 1214SOL    HW115104   4.333   1.623   2.688 -0.9421 -0.1689 -0.1040
 1214SOL    HW215105   4.316   1.761   2.720 -0.3007 -0.0792 -0.1071
 1215SOL     OW15106   0.513   2.680   5.846 -0.4936 -0.0600  0.3487
 1215SOL    HW115107   0.557   2.599   5.875 -2.2273 -0.0832  2.8727
 1215SOL    HW215108   0.455   2.646   5.778  0.1493 -2.1848  0.8400
 1216SOL     OW15109   2.062   3.989  10.914 -0.1301 -0.0824 -0.3206
 1216SOL    HW115110   2.072   4.083  10.896  2.1964 -0.3345 -0.3287
 1216SOL    HW215111   1.968   3.975  10.915 -0.0711 -0.6673 -2.4005
 1217SOL     OW15112   1.718   0.958   0.987  0.2091 -0.0014 -0.6063
 1217SOL    HW115113   1.790   0.926   0.932 -1.1802  2.1462 -3.6211
 1217SOL    HW215114   1.731   1.052   0.975  1.0597 -0.1314 -0.6976
 1218SOL     OW15115   0.692   0.911   6.891  0.1363 -0.6228  0.2412
 1218SOL    HW115116   0.755   0.966   6.938 -1.1680  0.7912  0.3081
 1218SOL    HW215117   0.636   0.980   6.858  2.8850  1.0281 -0.9904
 1219SOL     OW15118   3.834   0.006  12.363  0.0358 -0.3696  0.3597
 1219SOL    HW115119   3.864   0.094  12.342 -2.2375  0.9099  2.4621
 1219SOL    HW215120   3.909   4.700  12.415  0.8061  0.9829 -0.0062
 1220SOL     OW15121   2.313   2.587  16.319 -0.1081  0.1266  0.2230
 1220SOL    HW115122   2.387   2.576  16.378  0.2955 -0.1787 -0.3408
 1220SOL    HW215123   2.285   2.501  16.288 -0.1502 -0.4221  1.7970
 1221SOL     OW15124   1.091   3.553   8.341 -0.7890 -0.4993  0.0753
 1221SOL    HW115125   1.038   3.529   8.265  0.3088  1.0661 -1.1990
 1221SOL    HW215126   1.112   3.467   8.377  0.1864  0.0472  0.8191
 1222SOL     OW15127   4.371   0.605   6.256  0.2923  0.4139  0.3143
 1222SOL    HW115128   4.323   0.524   6.271 -0.6051  1.3502  2.4549
 1222SOL    HW215129   4.456   0.597   6.300 -0.2638  0.8284  1.4617
 1223SOL     OW15130   0.017   1.209   0.366 -0.1172  0.4887  0.3871
 1223SOL    HW115131   0.079   1.160   0.313  1.5538  0.9123  1.9562
 1223SOL    HW215132   4.683   1.142   0.403  0.7129  0.4752  1.6441
 1224SOL     OW15133   3.450   4.085   8.557 -0.8896  0.3199 -0.2835
 1224SOL    HW115134   3.533   4.081   8.605 -1.2423 -2.6836  0.0655
 1224SOL    HW215135   3.413   3.998   8.574 -0.7915  0.3707  0.1681
 1225SOL     OW15136   4.152   0.129   3.773  0.1692 -0.1970 -0.0798
 1225SOL    HW115137   4.246   0.144   3.773 -0.2166  2.2645  0.3638
 1225SOL    HW215138   4.122   0.218   3.754  3.5059  1.3963  2.1929
 1226SOL     OW15139   2.853   2.176   1.447 -0.2181  0.0113  0.0728
 1226SOL    HW115140   2.913   2.155   1.376  0.8753  0.9459  0.7267
 1226SOL    HW215141   2.773   2.141   1.407  0.5996 -1.2773 -0.4555
 1227SOL     OW15142   2.484   2.925   7.273 -0.8021 -0.0277 -0.0914
 1227SOL    HW115143   2.526   2.874   7.204 -0.1459  0.6426 -0.1876
 1227SOL    HW215144   2.533   2.907   7.353  1.0164 -0.1679 -1.2462
 1228SOL     OW15145   2.984   4.422   2.979 -0.5033 -0.9686  0.5379
 1228SOL    HW115146   3.077   4.407   2.994  0.0186  0.2610 -1.4711
 1228SOL    HW215147   2.947   4.376   3.054 -1.0037 -0.3822  0.6518
 1229SOL     OW15148   3.162   0.423   1.427 -0.5465 -0.2787  0.0853
 1229SOL    HW115149   3.132   0.513   1.433  0.9088  0.4055 -2.8299
 1229SOL    HW215150   3.162   0.416   1.332  2.7193 -2.3302  0.2310
 1230SOL     OW15151   0.556   3.903   5.703  0.2756 -0.0694 -0.2757
 1230SOL    HW115152   0.635   3.946   5.670  0.0668 -0.0498 -0.7506
 1230SOL    HW215153   0.594   3.833   5.756  0.5520 -0.5936 -1.1655
 1231SOL     OW15154   0.067   3.063   5.756  0.7064  0.2332  0.2589
 1231SOL    HW115155   0.103   3.011   5.684 -1.1464  0.7506 -1.0101
 1231SOL    HW215156   0.091   3.149   5.722 -1.0917  1.6205  2.5038
 1232SOL     OW15157   4.205   0.847   5.274 -0.0429 -0.3001 -0.3009
 1232SOL    HW115158   4.177   0.823   5.362  0.9089  0.3844  0.1853
 1232SOL    HW215159   4.300   0.847   5.278 -0.0284  0.0485 -0.6746
 1233SOL     OW15160   1.566   4.165  11.170 -0.6584  0.7051 -0.0963
 1233SOL    HW115161   1.622   4.187  11.244  0.5566  1.4654 -1.2469
 1233SOL    HW215162   1.518   4.248  11.173  0.7801  1.5136  0.4583
 1234SOL     OW15163   0.715   4.317   4.146  0.0934  0.6873  0.0427
 1234SOL    HW115164   0.637   4.295   4.196 -0.7272  0.8646 -1.1659
 1234SOL    HW215165   0.778   4.334   4.217  1.3211  2.0309 -1.3532
 1235SOL     OW15166   4.309   3.750   0.766 -0.8268  0.2616  0.0779
 1235SOL    HW115167   4.344   3.742   0.677 -1.0133  0.1305  0.0162
 1235SOL    HW215168   4.356   3.830   0.792  0.6640 -0.4871 -0.2739
 1236SOL     OW15169   2.720   3.810   7.139  0.0867  0.0218  0.6378
 1236SOL    HW115170   2.780   3.885   7.140 -0.1694  0.2499 -1.8324
 1236SOL    HW215171   2.703   3.799   7.233 -1.0772 -3.0346  0.0553
 1237SOL     OW15172   0.400   0.016   6.099 -0.1610 -0.1696 -0.0674
 1237SOL    HW115173   0.380   4.649   6.125  0.3095  0.0081  0.9030
 1237SOL    HW215174   0.407   0.057   6.185  1.7699  0.8018 -0.6822
 1238SOL     OW15175   4.342   3.007   9.900 -0.0065  0.2557 -0.1008
 1238SOL    HW115176   4.295   2.936   9.943  1.2551 -0.4149  0.1746
 1238SOL    HW215177   4.433   2.981   9.911 -0.9026 -1.4344  3.2500
 1239SOL     OW15178   1.467   1.625   1.704 -0.1926  0.1957 -0.4119
 1239SOL    HW115179   1.518   1.706   1.698  0.5511 -0.3574 -1.6129
 1239SOL    HW215180   1.539   1.575   1.741  0.7818  1.6280 -0.3631
 1240SOL     OW15181   0.264   0.098   6.522  0.4166  0.8533 -0.0089
 1240SOL    HW115182   0.170   0.101   6.506  0.4885  1.9178 -0.2581
 1240SOL    HW215183   0.264   0.112   6.616 -0.7242  0.6556  0.0173
 1241SOL     OW15184   4.329   2.443   4.552  0.4232 -0.4354 -0.7772
 1241SOL    HW115185   4.273   2.422   4.625  0.3555  1.8527 -0.1540
 1241SOL    HW215186   4.325   2.364   4.499  0.7543 -0.5648 -0.6094
 1242SOL     OW15187   4.018   3.918   7.315 -0.3088  0.4298  0.6349
 1242SOL    HW115188   4.041   3.926   7.408 -2.2844  0.7686  1.0970
 1242SOL    HW215189   4.107   3.891   7.290  0.3611 -0.4381  3.9036
 1243SOL     OW15190   3.051   2.812   3.473  0.0217 -0.2638 -0.1775
 1243SOL    HW115191   3.008   2.878   3.418  1.4486  1.3831  0.7043
 1243SOL    HW215192   3.039   2.861   3.554  0.0724  0.1814 -0.4374
 1244SOL     OW15193   3.677   3.550   9.030  0.4001 -0.0208 -0.0883
 1244SOL    HW115194   3.655   3.608   8.957 -2.2061 -0.1385  0.6012
 1244SOL    HW215195   3.628   3.585   9.104  0.0923 -2.1900  0.7180
 1245SOL     OW15196   1.200   1.707   3.096  0.3712  0.3654  0.0045
 1245SOL    HW115197   1.195   1.737   3.005 -0.1898 -0.0329 -0.0959
 1245SOL    HW215198   1.257   1.630   3.098 -1.1084 -0.7631 -1.7861
 1246SOL     OW15199   3.166   2.445   7.506 -0.2573  0.1427  0.6312
 1246SOL    HW115200   3.104   2.499   7.456  3.3106  2.8456 -0.9278
 1246SOL    HW215201   3.248   2.493   7.493  0.0449 -0.6219 -0.2828
 1247SOL     OW15202   1.631   4.529  15.616  0.2279 -0.8604  0.2775
 1247SOL    HW115203   1.698   4.595  15.632  0.2513 -0.5047 -1.2836
 1247SOL    HW215204   1.615   4.552  15.525 -1.4543  1.6900  1.2077
 1248SOL     OW15205   1.580   3.835   3.339  0.0997  0.1916 -0.2616
 1248SOL    HW115206   1.486   3.847   3.354  0.3375 -1.0449  2.1851
 1248SOL    HW215207   1.600   3.903   3.276  0.1100  0.3234 -0.1166
 1249SOL     OW15208   0.333   0.058   8.552 -0.3607  0.4433 -0.2834
 1249SOL    HW115209   0.245   0.091   8.569 -0.3359  0.9581 -1.1517
 1249SOL    HW215210   0.392   0.133   8.556 -0.5870  0.5318  1.1758
 1250SOL     OW15211   2.502   2.668   8.093 -0.5248 -0.3831 -0.1765
 1250SOL    HW115212   2.470   2.751   8.058  1.5343  0.2780 -0.4879
 1250SOL    HW215213   2.430   2.607   8.079  0.5624 -1.2095 -2.1921
 1251SOL     OW15214   0.920   0.887   4.885  0.0680 -0.0190 -0.4854
 1251SOL    HW115215   0.856   0.957   4.868  0.5329  0.0933 -1.7424
 1251SOL    HW215216   0.944   0.853   4.799  0.8114 -1.9459  0.4814
 1252SOL     OW15217   0.402   2.207   1.322  0.3967 -0.2826 -0.2667
 1252SOL    HW115218   0.432   2.169   1.404  2.9408  1.4134 -0.4131
 1252SOL    HW215219   0.433   2.137   1.264 -0.8432 -1.3425  0.3473
 1253SOL     OW15220   1.563   4.017   5.092  0.6307 -0.2280 -0.7911
 1253SOL    HW115221   1.507   4.096   5.092 -0.8648 -1.3024  1.2217
 1253SOL    HW215222   1.592   4.017   5.001  0.8851 -1.4455 -0.7014
 1254SOL     OW15223   3.956   1.516   8.564 -0.5628  0.6419 -0.4094
 1254SOL    HW115224   3.983   1.564   8.486 -1.2875 -1.0079 -1.6572
 1254SOL    HW215225   3.865   1.500   8.540 -0.5390 -1.8442  1.1881
 1255SOL     OW15226   3.177   1.698   4.720  0.1833 -0.4222  0.0481
 1255SOL    HW115227   3.131   1.687   4.637  1.8366  2.2483 -1.2056
 1255SOL    HW215228   3.153   1.784   4.754  0.7547 -0.1183 -0.3188
 1256SOL     OW15229   1.861   2.252  15.107  0.0375 -0.4670  0.1701
 1256SOL    HW115230   1.802   2.291  15.171 -0.2307 -0.2385 -0.2129
 1256SOL    HW215231   1.933   2.223  15.162 -1.2326 -0.3480  1.8803
 1257SOL     OW15232   3.825   3.390   8.760 -0.1078  0.2222  0.0319
 1257SOL    HW115233   3.757   3.454   8.738  0.1122  0.3237 -0.3429
 1257SOL    HW215234   3.806   3.362   8.850  0.0074 -0.6418 -0.2137
 1258SOL     OW15235   2.008   0.441   6.936 -0.1056 -0.0638  0.4149
 1258SOL    HW115236   1.967   0.375   6.992  0.6743  1.1599  2.4489
 1258SOL    HW215237   1.940   0.508   6.935 -0.7068 -0.6670  1.1287
 1259SOL     OW15238   2.554   0.341  15.316 -0.6103 -0.2303 -0.7569
 1259SOL    HW115239   2.613   0.279  15.361  1.0919  1.2030 -1.0320
 1259SOL    HW215240   2.614   0.400  15.271  0.2635  0.1233  0.8453
 1260SOL     OW15241   3.268   3.176   8.507  0.5484  0.3112 -0.2767
 1260SOL    HW115242   3.264   3.124   8.587 -0.6384 -0.2699 -0.7183
 1260SOL    HW215243   3.329   3.123   8.454 -0.6755 -0.1132 -1.2676
 1261SOL     OW15244   3.950   3.597   5.917 -0.0414  0.1739 -0.3881
 1261SOL    HW115245   3.897   3.668   5.953  0.9031  0.3756  0.6148
 1261SOL    HW215246   4.024   3.600   5.978 -0.1551 -0.0279 -0.2403
 1262SOL     OW15247   4.576   2.230  15.036 -0.2924  0.4583  0.4459
 1262SOL    HW115248   4.577   2.300  14.970  2.4568  0.1665  0.1985
 1262SOL    HW215249   4.625   2.280  15.101 -0.7848  0.8501  0.5196
 1263SOL     OW15250   2.977   3.986   1.012 -0.5847 -0.0142  0.6031
 1263SOL    HW115251   3.061   4.008   1.054 -0.9187  1.4783  0.5141
 1263SOL    HW215252   2.975   3.893   1.032 -3.7350  0.3265  1.8292
 1264SOL     OW15253   1.567   3.846   8.714 -0.2858 -0.0096  0.6723
 1264SOL    HW115254   1.484   3.813   8.682 -0.6046  2.2551 -0.8186
 1264SOL    HW215255   1.605   3.768   8.755 -1.8711 -0.1175  1.9224
 1265SOL     OW15256   2.363   4.028  16.921  0.0607 -0.5757  0.0482
 1265SOL    HW115257   2.397   3.953  16.969  1.2377 -1.5752 -2.3072
 1265SOL    HW215258   2.399   4.112  16.951 -0.0748  0.3582 -2.3483
 1266SOL     OW15259   4.181   4.638   3.263  0.9631  0.0704  0.3166
 1266SOL    HW115260   4.114   4.582   3.224  1.3599 -0.0792 -0.1436
 1266SOL    HW215261   4.186   4.610   3.355 -0.8797 -0.7476  0.1832
 1267SOL     OW15262   0.706   1.454   7.501 -0.3440 -0.3016 -0.0221
 1267SOL    HW115263   0.635   1.474   7.441  0.5759  2.0646 -0.3333
 1267SOL    HW215264   0.786   1.486   7.459 -0.7151  2.0078  0.9941
 1268SOL     OW15265   3.958   1.486   5.610  0.2653 -0.2693  0.1507
 1268SOL    HW115266   3.927   1.399   5.583 -2.3353  0.4704  0.7536
 1268SOL    HW215267   4.033   1.459   5.663  0.6259 -0.4226 -0.4403
 1269SOL     OW15268   2.857   1.200   6.909  0.2010  0.0240  0.2042
 1269SOL    HW115269   2.889   1.137   6.845 -0.5493  0.1507 -0.2903
 1269SOL    HW215270   2.780   1.152   6.941 -0.8538  1.5001 -0.1500
 1270SOL     OW15271   2.364   3.243   5.478 -0.5700 -0.3575  0.4033
 1270SOL    HW115272   2.340   3.247   5.385 -1.0301 -1.0204  0.4990
 1270SOL    HW215273   2.401   3.155   5.475 -0.2301 -0.1663 -1.0309
 1271SOL     OW15274   1.767   3.057   2.751  0.6467  0.1296 -0.4957
 1271SOL    HW115275   1.713   3.019   2.681 -1.0291  1.1919  0.2137
 1271SOL    HW215276   1.811   3.122   2.697 -0.1989  1.8687  0.8846
 1272SOL     OW15277   4.547   0.772   6.840 -0.2001 -0.2211  0.9655
 1272SOL    HW115278   4.626   0.789   6.891  0.5030  2.0423 -0.9019
 1272SOL    HW215279   4.584   0.738   6.758  0.0863  2.1833  0.1203
 1273SOL     OW15280   4.334   1.412   1.253  0.1490 -0.5069  0.1748
 1273SOL    HW115281   4.267   1.404   1.184 -0.5980  0.9950  0.7162
 1273SOL    HW215282   4.394   1.467   1.203  0.7334 -0.9052  0.4433
 1274SOL     OW15283   1.282   3.465   4.899 -0.0671 -0.0396 -0.8703
 1274SOL    HW115284   1.292   3.374   4.873 -2.0313 -0.4456 -0.2207
 1274SOL    HW215285   1.308   3.471   4.991 -0.3475 -0.3458 -0.7705
 1275SOL     OW15286   1.362   2.526   1.660 -0.0334 -0.6159  0.2013
 1275SOL    HW115287   1.371   2.608   1.611 -1.0169 -0.2451  0.6452
 1275SOL    HW215288   1.293   2.477   1.615  0.4920 -1.1926  0.0186
 1276SOL     OW15289   2.377   0.491   6.055 -0.5877 -0.0567 -0.0846
 1276SOL    HW115290   2.293   0.526   6.085  0.0535  0.1947  1.4566
 1276SOL    HW215291   2.391   0.554   5.984  0.3950 -2.0578 -1.6610
 1277SOL     OW15292   3.589   3.365   3.149 -0.1255 -0.3788  0.0265
 1277SOL    HW115293   3.637   3.393   3.071  0.3256 -1.6338 -0.1406
 1277SOL    HW215294   3.543   3.448   3.162 -1.4060 -0.5850 -3.0726
 1278SOL     OW15295   0.899   1.901   5.920  0.0885  0.3875  0.1113
 1278SOL    HW115296   0.938   1.869   6.002  3.6235 -1.2905 -2.2353
 1278SOL    HW215297   0.864   1.984   5.952 -1.3690  0.5452 -1.9169
 1279SOL     OW15298   4.150   2.894   9.503  0.1721 -0.4644 -0.1216
 1279SOL    HW115299   4.214   2.823   9.496 -0.8912 -1.3997 -0.4315
 1279SOL    HW215300   4.149   2.924   9.412 -0.6092 -0.6088 -0.1587
 1280SOL     OW15301   1.609   0.201   6.512 -0.1227 -0.1395  0.0433
 1280SOL    HW115302   1.697   0.165   6.524 -0.1605 -0.3654 -0.3627
 1280SOL    HW215303   1.593   0.255   6.590  0.8533  0.9168 -0.4866
 1281SOL     OW15304   1.827   1.511  16.218 -0.1953  0.3881  0.1353
 1281SOL    HW115305   1.912   1.543  16.247 -0.1637  1.0545 -0.7049
 1281SOL    HW215306   1.852   1.440  16.158  0.5176 -1.6464  2.8450
 1282SOL     OW15307   3.343   1.938   1.816 -0.6266 -0.1052 -0.0861
 1282SOL    HW115308   3.372   2.019   1.857  2.3696 -1.4163  0.3845
 1282SOL    HW215309   3.249   1.951   1.826 -0.5445  0.9553 -0.7774
 1283SOL     OW15310   3.828   0.846  11.271 -0.4719  0.0943  0.0014
 1283SOL    HW115311   3.866   0.934  11.275 -0.1278  0.0789 -2.7675
 1283SOL    HW215312   3.862   0.818  11.356 -1.1406  0.4539  0.3843
 1284SOL     OW15313   3.464   3.157  11.327  0.7844 -0.3974 -0.2368
 1284SOL    HW115314   3.375   3.152  11.294  0.6651  1.1860 -0.1763
 1284SOL    HW215315   3.517   3.205  11.264  0.0671  2.1321  1.0837
 1285SOL     OW15316   2.719   3.086   7.727 -0.0203 -0.6532  0.6573
 1285SOL    HW115317   2.757   3.034   7.656  0.3118 -2.3000  2.0580
 1285SOL    HW215318   2.714   3.171   7.683 -2.5086 -0.2805  1.6590
 1286SOL     OW15319   4.697   2.935  15.953  0.1361 -0.5069  0.3679
 1286SOL    HW115320   0.037   2.983  16.006  0.3188  0.1662 -0.4538
 1286SOL    HW215321   4.611   2.975  15.968  1.7313  3.2192 -0.2097
 1287SOL     OW15322   0.242   2.869   4.536  0.7462 -0.8061 -0.1566
 1287SOL    HW115323   0.199   2.830   4.460 -0.2697 -0.7643  0.3982
 1287SOL    HW215324   0.265   2.960   4.515 -0.9915 -0.2031  0.4979
 1288SOL     OW15325   2.239   1.460  15.788  0.2654  0.4495 -0.1302
 1288SOL    HW115326   2.244   1.512  15.708  0.2011  2.6490  1.3057
 1288SOL    HW215327   2.179   1.394  15.756 -0.5747 -0.2907  2.9638
 1289SOL     OW15328   2.238   2.332   4.909  0.3960  0.6353  0.2594
 1289SOL    HW115329   2.263   2.259   4.965 -1.5491  0.2410  0.6359
 1289SOL    HW215330   2.160   2.294   4.869  0.9739 -0.3591  0.1047
 1290SOL     OW15331   1.435   0.102   4.425  0.4871  0.2371 -0.3930
 1290SOL    HW115332   1.378   0.133   4.495  1.0485  0.5815 -0.0860
 1290SOL    HW215333   1.470   0.179   4.381  1.6616  0.1652  0.4056
 1291SOL     OW15334   1.398   1.804  13.520 -0.5373  0.1451 -0.2895
 1291SOL    HW115335   1.314   1.836  13.486 -0.2121  0.8967 -0.3892
 1291SOL    HW215336   1.445   1.778  13.441 -0.0406  2.7313 -0.8473
 1292SOL     OW15337   1.192   3.759  16.443 -0.0084 -0.4171 -0.0357
 1292SOL    HW115338   1.258   3.798  16.501 -0.7280  2.3715 -1.1090
 1292SOL    HW215339   1.178   3.837  16.389  2.3225 -1.1097 -1.6292
 1293SOL     OW15340   2.002   3.216   1.844  0.3192 -0.9038 -0.0007
 1293SOL    HW115341   2.087   3.255   1.865 -1.3529  0.9724  3.1926
 1293SOL    HW215342   1.943   3.276   1.890  1.3306  0.8854 -1.0443
 1294SOL     OW15343   4.254   0.769   8.499  0.1718 -0.0932 -0.1854
 1294SOL    HW115344   4.319   0.827   8.539  1.4615 -0.3902 -1.8848
 1294SOL    HW215345   4.270   0.684   8.540  0.5800  0.2114  0.2938
 1295SOL     OW15346   3.978   3.398   9.946 -0.1968  0.8509  0.1578
 1295SOL    HW115347   3.998   3.400  10.040 -0.4462  1.0399  0.2106
 1295SOL    HW215348   3.986   3.308   9.916  3.0260  1.7370 -1.5724
 1296SOL     OW15349   1.448   4.663  11.203 -0.3652 -0.5733  0.4097
 1296SOL    HW115350   1.496   4.593  11.249  2.7350  1.6452  0.5676
 1296SOL    HW215351   1.360   4.639  11.232 -0.5247 -0.9717 -0.3863
 1297SOL     OW15352   3.799   1.840  11.315 -0.3321 -0.0657  0.0601
 1297SOL    HW115353   3.709   1.829  11.283  0.5610 -2.7809 -1.5226
 1297SOL    HW215354   3.849   1.872  11.241 -0.2405  0.3622  0.3064
 1298SOL     OW15355   2.806   2.217  13.419 -0.1806 -0.4622 -0.0179
 1298SOL    HW115356   2.788   2.279  13.348 -0.3939 -1.6119 -0.9730
 1298SOL    HW215357   2.722   2.203  13.463 -0.6185 -2.8797 -1.6537
 1299SOL     OW15358   3.954   0.616   5.208  0.3361 -0.2355 -0.5629
 1299SOL    HW115359   3.905   0.685   5.163 -1.6114 -0.2956  1.4195
 1299SOL    HW215360   4.037   0.655   5.232 -0.4319 -0.0872  1.8629
 1300SOL     OW15361   1.864   2.055   9.326 -0.1699  0.3576  0.1068
 1300SOL    HW115362   1.780   2.011   9.333  0.9659 -1.4509  2.5849
 1300SOL    HW215363   1.838   2.145   9.308 -0.3154  0.4213  0.6171
 1301SOL     OW15364   2.112   2.964   1.193  0.0494 -0.2415 -0.2893
 1301SOL    HW115365   2.188   3.022   1.180 -0.4702  0.1947 -1.3691
 1301SOL    HW215366   2.046   3.030   1.215  1.3679  1.6752 -2.0153
 1302SOL     OW15367   3.556   0.743   9.312  0.4754 -0.4564  0.2829
 1302SOL    HW115368   3.527   0.711   9.398  0.4300  0.3284  0.5548
 1302SOL    HW215369   3.591   0.658   9.283  1.9318 -0.6990  2.7784
 1303SOL     OW15370   1.329   1.509   2.504  0.1121  0.3741 -0.2380
 1303SOL    HW115371   1.284   1.425   2.496  2.9567 -1.0965 -0.5992
 1303SOL    HW215372   1.417   1.480   2.527  0.0892  0.0482 -0.5738
 1304SOL     OW15373   2.022   3.506  10.132  0.0391  0.3139  0.4317
 1304SOL    HW115374   2.059   3.594  10.121 -0.8522  0.6539  0.1876
 1304SOL    HW215375   2.058   3.472  10.050  0.1823  0.1798  0.5504
 1305SOL     OW15376   2.668   4.124   3.790 -0.1714  0.3228  0.2443
 1305SOL    HW115377   2.686   4.067   3.865  0.2476  1.0868  0.7143
 1305SOL    HW215378   2.757   4.128   3.757 -0.4440  2.0966 -0.2485
 1306SOL     OW15379   2.949   1.377   6.163  0.4609  0.3948 -0.6716
 1306SOL    HW115380   2.900   1.449   6.124  1.4420  1.7974  0.6806
 1306SOL    HW215381   2.877   1.340   6.214  0.7241 -0.9235 -1.2599
 1307SOL     OW15382   2.878   2.206   9.089 -0.7406 -0.2193  0.4900
 1307SOL    HW115383   2.784   2.193   9.098 -0.5948 -0.1469  1.9957
 1307SOL    HW215384   2.911   2.118   9.105  0.8563 -0.1782 -2.4564
 1308SOL     OW15385   2.704   3.412  10.830 -0.0259  0.7471  0.0636
 1308SOL    HW115386   2.658   3.331  10.806 -1.9745  2.4162 -1.8017
 1308SOL    HW215387   2.627   3.468  10.837  1.1071  2.0781  2.0984
 1309SOL     OW15388   0.925   0.312  14.397 -0.8720  0.4814 -0.5113
 1309SOL    HW115389   1.007   0.266  14.385 -1.2968 -0.6977  1.1783
 1309SOL    HW215390   0.940   0.400  14.362 -1.2930  1.2834  1.3557
 1310SOL     OW15391   2.938   0.932   5.394  0.0523 -0.2279  0.0018
 1310SOL    HW115392   2.912   0.915   5.484  1.8935 -0.0369  0.5783
 1310SOL    HW215393   2.932   1.027   5.399  0.6145 -0.0301 -3.0936
 1311SOL     OW15394   3.371   3.497  14.509 -0.3269 -0.2523 -0.3164
 1311SOL    HW115395   3.337   3.482  14.597  0.2974  1.1525  0.1661
 1311SOL    HW215396   3.296   3.520  14.453  0.1832 -0.6395 -1.1534
 1312SOL     OW15397   2.746   3.639  12.617 -0.0901  0.1707  0.2838
 1312SOL    HW115398   2.819   3.678  12.569  0.1723 -1.0013 -0.2967
 1312SOL    HW215399   2.748   3.699  12.691 -0.5595  0.2261  0.2488
 1313SOL     OW15400   0.504   2.945   3.282 -0.1907 -0.0894  0.6292
 1313SOL    HW115401   0.413   2.966   3.305  0.5923  2.3554  1.5031
 1313SOL    HW215402   0.508   2.945   3.187 -0.0972 -1.2949  0.6306
 1314SOL     OW15403   1.475   2.435   6.056  0.0909  0.0406 -0.2251
 1314SOL    HW115404   1.538   2.502   6.031  1.1676 -1.6549 -2.0944
 1314SOL    HW215405   1.394   2.482   6.036  0.7304  1.7548  1.2024
 1315SOL     OW15406   1.647   2.420   4.876 -0.1092  0.4295  0.3823
 1315SOL    HW115407   1.580   2.390   4.937 -0.3862 -1.4526 -0.8854
 1315SOL    HW215408   1.602   2.416   4.792  0.4630  0.2274  0.0877
 1316SOL     OW15409   0.190   0.910   1.847 -0.3664 -0.0153  0.3277
 1316SOL    HW115410   0.156   0.825   1.819 -1.8476  0.9034 -0.6843
 1316SOL    HW215411   0.224   0.936   1.761 -1.2239 -0.6108 -0.1933
 1317SOL     OW15412   1.204   3.763   9.359  0.6854  0.2386  0.0434
 1317SOL    HW115413   1.299   3.756   9.365  0.8613 -0.1188 -3.1627
 1317SOL    HW215414   1.198   3.683   9.307 -0.1184 -1.1959  2.3615
 1318SOL     OW15415   3.037   2.988   6.946  0.1032 -0.2108 -0.0387
 1318SOL    HW115416   3.021   2.924   7.015 -0.0978 -0.0014  0.1080
 1318SOL    HW215417   3.115   3.030   6.983  0.6984  0.6054 -2.1959
 1319SOL     OW15418   0.229   0.614   0.537  0.3416  0.1475  0.2622
 1319SOL    HW115419   0.166   0.685   0.546 -2.3870 -2.1095 -1.0637
 1319SOL    HW215420   0.178   0.540   0.504 -0.3645  1.1598 -0.9337
 1320SOL     OW15421   4.363   4.720   1.360 -0.0890 -0.1344  0.4459
 1320SOL    HW115422   4.279   0.025   1.395  0.9090 -0.3113  3.0121
 1320SOL    HW215423   4.422   0.073   1.355  0.8724 -0.9150 -0.1830
 1321SOL     OW15424   4.122   3.083   7.732  0.3622  0.6346  0.2471
 1321SOL    HW115425   4.168   3.167   7.726  1.2118  0.2152  0.8734
 1321SOL    HW215426   4.057   3.103   7.799 -0.1965 -2.4815  0.6663
 1322SOL     OW15427   3.111   2.020  15.542 -0.8382 -0.2647  0.5450
 1322SOL    HW115428   3.020   2.006  15.518 -0.7140 -1.0006  0.4859
 1322SOL    HW215429   3.142   1.933  15.516 -0.9908  0.2368 -1.2901
 1323SOL     OW15430   0.787   2.756   1.931 -0.6378 -0.3063 -0.1368
 1323SOL    HW115431   0.853   2.689   1.949  1.3876  1.6602 -0.3102
 1323SOL    HW215432   0.744   2.716   1.856  1.0962 -1.3325 -0.5804
 1324SOL     OW15433   0.573   4.417  13.572  0.2515  0.3453 -0.0768
 1324SOL    HW115434   0.509   4.455  13.633 -1.6677 -0.0401 -1.8289
 1324SOL    HW215435   0.591   4.338  13.623  0.4871  0.4964  0.0747
 1325SOL     OW15436   3.110   4.541   9.074 -0.1237  0.7055  0.5834
 1325SOL    HW115437   3.017   4.530   9.057  0.1649  0.5153 -0.9341
 1325SOL    HW215438   3.118   4.476   9.143 -1.8804  0.6711  0.7476
 1326SOL     OW15439   3.734   1.574  14.619 -0.1365 -0.5573  0.4839
 1326SOL    HW115440   3.666   1.612  14.563  0.8764 -0.8212 -0.9287
 1326SOL    HW215441   3.727   1.483  14.592 -0.0383 -0.0569 -1.2391
 1327SOL     OW15442   2.080   0.076   4.935 -0.1968 -0.6251 -0.1452
 1327SOL    HW115443   2.054   0.050   5.024  1.1460 -1.9560 -0.1462
 1327SOL    HW215444   2.173   0.100   4.943  0.6790 -4.0901 -0.0267
 1328SOL     OW15445   0.946   2.009  14.935  0.0770  0.2995  0.2186
 1328SOL    HW115446   0.899   1.931  14.966 -1.5024  0.7868 -0.9427
 1328SOL    HW215447   1.016   1.965  14.887  0.6629  1.4112  0.0527
 1329SOL     OW15448   1.046   1.483  16.726 -0.2086  1.1351 -0.1274
 1329SOL    HW115449   1.135   1.511  16.703  0.2917  0.5609  1.1212
 1329SOL    HW215450   1.022   1.416  16.661  0.2061  0.6157  0.2507
 1330SOL     OW15451   2.132   0.333   6.440  0.7482 -0.6571 -0.3750
 1330SOL    HW115452   2.097   0.286   6.363 -0.9570 -0.7939  0.4887
 1330SOL    HW215453   2.161   0.266   6.502  1.3703  1.5218  1.7039
 1331SOL     OW15454   3.963   1.325   6.276 -0.5511 -0.2402  0.4014
 1331SOL    HW115455   3.954   1.230   6.285 -0.1623 -0.2344  0.8692
 1331SOL    HW215456   3.899   1.351   6.342 -1.3868  1.6924 -1.1768
 1332SOL     OW15457   3.850   0.946   6.726 -0.2720 -0.6091 -0.0523
 1332SOL    HW115458   3.782   0.878   6.730  0.4350 -1.4990 -2.8376
 1332SOL    HW215459   3.824   0.999   6.801 -0.7397 -2.0111  0.7691
 1333SOL     OW15460   1.766   1.183   4.017  0.2152  0.4253  0.1381
 1333SOL    HW115461   1.847   1.201   3.968 -0.3239  0.1744 -0.8440
 1333SOL    HW215462   1.702   1.174   3.947  0.6973  1.3387 -0.4293
 1334SOL     OW15463   2.319   1.160   7.230  0.0732  0.3683 -0.3838
 1334SOL    HW115464   2.359   1.243   7.204 -0.1272  0.3521 -0.7480
 1334SOL    HW215465   2.255   1.143   7.161 -0.2376 -1.4488  0.3373
 1335SOL     OW15466   2.343   0.307  15.983 -0.0472 -0.1799 -0.3281
 1335SOL    HW115467   2.369   0.216  15.966 -2.0375 -1.0179  1.0991
 1335SOL    HW215468   2.404   0.355  15.927 -0.4473  0.0212 -0.5914
 1336SOL     OW15469   2.563   1.002   7.826 -0.1949  0.2612  0.8996
 1336SOL    HW115470   2.511   0.927   7.795  0.0074 -0.4444  2.2663
 1336SOL    HW215471   2.606   0.969   7.904  2.0433 -0.0237 -0.4404
 1337SOL     OW15472   1.119   4.671   9.472  0.2649  0.4154  0.3870
 1337SOL    HW115473   1.176   4.601   9.441  0.3040  0.2639  0.8087
 1337SOL    HW215474   1.034   4.642   9.437  0.2079  1.7591 -0.5865
 1338SOL     OW15475   0.912   3.980   4.797  0.6033  0.5558 -0.1367
 1338SOL    HW115476   0.868   4.001   4.715  1.3289  0.3580 -0.5779
 1338SOL    HW215477   0.896   3.886   4.810  0.3587  0.6271  0.0845
 1339SOL     OW15478   1.082   2.388   3.122  0.4372  0.1533 -0.0668
 1339SOL    HW115479   1.049   2.309   3.165  0.0663 -1.0807 -2.5769
 1339SOL    HW215480   1.051   2.463   3.171 -1.8496 -0.9860  0.2489
 1340SOL     OW15481   0.076   3.735   5.503 -0.7299  0.0831  0.4511
 1340SOL    HW115482   0.135   3.678   5.455  1.5906  1.6434  1.4615
 1340SOL    HW215483   0.144   3.794   5.536  0.0215 -0.9261  0.6882
 1341SOL     OW15484   1.980   2.287   6.354  0.5413  0.3568  0.3154
 1341SOL    HW115485   1.963   2.194   6.341 -0.6231  1.0473 -3.2641
 1341SOL    HW215486   1.962   2.309   6.262  0.3347  0.5286  0.3982
 1342SOL     OW15487   0.397   1.400   2.604  0.0157  0.1685 -0.5472
 1342SOL    HW115488   0.414   1.445   2.521  0.4737 -1.0779 -1.1170
 1342SOL    HW215489   0.471   1.340   2.598 -0.7365 -1.0303  1.9827
 1343SOL     OW15490   3.120   0.223   9.114 -0.3259 -0.1772  0.3767
 1343SOL    HW115491   3.163   0.301   9.147 -0.2703  0.9851 -2.4124
 1343SOL    HW215492   3.048   0.258   9.061 -0.1593 -0.0438  0.2379
 1344SOL     OW15493   2.889   2.717   6.480 -0.6324  0.3659  0.0689
 1344SOL    HW115494   2.834   2.772   6.425  1.5465  2.2916 -0.1269
 1344SOL    HW215495   2.969   2.714   6.429 -0.4697 -0.1729  0.3532
 1345SOL     OW15496   3.923   1.892  14.927  0.3992 -0.0934  0.0852
 1345SOL    HW115497   3.841   1.927  14.893 -0.0511  1.1997  2.4631
 1345SOL    HW215498   3.980   1.967  14.911  0.5718  0.2094  2.1223
 1346SOL     OW15499   4.549   0.515   7.463 -0.1834 -0.7652  0.3752
 1346SOL    HW115500   4.554   0.508   7.559  1.1965  0.0145  0.3590
 1346SOL    HW215501   4.456   0.517   7.441  0.4541  1.5885 -2.0943
 1347SOL     OW15502   0.008   0.858   5.391 -0.7740 -0.6201 -0.0293
 1347SOL    HW115503   0.091   0.835   5.348 -1.3008 -1.6352 -0.4967
 1347SOL    HW215504   0.046   0.884   5.475  0.3295 -1.0334 -0.3936
 1348SOL     OW15505   2.425   2.356   8.261  0.0112  0.4514 -0.1969
 1348SOL    HW115506   2.425   2.275   8.313  1.8227 -0.1164 -1.0520
 1348SOL    HW215507   2.378   2.324   8.184  1.6442 -0.2889 -0.8780
 1349SOL     OW15508   2.378   3.075   5.190 -0.0151 -0.5474  0.1040
 1349SOL    HW115509   2.299   3.107   5.148  0.4597 -0.4624 -0.7146
 1349SOL    HW215510   2.444   3.110   5.131 -0.1697 -0.4799 -0.0270
 1350SOL     OW15511   0.698   3.315  11.631  0.1542  0.1090  0.2469
 1350SOL    HW115512   0.650   3.386  11.589 -0.8536 -1.9404 -2.0761
 1350SOL    HW215513   0.777   3.365  11.654  1.8962 -2.7119  0.4301
 1351SOL     OW15514   1.109   2.691  13.082  0.0005  0.0015  0.3093
 1351SOL    HW115515   1.101   2.596  13.080 -3.0452  0.2419  1.3536
 1351SOL    HW215516   1.117   2.715  12.990  0.5117 -0.7160  0.1683
 1352SOL     OW15517   2.811   0.385   5.445 -0.7815 -0.0807  0.2875
 1352SOL    HW115518   2.905   0.376   5.461 -0.8105 -0.9784 -0.0238
 1352SOL    HW215519   2.798   0.479   5.448  0.3749  0.1321 -1.1831
 1353SOL     OW15520   4.660   1.429  14.701 -0.3470 -0.2695  0.7013
 1353SOL    HW115521   4.612   1.502  14.661 -0.8631 -0.6342  0.6561
 1353SOL    HW215522   4.677   1.466  14.788  1.2171  2.1884 -0.6689
 1354SOL     OW15523   1.627   1.443   1.362 -0.4748  0.2431  0.0464
 1354SOL    HW115524   1.686   1.435   1.287 -0.0621 -1.4845  0.5588
 1354SOL    HW215525   1.628   1.538   1.380 -0.0891 -0.0186  1.4225
 1355SOL     OW15526   3.069   0.364   2.136  0.7146 -0.0666  0.2784
 1355SOL    HW115527   3.149   0.355   2.187  1.5074  0.1944 -0.9206
 1355SOL    HW215528   3.094   0.434   2.076 -1.0946  0.6318  0.3298
 1356SOL     OW15529   0.781   1.412   6.583  0.0930 -0.2568 -0.1986
 1356SOL    HW115530   0.772   1.336   6.526 -0.2243 -0.0284 -0.4558
 1356SOL    HW215531   0.690   1.437   6.599  0.5375  1.5697 -0.5401
 1357SOL     OW15532   3.376   3.558   9.160 -0.2797  0.0099  0.1491
 1357SOL    HW115533   3.453   3.563   9.216  0.0882 -1.8286 -0.2042
 1357SOL    HW215534   3.378   3.648   9.128  0.5217 -1.2384 -3.2974
 1358SOL     OW15535   2.859   4.039   7.090 -0.0626  0.0688 -0.0157
 1358SOL    HW115536   2.879   4.123   7.133  0.4422 -1.3342  2.4541
 1358SOL    HW215537   2.916   3.986   7.145 -0.7720 -1.1861 -0.4938
 1359SOL     OW15538   2.558   2.566   0.217  0.3682  0.3261 -0.3776
 1359SOL    HW115539   2.610   2.583   0.139  0.9990  1.3690  0.2754
 1359SOL    HW215540   2.475   2.577   0.170 -0.6498 -1.4113  1.0185
 1360SOL     OW15541   2.548   4.595   3.980  0.4519 -0.1556 -0.4314
 1360SOL    HW115542   2.560   4.502   3.962 -1.1732 -0.8074  1.7897
 1360SOL    HW215543   2.560   4.617   3.888  2.1740 -0.7129 -0.3456
 1361SOL     OW15544   1.452   1.896   4.054 -0.4049  0.1600 -0.1439
 1361SOL    HW115545   1.508   1.939   3.990 -1.7189 -0.3895 -1.6595
 1361SOL    HW215546   1.383   1.962   4.062 -2.0097 -1.5265 -0.2450
 1362SOL     OW15547   0.731   4.692  16.268 -0.2589 -0.1501  0.2373
 1362SOL    HW115548   0.801   4.721  16.327 -0.1999  0.0503  0.0698
 1362SOL    HW215549   0.791   4.654  16.205  0.3546 -0.7502  1.1805
 1363SOL     OW15550   3.564   2.727   9.565 -0.2455  0.1786 -0.4086
 1363SOL    HW115551   3.468   2.728   9.570 -0.2480 -0.1035 -0.3696
 1363SOL    HW215552   3.591   2.741   9.656  2.0223  1.1661 -1.2446
 1364SOL     OW15553   2.335   3.815   8.882 -0.1305 -0.0908  0.5635
 1364SOL    HW115554   2.262   3.863   8.842  0.0728  0.2805  0.6439
 1364SOL    HW215555   2.288   3.735   8.906 -0.5040 -0.5993 -1.8384
 1365SOL     OW15556   0.837   4.539  11.231  0.4906  0.1870 -0.8015
 1365SOL    HW115557   0.831   4.607  11.164 -0.0708  0.5231 -0.4140
 1365SOL    HW215558   0.768   4.570  11.291  0.3418 -0.5806 -0.5802
 1366SOL     OW15559   3.313   4.593   5.963  0.0617 -0.2812  0.0328
 1366SOL    HW115560   3.359   4.509   5.960  1.9228  0.8094 -1.8416
 1366SOL    HW215561   3.278   4.588   5.874 -0.7559  1.2641  0.2632
 1367SOL     OW15562   2.084   4.208   2.342 -0.2119  0.0518  0.2663
 1367SOL    HW115563   2.055   4.146   2.409 -3.1486 -0.2539 -1.2893
 1367SOL    HW215564   1.998   4.238   2.313  0.5866  1.9812 -0.0647
 1368SOL     OW15565   0.262   1.228   7.588 -0.0657  0.1838 -0.3110
 1368SOL    HW115566   0.302   1.180   7.515  1.1912 -0.6618  0.9555
 1368SOL    HW215567   0.332   1.285   7.619 -1.6781  0.9473  1.9107
 1369SOL     OW15568   0.398   1.468   6.978  0.2402  0.2415  0.2244
 1369SOL    HW115569   0.309   1.454   6.945  0.4939 -1.3612  0.2258
 1369SOL    HW215570   0.397   1.403   7.048 -0.5828  0.0397  0.0270
 1370SOL     OW15571   4.102   2.053   6.841  0.4077 -0.1671  0.2714
 1370SOL    HW115572   4.142   1.973   6.807 -1.2682 -0.3361 -1.3269
 1370SOL    HW215573   4.153   2.053   6.922  0.5526 -0.5420  0.1829
 1371SOL     OW15574   2.920   2.829   7.165 -0.3738 -0.1815 -0.1266
 1371SOL    HW115575   2.828   2.809   7.147 -0.2159  0.1108 -1.2876
 1371SOL    HW215576   2.915   2.916   7.205  0.9952  0.7806 -2.0220
 1372SOL     OW15577   2.347   2.187   0.635  0.3066  0.2560  0.9336
 1372SOL    HW115578   2.269   2.237   0.657 -1.3083 -0.8751 -2.1932
 1372SOL    HW215579   2.420   2.210   0.693  0.8491 -0.7852  0.6735
 1373SOL     OW15580   3.548   2.204   2.705 -0.2048  0.1346 -0.0205
 1373SOL    HW115581   3.496   2.235   2.630 -1.1535 -1.8419 -0.1758
 1373SOL    HW215582   3.596   2.127   2.676  1.0694  0.3880  1.4449
 1374SOL     OW15583   0.993   3.383   6.434 -0.3563 -0.5268  0.0373
 1374SOL    HW115584   0.947   3.307   6.400 -1.1094 -1.2113  2.5955
 1374SOL    HW215585   0.975   3.389   6.528 -2.1807  0.2171 -0.3581
 1375SOL     OW15586   2.551   1.594   2.502 -0.2523 -0.6942  0.0512
 1375SOL    HW115587   2.633   1.605   2.453  1.1584  2.2809  3.0430
 1375SOL    HW215588   2.495   1.667   2.476 -0.0244 -0.9262 -1.0592
 1376SOL     OW15589   0.310   0.017   2.117  0.1112  0.1224  0.0271
 1376SOL    HW115590   0.352   0.057   2.041  0.9252 -1.0996 -0.1758
 1376SOL    HW215591   0.303   4.649   2.086 -1.4998  0.5874 -0.9636
 1377SOL     OW15592   2.224   0.279   4.712  0.3629  0.4719 -0.3540
 1377SOL    HW115593   2.273   0.229   4.777  0.1856  1.4230  0.5084
 1377SOL    HW215594   2.229   0.366   4.752 -1.4899  0.0583  0.7831
 1378SOL     OW15595   2.729   3.990  14.791 -0.1414  0.1185 -0.3528
 1378SOL    HW115596   2.771   4.076  14.780 -0.2767  0.4358  1.6352
 1378SOL    HW215597   2.759   3.938  14.717 -1.2274 -0.4104 -0.4148
 1379SOL     OW15598   0.567   3.811   6.280  0.5213  0.0075  0.0858
 1379SOL    HW115599   0.595   3.902   6.286  0.6879 -0.1853  2.1834
 1379SOL    HW215600   0.651   3.767   6.296  0.3249 -0.0521  0.9423
 1380SOL     OW15601   4.695   3.449   2.408 -0.6173  0.2827 -0.3895
 1380SOL    HW115602   4.677   3.492   2.491 -1.1291  0.8170 -0.7790
 1380SOL    HW215603   4.618   3.463   2.352 -1.1360 -0.7819  0.0692
 1381SOL     OW15604   4.626   1.175   6.632 -0.3308  0.3043  0.3825
 1381SOL    HW115605   4.674   1.141   6.708  1.3437 -0.2629 -0.9122
 1381SOL    HW215606   4.535   1.166   6.660  0.0489 -0.0746  1.4968
 1382SOL     OW15607   2.062   2.300   9.402 -0.1842 -0.4603  0.0251
 1382SOL    HW115608   1.974   2.328   9.377  0.9790 -0.4469 -4.0116
 1382SOL    HW215609   2.120   2.302   9.326  0.7186 -2.2525  0.6511
 1383SOL     OW15610   4.179   4.432   2.681  0.0023 -0.1060  0.0419
 1383SOL    HW115611   4.121   4.480   2.622  0.3890  0.7411  0.3501
 1383SOL    HW215612   4.201   4.504   2.740 -3.7256  0.9360  0.1399
 1384SOL     OW15613   2.870   3.505   1.161  0.1018  0.0004 -0.4409
 1384SOL    HW115614   2.799   3.444   1.181 -0.1050  0.0766 -0.9452
 1384SOL    HW215615   2.936   3.439   1.140  1.9484  1.8550 -0.4389
 1385SOL     OW15616   4.718   0.313   5.680 -0.0800 -0.3843  0.3721
 1385SOL    HW115617   0.057   0.313   5.753 -0.4195  1.0184  0.6608
 1385SOL    HW215618   0.054   0.300   5.605 -0.1066  1.8297 -0.0276
 1386SOL     OW15619   2.446   4.284   0.807 -0.1996 -0.2651 -0.7224
 1386SOL    HW115620   2.355   4.309   0.793 -0.7700 -1.2617  1.2407
 1386SOL    HW215621   2.446   4.205   0.753 -0.8317 -2.7204  2.9028
 1387SOL     OW15622   2.178   1.468   7.253 -0.4502  0.1162  0.0122
 1387SOL    HW115623   2.119   1.407   7.297  0.8218 -1.8549 -0.9779
 1387SOL    HW215624   2.144   1.485   7.165  0.3492 -0.5777 -0.4313
 1388SOL     OW15625   0.774   0.120   0.341 -0.1953  0.3174 -0.1150
 1388SOL    HW115626   0.794   0.211   0.359  2.2717 -0.5550  1.5147
 1388SOL    HW215627   0.850   0.070   0.312 -0.0219  0.2052  0.5359
 1389SOL     OW15628   0.067   2.842   4.298  0.5059 -0.1700  0.1114
 1389SOL    HW115629   4.698   2.867   4.282  0.5037 -0.3443 -0.1505
 1389SOL    HW215630   0.048   2.752   4.325 -0.9030 -0.2030 -0.9231
 1390SOL     OW15631   0.550   2.859   4.447  0.5196  0.3199 -0.2459
 1390SOL    HW115632   0.471   2.903   4.479  0.5123  1.0865 -1.2837
 1390SOL    HW215633   0.599   2.931   4.405 -0.9104  2.6507  2.0767
 1391SOL     OW15634   4.007   4.664  11.758 -0.1763  0.3142 -0.4316
 1391SOL    HW115635   4.063   4.640  11.832 -0.7687 -1.3754 -0.5306
 1391SOL    HW215636   3.975   4.576  11.737  1.4198 -0.5877  0.9456
 1392SOL     OW15637   2.367   1.075   1.770  0.5819 -0.1124 -0.6674
 1392SOL    HW115638   2.329   0.993   1.739 -0.6454  0.7235 -1.3596
 1392SOL    HW215639   2.422   1.096   1.694 -0.3198  3.1539 -0.4305
 1393SOL     OW15640   0.409   3.934  17.614  0.4584 -0.4820  0.4003
 1393SOL    HW115641   0.494   3.976  17.621  0.0858  0.0652  1.7255
 1393SOL    HW215642   0.436   3.849  17.581  0.7117  0.2804 -1.3175
 1394SOL     OW15643   3.122   2.000  10.695  0.0230  0.7868 -0.3364
 1394SOL    HW115644   3.189   2.067  10.680  0.7846  0.1744  0.3441
 1394SOL    HW215645   3.086   1.989  10.606  0.3310  0.6505 -0.4421
 1395SOL     OW15646   3.253   3.081   7.806  0.1802 -0.2628  0.3587
 1395SOL    HW115647   3.201   3.003   7.786  0.3536 -0.4041  0.4562
 1395SOL    HW215648   3.194   3.153   7.830  0.0441 -0.1699 -0.2446
 1396SOL     OW15649   0.574   2.111  13.522  0.0299  0.3101  0.7203
 1396SOL    HW115650   0.650   2.102  13.464 -0.8920 -2.1728 -0.0888
 1396SOL    HW215651   0.575   2.022  13.558 -1.2035  0.6723  1.6464
 1397SOL     OW15652   3.643   3.534  16.633 -0.4257 -0.3326 -0.1368
 1397SOL    HW115653   3.597   3.614  16.607  0.2898  0.1104 -0.0501
 1397SOL    HW215654   3.608   3.520  16.721 -2.2961  0.3377 -0.7792
 1398SOL     OW15655   4.213   2.214   4.077 -0.7400 -0.3909  0.0322
 1398SOL    HW115656   4.216   2.159   3.999  0.6576 -0.4752  0.1479
 1398SOL    HW215657   4.279   2.277   4.047 -0.8801 -0.1702  0.1918
 1399SOL     OW15658   3.972   3.688   7.075  0.8980 -0.0020 -0.0022
 1399SOL    HW115659   3.937   3.601   7.094 -1.8648  1.3989  1.3234
 1399SOL    HW215660   3.935   3.743   7.144  0.1751 -0.9690  0.3748
 1400SOL     OW15661   0.227   2.053   6.675  0.3807 -0.5729 -0.1648
 1400SOL    HW115662   0.174   2.132   6.674  0.5536 -0.4684 -0.9033
 1400SOL    HW215663   0.276   2.073   6.595 -2.1296  0.7985 -1.3727
 1401SOL     OW15664   1.276   3.875   1.497  0.5052 -0.0340  0.2799
 1401SOL    HW115665   1.322   3.791   1.497 -1.8197 -1.3073 -0.2237
 1401SOL    HW215666   1.325   3.912   1.570 -0.3086  0.2087  0.6953
 1402SOL     OW15667   2.517   4.353   7.496  0.0336 -0.0456 -0.4002
 1402SOL    HW115668   2.423   4.360   7.481  0.1057 -1.0873 -1.3194
 1402SOL    HW215669   2.527   4.258   7.489  0.3414 -0.0306 -0.1596
 1403SOL     OW15670   3.373   2.402   1.726 -0.0284 -0.1859 -0.1116
 1403SOL    HW115671   3.350   2.472   1.787  1.4620 -1.1778  1.6021
 1403SOL    HW215672   3.396   2.457   1.651  1.0520 -1.1996 -0.5324
 1404SOL     OW15673   3.958   4.502   3.137  0.1840 -0.4319 -0.3508
 1404SOL    HW115674   3.934   4.465   3.222 -3.1897  1.0202 -0.6749
 1404SOL    HW215675   3.992   4.424   3.093 -0.0723 -1.3980  1.1860
 1405SOL     OW15676   0.509   0.198   5.365 -0.2442 -0.1493 -0.1259
 1405SOL    HW115677   0.454   0.152   5.301 -0.8822 -0.7612  0.8530
 1405SOL    HW215678   0.511   0.134   5.436  1.6874 -0.4888 -0.5054
 1406SOL     OW15679   0.610   3.446   5.375 -0.0943  0.5338 -0.2967
 1406SOL    HW115680   0.695   3.427   5.335 -0.5580 -0.7005 -0.6904
 1406SOL    HW215681   0.618   3.541   5.382  3.2789  0.1664  1.0238
 1407SOL     OW15682   0.685   3.092  10.687  0.0439  0.4291  0.1729
 1407SOL    HW115683   0.668   3.003  10.656 -0.4044  1.0606 -1.4076
 1407SOL    HW215684   0.665   3.091  10.781 -0.2848 -0.4537  0.0902
 1408SOL     OW15685   1.173   4.277   0.636 -0.1901 -0.3605  0.1609
 1408SOL    HW115686   1.103   4.211   0.640 -0.2681 -0.2556  0.5264
 1408SOL    HW215687   1.250   4.229   0.605  0.0507 -0.3536  0.7541
 1409SOL     OW15688   3.442   1.964   1.117  0.4336 -0.1450 -0.1752
 1409SOL    HW115689   3.398   1.886   1.150 -2.9556  2.9420  2.6267
 1409SOL    HW215690   3.474   2.001   1.200  1.1227 -0.2182 -0.4051
 1410SOL     OW15691   4.089   0.468   9.298 -0.1357  0.0746 -0.5023
 1410SOL    HW115692   4.037   0.422   9.364  0.1227  0.1565 -0.2407
 1410SOL    HW215693   4.124   0.543   9.346 -1.0250 -1.1782  2.0719
 1411SOL     OW15694   1.933   0.894  10.800 -0.3259 -0.2018  0.0864
 1411SOL    HW115695   1.954   0.988  10.798  3.0400 -0.9878 -2.2060
 1411SOL    HW215696   1.906   0.884  10.891 -2.3046  0.5300 -0.4346
 1412SOL     OW15697   4.360   1.487   3.497  0.3200 -0.8322  0.3037
 1412SOL    HW115698   4.339   1.570   3.454  1.6108 -0.2143  0.8717
 1412SOL    HW215699   4.326   1.425   3.432 -0.9882  0.4272 -0.2141
 1413SOL     OW15700   1.879   3.443   0.723  0.9550  0.2845 -0.0450
 1413SOL    HW115701   1.855   3.454   0.815  0.4639  0.1433 -0.1550
 1413SOL    HW215702   1.888   3.348   0.713  1.4899  0.2834  0.4474
 1414SOL     OW15703   2.100   0.590  14.213 -0.4244 -0.2198  0.0062
 1414SOL    HW115704   2.099   0.685  14.212  0.6856 -0.2034  0.0859
 1414SOL    HW215705   2.137   0.573  14.126  2.2188 -3.3211  1.6895
 1415SOL     OW15706   3.685   3.545   1.626 -0.0750  0.2206  0.3456
 1415SOL    HW115707   3.694   3.457   1.664 -1.5318  0.2681  0.7552
 1415SOL    HW215708   3.626   3.522   1.555  0.2546  1.1715 -0.2397
 1416SOL     OW15709   2.328   3.007   9.900  0.3973  0.3470 -0.6297
 1416SOL    HW115710   2.320   3.060   9.821  0.5008  0.5391 -0.5111
 1416SOL    HW215711   2.259   2.942   9.884  1.5752 -1.3021  0.9709
 1417SOL     OW15712   3.906   0.978   7.912 -0.3638 -0.1962  0.2183
 1417SOL    HW115713   3.864   0.912   7.857  0.2391  0.6857 -1.3156
 1417SOL    HW215714   3.882   0.943   7.998  1.0348  2.1673  1.5685
 1418SOL     OW15715   3.626   2.328   6.447 -0.2640  0.2512  0.6052
 1418SOL    HW115716   3.586   2.389   6.386 -0.7042  0.3368  0.9818
 1418SOL    HW215717   3.565   2.334   6.520 -0.1724  0.6847  0.6443
 1419SOL     OW15718   0.320   0.680   6.873 -0.1387  0.1502  0.3308
 1419SOL    HW115719   0.381   0.682   6.947  1.8299 -2.5348 -1.1878
 1419SOL    HW215720   0.325   0.587   6.847 -0.2534  0.5447 -1.1200
 1420SOL     OW15721   4.598   2.993  11.436  0.3582  0.2404 -0.2202
 1420SOL    HW115722   4.641   2.910  11.416 -0.7028 -0.1108 -1.0320
 1420SOL    HW215723   4.672   3.054  11.443  2.2493 -2.1194  0.3838
 1421SOL     OW15724   0.684   4.198   9.162  0.1053  0.3339  0.6408
 1421SOL    HW115725   0.719   4.167   9.246 -1.2718 -1.8456  0.4002
 1421SOL    HW215726   0.599   4.154   9.157 -0.5515  1.5466  1.3900
 1422SOL     OW15727   3.707   1.965   9.406  0.1741  0.5570 -0.1373
 1422SOL    HW115728   3.642   1.954   9.336 -0.8714  0.5026  0.8381
 1422SOL    HW215729   3.665   2.033   9.459 -0.7014 -0.1491  0.0851
 1423SOL     OW15730   1.962   1.579   1.527  0.0364  0.6121 -0.3806
 1423SOL    HW115731   1.869   1.604   1.520  0.4966  2.1219 -1.0152
 1423SOL    HW215732   1.957   1.487   1.552 -1.7277  0.7552 -0.2045
 1424SOL     OW15733   1.162   4.137   9.257  0.0401 -0.1385  0.5397
 1424SOL    HW115734   1.115   4.110   9.336 -1.7255  1.0156 -0.1255
 1424SOL    HW215735   1.096   4.173   9.198  0.4131  1.0452  0.8436
 1425SOL     OW15736   1.680   0.749  11.869 -0.3178  0.4272  0.2775
 1425SOL    HW115737   1.773   0.747  11.846 -0.9676 -3.8054 -2.1151
 1425SOL    HW215738   1.640   0.721  11.786 -0.0159  0.7638  0.0172
 1426SOL     OW15739   4.196   1.333   2.790  0.4190  0.3279  0.5107
 1426SOL    HW115740   4.191   1.388   2.712 -0.6803 -0.9998 -0.3645
 1426SOL    HW215741   4.246   1.256   2.762 -0.1129  1.6213 -3.9178
 1427SOL     OW15742   2.774   0.236   5.672 -0.4360  0.0044 -0.3613
 1427SOL    HW115743   2.776   0.314   5.616 -1.5407 -0.2323 -0.7202
 1427SOL    HW215744   2.680   0.236   5.692 -0.0922  1.2245  1.3256
 1428SOL     OW15745   1.755   0.111   0.017 -0.2190  0.3878  0.4398
 1428SOL    HW115746   1.744   0.056   0.094  2.3428 -0.1498  0.4297
 1428SOL    HW215747   1.799   0.190   0.051 -1.7247  1.3851  0.0673
 1429SOL     OW15748   2.515   1.137  15.959  0.6997 -0.0091  0.3943
 1429SOL    HW115749   2.591   1.195  15.964 -0.1882  1.3214 -1.7379
 1429SOL    HW215750   2.503   1.117  15.866  1.2924  1.2675  0.0412
 1430SOL     OW15751   0.899   3.200   1.117 -0.1525  0.3272 -0.3279
 1430SOL    HW115752   0.916   3.292   1.098  1.2398  0.2344  0.4888
 1430SOL    HW215753   0.955   3.185   1.192  0.9859  1.0315 -1.0431
 1431SOL     OW15754   1.872   4.234  17.111 -0.3128  0.1374 -0.4276
 1431SOL    HW115755   1.847   4.319  17.077 -1.3541  0.0765  0.2045
 1431SOL    HW215756   1.937   4.212  17.044 -1.7230 -2.4247 -0.9671
 1432SOL     OW15757   2.076   1.202   4.317 -0.0584 -0.1424  0.6008
 1432SOL    HW115758   2.166   1.171   4.307  0.1411  0.9319 -0.9336
 1432SOL    HW215759   2.070   1.210   4.412 -0.8171  2.5738  0.3231
 1433SOL     OW15760   2.374   1.274   1.020 -0.8162  0.1741 -0.3391
 1433SOL    HW115761   2.427   1.352   1.003 -0.5446 -0.0144 -0.3483
 1433SOL    HW215762   2.423   1.210   0.969 -3.4906 -1.9747 -0.2053
 1434SOL     OW15763   0.468   3.117  11.004 -0.0162 -0.8754 -0.7716
 1434SOL    HW115764   0.418   3.186  11.047  0.0852  0.0816 -2.1931
 1434SOL    HW215765   0.411   3.045  11.031  1.5669  0.0207  4.8269
 1435SOL     OW15766   1.138   2.924  14.177 -0.3053 -0.3582  0.7918
 1435SOL    HW115767   1.216   2.970  14.147  0.2249 -1.4648  0.5139
 1435SOL    HW215768   1.145   2.925  14.273  2.6130  0.1828  0.5620
 1436SOL     OW15769   0.000   0.567   1.863 -0.6416 -0.1491 -0.3995
 1436SOL    HW115770   0.059   0.575   1.788 -1.8563 -1.8787 -1.5193
 1436SOL    HW215771   0.018   0.477   1.890  2.9195 -0.0830 -2.5343
 1437SOL     OW15772   0.651   2.795  13.341  0.0855 -0.4944  0.1393
 1437SOL    HW115773   0.712   2.764  13.274 -0.0935 -0.0093 -0.2491
 1437SOL    HW215774   0.653   2.736  13.416 -0.8287  1.8045  1.9409
 1438SOL     OW15775   0.056   3.456   2.078 -0.3487  0.1688 -0.8095
 1438SOL    HW115776   0.110   3.519   2.125 -0.2876  0.0749 -0.7532
 1438SOL    HW215777   0.082   3.371   2.114  0.3629  0.6848 -0.1257
 1439SOL     OW15778   3.807   4.103   1.105  0.0586  0.5948  0.0580
 1439SOL    HW115779   3.872   4.101   1.036 -0.5414  2.7736 -0.5850
 1439SOL    HW215780   3.844   4.036   1.163 -1.0538 -0.3506 -0.3212
 1440SOL     OW15781   3.556   0.037   7.709  0.0429 -0.3364 -0.1250
 1440SOL    HW115782   3.592   0.071   7.791  0.3410  0.3267 -0.5267
 1440SOL    HW215783   3.511   4.679   7.734  1.0062 -0.3922  1.4290
 1441SOL     OW15784   2.473   4.142   4.724  0.4607 -0.2384 -0.0195
 1441SOL    HW115785   2.427   4.225   4.739  0.1821 -0.0114 -2.1051
 1441SOL    HW215786   2.459   4.127   4.630  1.9422 -1.6013 -0.0295
 1442SOL     OW15787   2.090   3.630   8.360 -0.0302  0.1495  0.3919
 1442SOL    HW115788   2.181   3.625   8.388 -0.0298 -3.7718 -0.4184
 1442SOL    HW215789   2.054   3.699   8.416  0.7584 -0.8897  2.1831
 1443SOL     OW15790   1.729   2.454   5.150  0.4618 -0.1132  0.0218
 1443SOL    HW115791   1.753   2.471   5.059 -0.8721 -2.6663 -0.7994
 1443SOL    HW215792   1.713   2.360   5.139  0.7869 -0.0885 -0.6290
 1444SOL     OW15793   4.503   2.433   4.188 -0.2229  0.0372  0.1238
 1444SOL    HW115794   4.497   2.449   4.094  1.0287 -1.6105 -0.2354
 1444SOL    HW215795   4.560   2.357   4.200  0.1687  0.4286  0.7835
 1445SOL     OW15796   0.656   0.171   8.472  0.2016 -0.4040  0.0147
 1445SOL    HW115797   0.687   0.111   8.539  1.3849 -0.7884 -0.8748
 1445SOL    HW215798   0.590   0.220   8.521  0.7421  0.3525 -0.0059
 1446SOL     OW15799   3.224   0.294   7.359  0.2427 -0.7810  0.0061
 1446SOL    HW115800   3.301   0.300   7.416 -0.0048 -1.5677  0.4239
 1446SOL    HW215801   3.218   0.205   7.324 -2.3048  0.0402 -1.6571
 1447SOL     OW15802   0.144   1.681   3.851  0.4722 -0.3027  0.1882
 1447SOL    HW115803   0.158   1.750   3.916  0.4550  1.4082 -1.6008
 1447SOL    HW215804   0.103   1.734   3.782 -3.1509 -0.4172  2.2649
 1448SOL     OW15805   2.272   0.145   8.805 -0.4962 -0.2590 -0.6481
 1448SOL    HW115806   2.247   0.091   8.880 -1.6337  2.5660  1.0124
 1448SOL    HW215807   2.310   0.224   8.843 -0.0692 -2.0015  2.5491
 1449SOL     OW15808   4.344   3.713   5.702 -0.1800  0.0294 -0.4408
 1449SOL    HW115809   4.438   3.729   5.694 -0.3484  0.4627 -1.6162
 1449SOL    HW215810   4.339   3.647   5.772 -0.8987 -0.4362 -0.9296
 1450SOL     OW15811   0.880   2.595   6.855  0.6634  0.0463 -0.1340
 1450SOL    HW115812   0.948   2.633   6.800  0.4494  0.6800  0.0391
 1450SOL    HW215813   0.882   2.662   6.923  0.0276 -0.7236  0.6434
 1451SOL     OW15814   0.685   2.733   5.329  0.3657  0.5243  0.4953
 1451SOL    HW115815   0.611   2.790   5.345 -0.0589  0.0068  0.3899
 1451SOL    HW215816   0.668   2.671   5.400 -1.5906 -0.5185 -0.8612
 1452SOL     OW15817   0.597   2.453   9.324  0.1025 -0.3395  0.3384
 1452SOL    HW115818   0.632   2.514   9.388  2.5490 -1.5799  0.1528
 1452SOL    HW215819   0.581   2.516   9.254  2.3402 -0.4917 -0.2848
 1453SOL     OW15820   4.429   0.022   8.215  0.0109  0.6786 -0.4623
 1453SOL    HW115821   4.385   0.094   8.262 -0.8548 -1.3749  1.8853
 1453SOL    HW215822   4.409   0.063   8.131 -0.3949 -2.4991 -1.8874
 1454SOL     OW15823   0.738   4.618   6.027 -0.4943  0.1504  0.1648
 1454SOL    HW115824   0.699   4.564   6.095  3.1877  1.7522  3.5859
 1454SOL    HW215825   0.768   4.692   6.080 -0.0310  1.0826 -1.4091
 1455SOL     OW15826   4.382   3.378  13.360 -0.1669 -0.6732  0.1682
 1455SOL    HW115827   4.326   3.407  13.287  1.6913  0.0203 -0.9938
 1455SOL    HW215828   4.397   3.288  13.330 -0.0880 -0.7080  0.3134
 1456SOL     OW15829   4.071   1.413   9.144 -0.3471 -0.4243  0.3639
 1456SOL    HW115830   4.038   1.323   9.148 -1.2598 -0.0222  1.9062
 1456SOL    HW215831   4.164   1.396   9.158 -0.6321 -1.2279  1.2674
 1457SOL     OW15832   1.513   2.827   2.178 -0.4184 -0.2843 -0.8063
 1457SOL    HW115833   1.571   2.894   2.214 -0.6886 -0.3767 -0.1863
 1457SOL    HW215834   1.510   2.854   2.086  0.7915  1.0526 -0.4519
 1458SOL     OW15835   2.366   4.485  13.769  0.1454  0.1394  0.5199
 1458SOL    HW115836   2.357   4.557  13.831  0.0532 -0.7545  1.5544
 1458SOL    HW215837   2.454   4.496  13.733 -0.9252  1.9710 -1.5148
 1459SOL     OW15838   3.932   4.323  11.472  0.3943  0.3255  0.1048
 1459SOL    HW115839   3.902   4.326  11.563 -1.0292 -1.8223 -0.3013
 1459SOL    HW215840   3.923   4.231  11.446 -1.3180  0.5458 -0.0762
 1460SOL     OW15841   1.680   1.910   8.177 -0.1692 -0.2039  0.1412
 1460SOL    HW115842   1.609   1.849   8.161  0.3503 -1.3003  2.0046
 1460SOL    HW215843   1.681   1.915   8.273 -2.7578 -3.3790  0.3343
 1461SOL     OW15844   1.860   1.964   4.836 -0.4293  0.4879  0.1161
 1461SOL    HW115845   1.803   1.962   4.759 -2.2034  0.8074  1.4182
 1461SOL    HW215846   1.943   1.928   4.804 -0.9691 -0.4813 -0.2211
 1462SOL     OW15847   0.116   3.912  14.936 -0.0325  0.4973 -0.1552
 1462SOL    HW115848   0.071   3.829  14.922  1.3789 -0.3942  0.6090
 1462SOL    HW215849   0.184   3.916  14.869 -1.6474  0.4561 -1.7973
 1463SOL     OW15850   3.798   4.482  10.861  0.3097  0.2264  0.0045
 1463SOL    HW115851   3.837   4.433  10.933  2.6970 -0.3414 -1.6860
 1463SOL    HW215852   3.768   4.548  10.923  2.5469  0.4178  0.8889
 1464SOL     OW15853   4.689   3.875  17.056 -0.3186  0.1325 -0.3736
 1464SOL    HW115854   4.697   3.959  17.011  0.8369 -0.7182 -1.7594
 1464SOL    HW215855   0.034   3.893  17.121 -0.0232 -0.4908 -0.5023
 1465SOL     OW15856   3.870   1.805   9.250  0.4946 -0.3779 -0.0664
 1465SOL    HW115857   3.829   1.838   9.329  0.3680 -1.8257  0.4821
 1465SOL    HW215858   3.860   1.884   9.198  0.4837 -0.7023 -0.5639
 1466SOL     OW15859   4.714   1.766   5.277 -0.2010 -0.5572  0.5949
 1466SOL    HW115860   4.627   1.735   5.254 -0.4215  1.2341 -1.0333
 1466SOL    HW215861   0.019   1.713   5.351  1.6635 -0.2409  0.1352
 1467SOL     OW15862   0.042   0.421   7.357 -0.6910 -0.5166 -0.1126
 1467SOL    HW115863   0.087   0.479   7.297  1.7180 -0.2873  1.9068
 1467SOL    HW215864   4.685   0.462   7.388  0.1060 -0.6998  2.1735
 1468SOL     OW15865   1.838   1.734  12.361  0.0099 -0.2950  0.6755
 1468SOL    HW115866   1.900   1.698  12.424  0.3066 -1.8967 -0.5267
 1468SOL    HW215867   1.759   1.697  12.399 -3.1158  2.6605 -2.9028
 1469SOL     OW15868   1.088   0.852   8.733 -0.0287 -0.0747  0.2159
 1469SOL    HW115869   1.005   0.875   8.776 -0.8447 -2.1488 -0.2715
 1469SOL    HW215870   1.065   0.778   8.678  3.0119 -0.5830 -0.3761
 1470SOL     OW15871   4.201   3.485   7.274 -0.0758 -0.5018 -0.1495
 1470SOL    HW115872   4.246   3.490   7.358 -0.9755 -0.0664  0.3062
 1470SOL    HW215873   4.107   3.480   7.292  0.4364  0.7638  2.8508
 1471SOL     OW15874   1.740   4.307   4.307 -0.0146 -0.1968 -0.2591
 1471SOL    HW115875   1.738   4.211   4.309  1.4787 -0.2012  0.4286
 1471SOL    HW215876   1.751   4.323   4.213  0.4996  0.5937 -0.0620
 1472SOL     OW15877   0.428   3.128   1.611  0.3570 -0.3185  0.0393
 1472SOL    HW115878   0.518   3.144   1.581  0.3236 -0.4849 -0.1494
 1472SOL    HW215879   0.398   3.047   1.571  1.0443  0.6355 -2.4657
 1473SOL     OW15880   2.717   1.494   5.995  0.1695  0.1437  0.1684
 1473SOL    HW115881   2.783   1.522   5.931 -1.0068 -0.4798 -1.3366
 1473SOL    HW215882   2.630   1.500   5.955  0.2500  0.9368  0.1144
 1474SOL     OW15883   2.991   2.991   3.273 -0.1211 -0.0944  0.1250
 1474SOL    HW115884   3.060   3.056   3.289 -0.0707 -0.1866  0.2872
 1474SOL    HW215885   3.003   2.970   3.180  1.3275 -4.2171  1.2371
 1475SOL     OW15886   3.434   1.292   7.025 -0.4047  0.0208 -0.2823
 1475SOL    HW115887   3.419   1.355   6.955  0.8149 -0.4012 -0.9283
 1475SOL    HW215888   3.370   1.227   6.996  0.4083  0.6123 -3.3753
 1476SOL     OW15889   1.574   2.470   8.377 -0.3833  0.4520  0.2680
 1476SOL    HW115890   1.595   2.544   8.320  0.8204  0.3731  0.5982
 1476SOL    HW215891   1.481   2.484   8.392 -0.9207 -2.2057 -0.6420
 1477SOL     OW15892   2.228   3.123   2.190 -0.2380 -0.1895 -0.4232
 1477SOL    HW115893   2.278   3.093   2.114  0.0308  0.8995 -0.6817
 1477SOL    HW215894   2.241   3.217   2.198 -4.0002  0.1382  1.6559
 1478SOL     OW15895   0.499   2.576   2.785 -0.2675 -0.1273 -0.2664
 1478SOL    HW115896   0.496   2.672   2.780  1.8621  0.0284  1.7304
 1478SOL    HW215897   0.584   2.571   2.741  0.4243 -2.0173  1.2629
 1479SOL     OW15898   0.088   4.456   7.710  0.6043  0.1320  0.0463
 1479SOL    HW115899   0.110   4.380   7.763 -0.1495 -0.2456 -0.1845
 1479SOL    HW215900   0.078   4.516   7.784  1.8561  2.3361 -1.5782
 1480SOL     OW15901   3.922   0.393  12.352 -0.0613 -0.3720  0.1294
 1480SOL    HW115902   3.886   0.326  12.294 -2.1811 -1.3494  2.5850
 1480SOL    HW215903   3.971   0.456  12.298  0.8354 -1.3582 -0.2078
 1481SOL     OW15904   2.399   2.339   3.032  0.1807 -0.0397  0.3330
 1481SOL    HW115905   2.373   2.415   3.084 -0.8444  1.1229 -1.8807
 1481SOL    HW215906   2.491   2.321   3.049  0.5127  0.1544 -1.2451
 1482SOL     OW15907   0.980   3.816   0.755  0.4757  0.0183  1.1163
 1482SOL    HW115908   0.888   3.796   0.773 -0.1054  1.0157 -0.7731
 1482SOL    HW215909   1.016   3.837   0.841  0.9028  0.7799  0.7558
 1483SOL     OW15910   1.728   3.731  10.348  0.1418  0.4512  0.2761
 1483SOL    HW115911   1.663   3.671  10.312 -0.2059  0.2837  1.1777
 1483SOL    HW215912   1.700   3.819  10.323 -2.0250 -0.2268  0.3193
 1484SOL     OW15913   2.959   2.575   7.333 -0.4512  0.1001 -0.2690
 1484SOL    HW115914   2.887   2.561   7.394 -1.1009  0.7945 -0.8752
 1484SOL    HW215915   2.943   2.663   7.298  1.3244 -0.2492 -1.9681
 1485SOL     OW15916   2.145   1.980   7.265  0.4341 -0.8840  0.0393
 1485SOL    HW115917   2.077   2.041   7.294  2.3433  1.9068 -1.3947
 1485SOL    HW215918   2.139   1.909   7.329  1.0567 -0.5400  0.4763
 1486SOL     OW15919   1.953   0.803   6.563 -0.3974  0.4411 -0.3101
 1486SOL    HW115920   1.935   0.845   6.647  1.7838 -0.4935  0.6069
 1486SOL    HW215921   1.962   0.710   6.582 -0.1279  0.5448  0.0553
 1487SOL     OW15922   2.809   2.385   7.760  0.0862 -1.2699 -0.4531
 1487SOL    HW115923   2.769   2.298   7.759 -1.0683 -0.7369 -0.1788
 1487SOL    HW215924   2.782   2.421   7.675  0.8059 -0.0494 -0.1594
 1488SOL     OW15925   0.069   3.925   4.480 -0.1174  0.2764  0.0534
 1488SOL    HW115926   4.715   3.982   4.476 -0.6337 -0.4128 -0.0119
 1488SOL    HW215927   0.031   3.841   4.451  0.9065  0.4146 -1.6661
 1489SOL     OW15928   2.730   2.007   8.789  0.0296  0.0740 -0.2800
 1489SOL    HW115929   2.687   1.930   8.827 -0.7718  0.6405 -0.0613
 1489SOL    HW215930   2.679   2.078   8.828 -0.8079 -0.5229 -0.2848
 1490SOL     OW15931   0.023   2.566   7.571 -0.4648 -0.0411 -0.2176
 1490SOL    HW115932   4.704   2.638   7.525 -1.2867 -0.6876 -0.5030
 1490SOL    HW215933   4.701   2.550   7.654 -3.1570  0.8100 -1.5205
 1491SOL     OW15934   4.665   2.757   3.101  0.5947  0.0182  0.2890
 1491SOL    HW115935   4.655   2.850   3.083 -1.2424 -0.6080 -1.9885
 1491SOL    HW215936   0.004   2.747   3.173  0.9351  0.7649  0.0967
 1492SOL     OW15937   2.680   3.091  13.074  0.4063 -0.3346 -0.2067
 1492SOL    HW115938   2.708   3.177  13.105 -1.7293 -0.2980  1.5941
 1492SOL    HW215939   2.637   3.104  12.989 -0.8238  0.0980  0.4822
 1493SOL     OW15940   4.388   1.963   1.509 -0.2659  0.0378 -0.0162
 1493SOL    HW115941   4.322   2.028   1.533  0.4114  0.5666  0.4078
 1493SOL    HW215942   4.334   1.896   1.468 -0.4159 -1.8988  3.3941
 1494SOL     OW15943   4.210   0.699   0.944 -0.3516 -0.0265  0.8197
 1494SOL    HW115944   4.231   0.685   0.852 -0.5905 -2.4055  1.1337
 1494SOL    HW215945   4.222   0.610   0.977 -1.1958  0.3950  2.3000
 1495SOL     OW15946   0.645   4.678   3.518  0.2520  0.2270  0.2284
 1495SOL    HW115947   0.572   4.637   3.472 -0.0215  1.7919 -0.7073
 1495SOL    HW215948   0.714   4.616   3.492  0.7070  1.5995 -1.8144
 1496SOL     OW15949   4.505   2.406   5.639 -0.1145  0.1809 -0.4968
 1496SOL    HW115950   4.504   2.398   5.544 -0.4166 -2.1435 -0.2993
 1496SOL    HW215951   4.444   2.336   5.665 -2.3651  2.3428  0.0055
 1497SOL     OW15952   2.011   2.871  17.552 -0.1091 -0.1174  0.2334
 1497SOL    HW115953   1.944   2.912  17.497 -0.2550 -1.4278 -0.5692
 1497SOL    HW215954   2.020   2.925  17.630  1.4795 -0.2884  0.1718
 1498SOL     OW15955   2.346   2.429   3.412  0.0339  0.2639 -0.0181
 1498SOL    HW115956   2.314   2.416   3.501  0.5795  0.3021  0.1819
 1498SOL    HW215957   2.267   2.403   3.365 -0.3399  0.8597  0.2817
 1499SOL     OW15958   0.610   2.322   5.619 -0.2551 -0.1317 -0.0323
 1499SOL    HW115959   0.601   2.317   5.524  0.7388 -3.8893  0.0586
 1499SOL    HW215960   0.680   2.257   5.631 -1.3313 -0.9450  1.8179
 1500SOL     OW15961   2.837   2.348  10.557 -0.0285 -0.0364 -0.1201
 1500SOL    HW115962   2.876   2.352  10.470  0.5041  1.5205  0.1811
 1500SOL    HW215963   2.865   2.429  10.600  1.0938  0.3520 -1.5835
 1501SOL     OW15964   1.042   4.269   8.341 -0.5434  0.3772  0.2600
 1501SOL    HW115965   0.968   4.210   8.326 -0.9693  0.9424  0.1382
 1501SOL    HW215966   1.032   4.341   8.278  2.7825  1.5568  1.0766
 1502SOL     OW15967   2.276   3.444   4.985 -0.1137 -0.1805  0.1120
 1502SOL    HW115968   2.274   3.539   4.980  0.4831 -0.1812 -0.0843
 1502SOL    HW215969   2.194   3.436   4.937 -0.0963 -1.2585  0.2607
 1503SOL     OW15970   3.416   1.836   7.630 -0.7431  0.5343 -0.4735
 1503SOL    HW115971   3.460   1.873   7.553 -1.1787 -1.8371 -1.8811
 1503SOL    HW215972   3.473   1.870   7.699 -1.4865 -0.7747  0.7857
 1504SOL     OW15973   1.913   3.672   0.600 -0.4200  0.0485 -0.2820
 1504SOL    HW115974   1.898   3.586   0.640 -3.9296  0.0104 -1.6842
 1504SOL    HW215975   1.852   3.661   0.527  0.8224  2.4968 -1.6684
 1505SOL     OW15976   1.342   0.561   7.592  0.2873 -0.1510 -0.2071
 1505SOL    HW115977   1.429   0.601   7.596  0.4086 -0.2399 -2.0910
 1505SOL    HW215978   1.369   0.470   7.577  0.1895 -0.2926  0.4924
 1506SOL     OW15979   4.370   1.170   6.746  1.0061  0.2574  0.2990
 1506SOL    HW115980   4.383   1.263   6.760 -0.5298  0.7963 -1.8960
 1506SOL    HW215981   4.283   1.161   6.707  0.6410  0.1985  1.1434
 1507SOL     OW15982   0.947   0.073  13.551  0.0502  0.3068  0.3608
 1507SOL    HW115983   0.968   0.024  13.630 -0.7566 -2.6460 -1.2636
 1507SOL    HW215984   0.944   0.158  13.594  1.9008  0.7011 -0.2539
 1508SOL     OW15985   0.685   0.750   4.992 -0.0720 -0.1302 -0.0333
 1508SOL    HW115986   0.767   0.775   4.949 -1.1618  1.1781 -1.3183
 1508SOL    HW215987   0.651   0.837   5.011  0.3682 -0.3436  1.6739
 1509SOL     OW15988   4.700   3.841  11.588  0.3199  0.2997  0.0893
 1509SOL    HW115989   0.011   3.753  11.604 -0.2811 -0.2111 -1.4921
 1509SOL    HW215990   4.721   3.884  11.671  1.6596 -0.5547  0.1975
 1510SOL     OW15991   3.542   1.605   9.257 -0.1709 -0.1304 -0.4870
 1510SOL    HW115992   3.593   1.587   9.336  0.2403  0.5582 -0.5932
 1510SOL    HW215993   3.453   1.586   9.289 -0.6408  1.2931 -0.9351
 1511SOL     OW15994   2.662   2.955   3.384 -0.4949  0.6413 -0.5940
 1511SOL    HW115995   2.669   2.860   3.369 -0.3676  0.7545 -1.2640
 1511SOL    HW215996   2.737   2.975   3.327  1.8010  0.1672  2.2666
 1512SOL     OW15997   3.224   3.103   6.729 -0.7283 -0.0153  0.1683
 1512SOL    HW115998   3.296   3.085   6.789  0.6151 -0.1084 -1.4643
 1512SOL    HW215999   3.195   3.186   6.767  0.4415  1.4827 -2.1988
 1513SOL     OW16000   0.913   4.385   8.139  0.2625  0.2239  0.7178
 1513SOL    HW116001   0.859   4.422   8.208 -2.7994  0.9539 -2.0410
 1513SOL    HW216002   0.921   4.455   8.074  0.3427  1.6669  2.2836
 1514SOL     OW16003   3.281   1.860  10.266 -0.3771 -0.5193 -0.2653
 1514SOL    HW116004   3.299   1.835  10.357 -0.9380 -0.5161 -0.1488
 1514SOL    HW216005   3.215   1.928  10.284 -1.3993 -2.1160  2.1249
 1515SOL     OW16006   0.558   0.967  12.680 -0.1715  0.3783  0.2220
 1515SOL    HW116007   0.588   1.027  12.748 -0.6839  2.6258 -1.5502
 1515SOL    HW216008   0.466   0.951  12.699 -0.3889 -0.0969 -1.2042
 1516SOL     OW16009   1.955   3.678   9.831 -0.1525  0.2947  0.0940
 1516SOL    HW116010   1.874   3.647   9.869 -0.6658  0.7094 -0.6518
 1516SOL    HW216011   1.965   3.624   9.752  2.3815 -0.7229  1.1084
 1517SOL     OW16012   1.530   0.551   9.219  0.1700 -0.1418 -0.2974
 1517SOL    HW116013   1.482   0.515   9.294 -0.1614 -0.3119 -0.5874
 1517SOL    HW216014   1.463   0.613   9.190 -1.2397 -0.0441  3.1424
 1518SOL     OW16015   0.531   0.794   4.540  0.1058 -0.0421 -0.1321
 1518SOL    HW116016   0.552   0.719   4.597 -0.8887  1.3110  2.0318
 1518SOL    HW216017   0.492   0.751   4.464  3.5520 -1.5211 -1.0534
 1519SOL     OW16018   1.715   4.179   1.991  0.2782 -0.0079  0.2054
 1519SOL    HW116019   1.764   4.214   2.065  0.0842 -0.2240  0.4374
 1519SOL    HW216020   1.715   4.086   2.011  1.6226  0.0576  0.5288
 1520SOL     OW16021   2.175   0.567   4.753 -0.1921 -0.4753 -0.2412
 1520SOL    HW116022   2.139   0.631   4.692  0.4110 -0.1557 -0.2614
 1520SOL    HW216023   2.269   0.582   4.742 -0.3614  0.2256 -0.6710
 1521SOL     OW16024   4.276   2.185   4.345  0.5742  1.1499 -0.2299
 1521SOL    HW116025   4.313   2.100   4.321  1.0413  1.2812  0.0328
 1521SOL    HW216026   4.221   2.208   4.270 -2.1201  1.2967  1.7783
 1522SOL     OW16027   4.244   4.211   9.526  0.3335  0.1475  0.2071
 1522SOL    HW116028   4.184   4.229   9.598 -1.9791 -2.3934 -1.1192
 1522SOL    HW216029   4.220   4.120   9.513  1.5730 -0.2484  0.6623
 1523SOL     OW16030   4.710   3.091   4.907 -0.2461 -0.4012  0.2679
 1523SOL    HW116031   0.064   3.048   4.943 -0.4106 -0.4375  0.5773
 1523SOL    HW216032   4.681   3.023   4.847 -0.1653 -0.2164  0.0148
 1524SOL     OW16033   4.166   4.399   0.939 -0.0514  0.0368 -0.2322
 1524SOL    HW116034   4.188   4.459   1.010 -1.7846 -0.7422  0.9305
 1524SOL    HW216035   4.073   4.420   0.930 -0.4424 -1.6250 -0.1048
 1525SOL     OW16036   0.355   1.668   5.624  0.1355  0.4675  0.3267
 1525SOL    HW116037   0.272   1.631   5.597  0.6278 -0.4269  0.0257
 1525SOL    HW216038   0.345   1.663   5.719 -0.3909 -0.9938  0.1891
 1526SOL     OW16039   2.967   3.864   1.764  0.2597  0.2613 -0.1434
 1526SOL    HW116040   2.898   3.928   1.782 -0.8135 -0.9356 -0.0078
 1526SOL    HW216041   2.922   3.802   1.707  2.5902 -1.4163 -0.1638
 1527SOL     OW16042   2.057   3.100   6.892 -0.1677  0.0310  0.7852
 1527SOL    HW116043   2.077   3.012   6.923 -2.5489 -0.2612  1.4822
 1527SOL    HW216044   2.075   3.145   6.975 -0.0864  1.9548 -0.2619
 1528SOL     OW16045   4.025   4.170  15.728 -0.5516  0.2946 -0.2360
 1528SOL    HW116046   4.070   4.172  15.643  1.4270 -0.5977  0.7858
 1528SOL    HW216047   3.937   4.205  15.715 -1.9783 -4.0213 -2.1826
 1529SOL     OW16048   3.156   0.608   5.874  0.0634 -0.1937 -0.6646
 1529SOL    HW116049   3.152   0.556   5.954 -0.4301  0.8021 -0.0463
 1529SOL    HW216050   3.214   0.681   5.895  0.8064 -1.4726  1.7711
 1530SOL     OW16051   3.470   4.212   8.302  0.1957  0.1486  1.1867
 1530SOL    HW116052   3.469   4.180   8.392 -1.6313  0.6623  1.3459
 1530SOL    HW216053   3.465   4.307   8.314  0.1345  0.3933 -0.7590
 1531SOL     OW16054   4.268   0.640   2.814  0.2479 -0.1326 -0.3816
 1531SOL    HW116055   4.207   0.595   2.756 -1.2601  1.3642  0.0770
 1531SOL    HW216056   4.347   0.587   2.804 -1.2372 -2.1024 -1.6388
 1532SOL     OW16057   2.441   0.308   8.647  0.4452  0.0726  0.4811
 1532SOL    HW116058   2.388   0.239   8.687 -1.2844  0.7323 -0.6617
 1532SOL    HW216059   2.468   0.349   8.728 -0.9594 -1.8767  1.9304
 1533SOL     OW16060   2.529   0.106   1.571 -0.6464 -0.6401 -0.3173
 1533SOL    HW116061   2.618   0.072   1.562 -0.5415 -0.2082 -0.9425
 1533SOL    HW216062   2.527   0.163   1.494  0.7000 -2.3213 -1.6033
 1534SOL     OW16063   2.923   0.664   5.745  0.0489  0.0209  0.2208
 1534SOL    HW116064   2.873   0.603   5.799 -0.9877  0.7417  0.0580
 1534SOL    HW216065   3.004   0.659   5.796 -0.3822 -0.1889  0.8898
 1535SOL     OW16066   4.303   3.546  10.351  0.4621 -0.2997  0.5149
 1535SOL    HW116067   4.381   3.594  10.325 -1.6485  1.5569 -2.3383
 1535SOL    HW216068   4.248   3.616  10.388 -1.7644 -2.1162  0.6322
 1536SOL     OW16069   4.150   3.666  17.173  0.2195  0.0818  0.4353
 1536SOL    HW116070   4.209   3.737  17.200 -1.7138  2.6423 -2.0614
 1536SOL    HW216071   4.117   3.649  17.261  1.9166  1.9221  1.4367
 1537SOL     OW16072   4.665   3.091   6.336 -0.0665  0.1983 -0.2611
 1537SOL    HW116073   4.613   3.134   6.267  0.1761 -1.8521 -1.7384
 1537SOL    HW216074   4.609   3.104   6.413  2.1059  0.5637  1.2272
 1538SOL     OW16075   1.672   0.119  12.082 -0.5385 -0.1408 -0.2659
 1538SOL    HW116076   1.644   0.148  12.169  0.6954 -1.2968  0.5047
 1538SOL    HW216077   1.687   0.205  12.042 -1.5716 -0.1194 -0.6168
 1539SOL     OW16078   1.339   3.050   8.353  0.6763 -0.0758 -0.0706
 1539SOL    HW116079   1.348   3.089   8.440 -2.0666 -2.0467  1.0577
 1539SOL    HW216080   1.419   2.997   8.355 -0.2232 -1.4335 -0.9555
 1540SOL     OW16081   3.123   0.827   8.811 -0.0608 -0.0301 -0.3110
 1540SOL    HW116082   3.148   0.918   8.826  2.4835 -0.4068 -2.2696
 1540SOL    HW216083   3.034   0.826   8.847 -0.3921 -2.0170 -1.1435
 1541SOL     OW16084   2.029   0.331   4.158  0.3799 -0.1659 -0.0418
 1541SOL    HW116085   2.016   0.376   4.075  0.2715 -0.7615 -0.3420
 1541SOL    HW216086   1.945   0.314   4.200  0.7359  1.9961  1.5467
 1542SOL     OW16087   2.631   3.429   5.223  0.0692 -0.8477 -0.1449
 1542SOL    HW116088   2.727   3.435   5.220 -0.0815  1.3833 -0.6117
 1542SOL    HW216089   2.601   3.355   5.171  1.7862 -1.2045 -0.6296
 1543SOL     OW16090   2.837   1.297   7.480 -0.0983  0.2023  0.3636
 1543SOL    HW116091   2.833   1.245   7.400  0.3686 -2.0083  1.7673
 1543SOL    HW216092   2.752   1.274   7.517  0.1403 -1.5284 -0.1495
 1544SOL     OW16093   3.083   4.626   2.790 -0.7687 -0.1752  0.0997
 1544SOL    HW116094   3.107   4.682   2.864  1.4640 -0.4554 -0.4020
 1544SOL    HW216095   2.993   4.612   2.819 -0.6424 -1.4049 -0.0798
 1545SOL     OW16096   4.611   0.799   2.596 -1.0642  0.2042  0.1471
 1545SOL    HW116097   4.597   0.814   2.689 -0.7622 -2.2352  0.5692
 1545SOL    HW216098   4.534   0.842   2.559  0.2560  0.9034 -1.8220
 1546SOL     OW16099   2.897   2.196   6.845  0.1972  0.2335 -0.0475
 1546SOL    HW116100   2.960   2.247   6.896  0.4870  0.5166 -0.6850
 1546SOL    HW216101   2.942   2.113   6.856  2.5581  1.7537  1.6909
 1547SOL     OW16102   0.885   0.619   2.749  0.2385  0.0585 -0.0290
 1547SOL    HW116103   0.834   0.699   2.739 -0.7133 -0.5868 -0.2766
 1547SOL    HW216104   0.857   0.575   2.669  1.5989  0.2483 -0.6094
 1548SOL     OW16105   2.554   4.286   5.015 -0.1441  0.0415  0.1356
 1548SOL    HW116106   2.600   4.369   5.004  0.6504 -0.6573 -1.8055
 1548SOL    HW216107   2.488   4.285   4.945 -1.5903  0.5385  1.4921
 1549SOL     OW16108   3.369   2.791   5.524 -0.5306  0.1443  0.1365
 1549SOL    HW116109   3.463   2.781   5.538 -0.9331 -3.1248  0.4156
 1549SOL    HW216110   3.344   2.722   5.463 -0.6547  0.9685 -0.7458
 1550SOL     OW16111   0.375   1.871  14.023 -0.3831  0.4093  0.3863
 1550SOL    HW116112   0.356   1.785  13.985  0.8403  0.0649  0.5510
 1550SOL    HW216113   0.296   1.925  14.025  0.4833  1.6121  1.7978
 1551SOL     OW16114   0.617   1.703   4.322  0.0064  0.2506  0.0865
 1551SOL    HW116115   0.647   1.759   4.250 -0.6712  0.4727 -0.0173
 1551SOL    HW216116   0.628   1.611   4.297 -0.0068 -0.1066  1.4132
 1552SOL     OW16117   0.378   4.094   5.795  0.5775 -0.2735 -0.0589
 1552SOL    HW116118   0.396   4.159   5.727 -1.2016 -0.7051 -0.9439
 1552SOL    HW216119   0.450   4.033   5.778 -0.2256 -0.7927 -1.6059
 1553SOL     OW16120   2.030   0.536   6.607 -0.0848 -0.5451  0.4022
 1553SOL    HW116121   2.093   0.514   6.675 -1.4099 -0.2635  1.7317
 1553SOL    HW216122   2.044   0.466   6.543  0.3013  0.2295 -0.3510
 1554SOL     OW16123   0.532   2.550   8.443  0.5572 -0.3710 -0.9621
 1554SOL    HW116124   0.593   2.527   8.373  1.4266 -2.5542  0.5064
 1554SOL    HW216125   0.595   2.558   8.514 -1.3558 -1.4615  0.8707
 1555SOL     OW16126   4.129   2.748   7.792  0.6374 -0.2116 -0.4162
 1555SOL    HW116127   4.172   2.689   7.854 -4.1344 -2.4825  0.7301
 1555SOL    HW216128   4.062   2.788   7.847  0.6131 -1.2351  0.2855
 1556SOL     OW16129   1.190   0.446   7.942  0.2631  0.5797  0.2950
 1556SOL    HW116130   1.231   0.427   8.026  0.1019 -1.9498 -0.1941
 1556SOL    HW216131   1.121   0.380   7.929 -0.8568  1.9019 -0.4300
 1557SOL     OW16132   2.271   1.310   3.553  0.6179 -0.2969 -0.4490
 1557SOL    HW116133   2.244   1.285   3.465  2.6282  2.9799 -2.0266
 1557SOL    HW216134   2.291   1.402   3.534  0.0306  0.3257  1.9819
 1558SOL     OW16135   1.940   0.267   5.446 -0.0072  0.3538  0.3811
 1558SOL    HW116136   1.991   0.232   5.519 -0.7083 -1.3284  0.0770
 1558SOL    HW216137   2.007   0.310   5.393 -0.2061 -0.0341 -0.1745
 1559SOL     OW16138   2.765   1.467   3.899  0.3805  0.6678 -0.1012
 1559SOL    HW116139   2.727   1.391   3.856  1.2296 -0.9693  1.9908
 1559SOL    HW216140   2.706   1.536   3.870 -0.1660  0.7406  1.1647
 1560SOL     OW16141   3.846   0.796   5.034  0.1139 -0.2700 -0.2522
 1560SOL    HW116142   3.938   0.815   5.013 -0.2953  0.7835 -1.0796
 1560SOL    HW216143   3.807   0.875   5.071  1.2943  0.4737 -0.5870
 1561SOL     OW16144   4.344   3.560   4.711 -0.4713  0.3447  0.3611
 1561SOL    HW116145   4.428   3.602   4.730 -0.3421 -0.0041  0.5682
 1561SOL    HW216146   4.309   3.610   4.637  0.1857  1.2690  0.6778
 1562SOL     OW16147   0.698   4.432  10.392  0.1932 -0.0188  0.0306
 1562SOL    HW116148   0.641   4.486  10.447  0.1339  0.1889 -0.2386
 1562SOL    HW216149   0.720   4.499  10.328 -0.3456  0.5123  0.3959
 1563SOL     OW16150   0.015   0.784  15.229 -0.1370  0.0862  0.4952
 1563SOL    HW116151   0.055   0.765  15.314 -1.8959 -2.0635  0.8500
 1563SOL    HW216152   4.684   0.861  15.247 -1.4690 -0.6003 -0.5688
 1564SOL     OW16153   0.954   1.691  16.369 -0.1044  0.7011  0.1148
 1564SOL    HW116154   0.911   1.730  16.293  1.2266  0.1382 -0.9357
 1564SOL    HW216155   0.900   1.728  16.439 -1.1268 -1.4983  0.4835
 1565SOL     OW16156   0.749   1.239   8.489 -0.1328  0.2710 -0.2488
 1565SOL    HW116157   0.827   1.292   8.506 -0.9471  1.1071  0.8369
 1565SOL    HW216158   0.756   1.234   8.393  0.8909 -1.0266 -0.1069
 1566SOL     OW16159   4.584   4.341   3.279 -0.2140 -0.4433  0.0149
 1566SOL    HW116160   4.562   4.277   3.210 -0.6215  1.4036 -1.5744
 1566SOL    HW216161   4.678   4.322   3.283  0.1717  1.0989 -1.6737
 1567SOL     OW16162   3.799   2.953  15.357  0.0880  0.0088  0.3623
 1567SOL    HW116163   3.884   2.989  15.382  0.9444 -1.4940 -0.3485
 1567SOL    HW216164   3.753   3.035  15.338 -0.2272 -0.2264  0.1023
 1568SOL     OW16165   4.314   1.029   0.831 -0.2115  0.0068 -0.0899
 1568SOL    HW116166   4.360   1.063   0.907 -0.4657  2.3874 -1.0029
 1568SOL    HW216167   4.381   0.965   0.808 -1.0185  0.1179 -2.7377
 1569SOL     OW16168   4.194   1.012  10.497 -0.6885 -0.1630 -0.0423
 1569SOL    HW116169   4.280   0.983  10.524 -0.6197  1.9215  1.9674
 1569SOL    HW216170   4.179   0.942  10.434  1.3376 -1.5463  1.0218
 1570SOL     OW16171   2.729   3.517   7.737 -0.0925 -0.4479  0.1356
 1570SOL    HW116172   2.720   3.593   7.795  1.9464 -0.4633  0.4676
 1570SOL    HW216173   2.677   3.450   7.781 -0.6452 -0.4524 -0.5155
 1571SOL     OW16174   3.315   3.768   4.620  0.0703 -0.0155  0.1793
 1571SOL    HW116175   3.256   3.750   4.693 -0.9613 -0.4893 -0.7813
 1571SOL    HW216176   3.269   3.720   4.551  1.2661 -0.3776 -0.3685
 1572SOL     OW16177   2.277   4.202   6.474  0.4754  0.3679  0.8993
 1572SOL    HW116178   2.276   4.112   6.440  2.0759  1.7224 -2.7643
 1572SOL    HW216179   2.318   4.193   6.560 -0.0482 -3.0293  0.8192
 1573SOL     OW16180   0.963   1.838  12.035  0.2847 -0.7556 -0.2724
 1573SOL    HW116181   1.046   1.826  12.081  1.0194  0.7196 -1.1873
 1573SOL    HW216182   0.973   1.933  12.030 -0.4746 -0.7197 -1.0885
 1574SOL     OW16183   4.443   0.216   5.624 -0.2785 -0.0793  0.3915
 1574SOL    HW116184   4.524   0.263   5.642  0.5259 -1.5759  0.6205
 1574SOL    HW216185   4.469   0.162   5.549  0.0744 -0.3136  0.6823
 1575SOL     OW16186   1.444   1.029   0.655 -0.4884 -0.5659 -0.0911
 1575SOL    HW116187   1.441   1.125   0.654  0.0934 -0.5869 -2.8997
 1575SOL    HW216188   1.399   1.014   0.572  0.7054 -2.3635 -0.4269
 1576SOL     OW16189   0.731   1.053   7.308 -0.0258  0.1601 -0.2659
 1576SOL    HW116190   0.725   0.958   7.315  0.5131  0.2468  1.3669
 1576SOL    HW216191   0.680   1.077   7.230 -0.8603  0.0880  0.2511
 1577SOL     OW16192   3.620   4.494  17.658  0.0447 -0.4199 -0.2574
 1577SOL    HW116193   3.671   4.566   0.001  0.0494 -1.2468  1.4116
 1577SOL    HW216194   3.582   4.452   0.042 -0.2658  2.8851  1.3897
 1578SOL     OW16195   0.668   3.145   5.424  0.2745  0.7301  0.2095
 1578SOL    HW116196   0.621   3.228   5.415  0.1715  0.6291 -0.2155
 1578SOL    HW216197   0.743   3.170   5.478  0.5041  0.7645 -0.1251
 1579SOL     OW16198   2.791   2.349  13.196 -0.0145 -1.0564  0.0135
 1579SOL    HW116199   2.840   2.350  13.114 -1.7838  2.1792 -0.9864
 1579SOL    HW216200   2.783   2.442  13.215  0.9927 -1.2693  1.5038
 1580SOL     OW16201   2.306   2.067   8.807 -0.0595  0.4739  0.0646
 1580SOL    HW116202   2.357   2.079   8.887  0.3545  2.1921 -0.4385
 1580SOL    HW216203   2.327   1.976   8.790 -1.5711  0.3030 -0.8635
 1581SOL     OW16204   2.894   3.730   4.701  0.0605  0.0907 -0.2096
 1581SOL    HW116205   2.840   3.794   4.655  0.6857 -0.4756 -1.7273
 1581SOL    HW216206   2.870   3.648   4.658 -1.0639  0.3247 -0.0266
 1582SOL     OW16207   0.847   0.237  13.360  0.5492 -0.1963  0.2074
 1582SOL    HW116208   0.817   0.324  13.385  0.2610  0.1000 -1.1755
 1582SOL    HW216209   0.868   0.195  13.444  0.5204 -0.7694 -0.0687
 1583SOL     OW16210   4.449   1.416   6.099  0.4939 -0.0092 -0.9566
 1583SOL    HW116211   4.462   1.509   6.121  2.2215 -0.3521 -0.5097
 1583SOL    HW216212   4.399   1.394   6.177 -3.6408  0.9480 -3.3192
 1584SOL     OW16213   4.476   2.959   6.757 -1.0500 -0.1501 -0.2790
 1584SOL    HW116214   4.544   3.024   6.738 -2.4196  1.4804  0.4403
 1584SOL    HW216215   4.500   2.923   6.842  0.5030  0.3055 -0.5294
 1585SOL     OW16216   0.053   2.184   1.766 -0.5417 -0.1131 -0.8174
 1585SOL    HW116217   0.099   2.204   1.684  0.7140  0.1927 -0.0442
 1585SOL    HW216218   0.053   2.270   1.808 -0.4201 -0.2591 -0.5245
 1586SOL     OW16219   2.367   1.941   5.329  0.8000 -0.4447  0.0901
 1586SOL    HW116220   2.375   1.956   5.235 -0.3254 -0.0697  0.0568
 1586SOL    HW216221   2.456   1.954   5.360  0.2621 -1.4455  2.0548
 1587SOL     OW16222   4.060   1.332  11.432  0.0796  0.0188 -0.1082
 1587SOL    HW116223   4.107   1.412  11.414  0.0876 -0.1225 -0.6968
 1587SOL    HW216224   3.987   1.365  11.380 -0.3632 -0.4253  0.2235
 1588SOL     OW16225   0.927   3.249   4.235 -0.3322 -0.1048 -0.1587
 1588SOL    HW116226   0.946   3.266   4.143 -2.4927 -0.8404 -0.7331
 1588SOL    HW216227   0.870   3.325   4.245  0.3920  0.6368 -1.6985
 1589SOL     OW16228   4.407   1.384   8.199  0.7251  0.1790  1.0699
 1589SOL    HW116229   4.427   1.390   8.106 -1.5199  0.1190  0.5905
 1589SOL    HW216230   4.331   1.325   8.206 -1.7368  3.3932  1.4979
 1590SOL     OW16231   1.014   3.998   4.403  0.3404 -1.1706  0.2505
 1590SOL    HW116232   1.020   3.973   4.310 -0.8841  0.9235 -0.3765
 1590SOL    HW216233   1.067   3.930   4.445 -0.1034 -0.5189  1.8524
 1591SOL     OW16234   3.779   1.695   6.401 -0.3364  0.0975  0.3253
 1591SOL    HW116235   3.801   1.639   6.475 -0.8858  1.5724  1.6019
 1591SOL    HW216236   3.851   1.666   6.345 -0.7259  1.0328 -0.6679
 1592SOL     OW16237   1.580   2.968  15.076 -0.1875 -0.5496  0.2753
 1592SOL    HW116238   1.631   2.891  15.102  1.6665  1.0958  1.5315
 1592SOL    HW216239   1.652   3.025  15.051  0.7037 -1.7002  0.1978
 1593SOL     OW16240   0.816   1.823  16.954  0.9361 -0.3444 -0.2503
 1593SOL    HW116241   0.909   1.805  16.968  0.7710  0.7122  2.1176
 1593SOL    HW216242   0.809   1.777  16.870  1.4497 -0.4953 -0.2071
 1594SOL     OW16243   1.298   2.440   4.335  0.8465  0.1085 -0.4429
 1594SOL    HW116244   1.389   2.467   4.340  0.4677  0.7091  3.8956
 1594SOL    HW216245   1.259   2.509   4.281  0.1444  0.0460 -0.0213
 1595SOL     OW16246   3.884   3.153   2.129  0.0982  0.4583 -0.0486
 1595SOL    HW116247   3.895   3.212   2.204  1.1392  0.0927  0.0874
 1595SOL    HW216248   3.869   3.219   2.061  1.8494  1.5843  0.6503
 1596SOL     OW16249   1.941   3.994   9.027 -0.5884 -0.6716  0.1717
 1596SOL    HW116250   2.033   3.996   9.053 -0.4289  3.4541 -0.7258
 1596SOL    HW216251   1.917   4.081   9.060 -0.6509  0.1457 -2.0681
 1597SOL     OW16252   2.099   4.718  17.204 -0.2374 -0.1249  0.0490
 1597SOL    HW116253   2.099   4.645  17.265 -2.2559  1.3908  1.8827
 1597SOL    HW216254   2.165   0.056  17.237  0.4142 -0.9968  0.3440
 1598SOL     OW16255   2.572   0.372  13.700  0.0432 -0.4138 -0.2210
 1598SOL    HW116256   2.642   0.437  13.694 -0.2157 -0.3522 -2.3170
 1598SOL    HW216257   2.618   0.292  13.678  1.1015 -0.0864  0.7914
 1599SOL     OW16258   1.415   0.153   9.515 -0.3449 -0.1988 -1.0466
 1599SOL    HW116259   1.433   0.093   9.442 -0.0547 -3.8274  1.9891
 1599SOL    HW216260   1.322   0.166   9.495 -0.1419 -0.0796 -1.9289
 1600SOL     OW16261   2.739   1.099  14.632  0.0577  0.0802  0.2210
 1600SOL    HW116262   2.653   1.064  14.612 -0.3262  1.3218 -0.3074
 1600SOL    HW216263   2.784   1.092  14.548  0.0541  2.7102 -0.0183
 1601SOL     OW16264   0.235   2.957   3.324  0.2463  0.1424 -0.2242
 1601SOL    HW116265   0.213   2.870   3.293  1.8589 -0.9421  1.7085
 1601SOL    HW216266   0.164   3.010   3.286  0.4287  0.7343  0.2658
 1602SOL     OW16267   2.579   3.099  10.613 -0.7046  0.0775  0.1583
 1602SOL    HW116268   2.536   3.128  10.693 -1.1358  2.7563 -1.0598
 1602SOL    HW216269   2.507   3.104  10.550 -0.0024 -1.7190 -0.7949
 1603SOL     OW16270   4.278   0.398   0.132  0.0304  0.2741  0.5891
 1603SOL    HW116271   4.338   0.324   0.146  0.3335  0.4620  0.2704
 1603SOL    HW216272   4.237   0.357   0.056  1.4262 -0.3722  0.1751
 1604SOL     OW16273   1.895   2.093   8.948 -0.0617  0.1920 -0.1994
 1604SOL    HW116274   1.832   2.165   8.943  2.2028  2.1012 -1.3965
 1604SOL    HW216275   1.940   2.115   9.030 -1.4245  1.7952  0.1161
 1605SOL     OW16276   1.065   3.675   6.036  0.7898  0.1020 -0.3282
 1605SOL    HW116277   0.989   3.649   6.088  0.1596 -0.0970 -1.3427
 1605SOL    HW216278   1.142   3.678   6.093 -0.7874  3.0393  1.6686
 1606SOL     OW16279   3.344   0.758   4.470 -0.4826 -0.3991  0.3701
 1606SOL    HW116280   3.412   0.795   4.526  0.3286 -0.3377 -0.6559
 1606SOL    HW216281   3.350   0.665   4.495 -0.9397 -1.0335 -1.8465
 1607SOL     OW16282   1.566   1.436  10.428 -0.3235 -0.0888  0.2052
 1607SOL    HW116283   1.475   1.466  10.424 -0.3821 -0.3800 -0.5560
 1607SOL    HW216284   1.618   1.510  10.461 -1.5771  1.9151 -2.3254
 1608SOL     OW16285   0.458   4.610  13.153  0.3448  0.0305  0.1313
 1608SOL    HW116286   0.453   4.682  13.216  0.2734 -0.8581  1.1328
 1608SOL    HW216287   0.508   4.542  13.196  0.0714  0.3184  0.8967
 1609SOL     OW16288   3.586   3.764   5.536  0.5563  0.6917  0.2799
 1609SOL    HW116289   3.491   3.764   5.527  0.6401  2.0031 -0.6969
 1609SOL    HW216290   3.608   3.730   5.450 -0.4817 -0.4878  0.4854
 1610SOL     OW16291   2.266   2.591   0.902 -0.3822 -0.0772 -0.0035
 1610SOL    HW116292   2.226   2.657   0.958 -4.1943 -0.9810 -1.6786
 1610SOL    HW216293   2.215   2.609   0.823 -0.3102 -1.3198 -0.3321
 1611SOL     OW16294   0.686   2.841   6.441 -0.2148  0.2476 -0.1974
 1611SOL    HW116295   0.750   2.865   6.374 -0.2939 -1.1303 -0.7494
 1611SOL    HW216296   0.602   2.834   6.395 -0.7955  0.8817  0.7727
 1612SOL     OW16297   0.258   2.009   0.508 -0.1262 -0.2304 -0.2976
 1612SOL    HW116298   0.234   2.054   0.427 -1.3025  0.0289  0.1890
 1612SOL    HW216299   0.175   1.970   0.533 -0.6787  2.2321  1.7522
 1613SOL     OW16300   0.865   1.083   2.036 -0.1279  0.1339 -0.8193
 1613SOL    HW116301   0.935   1.073   1.971  2.2817 -0.2398  1.8435
 1613SOL    HW216302   0.830   1.171   2.021  2.1291  1.4325  1.5916
 1614SOL     OW16303   2.738   4.668  13.268 -0.0056 -0.6874  0.7399
 1614SOL    HW116304   2.720   4.682  13.175 -2.4120  0.1515  1.3391
 1614SOL    HW216305   2.759   0.034  13.298 -0.7068 -0.2821  0.0264
 1615SOL     OW16306   2.818   1.598   4.712  0.0173 -0.0867 -0.1429
 1615SOL    HW116307   2.889   1.543   4.681  1.2385  0.6015  1.4117
 1615SOL    HW216308   2.766   1.595   4.632 -0.9350 -1.1318  0.5146
 1616SOL     OW16309   2.578   4.385   9.945  0.5838  0.5888 -0.2242
 1616SOL    HW116310   2.668   4.362   9.967 -0.0483 -0.2234  1.5152
 1616SOL    HW216311   2.549   4.403  10.034 -0.9941 -1.1478 -0.3907
 1617SOL     OW16312   4.392   3.164   7.590 -0.4933  0.2927  0.8905
 1617SOL    HW116313   4.450   3.091   7.572  0.6340  1.0592  1.3589
 1617SOL    HW216314   4.454   3.236   7.603 -0.1303 -0.1719  1.7006
 1618SOL     OW16315   1.679   3.296  15.195  0.3165 -0.5559  0.3978
 1618SOL    HW116316   1.671   3.378  15.146  0.1613 -0.2053  1.0052
 1618SOL    HW216317   1.738   3.254  15.132 -1.0309 -0.3272 -1.0080
 1619SOL     OW16318   1.135   3.302   2.591  0.3147  0.1264  0.0470
 1619SOL    HW116319   1.205   3.247   2.555  1.9170  0.1868  3.1360
 1619SOL    HW216320   1.057   3.260   2.553 -0.6494 -2.2172  4.6787
 1620SOL     OW16321   0.178   2.626   5.314  0.0137 -0.0288  0.1693
 1620SOL    HW116322   0.234   2.550   5.299 -2.9333 -2.4573  1.4353
 1620SOL    HW216323   0.105   2.594   5.368  0.6614 -0.8958  0.5401
 1621SOL     OW16324   1.285   2.527  17.097 -0.2360 -0.7903 -0.0262
 1621SOL    HW116325   1.360   2.524  17.038 -0.2528 -0.1354 -0.0755
 1621SOL    HW216326   1.329   2.480  17.169 -0.3335  1.2641  1.3595
 1622SOL     OW16327   2.354   4.521   4.950 -0.0362  0.5402 -0.5145
 1622SOL    HW116328   2.268   4.555   4.926  0.1159  0.9683 -0.4582
 1622SOL    HW216329   2.399   4.507   4.866  0.6708 -0.0866 -0.0243
 1623SOL     OW16330   4.155   3.633   6.707 -0.7235 -0.4713  0.2514
 1623SOL    HW116331   4.153   3.726   6.728 -2.5909  0.0242 -2.1837
 1623SOL    HW216332   4.064   3.609   6.721 -1.0982  1.2096  0.6875
 1624SOL     OW16333   3.287   1.066   2.231 -0.2067 -0.0927 -0.0943
 1624SOL    HW116334   3.376   1.049   2.262 -0.1146 -1.4247 -1.0977
 1624SOL    HW216335   3.308   1.094   2.142  0.1116 -0.8592 -0.2594
 1625SOL     OW16336   2.426   4.641   2.206  0.5572  0.0320  0.7875
 1625SOL    HW116337   2.397   4.645   2.114  0.0483  1.7894  1.0249
 1625SOL    HW216338   2.381   4.567   2.247  0.8424 -1.3886 -1.4598
 1626SOL     OW16339   3.235   1.557   6.267  0.1789 -0.3864 -0.5783
 1626SOL    HW116340   3.167   1.602   6.216 -0.2419 -1.1657 -0.7094
 1626SOL    HW216341   3.305   1.552   6.203  1.8199  2.0837  1.0520
 1627SOL     OW16342   1.328   0.709   9.107  0.0324  0.7246  0.0276
 1627SOL    HW116343   1.234   0.696   9.115 -0.4389  2.8647 -2.0400
 1627SOL    HW216344   1.332   0.787   9.053 -0.7394  1.4532  1.0273
 1628SOL     OW16345   1.667   0.241   6.876 -0.5904 -0.4364  0.1928
 1628SOL    HW116346   1.739   0.243   6.812  0.0293 -0.7350  0.8756
 1628SOL    HW216347   1.710   0.248   6.962 -1.7455  0.5172  0.6868
 1629SOL     OW16348   4.660   2.637   8.532  0.6834  0.1363 -0.7800
 1629SOL    HW116349   4.721   2.706   8.506  0.0682 -0.4062 -3.7130
 1629SOL    HW216350   4.575   2.672   8.509  0.0014  0.3791  2.0905
 1630SOL     OW16351   4.480   1.955   3.881 -0.2962 -0.0588  0.0951
 1630SOL    HW116352   4.491   1.982   3.790 -2.0285  2.6260  0.7101
 1630SOL    HW216353   4.533   1.875   3.890  1.4464  0.7326 -3.3976
 1631SOL     OW16354   0.388   2.249  16.374  0.0042  0.2549  0.0468
 1631SOL    HW116355   0.333   2.299  16.314  0.2507  2.1058  1.3610
 1631SOL    HW216356   0.346   2.256  16.460  1.7905 -0.4665  0.9822
 1632SOL     OW16357   1.710   1.272   4.445 -0.2391 -0.0746  0.5280
 1632SOL    HW116358   1.715   1.314   4.359  0.8975 -0.0628  0.6015
 1632SOL    HW216359   1.730   1.352   4.494  0.7272 -0.8227  1.3397
 1633SOL     OW16360   1.665   0.437  15.734  0.7572 -0.0672 -0.0041
 1633SOL    HW116361   1.632   0.351  15.710  4.0490 -1.2775 -0.1903
 1633SOL    HW216362   1.601   0.498  15.696  0.4339 -0.6594 -0.4034
 1634SOL     OW16363   1.673   4.529  16.246  0.5456  0.2738 -0.2356
 1634SOL    HW116364   1.737   4.546  16.177  0.5672  0.8073 -0.0843
 1634SOL    HW216365   1.628   4.458  16.202  0.1026  0.9605 -0.8931
 1635SOL     OW16366   1.288   4.312  10.913  0.4421  0.5870 -0.2764
 1635SOL    HW116367   1.242   4.291  10.832  1.9070 -1.9920 -0.4671
 1635SOL    HW216368   1.269   4.405  10.918 -1.8409  0.1982 -1.9385
 1636SOL     OW16369   3.169   4.096  14.380  0.0659 -0.1290  0.4091
 1636SOL    HW116370   3.145   4.188  14.370  0.9524 -0.0128 -0.7229
 1636SOL    HW216371   3.128   4.068  14.461  0.1360  0.2767  0.5865
 1637SOL     OW16372   2.738   4.631   2.500 -0.2476  0.3346 -0.3020
 1637SOL    HW116373   2.777   4.688   2.566 -2.1812  0.7248  0.5033
 1637SOL    HW216374   2.817   4.626   2.445  0.4068 -0.3483  0.6916
 1638SOL     OW16375   1.958   1.303  17.184  0.4526  0.6824  0.5370
 1638SOL    HW116376   2.042   1.348  17.191  0.9493 -0.0096 -1.0329
 1638SOL    HW216377   1.988   1.227  17.135 -0.4470  0.0928  0.9103
 1639SOL     OW16378   4.264   1.090   8.363 -0.3636 -0.8406  0.1433
 1639SOL    HW116379   4.330   1.124   8.424 -1.1746  1.6794 -0.3824
 1639SOL    HW216380   4.195   1.155   8.351 -0.6839 -0.9664  1.3067
 1640SOL     OW16381   4.347   4.263   6.047  0.2676  0.0684 -0.2234
 1640SOL    HW116382   4.420   4.324   6.033 -0.9537  2.0476  1.9300
 1640SOL    HW216383   4.362   4.192   5.985 -1.2194 -1.0881  0.7417
 1641SOL     OW16384   4.325   3.505   7.497  0.0306  0.3533  0.8477
 1641SOL    HW116385   4.283   3.473   7.577  1.5440 -1.4716  0.9015
 1641SOL    HW216386   4.410   3.462   7.505  0.4585  1.2068  0.9120
 1642SOL     OW16387   3.023   0.107  13.196  0.4906 -0.0883 -0.2146
 1642SOL    HW116388   3.012   0.012  13.196  0.7573 -0.1162 -0.4313
 1642SOL    HW216389   3.118   0.106  13.191  0.5517 -1.6959  1.2270
 1643SOL     OW16390   3.906   2.939   1.874 -0.4189  0.5779  0.6745
 1643SOL    HW116391   3.905   2.970   1.965  2.0502 -2.1025  1.6401
 1643SOL    HW216392   3.949   3.016   1.837  3.7218 -0.8337  2.5049
 1644SOL     OW16393   4.119   4.297   3.433  0.9559 -0.1450  0.0250
 1644SOL    HW116394   4.028   4.294   3.406  0.5847  0.3456  1.2075
 1644SOL    HW216395   4.153   4.221   3.387  0.3115  0.0301 -0.7459
 1645SOL     OW16396   2.501   0.342  16.305  0.2774  0.5131  0.3301
 1645SOL    HW116397   2.527   0.433  16.323 -2.6967  1.7110 -1.3968
 1645SOL    HW216398   2.534   0.330  16.216  3.2468 -0.1809  1.5204
 1646SOL     OW16399   1.564   2.025   3.291 -0.3113 -0.3028  0.2888
 1646SOL    HW116400   1.490   1.977   3.254 -0.1865 -0.1491 -0.1583
 1646SOL    HW216401   1.582   1.967   3.366 -0.4363  0.2892  0.7762
 1647SOL     OW16402   1.478   3.061   4.128 -0.4028  0.0904 -0.0955
 1647SOL    HW116403   1.465   3.138   4.184  1.7026  1.0574 -0.9517
 1647SOL    HW216404   1.503   3.102   4.046 -1.9677 -1.1569 -1.1983
 1648SOL     OW16405   0.255   2.688  14.147  0.4131 -0.5184 -0.0153
 1648SOL    HW116406   0.322   2.737  14.195 -0.5773  2.6017 -1.8215
 1648SOL    HW216407   0.228   2.619  14.208 -2.6200  0.2609 -0.4862
 1649SOL     OW16408   2.710   2.182   8.451  0.2550  0.6113 -0.0141
 1649SOL    HW116409   2.780   2.184   8.387  0.4948  0.0686  0.2332
 1649SOL    HW216410   2.668   2.264   8.424 -2.6497 -1.3961 -1.5870
 1650SOL     OW16411   3.452   1.004   6.789 -0.0621 -1.0163  0.4109
 1650SOL    HW116412   3.515   0.943   6.751  0.9312  0.3492 -0.1290
 1650SOL    HW216413   3.514   1.076   6.776  0.2373 -1.2693  0.4235
 1651SOL     OW16414   2.016   4.051   7.666  0.0006  0.4416 -0.1841
 1651SOL    HW116415   2.020   4.147   7.667  0.8610  0.4080 -0.6075
 1651SOL    HW216416   1.953   4.030   7.736  0.8208 -1.0212  0.1159
 1652SOL     OW16417   3.947   0.365  13.807 -0.0358 -0.0982  0.2413
 1652SOL    HW116418   4.009   0.415  13.860 -0.2106  0.6364 -0.2553
 1652SOL    HW216419   3.996   0.285  13.787 -0.7939 -0.2380 -1.0894
 1653SOL     OW16420   2.957   4.269   7.694 -0.0464 -0.2287 -0.0820
 1653SOL    HW116421   2.929   4.304   7.779  1.2929  0.9054 -0.1030
 1653SOL    HW216422   2.887   4.308   7.642  1.2301  2.0205 -0.1251
 1654SOL     OW16423   0.941   1.308   5.762 -0.6360  0.6585  0.2872
 1654SOL    HW116424   0.869   1.335   5.705  0.8278 -2.8284 -3.2639
 1654SOL    HW216425   1.014   1.368   5.746  0.7253 -0.5895  1.8571
 1655SOL     OW16426   0.484   0.785   6.579 -0.0116 -0.1702  0.2402
 1655SOL    HW116427   0.512   0.836   6.504  1.4298 -0.3257  0.6794
 1655SOL    HW216428   0.568   0.773   6.622  0.0174 -1.7302 -0.2429
 1656SOL     OW16429   1.190   1.614   7.303 -0.0136 -0.3740  0.4154
 1656SOL    HW116430   1.238   1.574   7.376 -1.0012 -1.2845  0.5681
 1656SOL    HW216431   1.225   1.565   7.229 -0.7823 -1.3368  0.6940
 1657SOL     OW16432   0.452   0.116   8.240 -0.2893 -0.0816  0.1803
 1657SOL    HW116433   0.521   0.154   8.295 -0.8446  0.9614  0.1441
 1657SOL    HW216434   0.383   0.079   8.295 -0.1148  0.4116  0.7275
 1658SOL     OW16435   1.253   2.963   7.651 -1.1468 -0.1632  0.1972
 1658SOL    HW116436   1.247   3.052   7.686  0.6242  1.3056 -3.2296
 1658SOL    HW216437   1.348   2.956   7.654 -1.2158 -0.6460  1.2001
 1659SOL     OW16438   3.743   0.971   8.370  0.3619 -0.8255 -0.1539
 1659SOL    HW116439   3.699   1.039   8.421  0.7583 -1.2370  0.7424
 1659SOL    HW216440   3.827   0.958   8.415  0.4360 -0.4176 -0.1767
 1660SOL     OW16441   0.213   3.337   6.008 -0.1247  0.1850 -0.2501
 1660SOL    HW116442   0.301   3.300   5.998  0.3093  1.5805 -1.6495
 1660SOL    HW216443   0.156   3.261   6.009 -1.8607  1.4519 -1.6844
 1661SOL     OW16444   2.546   4.541  10.165 -0.1568  0.6303 -0.4176
 1661SOL    HW116445   2.494   4.506  10.236  1.5169  0.9361  0.9652
 1661SOL    HW216446   2.636   4.535  10.198 -0.3053 -1.3351 -0.4148
 1662SOL     OW16447   2.239   2.671  15.934 -0.3490  0.2002 -0.0854
 1662SOL    HW116448   2.327   2.691  15.965 -0.1699 -2.1377  0.8816
 1662SOL    HW216449   2.185   2.719  15.997 -0.1774  1.7951 -1.1445
 1663SOL     OW16450   0.597   0.654  15.687  0.0992 -0.0776 -0.0809
 1663SOL    HW116451   0.620   0.661  15.780 -0.7094  1.2613  0.0247
 1663SOL    HW216452   0.671   0.703  15.651 -0.3983 -0.7318 -1.9729
 1664SOL     OW16453   0.031   2.877   6.882 -0.3594 -0.1152 -0.4549
 1664SOL    HW116454   0.058   2.863   6.792  0.3414 -1.2206 -0.0700
 1664SOL    HW216455   0.111   2.917   6.918 -1.2815  1.8147 -0.5468
 1665SOL     OW16456   1.947   1.668   8.973 -0.0638  0.4742  0.2412
 1665SOL    HW116457   2.024   1.613   8.983  1.2013  2.2435  0.2903
 1665SOL    HW216458   1.983   1.748   8.934  1.0862 -0.4689 -0.6198
 1666SOL     OW16459   0.880   4.111   3.555  0.0770  0.2415 -0.4508
 1666SOL    HW116460   0.895   4.206   3.554  0.4069  0.1886 -0.6812
 1666SOL    HW216461   0.845   4.100   3.643 -0.8730  0.3391 -0.8233
 1667SOL     OW16462   3.276   2.379   3.461 -0.2372 -0.3875  0.1526
 1667SOL    HW116463   3.355   2.325   3.470 -0.2123 -0.0664  1.8753
 1667SOL    HW216464   3.242   2.391   3.549  0.1207 -0.3216  0.2824
 1668SOL     OW16465   2.764   2.883   0.763 -0.1222  0.3859  0.5349
 1668SOL    HW116466   2.805   2.951   0.709  2.5064 -0.7722  1.0859
 1668SOL    HW216467   2.831   2.815   0.764  1.2490  1.7518  0.8734
 1669SOL     OW16468   0.127   1.591   5.478 -0.2933  0.2923  0.2464
 1669SOL    HW116469   0.150   1.545   5.397  0.2642  0.1043  0.5080
 1669SOL    HW216470   0.045   1.551   5.506  0.3514  0.0704  1.8334
 1670SOL     OW16471   2.959   1.366   9.960  0.5248 -0.1676  0.0996
 1670SOL    HW116472   3.043   1.411   9.954 -0.4541  1.5342 -0.9950
 1670SOL    HW216473   2.908   1.428  10.012 -0.5474 -0.3723 -0.6921
 1671SOL     OW16474   3.493   4.427   4.572  0.3074  0.1973 -0.0258
 1671SOL    HW116475   3.431   4.371   4.525  0.4084  0.0792 -0.0207
 1671SOL    HW216476   3.503   4.501   4.512  1.2876 -0.2308 -0.3985
 1672SOL     OW16477   0.040   1.016  13.648 -0.0519 -0.0454 -0.8672
 1672SOL    HW116478   0.017   0.965  13.571 -0.6609  0.0615 -0.7595
 1672SOL    HW216479   4.715   0.968  13.716  1.9948 -2.3450 -1.0778
 1673SOL     OW16480   3.984   1.843  10.201 -0.1357 -0.0078  0.4024
 1673SOL    HW116481   3.962   1.916  10.258 -1.6285  0.3024 -0.5755
 1673SOL    HW216482   4.065   1.875  10.161 -0.9901  0.6824 -0.7592
 1674SOL     OW16483   2.608   3.591   8.366 -0.2852 -0.6329 -0.2350
 1674SOL    HW116484   2.663   3.513   8.380  1.3374  0.4901 -0.3418
 1674SOL    HW216485   2.535   3.556   8.315 -2.2298  1.8884  0.8276
 1675SOL     OW16486   3.972   1.979   0.038 -0.2578  0.2496 -0.2367
 1675SOL    HW116487   3.991   2.057   0.089 -2.5140  0.7380 -0.1311
 1675SOL    HW216488   3.984   1.913   0.106 -1.1155 -2.0022 -2.2487
 1676SOL     OW16489   4.086   0.788  17.609  0.6811 -0.9867 -0.0648
 1676SOL    HW116490   4.029   0.809  17.682  0.8794 -0.9794  0.0863
 1676SOL    HW216491   4.103   0.879  17.586 -0.2062 -0.4912  1.3012
 1677SOL     OW16492   0.830   1.524   2.313  0.4434 -0.6758  0.2663
 1677SOL    HW116493   0.854   1.585   2.243 -1.4297 -0.8779 -0.5416
 1677SOL    HW216494   0.758   1.479   2.270  0.2459  0.2317 -0.3606
 1678SOL     OW16495   3.045   2.419  14.431  0.5082  0.5072 -0.2607
 1678SOL    HW116496   3.130   2.427  14.386  0.0919 -0.3988 -1.2137
 1678SOL    HW216497   2.991   2.487  14.392  2.0599  1.1045 -1.3498
 1679SOL     OW16498   4.348   4.046   5.481  0.0013  0.1876 -0.2775
 1679SOL    HW116499   4.421   4.016   5.427  1.1654  1.0796  0.8228
 1679SOL    HW216500   4.379   4.134   5.499  2.5086 -0.6942 -0.2723
 1680SOL     OW16501   1.232   2.326   7.899  0.2010  0.6799 -0.1820
 1680SOL    HW116502   1.261   2.263   7.833 -3.8746 -0.5506 -0.8380
 1680SOL    HW216503   1.150   2.281   7.920  0.0027  1.5972  0.9894
 1681SOL     OW16504   3.771   0.515  13.631  0.0414  0.0861 -0.3496
 1681SOL    HW116505   3.823   0.593  13.650  0.1023  0.0048 -0.1845
 1681SOL    HW216506   3.828   0.445  13.662  1.4457  0.9261 -1.0052
 1682SOL     OW16507   4.103   2.362   3.644  0.4794 -0.3098 -0.0849
 1682SOL    HW116508   4.017   2.321   3.656 -0.4569  1.8654  0.5761
 1682SOL    HW216509   4.137   2.387   3.730 -0.8846 -0.6020  0.5325
 1683SOL     OW16510   3.852   2.743   7.302  0.3217 -0.4920  0.2156
 1683SOL    HW116511   3.773   2.736   7.356 -1.3743 -1.0724 -2.2893
 1683SOL    HW216512   3.876   2.832   7.327  1.6252 -0.6695 -0.4151
 1684SOL     OW16513   3.136   3.658  10.343  0.0328 -0.8867  0.2824
 1684SOL    HW116514   3.221   3.675  10.384  1.1074 -1.9038 -1.5161
 1684SOL    HW216515   3.163   3.661  10.251 -0.7413 -0.1935  0.0788
 1685SOL     OW16516   2.937   1.452  10.496  0.0124  0.4136 -0.4924
 1685SOL    HW116517   2.860   1.458  10.440 -0.8547 -1.5072  0.4857
 1685SOL    HW216518   3.004   1.438  10.429 -0.2836 -1.7119 -0.3288
 1686SOL     OW16519   3.437   4.073   7.992 -0.2165 -0.2018 -0.0016
 1686SOL    HW116520   3.347   4.105   7.993 -0.9611 -2.3089 -0.0391
 1686SOL    HW216521   3.449   4.027   8.075  0.3056  0.5954  0.3587
 1687SOL     OW16522   4.354   1.758   5.758 -0.0385  0.4573 -0.0840
 1687SOL    HW116523   4.370   1.830   5.819 -0.1995  1.0641 -0.7652
 1687SOL    HW216524   4.441   1.718   5.762  0.1846  0.6446 -2.7270
 1688SOL     OW16525   1.086   2.726   3.706 -0.4866  0.1048 -0.0862
 1688SOL    HW116526   1.032   2.787   3.657 -0.3637 -1.2459 -1.8840
 1688SOL    HW216527   1.033   2.647   3.713  1.6884 -1.2086  1.6771
 1689SOL     OW16528   1.864   2.155   1.705  0.3171 -0.2147 -0.2530
 1689SOL    HW116529   1.860   2.068   1.746 -1.6415 -0.5461 -1.1536
 1689SOL    HW216530   1.771   2.159   1.683  0.8753  1.3608 -2.2830
 1690SOL     OW16531   3.880   3.546   8.264 -0.1789  0.3674 -0.5658
 1690SOL    HW116532   3.807   3.516   8.318 -0.1582 -0.0257 -0.7507
 1690SOL    HW216533   3.837   3.518   8.183  2.1277 -1.0111 -1.3255
 1691SOL     OW16534   0.429   4.230   2.027  0.1471  0.2522 -0.3979
 1691SOL    HW116535   0.438   4.142   2.064  1.1852  0.6041  0.2046
 1691SOL    HW216536   0.434   4.214   1.933 -0.6675 -1.4526 -0.1382
 1692SOL     OW16537   0.744   3.043   0.783  0.0183  0.8913 -0.4560
 1692SOL    HW116538   0.704   3.007   0.704  0.8033 -1.1091  0.0430
 1692SOL    HW216539   0.765   3.130   0.749  0.7566 -0.2587 -2.9437
 1693SOL     OW16540   3.680   4.633   5.150 -0.1067 -0.0130  0.0527
 1693SOL    HW116541   3.611   4.698   5.164 -0.0073 -0.5067  2.8644
 1693SOL    HW216542   3.733   4.667   5.223 -0.8843 -1.7543  1.4360
 1694SOL     OW16543   2.507   1.222   2.778  0.3634 -0.2709 -0.2006
 1694SOL    HW116544   2.549   1.212   2.863  0.6355  0.2868 -0.2679
 1694SOL    HW216545   2.506   1.317   2.763 -0.6837 -0.4128 -1.0034
 1695SOL     OW16546   3.839   3.223   5.636 -0.2580 -0.5943  0.3546
 1695SOL    HW116547   3.746   3.233   5.614  0.3434  1.0964 -1.4316
 1695SOL    HW216548   3.874   3.158   5.574 -2.3213 -0.8510 -0.5382
 1696SOL     OW16549   2.720   3.855   0.855  0.0927 -0.1445  0.2067
 1696SOL    HW116550   2.767   3.884   0.777  1.5154  0.3022  1.2323
 1696SOL    HW216551   2.794   3.842   0.915  0.1791 -0.6430 -0.0063
 1697SOL     OW16552   1.311   2.842   2.523  0.3360 -0.8554 -0.4122
 1697SOL    HW116553   1.323   2.747   2.524  0.0702 -0.8745  1.2074
 1697SOL    HW216554   1.228   2.862   2.480  0.0977 -0.3051  0.2982
 1698SOL     OW16555   1.200   3.567   2.446 -0.4022 -0.0098 -0.4570
 1698SOL    HW116556   1.187   3.479   2.481 -1.6045 -0.2143 -1.4221
 1698SOL    HW216557   1.145   3.617   2.506 -1.0125  0.7786 -1.6626
 1699SOL     OW16558   0.623   2.040  17.400 -0.0937 -0.1794  0.0778
 1699SOL    HW116559   0.665   2.099  17.462  0.7359 -1.4143  0.6739
 1699SOL    HW216560   0.534   2.075  17.396 -0.6552 -1.5186  0.7031
 1700SOL     OW16561   0.006   4.347   1.747 -0.6881  0.3642 -0.4119
 1700SOL    HW116562   4.665   4.309   1.687 -1.6441  1.5069 -0.1263
 1700SOL    HW216563   0.021   4.287   1.819 -1.3634 -1.8350 -2.1243
 1701SOL     OW16564   0.574   3.411  15.376 -0.1237 -0.7259 -0.8094
 1701SOL    HW116565   0.557   3.318  15.394  1.1105 -0.6511  0.7669
 1701SOL    HW216566   0.485   3.442  15.362  0.5240  0.5967 -2.0155
 1702SOL     OW16567   1.417   1.483   4.198  0.4330 -0.1177  0.1777
 1702SOL    HW116568   1.325   1.473   4.173  0.1754  0.7185  0.7875
 1702SOL    HW216569   1.417   1.445   4.285 -1.2804  2.1918  1.2026
 1703SOL     OW16570   3.219   3.731   2.889  0.3063 -0.2565  0.0199
 1703SOL    HW116571   3.150   3.728   2.823  0.0549 -3.2092  0.3798
 1703SOL    HW216572   3.297   3.768   2.850 -1.9706  1.0368 -3.3203
 1704SOL     OW16573   1.287   0.252   1.379 -0.5705 -0.3586  0.3762
 1704SOL    HW116574   1.378   0.226   1.365 -0.4226  0.7966 -0.7839
 1704SOL    HW216575   1.284   0.323   1.443 -5.3127  0.8863 -1.2296
 1705SOL     OW16576   1.008   0.721  15.738  0.0863  0.5527 -0.0836
 1705SOL    HW116577   0.921   0.761  15.744 -0.0287  0.5237 -1.5273
 1705SOL    HW216578   1.056   0.773  15.802 -0.3440 -0.4185  1.0316
 1706SOL     OW16579   0.613   0.772   3.797 -0.5248  0.1272  0.2207
 1706SOL    HW116580   0.672   0.730   3.734  1.3601  1.8645  0.8402
 1706SOL    HW216581   0.548   0.703   3.787  2.2926 -2.4795 -0.0328
 1707SOL     OW16582   2.858   0.017   6.571 -0.4747  0.1884 -0.0442
 1707SOL    HW116583   2.791   4.678   6.600 -1.3566  1.4626  0.6452
 1707SOL    HW216584   2.799   0.083   6.533  1.2213  2.3737  1.0839
 1708SOL     OW16585   2.101   4.447   8.392  0.2968 -0.5513  0.1073
 1708SOL    HW116586   2.155   4.451   8.313 -0.6890  0.2525 -0.5359
 1708SOL    HW216587   2.109   4.535   8.428 -0.5646 -0.0410 -0.9527
 1709SOL     OW16588   3.230   4.213   7.742 -0.1052 -0.0614  0.3178
 1709SOL    HW116589   3.147   4.208   7.694 -0.1570  2.6296  0.1332
 1709SOL    HW216590   3.185   4.212   7.827  0.9010  0.5361  0.8630
 1710SOL     OW16591   3.641   2.758  11.143 -0.3372 -0.3784 -0.6387
 1710SOL    HW116592   3.578   2.736  11.075 -0.3415 -2.4823  0.0465
 1710SOL    HW216593   3.702   2.812  11.092  1.5973 -0.8589  1.1604
 1711SOL     OW16594   1.628   2.237   1.337  0.3932 -0.0882  0.0410
 1711SOL    HW116595   1.565   2.186   1.388  1.6712 -0.3165  1.3834
 1711SOL    HW216596   1.695   2.269   1.396 -0.4598 -0.3665  1.1697
 1712SOL     OW16597   1.968   3.930   5.928  0.0601  0.4679 -0.3900
 1712SOL    HW116598   1.905   3.939   5.855 -0.0904 -0.3787 -0.3693
 1712SOL    HW216599   2.053   3.937   5.885 -0.0344 -2.3235 -1.0481
 1713SOL     OW16600   4.124   0.427  14.122  0.3676  0.4287  0.4080
 1713SOL    HW116601   4.111   0.352  14.180  3.4071 -1.6826 -1.5831
 1713SOL    HW216602   4.038   0.468  14.118  1.2489  2.1076 -1.4318
 1714SOL     OW16603   1.899   2.031   7.703 -0.3930  0.4931  0.1636
 1714SOL    HW116604   1.875   2.070   7.787  0.4237 -0.0670  0.6512
 1714SOL    HW216605   1.811   1.997   7.686 -1.1248  1.6775  1.6362
 1715SOL     OW16606   2.658   4.622   0.660 -0.2103  0.1771 -0.0987
 1715SOL    HW116607   2.735   4.579   0.621 -0.5436  0.5006 -1.1091
 1715SOL    HW216608   2.667   4.713   0.630  3.4624  0.0671  0.6064
 1716SOL     OW16609   2.350   4.206   8.095 -0.5988  0.3035 -0.5316
 1716SOL    HW116610   2.445   4.216   8.091 -0.3880 -0.4196  3.1855
 1716SOL    HW216611   2.329   4.291   8.134 -0.8401 -0.0731  0.1531
 1717SOL     OW16612   0.229   2.429   3.974  0.2770  0.2806 -0.3205
 1717SOL    HW116613   0.214   2.453   4.065 -2.2345 -1.9761 -0.1829
 1717SOL    HW216614   0.248   2.336   3.980 -1.8761 -0.1087  0.3700
 1718SOL     OW16615   4.065   2.799   6.545  0.3738  0.1024  0.1767
 1718SOL    HW116616   4.059   2.738   6.619  1.3516 -0.0711  0.1106
 1718SOL    HW216617   4.126   2.868   6.571 -0.5049  1.4687 -1.3492
 1719SOL     OW16618   4.547   3.297   7.956 -0.0928  0.8450 -0.3427
 1719SOL    HW116619   4.624   3.339   7.918  0.4505  0.6628  0.5794
 1719SOL    HW216620   4.546   3.214   7.906 -0.0027  1.7133 -1.7987
 1720SOL     OW16621   0.935   1.050   7.713  0.2499 -0.6880 -0.0248
 1720SOL    HW116622   0.914   0.957   7.718 -1.7221 -0.0930  2.3870
 1720SOL    HW216623   0.866   1.071   7.650  2.1531  0.3110 -1.7792
 1721SOL     OW16624   2.900   1.779   6.973 -0.5315 -0.5058  0.3381
 1721SOL    HW116625   2.966   1.710   6.972  0.7628  0.7417 -0.9664
 1721SOL    HW216626   2.947   1.855   6.938 -0.7233  0.3514  1.9787
 1722SOL     OW16627   1.961   3.247   0.902  0.5236  0.2115 -0.1676
 1722SOL    HW116628   1.998   3.158   0.906 -0.5822 -0.4471 -4.0854
 1722SOL    HW216629   2.032   3.307   0.878  1.2638  0.0935  1.7742
 1723SOL     OW16630   1.307   3.710  10.275  0.2426  0.4444 -0.3837
 1723SOL    HW116631   1.374   3.767  10.237 -0.0725  0.7977 -0.4080
 1723SOL    HW216632   1.297   3.747  10.362 -1.9163  0.6547 -0.7257
 1724SOL     OW16633   1.576   1.681   6.432 -0.2491 -0.3010 -0.3652
 1724SOL    HW116634   1.580   1.775   6.416  1.5886 -0.1129  1.1028
 1724SOL    HW216635   1.559   1.688   6.526  0.1625  1.8166 -0.4492
 1725SOL     OW16636   0.678   3.238   7.521  0.5058 -0.3866 -0.0449
 1725SOL    HW116637   0.721   3.152   7.517 -0.6910 -1.0621  1.7894
 1725SOL    HW216638   0.678   3.249   7.616  1.3852 -0.0318 -0.0832
 1726SOL     OW16639   2.579   2.967   5.749  0.0302 -0.3324 -0.1169
 1726SOL    HW116640   2.491   2.931   5.754  0.0916 -0.3631  0.7556
 1726SOL    HW216641   2.632   2.904   5.799 -0.6957  0.3299  1.4814
 1727SOL     OW16642   3.049   1.791   2.189 -0.0233  0.5036  0.1180
 1727SOL    HW116643   3.063   1.697   2.196 -0.2992  0.3396 -1.3924
 1727SOL    HW216644   3.117   1.813   2.253 -0.0083  1.4317 -0.2070
 1728SOL     OW16645   1.262   0.929   1.825 -0.6384 -0.1487 -0.4744
 1728SOL    HW116646   1.315   0.895   1.752  1.2940  2.7149 -0.4209
 1728SOL    HW216647   1.222   0.845   1.845 -0.0529 -0.0310  1.1448
 1729SOL     OW16648   0.465   1.152   6.601  0.3536  0.2823  0.0714
 1729SOL    HW116649   0.371   1.148   6.584  0.6798  0.6601 -1.8945
 1729SOL    HW216650   0.490   1.234   6.558  2.0373  1.8402  4.0360
 1730SOL     OW16651   3.651   4.669   8.601 -0.3864 -0.2439 -0.0234
 1730SOL    HW116652   3.734   4.688   8.557 -0.5729  0.6434  0.0075
 1730SOL    HW216653   3.594   0.020   8.582  1.0080  0.2701 -2.1632
 1731SOL     OW16654   2.958   1.707  13.048 -0.1607 -0.0383  0.0319
 1731SOL    HW116655   3.002   1.624  13.067 -0.1642 -0.1272 -0.3390
 1731SOL    HW216656   2.869   1.676  13.035 -0.2930  0.7318 -0.8945
 1732SOL     OW16657   2.962   0.049   5.006  0.0225  0.2116  0.7294
 1732SOL    HW116658   3.007   0.062   5.090 -0.3008  0.5468  0.8479
 1732SOL    HW216659   2.993   0.118   4.947  2.1247 -1.3581 -0.0077
 1733SOL     OW16660   3.693   3.604  16.366 -0.2053 -0.2607  0.1916
 1733SOL    HW116661   3.648   3.524  16.342  1.2240 -0.0686 -3.0546
 1733SOL    HW216662   3.739   3.574  16.445  1.6304  0.2994 -0.6527
 1734SOL     OW16663   1.181   2.809   9.161  0.0497  0.0778  0.3680
 1734SOL    HW116664   1.190   2.821   9.256 -0.8056 -1.1634  0.6099
 1734SOL    HW216665   1.094   2.849   9.154  2.0482  4.2329 -0.5635
 1735SOL     OW16666   3.838   3.425   4.446 -0.4996  0.7351 -0.3187
 1735SOL    HW116667   3.758   3.412   4.396 -1.7340 -0.2460  1.9092
 1735SOL    HW216668   3.831   3.395   4.536 -0.2513 -0.4546 -0.6992
 1736SOL     OW16669   4.023   1.008   7.224 -0.2710  0.3029 -0.5532
 1736SOL    HW116670   3.978   0.980   7.304  0.1211 -1.3576 -0.9188
 1736SOL    HW216671   3.947   1.033   7.172 -0.0846  1.0257 -0.4813
 1737SOL     OW16672   1.631   2.246   2.788  0.1930  0.4372 -0.3049
 1737SOL    HW116673   1.578   2.325   2.800  0.4392  0.3695  1.3171
 1737SOL    HW216674   1.713   2.286   2.815  1.4793 -1.7016 -1.0642
 1738SOL     OW16675   2.269   2.498   6.542  0.5251  0.0351  0.2237
 1738SOL    HW116676   2.329   2.429   6.571  1.4361  1.3345  1.3708
 1738SOL    HW216677   2.287   2.566   6.606 -2.9752  1.5082 -0.3717
 1739SOL     OW16678   2.614   3.715   5.311 -0.5481  0.0533 -0.6847
 1739SOL    HW116679   2.573   3.768   5.243 -0.8025  1.4722  0.5751
 1739SOL    HW216680   2.619   3.635   5.259  1.5272  1.3149 -2.4175
 1740SOL     OW16681   4.138   4.501  12.004 -0.1925  0.3258 -0.0546
 1740SOL    HW116682   4.218   4.521  12.052 -1.1231  0.9182  1.2602
 1740SOL    HW216683   4.065   4.530  12.059 -1.5322 -1.2851 -0.9886
 1741SOL     OW16684   1.705   2.217   6.665  0.1301 -0.0729 -0.0874
 1741SOL    HW116685   1.790   2.183   6.637 -1.0298 -2.8560 -0.1316
 1741SOL    HW216686   1.684   2.149   6.729 -0.2991 -0.6249 -0.8223
 1742SOL     OW16687   2.791   0.860  10.353  0.1032  0.5006  0.3572
 1742SOL    HW116688   2.801   0.817  10.438  0.3948 -0.6474 -0.2583
 1742SOL    HW216689   2.765   0.948  10.383 -0.2853  0.3432  0.4850
 1743SOL     OW16690   2.060   1.999   9.532 -0.6151  0.4293  0.0186
 1743SOL    HW116691   2.076   2.058   9.458  2.6342 -0.1094  0.2873
 1743SOL    HW216692   1.980   1.956   9.500 -0.1549 -2.7770  3.1668
 1744SOL     OW16693   4.112   2.280   4.677 -0.7048  0.1843  0.2398
 1744SOL    HW116694   4.025   2.313   4.697 -0.8890  0.9423 -1.7660
 1744SOL    HW216695   4.139   2.259   4.766  2.9002  0.1501 -0.8599
 1745SOL     OW16696   4.611   1.610   6.988 -0.3278  0.8784 -0.4583
 1745SOL    HW116697   4.593   1.696   6.952 -1.2584  0.5015 -0.8967
 1745SOL    HW216698   4.633   1.564   6.907  0.8458 -0.4418  0.6070
 1746SOL     OW16699   4.462   0.594   0.299 -0.5362  0.2642  0.3654
 1746SOL    HW116700   4.503   0.633   0.222 -1.1799  0.1912 -0.0169
 1746SOL    HW216701   4.395   0.549   0.248 -1.1129 -0.0054  1.3498
 1747SOL     OW16702   0.476   1.158   5.970  0.2540  0.0636  0.1056
 1747SOL    HW116703   0.498   1.205   5.889 -1.8389 -0.4468 -0.7798
 1747SOL    HW216704   0.562   1.121   5.985 -0.5282 -0.4529  3.2263
 1748SOL     OW16705   4.646   3.475   0.199 -0.0919  0.0455 -0.0646
 1748SOL    HW116706   4.623   3.458   0.108  1.1917  0.9336 -0.5408
 1748SOL    HW216707   4.646   3.570   0.204 -0.4363  0.1649 -2.1604
 1749SOL     OW16708   3.187   0.517   5.105  0.1427  0.5543  0.0210
 1749SOL    HW116709   3.187   0.603   5.147  1.8264  0.9604 -0.7932
 1749SOL    HW216710   3.094   0.511   5.084  0.0486 -3.0766  1.4247
 1750SOL     OW16711   4.379   0.206   7.019 -0.1801  0.5200 -0.3338
 1750SOL    HW116712   4.307   0.256   7.057 -0.5469 -0.7896  0.6969
 1750SOL    HW216713   4.452   0.233   7.075 -0.4399 -0.0064  0.2688
 1751SOL     OW16714   4.143   0.800   7.074  0.5808  0.2975  0.2818
 1751SOL    HW116715   4.206   0.786   7.004  1.5053  1.1058  0.9602
 1751SOL    HW216716   4.140   0.895   7.079  1.1492  0.4230 -1.6750
 1752SOL     OW16717   4.183   4.106   0.904  0.0792 -0.1119 -0.1370
 1752SOL    HW116718   4.267   4.072   0.935  0.5248  0.0714 -1.1463
 1752SOL    HW216719   4.185   4.189   0.950  0.4466 -1.2176  1.8374
 1753SOL     OW16720   0.290   4.552   7.554  0.0577 -0.9876 -0.6649
 1753SOL    HW116721   0.228   4.503   7.607 -0.7164  2.4311  1.5904
 1753SOL    HW216722   0.331   4.477   7.512 -0.4150 -0.6624 -1.7089
 1754SOL     OW16723   1.991   0.186   2.738  0.0078 -0.0153  0.0016
 1754SOL    HW116724   2.008   0.264   2.685 -0.0027 -0.7337 -1.0551
 1754SOL    HW216725   2.014   0.220   2.824 -0.2450 -0.1019  0.1008
 1755SOL     OW16726   2.714   0.593   6.160 -0.5443 -0.3457  0.4285
 1755SOL    HW116727   2.685   0.549   6.240 -1.6913 -1.1328 -0.4218
 1755SOL    HW216728   2.807   0.609   6.175 -0.3707 -0.6255 -0.3626
 1756SOL     OW16729   0.561   2.055   8.007 -0.2946 -0.3411 -0.0780
 1756SOL    HW116730   0.534   2.146   8.021  0.4557 -0.2138  0.5171
 1756SOL    HW216731   0.485   2.010   7.969  0.6278 -0.5676 -1.6572
 1757SOL     OW16732   2.833   4.204   9.652 -0.1453 -0.8937  0.1954
 1757SOL    HW116733   2.767   4.268   9.625  1.1904  0.8602  1.1484
 1757SOL    HW216734   2.778   4.170   9.723  0.9732 -0.7675  1.1115
 1758SOL     OW16735   3.298   0.579   0.781 -0.3150  0.1900 -0.4350
 1758SOL    HW116736   3.238   0.630   0.726 -0.5803  0.9559  0.5727
 1758SOL    HW216737   3.235   0.521   0.825 -0.8076  1.0641  0.0012
 1759SOL     OW16738   4.671   0.991  14.760  0.0755 -0.0944  0.0692
 1759SOL    HW116739   4.678   0.897  14.748  2.3831 -0.2367  2.6803
 1759SOL    HW216740   0.042   1.011  14.765 -0.1275  1.1558 -1.1255
 1760SOL     OW16741   4.022   1.048   5.358  0.0487 -0.1342 -0.4436
 1760SOL    HW116742   4.075   0.988   5.305 -2.6343 -1.3613 -1.7157
 1760SOL    HW216743   4.057   1.133   5.331  1.7383 -0.7129 -0.0416
 1761SOL     OW16744   0.161   1.348   9.330 -0.3629 -0.2724 -0.0229
 1761SOL    HW116745   0.161   1.425   9.273  0.8166  1.4460  2.3324
 1761SOL    HW216746   0.238   1.303   9.293  0.7978 -0.1820  2.2703
 1762SOL     OW16747   0.755   1.451   3.564  0.0822  0.0424  0.0625
 1762SOL    HW116748   0.693   1.447   3.492  1.0444  0.3772 -0.7814
 1762SOL    HW216749   0.739   1.537   3.604 -1.8095 -0.2458 -0.0732
 1763SOL     OW16750   2.321   0.319   1.501 -0.4110  0.1083 -0.2460
 1763SOL    HW116751   2.294   0.232   1.470 -2.5378  0.4909  0.5431
 1763SOL    HW216752   2.286   0.319   1.590  2.9067 -0.2482  1.0731
 1764SOL     OW16753   0.832   3.931   7.001 -0.1421 -0.5330  0.1546
 1764SOL    HW116754   0.922   3.913   6.975 -0.3158  0.4898 -1.2033
 1764SOL    HW216755   0.828   3.875   7.078 -0.7143 -1.2275 -0.3799
 1765SOL     OW16756   1.022   2.649   1.258 -0.1840 -0.2919 -0.0093
 1765SOL    HW116757   1.069   2.647   1.341 -0.5188 -0.7540  0.1728
 1765SOL    HW216758   1.066   2.579   1.211  0.2414  0.7184 -1.1278
 1766SOL     OW16759   0.259   3.653   5.322 -0.0076  0.0298  1.0235
 1766SOL    HW116760   0.255   3.557   5.331 -1.7510  0.2394  2.3947
 1766SOL    HW216761   0.349   3.672   5.347 -0.5745  1.9673  1.5614
 1767SOL     OW16762   1.380   4.488   9.414 -0.9046 -0.3272  0.6183
 1767SOL    HW116763   1.324   4.438   9.355 -1.3647 -0.3953  1.1130
 1767SOL    HW216764   1.391   4.570   9.365 -2.1284 -1.0872 -0.9254
 1768SOL     OW16765   2.529   3.180   1.004  0.0297  0.2206  0.0751
 1768SOL    HW116766   2.517   3.243   0.933 -1.1585  0.8355  0.8116
 1768SOL    HW216767   2.522   3.102   0.950 -1.7290  1.1677 -1.0644
 1769SOL     OW16768   3.033   3.285   1.031  0.1383  0.6219  0.1978
 1769SOL    HW116769   2.981   3.209   1.058  0.0988  0.1135 -1.3052
 1769SOL    HW216770   2.988   3.312   0.951  0.4209 -0.4407 -0.3262
 1770SOL     OW16771   2.176   4.651  12.315  0.1789 -0.3747  0.6527
 1770SOL    HW116772   2.101   4.701  12.283  1.0958 -0.6880 -2.0108
 1770SOL    HW216773   2.198   4.591  12.244  0.2750 -0.0994  0.4502
 1771SOL     OW16774   4.129   1.098   4.906  0.6020 -0.0134  0.0361
 1771SOL    HW116775   4.223   1.113   4.911  0.7165 -0.8834  0.4356
 1771SOL    HW216776   4.100   1.138   4.824  0.4611 -0.8377 -0.3138
 1772SOL     OW16777   3.921   2.997  16.125 -0.2724  0.7545  0.3119
 1772SOL    HW116778   3.833   2.996  16.086 -0.4876  2.6194  0.7391
 1772SOL    HW216779   3.948   3.089  16.121  2.0867  0.0010 -0.6806
 1773SOL     OW16780   1.031   3.567  16.557 -0.3766 -0.6567 -0.0998
 1773SOL    HW116781   1.083   3.490  16.581  0.8842 -0.5498 -2.5847
 1773SOL    HW216782   1.095   3.629  16.524  0.6898 -1.5601  0.2883
 1774SOL     OW16783   0.149   4.294  13.437  0.3615 -0.2007 -0.9408
 1774SOL    HW116784   0.243   4.275  13.430 -0.3328 -3.5465 -1.1747
 1774SOL    HW216785   0.114   4.277  13.350 -1.7648  2.3519 -0.5500
 1775SOL     OW16786   3.008   4.445   1.796 -0.4696 -0.2643 -0.1384
 1775SOL    HW116787   3.073   4.430   1.727 -1.1563 -1.6722 -0.4967
 1775SOL    HW216788   3.026   4.373   1.857  3.9893  0.8533 -0.1314
 1776SOL     OW16789   1.636   3.136   5.419  0.2337  0.2342 -0.3727
 1776SOL    HW116790   1.665   3.045   5.415  1.0280  0.4718  0.0223
 1776SOL    HW216791   1.706   3.181   5.465 -0.4610  0.4650  0.4460
 1777SOL     OW16792   2.286   0.359  15.275 -0.2220  0.7426  0.4139
 1777SOL    HW116793   2.255   0.379  15.186 -1.5489  0.6458  0.8563
 1777SOL    HW216794   2.381   0.356  15.276 -0.2718 -1.9600 -2.5016
 1778SOL     OW16795   2.949   0.391  11.428  0.5042  0.3334  0.0989
 1778SOL    HW116796   3.009   0.450  11.474  1.6472  0.4274 -1.5137
 1778SOL    HW216797   2.936   0.325  11.495 -2.4917  0.1381 -0.7068
 1779SOL     OW16798   0.093   4.531   4.133  0.0088  0.0315 -0.6189
 1779SOL    HW116799   0.069   4.492   4.218 -1.4123  3.4449  0.5456
 1779SOL    HW216800   0.187   4.546   4.135  0.1287 -1.0908  2.0124
 1780SOL     OW16801   2.390   0.043  15.884  0.2083  0.1042  0.2653
 1780SOL    HW116802   2.473   0.052  15.931  0.9954 -0.9345 -0.9377
 1780SOL    HW216803   2.417   0.078  15.799  0.9604 -2.2941 -0.4988
 1781SOL     OW16804   4.078   0.690  12.534 -0.1797  0.0697  0.1726
 1781SOL    HW116805   4.144   0.652  12.476 -1.2661 -0.0334 -0.9716
 1781SOL    HW216806   4.098   0.638  12.612  3.2912  2.2886  0.7620
 1782SOL     OW16807   1.687   0.063   4.996 -0.1232  0.3926 -0.1675
 1782SOL    HW116808   1.760   0.033   5.050  0.9548 -1.0439 -2.4521
 1782SOL    HW216809   1.615   0.065   5.059  0.7578 -1.6323  0.8967
 1783SOL     OW16810   1.683   3.253  14.666  0.6692 -0.1822  0.0771
 1783SOL    HW116811   1.602   3.204  14.683  0.5246  0.1483  0.3448
 1783SOL    HW216812   1.684   3.246  14.570  0.8974  2.0823 -0.0682
 1784SOL     OW16813   2.110   0.210   8.235 -0.2864 -0.1608 -0.4307
 1784SOL    HW116814   2.060   0.130   8.215  0.1131 -0.3818 -0.5457
 1784SOL    HW216815   2.182   0.177   8.288  1.5041  0.5158 -2.4520
 1785SOL     OW16816   2.888   0.342   3.156 -1.1516  0.2272  0.8270
 1785SOL    HW116817   2.877   0.329   3.250  1.6895  1.5208  1.3419
 1785SOL    HW216818   2.796   0.350   3.130 -0.5318 -3.3231 -2.4099
 1786SOL     OW16819   0.058   2.403   5.436  0.1945  0.0660  0.2099
 1786SOL    HW116820   4.695   2.396   5.395  0.4400 -0.9819 -0.1388
 1786SOL    HW216821   0.065   2.310   5.458 -0.8600  0.6470  2.9576
 1787SOL     OW16822   2.972   3.524   8.180 -0.1724 -0.0191 -0.3684
 1787SOL    HW116823   2.885   3.532   8.140 -0.4948 -1.4940  0.0262
 1787SOL    HW216824   2.980   3.428   8.176  0.8902  0.0797 -0.5284
 1788SOL     OW16825   1.810   2.465  14.337  0.2780 -0.4412 -0.2072
 1788SOL    HW116826   1.790   2.404  14.266  0.0112  1.9465 -2.1686
 1788SOL    HW216827   1.775   2.422  14.415 -1.7737 -0.4478 -1.1290
 1789SOL     OW16828   0.097   4.178   6.054 -0.0763  0.2221  0.8477
 1789SOL    HW116829   0.083   4.102   5.997  0.0301  0.7606  0.1080
 1789SOL    HW216830   0.186   4.208   6.038 -0.3722  0.3813 -0.5311
 1790SOL     OW16831   2.842   3.180   4.160 -0.1083 -0.2744 -0.3862
 1790SOL    HW116832   2.863   3.159   4.251  2.6898  2.4256 -0.4023
 1790SOL    HW216833   2.928   3.164   4.122 -0.3663 -3.1363  0.2671
 1791SOL     OW16834   1.831   2.632  10.712  0.1677 -0.0396  0.0218
 1791SOL    HW116835   1.762   2.675  10.662  0.8126 -0.9433 -1.6887
 1791SOL    HW216836   1.815   2.539  10.691  0.1615 -0.0369  0.0145
 1792SOL     OW16837   2.154   0.326   5.867  0.0020  0.0765  0.0866
 1792SOL    HW116838   2.156   0.275   5.786 -2.0341 -1.5362  1.0445
 1792SOL    HW216839   2.105   0.394   5.821  0.1237 -0.2414 -0.5160
 1793SOL     OW16840   0.878   1.049  12.833 -0.1033  0.1223 -0.0106
 1793SOL    HW116841   0.793   1.087  12.853 -0.1824 -0.6693  1.1298
 1793SOL    HW216842   0.854   0.957  12.821  0.9586  0.0162 -1.4045
 1794SOL     OW16843   0.223   2.857   2.641  0.6572 -0.0318  0.5757
 1794SOL    HW116844   0.295   2.842   2.702  1.7579  1.3192 -0.3879
 1794SOL    HW216845   0.263   2.901   2.565 -0.3475  0.9474  0.6169
 1795SOL     OW16846   1.088   4.207   8.022 -0.9012 -0.2675  0.0437
 1795SOL    HW116847   1.005   4.162   8.003 -0.7595  0.1862 -1.7241
 1795SOL    HW216848   1.038   4.279   8.060 -3.3895 -1.3430 -1.1672
 1796SOL     OW16849   0.022   0.189   3.674  0.6878  0.0985 -0.2817
 1796SOL    HW116850   4.684   0.151   3.737 -0.0855  0.4178 -0.8316
 1796SOL    HW216851   0.093   0.128   3.653  0.0281 -0.3673 -1.1697
 1797SOL     OW16852   3.525   4.045   1.168 -0.0070  0.0761  0.3232
 1797SOL    HW116853   3.542   3.959   1.129 -0.8578 -0.2450  0.6538
 1797SOL    HW216854   3.616   4.075   1.164 -0.6778  1.9684 -0.6787
 1798SOL     OW16855   3.492   3.349  15.515  0.4810 -0.2473 -0.1323
 1798SOL    HW116856   3.513   3.292  15.589 -0.5621 -0.1664  0.2240
 1798SOL    HW216857   3.577   3.388  15.495  0.2132  0.5699  0.3061
 1799SOL     OW16858   0.546   2.573  16.213 -0.2432 -0.1859  0.2966
 1799SOL    HW116859   0.460   2.550  16.247 -0.3182  1.3679  1.1317
 1799SOL    HW216860   0.564   2.653  16.262 -0.0412 -0.7237  1.0929
 1800SOL     OW16861   1.698   3.709   7.409 -0.2426  0.3560  0.1836
 1800SOL    HW116862   1.634   3.641   7.387 -1.1255  0.8951  1.0643
 1800SOL    HW216863   1.640   3.770   7.454  0.9108  1.6619 -0.1061
 1801SOL     OW16864   2.452   4.036   0.662  1.0854 -0.4720 -0.8920
 1801SOL    HW116865   2.454   3.943   0.684 -0.4690 -0.5230 -0.9841
 1801SOL    HW216866   2.401   4.036   0.581 -0.8167 -0.6782  0.2998
 1802SOL     OW16867   3.549   2.156   5.935  0.1181 -0.6232 -0.4156
 1802SOL    HW116868   3.569   2.114   6.019 -1.3633  0.3217  0.4100
 1802SOL    HW216869   3.544   2.249   5.958 -3.4606 -0.8057 -0.3374
 1803SOL     OW16870   2.446   1.112  13.957 -0.0648  0.1487 -0.0207
 1803SOL    HW116871   2.370   1.076  14.002 -1.2091  0.1162 -2.0029
 1803SOL    HW216872   2.513   1.049  13.985 -1.0248 -0.4781  0.8492
 1804SOL     OW16873   3.664   3.882  17.654 -0.2486  0.4229  0.2263
 1804SOL    HW116874   3.605   3.954  17.635 -1.4763 -0.2055  1.6402
 1804SOL    HW216875   3.617   3.824   0.022  0.7642  0.4185  0.9982
 1805SOL     OW16876   1.970   0.959   0.187  0.2033 -0.1246 -0.4025
 1805SOL    HW116877   1.875   0.950   0.182  0.3785 -0.9083 -2.1789
 1805SOL    HW216878   1.978   0.903   0.264 -2.5041  0.6820  0.4578
 1806SOL     OW16879   3.005   0.066   2.999  0.2883 -0.2369  0.6644
 1806SOL    HW116880   2.940   4.720   3.017 -1.4222  1.3830  0.6272
 1806SOL    HW216881   2.980   0.142   3.051 -0.4173 -0.3038  0.4296
 1807SOL     OW16882   0.725   3.075  13.310  0.0386  0.6044  0.0318
 1807SOL    HW116883   0.673   3.138  13.360 -0.5938 -0.0298  0.1677
 1807SOL    HW216884   0.682   2.997  13.343 -0.5347  1.5243  1.4722
 1808SOL     OW16885   3.369   1.357  10.175  0.0746  0.1437  0.7633
 1808SOL    HW116886   3.399   1.284  10.229 -2.4888 -1.0855  0.5553
 1808SOL    HW216887   3.413   1.435  10.208 -1.0234  1.1510 -0.1466
 1809SOL     OW16888   0.434   1.946   7.262  0.2523 -0.1178 -0.9661
 1809SOL    HW116889   0.525   1.917   7.248  0.6978  1.8987 -2.3013
 1809SOL    HW216890   0.389   1.876   7.215 -1.8980  1.1084 -0.7050
 1810SOL     OW16891   2.993   4.453   3.395  0.5642  0.4754 -0.6744
 1810SOL    HW116892   2.990   4.379   3.334  0.5517 -0.8509  0.9343
 1810SOL    HW216893   2.938   4.521   3.358  1.2235  0.9077 -0.8522
 1811SOL     OW16894   1.171   3.000   8.638  0.4412  0.1710  0.6839
 1811SOL    HW116895   1.221   2.918   8.637  1.4027  0.7506  1.1849
 1811SOL    HW216896   1.103   2.983   8.573  0.0581  2.2780  0.5341
 1812SOL     OW16897   2.149   0.399  11.437 -0.0337 -0.3902 -0.0520
 1812SOL    HW116898   2.059   0.410  11.406 -0.4740 -0.7742  1.0824
 1812SOL    HW216899   2.162   0.473  11.496  1.1454 -1.1920  0.6933
 1813SOL     OW16900   2.928   4.113   8.809  0.4668  0.7901 -0.3898
 1813SOL    HW116901   3.014   4.119   8.851  0.7958  2.3521 -1.2930
 1813SOL    HW216902   2.926   4.193   8.757 -1.9292  0.3364 -0.9869
 1814SOL     OW16903   3.977   1.332   9.487  0.3643  0.0528  0.1186
 1814SOL    HW116904   3.945   1.284   9.564 -2.8362  0.4245 -0.9731
 1814SOL    HW216905   3.890   1.363   9.463  0.6429  2.2074  1.9328
 1815SOL     OW16906   2.927   2.070   1.673 -0.1411 -0.2390  0.0624
 1815SOL    HW116907   2.842   2.057   1.715 -0.2908  3.3655  0.8728
 1815SOL    HW216908   2.909   2.104   1.585  2.0204 -0.7727 -0.5791
 1816SOL     OW16909   1.744   3.848   8.064  0.4867  0.3068  0.3457
 1816SOL    HW116910   1.698   3.865   8.146  2.0724  0.2448  1.2508
 1816SOL    HW216911   1.766   3.756   8.081  1.0212  0.3713  0.0028
 1817SOL     OW16912   2.974   4.682   5.853  0.3071 -0.1154  0.1680
 1817SOL    HW116913   3.056   4.646   5.822  0.2050 -1.5845  1.6007
 1817SOL    HW216914   2.997   0.052   5.846  1.5431 -0.4316  0.1083
 1818SOL     OW16915   1.222   0.855   3.619  0.5338  0.3199  0.3097
 1818SOL    HW116916   1.137   0.817   3.641  1.1958 -1.1938  0.2659
 1818SOL    HW216917   1.270   0.847   3.702 -0.7741 -1.4965  0.8821
 1819SOL     OW16918   2.482   3.605  12.899 -0.2057 -0.1114  0.3074
 1819SOL    HW116919   2.502   3.657  12.977  0.0766 -0.2425  0.3205
 1819SOL    HW216920   2.451   3.678  12.845  1.8518  1.1042  0.7819
 1820SOL     OW16921   3.483   0.111   5.172  0.1144 -0.6820  0.3981
 1820SOL    HW116922   3.534   0.134   5.250  0.8327  0.0004 -0.2564
 1820SOL    HW216923   3.407   0.167   5.187  0.6223  0.1809 -0.2495
 1821SOL     OW16924   1.600   3.685   1.619 -0.8267 -0.2937 -0.0902
 1821SOL    HW116925   1.558   3.680   1.534 -1.0767 -1.2748  0.0866
 1821SOL    HW216926   1.543   3.629   1.671  0.5132  0.6483  2.4183
 1822SOL     OW16927   4.402   3.052   7.076 -0.2635 -0.0262 -0.5451
 1822SOL    HW116928   4.320   3.084   7.040 -1.8159 -0.7556  2.3113
 1822SOL    HW216929   4.378   2.982   7.138 -0.2167 -0.6350 -1.2078
 1823SOL     OW16930   4.689   2.792   3.815 -0.2351  0.0227 -0.2963
 1823SOL    HW116931   4.603   2.766   3.849 -0.4652  3.2749  1.5619
 1823SOL    HW216932   4.668   2.881   3.788 -2.2967 -0.5977 -0.7325
 1824SOL     OW16933   4.507   4.227  11.901 -0.3687 -0.0529 -0.0762
 1824SOL    HW116934   4.576   4.293  11.897  0.2193 -0.6077  0.8532
 1824SOL    HW216935   4.511   4.198  11.992  0.9626  1.4111  0.3305
 1825SOL     OW16936   2.374   2.772   1.116 -0.5871  0.4024  0.0257
 1825SOL    HW116937   2.334   2.703   1.169  1.6705  0.4044  1.7191
 1825SOL    HW216938   2.361   2.844   1.177 -1.9818 -0.0754  0.2918
 1826SOL     OW16939   2.157   4.322   7.626 -0.1031 -0.0024 -0.3349
 1826SOL    HW116940   2.217   4.259   7.667 -0.2064  0.4168  0.4747
 1826SOL    HW216941   2.185   4.322   7.535 -0.0991 -0.3760 -0.3318
 1827SOL     OW16942   0.314   0.982   8.720  0.7092 -0.1207  0.1284
 1827SOL    HW116943   0.369   0.920   8.671 -1.1257 -0.3484 -1.6274
 1827SOL    HW216944   0.348   0.972   8.809  2.0947  0.2359 -0.3522
 1828SOL     OW16945   3.481   3.086   4.281 -0.4002 -0.1002  0.3608
 1828SOL    HW116946   3.409   3.130   4.327  0.8674  1.0734  1.2281
 1828SOL    HW216947   3.532   3.151   4.234  1.1628 -1.8170 -0.3048
 1829SOL     OW16948   1.340   0.044   7.742 -0.0029  0.5464  0.4055
 1829SOL    HW116949   1.403   4.696   7.728  1.1913  1.5307  0.7280
 1829SOL    HW216950   1.366   0.082   7.826 -0.2830 -0.4457  0.9345
 1830SOL     OW16951   0.291   3.774  16.556 -0.7123  0.2546  0.4443
 1830SOL    HW116952   0.384   3.782  16.538 -0.8532  1.1252  0.1212
 1830SOL    HW216953   0.247   3.773  16.471 -1.4944 -0.9497  0.8494
 1831SOL     OW16954   1.135   2.057  13.510 -0.1542 -0.3763  0.0504
 1831SOL    HW116955   1.122   2.145  13.474  0.0394 -0.9996 -1.5246
 1831SOL    HW216956   1.062   2.011  13.468 -0.9013 -1.0191  2.0310
 1832SOL     OW16957   0.005   3.046   3.192  0.4408 -0.3576 -0.5186
 1832SOL    HW116958   4.703   3.114   3.130  0.0339 -0.6444 -0.6720
 1832SOL    HW216959   4.647   3.057   3.243 -1.3282  1.3230 -3.6581
 1833SOL     OW16960   1.232   1.320   5.958  0.0402  0.3544 -0.3177
 1833SOL    HW116961   1.326   1.318   5.979 -0.4602 -0.6396  1.8069
 1833SOL    HW216962   1.195   1.300   6.044 -0.3392 -1.0605 -0.8161
 1834SOL     OW16963   0.770   4.701  11.705 -0.3820  0.0395 -0.0848
 1834SOL    HW116964   0.780   4.631  11.769  1.0411  0.2052 -0.1271
 1834SOL    HW216965   0.850   0.030  11.714 -1.3782  1.3266  1.3058
 1835SOL     OW16966   2.232   3.063   4.302  0.5437 -0.6969 -0.1961
 1835SOL    HW116967   2.187   3.013   4.370  1.4520 -0.8114  0.3298
 1835SOL    HW216968   2.171   3.134   4.283  1.4448 -0.0940 -0.8162
 1836SOL     OW16969   4.158   3.225   2.648 -0.0046 -0.6749  0.4098
 1836SOL    HW116970   4.138   3.188   2.734  0.8792 -1.6138  0.2142
 1836SOL    HW216971   4.065   3.231   2.625  0.0279  1.6081  0.8927
 1837SOL     OW16972   3.541   3.402   5.282  0.5122  0.3156  0.4984
 1837SOL    HW116973   3.595   3.395   5.203  0.3016  0.7588  0.3163
 1837SOL    HW216974   3.462   3.362   5.248  1.5614 -0.8388 -0.5909
 1838SOL     OW16975   4.399   3.534   5.909 -0.0225  0.7194  0.4424
 1838SOL    HW116976   4.425   3.471   5.841  3.1319  2.2093  0.2843
 1838SOL    HW216977   4.447   3.499   5.984  1.5497 -1.6582 -1.6629
 1839SOL     OW16978   4.249   1.011   7.878  0.1851  0.4789  0.1662
 1839SOL    HW116979   4.165   1.025   7.921 -0.1537 -1.6390  0.1836
 1839SOL    HW216980   4.222   1.033   7.789 -0.2399  1.9676  0.6632
 1840SOL     OW16981   0.085   2.235   7.779  0.0509  0.4018 -0.6302
 1840SOL    HW116982   0.099   2.328   7.800 -2.5329  0.4428  0.8235
 1840SOL    HW216983   0.091   2.238   7.683  1.4002 -0.7467 -0.5889
 1841SOL     OW16984   4.511   0.060  14.743 -0.4401  0.2501 -0.1823
 1841SOL    HW116985   4.581   0.024  14.688 -1.6080 -4.1300  1.1820
 1841SOL    HW216986   4.560   0.055  14.825  0.7827 -0.5273 -0.9661
 1842SOL     OW16987   4.243   2.846   5.475 -0.3048 -0.3922  0.9224
 1842SOL    HW116988   4.246   2.907   5.401 -0.9851 -1.7525 -0.2214
 1842SOL    HW216989   4.333   2.817   5.462  0.1354  1.8032 -0.9005
 1843SOL     OW16990   1.411   1.542   7.880 -0.4504  0.5033 -0.3379
 1843SOL    HW116991   1.468   1.522   7.954  0.0042 -0.2046 -0.8832
 1843SOL    HW216992   1.481   1.549   7.815 -0.9851 -0.9778 -1.0584
 1844SOL     OW16993   3.084   1.674   7.824 -0.2813  0.5269 -0.5026
 1844SOL    HW116994   3.017   1.682   7.893 -0.6808 -2.5747 -0.5519
 1844SOL    HW216995   3.046   1.605   7.771 -1.6088 -0.5574  1.8425
 1845SOL     OW16996   3.478   1.797   2.541  0.2516 -0.3634 -0.3443
 1845SOL    HW116997   3.538   1.836   2.477  0.0409  0.9826  0.2923
 1845SOL    HW216998   3.390   1.822   2.512  0.6747 -0.5506 -1.7801
 1846SOL     OW16999   0.436   2.349   7.576  0.1789  0.3063 -0.1731
 1846SOL    HW117000   0.421   2.305   7.492 -0.6517 -0.4297  0.3504
 1846SOL    HW217001   0.358   2.404   7.579  1.0698  1.4729  1.3535
 1847SOL     OW17002   0.802   1.428   0.675  0.3863 -0.3327  0.7540
 1847SOL    HW117003   0.864   1.411   0.605 -0.7513 -0.3459 -0.2417
 1847SOL    HW217004   0.746   1.486   0.624  1.5628 -1.5559 -1.9304
 1848SOL     OW17005   0.823   1.290  12.693 -0.2703  0.0965 -0.1733
 1848SOL    HW117006   0.808   1.196  12.706 -0.5950  0.0407 -0.9806
 1848SOL    HW217007   0.906   1.299  12.646  0.1857  0.9715  0.7778
 1849SOL     OW17008   4.205   3.426   1.796 -0.1581  0.0220 -0.0064
 1849SOL    HW117009   4.225   3.498   1.856  0.5478 -0.9656  0.9377
 1849SOL    HW217010   4.217   3.458   1.706 -1.6235  1.0553  0.1712
 1850SOL     OW17011   2.246   0.637   5.607 -0.4853 -0.0963  0.0088
 1850SOL    HW117012   2.189   0.605   5.677  0.9819 -1.1326  0.7436
 1850SOL    HW217013   2.193   0.702   5.562  0.4908 -0.1869 -1.2580
 1851SOL     OW17014   2.518   0.374   3.424 -0.0243  0.5051 -0.5215
 1851SOL    HW117015   2.506   0.378   3.518  0.1383  0.5481 -0.5017
 1851SOL    HW217016   2.430   0.399   3.398 -0.1354  1.5125  0.8467
 1852SOL     OW17017   3.565   3.114   3.077  0.3713  0.4672 -0.5596
 1852SOL    HW117018   3.512   3.129   2.998 -1.2273  2.1145  0.8162
 1852SOL    HW217019   3.574   3.205   3.107  1.3010 -0.0735  0.7616
 1853SOL     OW17020   2.635   2.128   3.554  0.3637 -0.0172 -0.0786
 1853SOL    HW117021   2.648   2.049   3.608 -1.7542  0.2849  0.8877
 1853SOL    HW217022   2.560   2.163   3.602 -0.0781  0.6923 -1.2947
 1854SOL     OW17023   2.540   0.762   6.072  0.4819 -0.0432 -0.6476
 1854SOL    HW117024   2.600   0.710   6.125  0.8273  0.9112 -0.0980
 1854SOL    HW217025   2.535   0.702   5.998  0.3333 -1.3735  0.4421
 1855SOL     OW17026   3.543   3.062   5.407  0.2795  0.2601  0.2673
 1855SOL    HW117027   3.515   3.075   5.316 -0.6413  1.3063  0.7049
 1855SOL    HW217028   3.548   3.148   5.448  0.7616  1.2865 -1.9635
 1856SOL     OW17029   2.256   2.240   4.002  0.0390  0.2382 -0.1673
 1856SOL    HW117030   2.180   2.275   3.957 -1.4861 -2.3526  0.4067
 1856SOL    HW217031   2.291   2.175   3.941  0.6525 -1.2460  1.7619
 1857SOL     OW17032   1.927   2.423   3.455  0.0714 -0.7246  0.4350
 1857SOL    HW117033   1.986   2.417   3.381 -0.3046  4.1115 -0.2130
 1857SOL    HW217034   1.972   2.364   3.516 -0.0863 -3.1894 -1.8076
 1858SOL     OW17035   1.653   2.454  16.534  0.5589 -0.1018 -0.1297
 1858SOL    HW117036   1.735   2.437  16.487  0.0753  0.3450 -1.1431
 1858SOL    HW217037   1.590   2.397  16.490 -0.6992  1.6292 -0.5417
 1859SOL     OW17038   2.379   4.081   3.274 -0.2662 -0.2731  0.3045
 1859SOL    HW117039   2.357   4.029   3.351 -0.5735 -0.9572 -0.2477
 1859SOL    HW217040   2.394   4.010   3.211 -0.9472  0.1305 -0.3162
 1860SOL     OW17041   2.536   1.453  12.006  0.1157 -0.2064  0.0789
 1860SOL    HW117042   2.585   1.373  11.986  2.2028  1.4318 -1.3165
 1860SOL    HW217043   2.602   1.519  11.985 -2.0709  1.7694 -0.5833
 1861SOL     OW17044   0.930   2.737   5.833  0.3312 -0.6921 -0.0389
 1861SOL    HW117045   0.952   2.674   5.766 -0.7996 -0.6669 -0.4374
 1861SOL    HW217046   1.017   2.764   5.862  0.5747  0.1582 -1.5496
 1862SOL     OW17047   2.479   0.411   7.623 -0.3201 -0.3454  0.2900
 1862SOL    HW117048   2.553   0.464   7.650 -1.2822  0.7388  0.8028
 1862SOL    HW217049   2.524   0.340   7.577  0.2206  0.8059 -0.9525
 1863SOL     OW17050   2.980   2.929  14.681  0.2906  0.2170 -0.1549
 1863SOL    HW117051   3.055   2.894  14.730  2.0602  3.6438 -0.4139
 1863SOL    HW217052   2.957   2.862  14.617  1.7564 -0.7833  0.3744
 1864SOL     OW17053   1.774   0.786   8.704 -0.5186 -0.6554 -0.0272
 1864SOL    HW117054   1.860   0.776   8.744  0.2240  0.0407 -1.4632
 1864SOL    HW217055   1.800   0.751   8.619 -2.8933  1.7529 -1.7460
 1865SOL     OW17056   4.666   4.105   4.773 -0.2188  0.6423 -0.2203
 1865SOL    HW117057   4.648   4.151   4.855 -1.3098  1.4437 -0.9090
 1865SOL    HW217058   4.610   4.155   4.713 -0.7642  0.2677 -0.0287
 1866SOL     OW17059   1.467   3.366  16.462 -0.0703  0.3965  0.0771
 1866SOL    HW117060   1.531   3.360  16.391 -1.5912  0.4625 -1.2978
 1866SOL    HW217061   1.497   3.441  16.513 -0.2764 -0.3008  1.2196
 1867SOL     OW17062   3.578   3.688   5.247 -0.7462 -0.1615  0.1515
 1867SOL    HW117063   3.561   3.594   5.245  2.4497 -0.6783 -3.4918
 1867SOL    HW217064   3.556   3.706   5.155  0.3505  0.7634  0.0810
 1868SOL     OW17065   4.561   2.110   7.840  0.5264 -0.2083  0.1824
 1868SOL    HW117066   4.642   2.146   7.804  0.5576 -0.7767 -0.3042
 1868SOL    HW217067   4.583   2.023   7.872 -1.3079 -0.8731 -0.3788
 1869SOL     OW17068   1.390   2.744   3.640  0.8591  0.0773 -0.3627
 1869SOL    HW117069   1.330   2.818   3.652 -0.9012 -1.4291  0.1174
 1869SOL    HW217070   1.323   2.676   3.636  0.3417  0.7402 -2.8506
 1870SOL     OW17071   4.098   4.554   6.242  0.7466 -0.2758 -0.1278
 1870SOL    HW117072   4.084   4.533   6.334 -0.0422  0.1171 -0.1610
 1870SOL    HW217073   4.015   4.590   6.210  1.1216  0.7000 -0.0143
 1871SOL     OW17074   3.639   3.873  11.156  0.7518  0.0199  0.4314
 1871SOL    HW117075   3.670   3.813  11.224 -0.1443 -0.0450  0.7963
 1871SOL    HW217076   3.642   3.957  11.203  0.5397 -0.7404  1.8212
 1872SOL     OW17077   1.997   3.769   4.296 -0.3648 -0.4783 -0.2550
 1872SOL    HW117078   1.952   3.712   4.234 -1.0767  0.1803 -0.3492
 1872SOL    HW217079   2.069   3.717   4.331 -1.0549 -1.0458  0.3185
 1873SOL     OW17080   3.005   3.783  16.299 -0.1657  0.0527 -0.4915
 1873SOL    HW117081   2.960   3.826  16.372  1.1381 -0.8032  0.8043
 1873SOL    HW217082   2.982   3.693  16.322 -1.0089  0.5789  0.7065
 1874SOL     OW17083   2.016   1.549   2.820 -0.2334 -0.1400  0.2331
 1874SOL    HW117084   1.993   1.641   2.828  1.9508  0.5189 -0.8459
 1874SOL    HW217085   2.048   1.541   2.730 -0.6631 -1.8913  0.2262
 1875SOL     OW17086   2.773   4.014   5.044 -0.2160 -0.4444  0.2121
 1875SOL    HW117087   2.809   4.042   4.960  0.8502 -1.5569  0.2890
 1875SOL    HW217088   2.680   4.000   5.025 -0.6739  0.6917  1.6034
 1876SOL     OW17089   2.628   4.442  11.298  0.0853  0.6930 -0.3121
 1876SOL    HW117090   2.609   4.532  11.272 -1.2773  0.9035  1.4270
 1876SOL    HW217091   2.541   4.405  11.284  1.5654 -2.0643 -2.1812
 1877SOL     OW17092   4.714   3.615   0.957  0.0225 -0.3100 -0.1638
 1877SOL    HW117093   4.636   3.569   0.926 -0.2852  0.2342 -0.1952
 1877SOL    HW217094   0.041   3.621   0.875  0.7567  0.5733  0.3551
 1878SOL     OW17095   2.581   3.722   6.893 -0.0593  0.5159 -0.2141
 1878SOL    HW117096   2.650   3.655   6.901 -0.1722  0.3987 -0.2177
 1878SOL    HW217097   2.607   3.763   6.976 -0.4707  2.5465 -1.1011
 1879SOL     OW17098   2.573   3.479   8.845 -0.0475  0.1460 -0.4228
 1879SOL    HW117099   2.564   3.448   8.935  0.8077  0.3899 -0.2544
 1879SOL    HW217100   2.655   3.528   8.842 -0.3898  0.7953  0.8360
 1880SOL     OW17101   0.092   4.138   0.067 -0.1340  0.2348 -0.4365
 1880SOL    HW117102   0.119   4.047   0.084  1.5692  0.5219 -1.6479
 1880SOL    HW217103   0.171   4.189   0.083 -0.6970  0.3596  1.9399
 1881SOL     OW17104   1.566   4.359  10.940 -0.5476  0.1326 -0.7719
 1881SOL    HW117105   1.471   4.348  10.944 -0.5875  0.0589 -1.8238
 1881SOL    HW217106   1.587   4.271  10.907 -2.8614 -1.2572  1.5287
 1882SOL     OW17107   4.043   4.125   9.694  0.5678  0.7276  0.1689
 1882SOL    HW117108   3.967   4.079   9.729  0.6292  0.5008 -0.0017
 1882SOL    HW217109   4.076   4.162   9.776  1.3839 -0.2669  0.2793
 1883SOL     OW17110   1.834   2.080   4.204  0.2987 -0.1501 -0.2482
 1883SOL    HW117111   1.926   2.093   4.227  0.7961 -0.5379 -2.0767
 1883SOL    HW217112   1.838   2.026   4.125  0.5405  2.5137 -2.0597
 1884SOL     OW17113   2.074   3.068   8.857  0.9563  0.3418 -0.3622
 1884SOL    HW117114   2.028   3.134   8.804  2.3216  1.0050 -0.7314
 1884SOL    HW217115   2.104   3.118   8.933  0.5153 -1.3602  0.9184
 1885SOL     OW17116   3.106   4.532  12.276  0.1536  0.2924 -0.2072
 1885SOL    HW117117   3.109   4.628  12.279 -0.0292  0.2753  0.5621
 1885SOL    HW217118   3.054   4.503  12.351 -0.0670  0.4867 -0.2842
 1886SOL     OW17119   0.707   1.553   8.701 -0.2223 -0.3489  0.1127
 1886SOL    HW117120   0.614   1.555   8.679 -0.4281 -2.6954  0.7517
 1886SOL    HW217121   0.700   1.582   8.792  0.9214 -1.1757  0.4701
 1887SOL     OW17122   2.041   4.350   1.281  0.3557  0.2848  0.0290
 1887SOL    HW117123   2.023   4.303   1.363  2.3087  1.0615  0.9114
 1887SOL    HW217124   2.137   4.340   1.281  0.3095 -0.2186  0.5626
 1888SOL     OW17125   0.841   2.897   7.771 -0.3407  0.2853  0.4167
 1888SOL    HW117126   0.788   2.954   7.716 -0.9297  0.9316  1.6665
 1888SOL    HW217127   0.840   2.819   7.715  0.3304  0.8089 -0.3355
 1889SOL     OW17128   3.849   3.389   6.267  0.0943 -0.2293 -0.1078
 1889SOL    HW117129   3.896   3.472   6.273  0.7108 -0.6042  0.1464
 1889SOL    HW217130   3.891   3.348   6.191 -1.8351  0.9672 -1.8414
 1890SOL     OW17131   0.422   3.729  12.109  0.4550  0.3410  0.7360
 1890SOL    HW117132   0.486   3.748  12.177  1.3824 -2.6734  0.6907
 1890SOL    HW217133   0.466   3.734  12.024  2.1200 -0.6142  1.5554
 1891SOL     OW17134   2.963   4.283   2.417 -0.2240  0.2374  0.4542
 1891SOL    HW117135   2.956   4.317   2.506 -0.8562 -1.2160  0.9630
 1891SOL    HW217136   2.942   4.192   2.441 -0.2464 -0.0060 -0.4897
 1892SOL     OW17137   1.052   3.351   6.094  0.2749  0.3135 -0.4340
 1892SOL    HW117138   1.100   3.271   6.074 -0.9540 -0.7331  0.7720
 1892SOL    HW217139   1.033   3.404   6.017 -0.9651  1.2401  0.5118
 1893SOL     OW17140   1.411   1.000   9.135  0.1279  0.3911  0.2115
 1893SOL    HW117141   1.458   1.073   9.175  0.8365  0.8499 -1.4857
 1893SOL    HW217142   1.412   1.024   9.042 -0.3402  0.4357  0.2205
 1894SOL     OW17143   4.250   4.625  16.154  0.1954  0.2681 -0.3134
 1894SOL    HW117144   4.326   4.660  16.201  0.7652 -0.6025 -0.5867
 1894SOL    HW217145   4.219   4.559  16.216  1.5524  0.4341  0.5440
 1895SOL     OW17146   0.036   0.537  14.052  0.4508  0.2469  0.2617
 1895SOL    HW117147   4.706   0.460  14.031  1.6517  0.7169 -4.3351
 1895SOL    HW217148   0.080   0.495  14.126 -0.7743 -0.8378  0.3701
 1896SOL     OW17149   2.529   0.569   6.819 -0.1833 -0.3521  0.4123
 1896SOL    HW117150   2.537   0.475   6.833  0.9306  0.0371  2.3685
 1896SOL    HW217151   2.598   0.607   6.874  0.1311 -1.7322  0.9596
 1897SOL     OW17152   3.505   3.998   6.867  0.9671  0.3054  0.1936
 1897SOL    HW117153   3.526   3.958   6.782  2.3446 -0.2568  0.8061
 1897SOL    HW217154   3.413   3.975   6.878  0.5362  0.4604 -3.0390
 1898SOL     OW17155   2.144   2.445   2.300  0.6165 -0.0985 -0.4105
 1898SOL    HW117156   2.089   2.383   2.252  1.2346  0.5246 -1.9369
 1898SOL    HW217157   2.087   2.467   2.374  1.4489  1.3263 -0.1915
 1899SOL     OW17158   2.453   0.149  10.088 -0.0792 -0.3640  0.5767
 1899SOL    HW117159   2.400   0.121  10.014 -1.1076  1.3300  0.6721
 1899SOL    HW217160   2.512   0.209  10.043 -1.2647  1.3197  1.2923
 1900SOL     OW17161   4.140   2.095   8.214  0.3200  0.1486 -1.4106
 1900SOL    HW117162   4.168   2.122   8.127  1.3168  1.2939 -0.7488
 1900SOL    HW217163   4.045   2.103   8.203  0.1191 -2.7584 -1.6837
 1901SOL     OW17164   0.153   0.884   4.567 -0.8446 -0.5020 -0.4086
 1901SOL    HW117165   0.066   0.916   4.588 -0.6404 -0.5517  0.5237
 1901SOL    HW217166   0.126   0.801   4.528 -0.6160  0.0006 -1.6430
 1902SOL     OW17167   4.407   1.305   0.853 -0.2537 -0.3581  0.4784
 1902SOL    HW117168   4.390   1.223   0.806 -1.0602  0.3942 -0.5222
 1902SOL    HW217169   4.471   1.334   0.789 -1.8369  0.8182 -0.5388
 1903SOL     OW17170   1.183   1.810   8.027 -0.3751 -0.3588 -0.1561
 1903SOL    HW117171   1.136   1.784   7.948 -0.3560 -3.0786  0.7458
 1903SOL    HW217172   1.105   1.839   8.075  0.5153  1.7868  0.0054
 1904SOL     OW17173   2.868   3.102  16.948 -0.2069  0.6579 -0.6379
 1904SOL    HW117174   2.774   3.119  16.939 -0.2427  1.2231  0.7517
 1904SOL    HW217175   2.901   3.171  16.892 -0.6930  1.4861  0.1017
 1905SOL     OW17176   1.532   2.115   4.839 -0.1752  0.3763 -0.1915
 1905SOL    HW117177   1.552   2.042   4.781  1.5896 -0.0350  0.9383
 1905SOL    HW217178   1.601   2.114   4.906  0.0458  1.8762 -0.3870
 1906SOL     OW17179   4.155   1.267  17.336  0.0322  0.2913 -0.4152
 1906SOL    HW117180   4.205   1.186  17.343 -0.4613  0.1950  1.8898
 1906SOL    HW217181   4.154   1.296  17.427 -2.7036 -0.7898 -0.0730
 1907SOL     OW17182   2.342   1.813   1.763  0.1408  0.3137  0.5468
 1907SOL    HW117183   2.416   1.818   1.824  0.9325 -0.2413 -0.3758
 1907SOL    HW217184   2.347   1.723   1.731 -0.8608  0.1731  0.7809
 1908SOL     OW17185   0.528   2.747   9.455  0.3917  0.4763 -0.5245
 1908SOL    HW117186   0.440   2.727   9.485  1.1954 -0.9269  0.9065
 1908SOL    HW217187   0.582   2.709   9.525  2.1829  0.0456 -2.1384
 1909SOL     OW17188   2.122   1.339   6.461 -0.2280  0.2275  0.0477
 1909SOL    HW117189   2.125   1.250   6.426 -1.6385 -0.1342  0.8696
 1909SOL    HW217190   2.216   1.356   6.458 -0.5072  1.7821 -0.0538
 1910SOL     OW17191   1.725   1.143   6.364  0.1564 -0.1834 -0.5689
 1910SOL    HW117192   1.753   1.075   6.425  0.4961 -0.6384 -1.2324
 1910SOL    HW217193   1.694   1.209   6.426 -0.3323 -1.7946  0.9065
 1911SOL     OW17194   3.604   1.428   1.513 -0.7471  0.3600 -0.4834
 1911SOL    HW117195   3.681   1.472   1.549 -1.2092 -0.1852  1.1289
 1911SOL    HW217196   3.630   1.343   1.477  1.1027  1.6221 -2.1688
 1912SOL     OW17197   2.295   1.356  11.093 -0.2220 -0.1730  0.4319
 1912SOL    HW117198   2.327   1.266  11.082 -1.4069 -0.4315 -0.9278
 1912SOL    HW217199   2.289   1.391  11.004 -0.4540 -0.7157  0.2345
 1913SOL     OW17200   1.342   0.286   2.466  0.2568  0.5813 -0.0813
 1913SOL    HW117201   1.420   0.234   2.489  1.0291  1.8691  0.1836
 1913SOL    HW217202   1.283   0.235   2.521  0.7189 -0.3965 -0.4929
 1914SOL     OW17203   1.991   0.710  16.378  0.3228 -0.1565 -0.2660
 1914SOL    HW117204   1.988   0.722  16.283 -2.0055 -1.3513 -0.3211
 1914SOL    HW217205   2.065   0.648  16.376 -0.2384 -0.8585  0.7860
 1915SOL     OW17206   4.407   0.273   4.742 -0.3400  0.1005 -0.1769
 1915SOL    HW117207   4.388   0.198   4.799  1.5517 -0.3160 -0.0872
 1915SOL    HW217208   4.474   0.237   4.684 -0.6517  0.9355 -1.0477
 1916SOL     OW17209   3.920   1.560  13.785 -0.1740  0.3253 -0.0921
 1916SOL    HW117210   3.843   1.600  13.744  0.2677  0.5928 -0.6550
 1916SOL    HW217211   3.880   1.475  13.803 -1.0451  1.2226  2.2552
 1917SOL     OW17212   4.367   0.508   5.374  0.2670  0.0874 -0.3123
 1917SOL    HW117213   4.339   0.431   5.324  0.3205 -0.8780  1.1507
 1917SOL    HW217214   4.429   0.552   5.316 -0.8071 -2.0633 -3.0932
 1918SOL     OW17215   3.817   1.432   8.880 -0.0336  0.5880  0.3204
 1918SOL    HW117216   3.840   1.487   8.955  1.5502 -1.1201  1.0842
 1918SOL    HW217217   3.892   1.373   8.866  0.6558  1.5589 -0.1131
 1919SOL     OW17218   3.070   0.034  10.571 -0.7201 -0.2890  0.6091
 1919SOL    HW117219   3.005   4.700  10.530 -1.8163  0.9827  0.5761
 1919SOL    HW217220   3.013   0.104  10.605 -1.9769 -0.3560 -1.3212
 1920SOL     OW17221   1.004   2.302   8.940  0.2598 -0.1494  0.3760
 1920SOL    HW117222   1.065   2.317   9.012  0.8387  3.4463 -0.8712
 1920SOL    HW217223   0.922   2.274   8.981 -0.1873  0.5709 -0.0312
 1921SOL     OW17224   2.905   1.640   1.713  0.9589  0.0723 -0.4315
 1921SOL    HW117225   2.982   1.695   1.731  0.7314  1.0537 -2.5020
 1921SOL    HW217226   2.931   1.582   1.642  1.5272  2.9830 -2.5805
 1922SOL     OW17227   1.427   1.389   4.453  0.1449 -0.3474 -0.1574
 1922SOL    HW117228   1.488   1.355   4.519 -2.9381 -1.2702  2.1989
 1922SOL    HW217229   1.356   1.427   4.505  0.1531  0.7039 -0.9276
 1923SOL     OW17230   3.167   0.529   3.371  0.5188  0.2414  0.1049
 1923SOL    HW117231   3.095   0.537   3.433 -1.9797  0.3219 -2.7675
 1923SOL    HW217232   3.235   0.491   3.427  1.2670 -1.0141 -1.6446
 1924SOL     OW17233   2.971   4.655  12.743  0.2591 -0.2054  0.0056
 1924SOL    HW117234   3.049   4.700  12.711  1.3492 -2.6468 -0.7517
 1924SOL    HW217235   2.935   4.717  12.807  0.1678 -0.6933  0.4255
 1925SOL     OW17236   1.367   3.408  14.931 -0.1595 -0.7326 -0.4408
 1925SOL    HW117237   1.316   3.489  14.928 -1.1037 -1.2954  0.7334
 1925SOL    HW217238   1.456   3.439  14.949 -0.6361  0.4736 -0.1467
 1926SOL     OW17239   1.863   4.147  17.555  0.1315  0.0047  0.6360
 1926SOL    HW117240   1.881   4.233  17.516  1.9184 -0.6436  0.0303
 1926SOL    HW217241   1.797   4.119  17.492  1.2902  0.6525 -0.8731
 1927SOL     OW17242   2.662   1.374   0.646 -0.1989 -0.6268  0.6410
 1927SOL    HW117243   2.655   1.318   0.724 -1.6994 -2.1866 -0.5962
 1927SOL    HW217244   2.611   1.450   0.673  1.9180  1.1363 -0.3731
 1928SOL     OW17245   0.449   4.027   4.130  0.4655 -0.5228  0.4986
 1928SOL    HW117246   0.420   4.097   4.188  0.3385 -0.3323  0.2060
 1928SOL    HW217247   0.448   4.063   4.042  0.3249  1.0250  1.1455
 1929SOL     OW17248   4.393   4.376   1.729 -0.6256 -0.2755 -0.1588
 1929SOL    HW117249   4.343   4.450   1.694  1.0160  0.4238 -1.0130
 1929SOL    HW217250   4.424   4.354   1.642  1.2364  0.7026  0.2614
 1930SOL     OW17251   2.438   4.578  10.636  0.4174  0.2624 -0.0039
 1930SOL    HW117252   2.531   4.600  10.642  0.4814  0.1373 -0.5251
 1930SOL    HW217253   2.409   4.618  10.718 -0.3696  1.2144 -0.7462
 1931SOL     OW17254   1.627   3.533  14.963  0.1834  0.3392 -0.1064
 1931SOL    HW117255   1.610   3.614  14.914  0.0767  0.6150  0.3856
 1931SOL    HW217256   1.719   3.535  14.986  0.4240  1.9650 -1.1452
 1932SOL     OW17257   0.402   1.031   2.958 -0.3290 -0.2618  0.6010
 1932SOL    HW117258   0.347   0.968   3.004 -0.6147 -1.0591 -0.8363
 1932SOL    HW217259   0.473   1.042   3.021 -2.0527  2.6179  2.0209
 1933SOL     OW17260   1.336   4.242   4.356 -0.2532 -0.2203 -0.2788
 1933SOL    HW117261   1.406   4.300   4.383 -2.4014  2.2678 -0.0687
 1933SOL    HW217262   1.276   4.302   4.311  0.0035  1.3868  1.5583
 1934SOL     OW17263   2.360   1.951   7.841  0.5331  0.0927  0.0412
 1934SOL    HW117264   2.378   1.901   7.762  1.0305 -1.9369  1.4349
 1934SOL    HW217265   2.382   1.882   7.903  4.2315 -0.3197 -1.7248
 1935SOL     OW17266   3.835   3.394   1.983  0.2262 -0.6614  0.1987
 1935SOL    HW117267   3.772   3.444   2.034 -1.2087 -0.9992 -1.2535
 1935SOL    HW217268   3.906   3.457   1.969  0.2385 -1.3840 -3.1017
 1936SOL     OW17269   0.895   0.915  15.391 -0.1009  0.2502 -0.8958
 1936SOL    HW117270   0.870   0.848  15.328  1.2429  1.0140 -2.2420
 1936SOL    HW217271   0.978   0.947  15.356  0.1220  1.8582  1.1169
 1937SOL     OW17272   2.639   1.332   6.691 -0.0907  0.2594  0.0663
 1937SOL    HW117273   2.726   1.309   6.722  0.3325  1.1016 -0.4945
 1937SOL    HW217274   2.622   1.425   6.706 -1.1984 -0.0184  0.5307
 1938SOL     OW17275   2.939   2.478   3.756  0.1415  0.6071  0.1810
 1938SOL    HW117276   2.911   2.475   3.847 -0.4603 -1.8328 -0.0740
 1938SOL    HW217277   2.859   2.463   3.705 -1.8564  1.2061  3.1329
 1939SOL     OW17278   2.710   0.815   3.971 -0.0551 -0.4629 -0.5776
 1939SOL    HW117279   2.781   0.819   3.907  0.9611  0.7227  0.6292
 1939SOL    HW217280   2.667   0.735   3.940  0.2702 -1.0073  0.3783
 1940SOL     OW17281   0.516   0.376  10.586  0.3661  0.2999  0.0099
 1940SOL    HW117282   0.541   0.460  10.624 -0.8715  1.2482 -1.2733
 1940SOL    HW217283   0.594   0.321  10.592  1.3344  1.5368 -1.4832
 1941SOL     OW17284   2.683   0.157   0.567  0.5208  0.8084 -0.0455
 1941SOL    HW117285   2.674   0.219   0.495 -0.1749 -1.4300 -1.9011
 1941SOL    HW217286   2.665   0.203   0.649  0.0807  0.4731  0.0480
 1942SOL     OW17287   3.791   2.118  10.824  0.0527  0.2740  0.0324
 1942SOL    HW117288   3.749   2.199  10.851  0.6594  0.7975 -0.5655
 1942SOL    HW217289   3.878   2.137  10.860  1.2665 -0.5852 -2.4219
 1943SOL     OW17290   0.877   1.437   1.623 -0.1341  0.5620  0.5280
 1943SOL    HW117291   0.949   1.491   1.656 -0.5283  2.0207 -0.9828
 1943SOL    HW217292   0.805   1.478   1.671 -0.1225  1.6712 -0.3876
 1944SOL     OW17293   4.542   3.318   5.724  0.1908  0.2083 -0.2101
 1944SOL    HW117294   4.511   3.356   5.641 -0.2180 -1.7790 -0.9620
 1944SOL    HW217295   4.542   3.227   5.695  0.3212  0.1640 -0.0672
 1945SOL     OW17296   0.799   0.175   5.766  0.4361  0.4661 -0.0339
 1945SOL    HW117297   0.706   0.180   5.785  0.1247 -1.0473 -1.0925
 1945SOL    HW217298   0.804   0.184   5.671  0.1461 -2.2367 -0.3163
 1946SOL     OW17299   2.499   1.743  11.424  0.1766 -0.3242 -0.4194
 1946SOL    HW117300   2.526   1.828  11.458  1.1772 -1.2506  1.1124
 1946SOL    HW217301   2.409   1.762  11.398 -0.0785  1.2010  1.5721
 1947SOL     OW17302   0.257   4.179   1.334 -0.3336  0.1180  0.8190
 1947SOL    HW117303   0.181   4.237   1.335 -0.8090 -0.5004 -0.3453
 1947SOL    HW217304   0.307   4.213   1.260 -1.0757  0.3992  0.4481
 1948SOL     OW17305   1.822   3.749   6.359  0.0310 -0.4455  0.2366
 1948SOL    HW117306   1.866   3.804   6.424  0.9858 -1.7653  0.7129
 1948SOL    HW217307   1.735   3.763   6.394 -0.1290  0.2430 -0.4338
 1949SOL     OW17308   0.579   2.989   8.429 -0.8926  0.4361 -0.0559
 1949SOL    HW117309   0.609   2.968   8.517  2.1358  0.6401 -1.0502
 1949SOL    HW217310   0.637   2.937   8.373 -1.5299 -0.5204  0.1620
 1950SOL     OW17311   1.230   3.340  16.577  0.4492 -0.0164 -0.2103
 1950SOL    HW117312   1.187   3.258  16.551 -0.3063  1.4330 -3.5452
 1950SOL    HW217313   1.312   3.339  16.529 -0.0641  0.3219 -1.0990
 1951SOL     OW17314   4.509   3.946   6.976  0.7870 -0.1767 -0.3611
 1951SOL    HW117315   4.517   4.040   6.996 -0.4397 -0.2705  0.5401
 1951SOL    HW217316   4.421   3.939   6.940  1.2807  0.4110 -1.7102
 1952SOL     OW17317   0.395   1.791   7.474 -0.0608 -0.2896 -0.0509
 1952SOL    HW117318   0.390   1.856   7.404 -0.5625 -1.7158 -1.3343
 1952SOL    HW217319   0.312   1.815   7.515 -0.5397 -1.9067 -0.0722
 1953SOL     OW17320   3.394   1.882   5.044 -0.1354 -0.4221  0.5179
 1953SOL    HW117321   3.448   1.809   5.072 -0.8639 -0.8120  0.9074
 1953SOL    HW217322   3.417   1.945   5.113 -0.6365  0.5491 -0.1964
 1954SOL     OW17323   1.130   3.723   7.609  0.2620  0.2976  0.2360
 1954SOL    HW117324   1.163   3.651   7.662 -1.0180 -0.7154 -0.3272
 1954SOL    HW217325   1.166   3.713   7.521 -0.5854  2.0892 -0.3187
 1955SOL     OW17326   4.676   0.352   6.706  0.3409 -0.2409 -0.2250
 1955SOL    HW117327   0.044   0.360   6.676  0.2148 -0.9001 -0.7731
 1955SOL    HW217328   4.687   0.401   6.787  1.7303  1.3182 -1.3317
 1956SOL     OW17329   1.335   2.826  15.706  0.2589 -0.0229  0.4494
 1956SOL    HW117330   1.429   2.812  15.692  0.3593  0.4424  0.6515
 1956SOL    HW217331   1.311   2.884  15.633 -1.5969  0.7943  1.7111
 1957SOL     OW17332   2.217   2.975   6.222 -0.0279 -0.1326  0.1186
 1957SOL    HW117333   2.138   2.926   6.245 -1.8830  2.3856 -0.9456
 1957SOL    HW217334   2.192   3.059   6.259 -1.7898 -0.7179  0.2650
 1958SOL     OW17335   1.047   1.482   5.487  0.0521  0.2276 -1.0783
 1958SOL    HW117336   1.009   1.569   5.478 -0.3700  0.0770 -0.7553
 1958SOL    HW217337   1.095   1.487   5.569 -0.9206  0.3639 -0.5123
 1959SOL     OW17338   1.705   4.061   8.643 -0.1900 -0.1952 -0.5342
 1959SOL    HW117339   1.659   3.983   8.675 -0.7549 -1.6083 -4.6576
 1959SOL    HW217340   1.641   4.131   8.632  1.1483  1.1764  0.4585
 1960SOL     OW17341   0.657   3.800   4.809 -0.1921 -0.5584 -0.3460
 1960SOL    HW117342   0.673   3.839   4.724 -0.3922 -2.0027 -1.0411
 1960SOL    HW217343   0.742   3.774   4.844 -0.7522  1.6121  2.7175
 1961SOL     OW17344   3.355   4.554   2.114  0.1409 -0.1377 -0.8258
 1961SOL    HW117345   3.358   4.459   2.103 -1.6475 -0.6740  3.2946
 1961SOL    HW217346   3.414   4.569   2.188  1.4532 -0.1120 -1.8796
 1962SOL     OW17347   0.479   0.331  16.355  0.5685  0.0208  0.2202
 1962SOL    HW117348   0.459   0.357  16.265  0.3324 -1.7904 -0.2535
 1962SOL    HW217349   0.439   0.394  16.414 -1.0545  1.2605 -2.2494
 1963SOL     OW17350   3.125   4.249   0.512 -0.0919 -0.1937 -0.4121
 1963SOL    HW117351   3.080   4.234   0.595  2.8426  1.9429  1.6162
 1963SOL    HW217352   3.078   4.328   0.485 -0.9302 -0.8658 -0.8804
 1964SOL     OW17353   4.080   0.661   9.526 -0.0122 -0.0804  0.6076
 1964SOL    HW117354   3.996   0.700   9.550 -0.2859 -0.4001  0.1581
 1964SOL    HW217355   4.123   0.731   9.476  0.3246  0.3573  1.5082
 1965SOL     OW17356   3.111   2.471   5.401  0.0518 -0.2185 -0.0456
 1965SOL    HW117357   3.201   2.499   5.419 -0.1817  0.3569  0.2194
 1965SOL    HW217358   3.056   2.538   5.441  0.0026 -0.1757 -0.1871
 1966SOL     OW17359   2.912   0.057   6.955  0.5855  0.5390  0.1806
 1966SOL    HW117360   2.926   0.095   7.041 -1.1791  1.1209  0.2139
 1966SOL    HW217361   2.903   0.132   6.896 -1.1921 -0.6459 -1.1031
 1967SOL     OW17362   0.905   4.200   5.765  0.1114  0.1764  0.1959
 1967SOL    HW117363   0.899   4.265   5.835 -2.6092 -0.1074  0.2433
 1967SOL    HW217364   0.934   4.123   5.814  1.1837  0.3931 -0.0884
 1968SOL     OW17365   1.147   3.159   5.528  0.3063 -0.8324 -0.0707
 1968SOL    HW117366   1.160   3.178   5.621 -0.4490 -0.6128 -0.0044
 1968SOL    HW217367   1.118   3.068   5.522 -0.4693 -0.7913  3.0230
 1969SOL     OW17368   1.606   3.211  10.072 -0.1290  0.2095  0.1470
 1969SOL    HW117369   1.589   3.166  10.155  0.7053  2.0669  1.3141
 1969SOL    HW217370   1.681   3.266  10.092 -1.1989  2.6677 -2.5877
 1970SOL     OW17371   3.946   4.230   2.495 -0.3179  0.0940  0.4205
 1970SOL    HW117372   3.881   4.236   2.426 -1.0626  1.3332  1.2314
 1970SOL    HW217373   3.968   4.323   2.503  0.2412  0.2298 -3.0282
 1971SOL     OW17374   4.051   1.436   7.071  0.0101  0.3822  0.1358
 1971SOL    HW117375   4.057   1.342   7.051 -2.9663  0.5142 -1.2320
 1971SOL    HW217376   4.025   1.430   7.163 -1.5658  2.1827 -0.2091
 1972SOL     OW17377   4.250   1.608  11.383 -0.1259 -0.0043  0.3808
 1972SOL    HW117378   4.324   1.668  11.384  1.0950 -1.4955  0.4358
 1972SOL    HW217379   4.253   1.579  11.474 -0.1944 -0.7904  0.1333
 1973SOL     OW17380   0.497   3.622   8.303  0.8280  0.1104 -0.0050
 1973SOL    HW117381   0.407   3.618   8.336  0.7859 -1.4826 -0.3012
 1973SOL    HW217382   0.504   3.688   8.234  2.3515 -1.2379 -1.1488
 1974SOL     OW17383   1.176   1.044  15.382  0.3128 -0.3001  0.0116
 1974SOL    HW117384   1.189   0.994  15.462 -0.4559  1.3110  1.1593
 1974SOL    HW217385   1.238   0.993  15.330 -1.9493 -0.1240 -2.8448
 1975SOL     OW17386   3.105   2.076  10.166  0.1924 -0.2829 -0.0787
 1975SOL    HW117387   3.081   2.001  10.113 -1.5629 -0.0319  0.3549
 1975SOL    HW217388   3.046   2.145  10.137 -0.9494 -1.5358 -0.7231
 1976SOL     OW17389   3.863   1.548   9.708 -0.6519 -0.2925 -0.0775
 1976SOL    HW117390   3.949   1.508   9.724 -0.0782  0.7042 -0.7147
 1976SOL    HW217391   3.810   1.506   9.777 -1.8418 -0.9941 -1.4301
 1977SOL     OW17392   4.682   4.329   6.512 -0.1409  0.5894  0.1149
 1977SOL    HW117393   0.024   4.338   6.581  0.5960  4.4824 -1.0498
 1977SOL    HW217394   4.710   4.257   6.455 -0.7201  0.0907  0.4550
 1978SOL     OW17395   3.309   2.978   7.330 -0.4983 -0.3109  0.4488
 1978SOL    HW117396   3.382   2.984   7.391  1.2528  1.4904 -1.8086
 1978SOL    HW217397   3.269   2.893   7.349 -0.6454 -0.5555 -0.9204
 1979SOL     OW17398   1.785   4.212   5.143 -0.2766 -0.1099  0.1594
 1979SOL    HW117399   1.827   4.153   5.206 -1.8873  0.7663  2.0430
 1979SOL    HW217400   1.710   4.158   5.117  1.1543 -2.2453  0.4086
 1980SOL     OW17401   3.242   2.697   6.498 -0.1125  0.4196  0.4783
 1980SOL    HW117402   3.318   2.657   6.542  0.5438  0.3107 -0.7547
 1980SOL    HW217403   3.190   2.725   6.573  1.2810 -0.1027  1.6388
 1981SOL     OW17404   3.442   3.078   7.561  0.2212  0.4711  0.0228
 1981SOL    HW117405   3.406   3.086   7.650  0.1441  0.5676 -0.0173
 1981SOL    HW217406   3.529   3.043   7.581  0.2360 -0.0264 -0.9296
 1982SOL     OW17407   3.782   0.376  17.318 -0.1089  0.0047 -0.4772
 1982SOL    HW117408   3.740   0.295  17.287  1.2410 -0.7118 -0.4319
 1982SOL    HW217409   3.771   0.424  17.237  0.6485  0.3903 -0.3458
 1983SOL     OW17410   2.661   0.323   8.427 -0.5341  0.0395 -0.3353
 1983SOL    HW117411   2.743   0.291   8.389 -1.1202 -1.0023 -0.6935
 1983SOL    HW217412   2.674   0.417   8.411  1.1826  0.1307  1.5351
 1984SOL     OW17413   4.179   4.316   6.750  0.5486 -0.1875  0.2527
 1984SOL    HW117414   4.232   4.236   6.748 -1.8657 -1.7130 -1.9079
 1984SOL    HW217415   4.252   4.376   6.734  0.4393 -0.3913 -1.0403
 1985SOL     OW17416   1.416   4.478   8.401 -0.0832 -0.1548 -0.3296
 1985SOL    HW117417   1.328   4.453   8.428  0.1605  0.0321  0.6257
 1985SOL    HW217418   1.434   4.563   8.442  0.4176 -0.0478 -0.7750
 1986SOL     OW17419   4.299   3.473   8.644  0.2333 -0.7573 -0.3693
 1986SOL    HW117420   4.327   3.529   8.716 -2.7886  2.5673 -1.7676
 1986SOL    HW217421   4.206   3.463   8.664 -0.6802  2.2721 -3.1712
 1987SOL     OW17422   4.099   2.114  17.470  0.2694  0.2180  0.2374
 1987SOL    HW117423   4.064   2.044  17.525  2.3151 -1.1729 -0.2439
 1987SOL    HW217424   4.047   2.183  17.513  0.2242  1.3419 -1.6366
 1988SOL     OW17425   0.316   4.550  13.425  0.2734  0.2584 -0.0134
 1988SOL    HW117426   0.343   4.642  13.417  0.8310 -0.1120 -2.2381
 1988SOL    HW217427   0.398   4.503  13.411 -0.3497 -0.4556 -1.2551
 1989SOL     OW17428   1.037   1.113   8.488  0.3404  0.2015 -0.2658
 1989SOL    HW117429   1.081   1.192   8.456  0.6327  0.2788  0.3341
 1989SOL    HW217430   1.055   1.122   8.581  1.8847  1.7995 -0.7139
 1990SOL     OW17431   0.944   1.338   1.388  0.0939  0.1948 -0.0735
 1990SOL    HW117432   1.030   1.300   1.405 -0.1214 -0.6752 -0.9655
 1990SOL    HW217433   0.897   1.354   1.470  0.3201  1.4101 -0.1804
 1991SOL     OW17434   3.418   2.721  15.713 -0.1011 -0.7751  0.3597
 1991SOL    HW117435   3.357   2.712  15.640 -1.1110  2.0858  0.8349
 1991SOL    HW217436   3.369   2.783  15.767 -0.1784  0.0758 -0.6863
 1992SOL     OW17437   0.978   0.309   7.827 -0.0669  0.2209 -0.2488
 1992SOL    HW117438   1.001   0.221   7.857 -1.5990 -0.4878 -1.1889
 1992SOL    HW217439   0.948   0.289   7.739 -0.5899  0.2498 -0.0800
 1993SOL     OW17440   4.214   3.674   3.045  0.3859 -0.3519 -0.1825
 1993SOL    HW117441   4.144   3.633   2.993 -1.2061  2.2140 -0.0852
 1993SOL    HW217442   4.269   3.598   3.063  2.0983  0.5152 -1.8431
 1994SOL     OW17443   2.633   0.374   0.372  0.5025 -0.0298 -0.2485
 1994SOL    HW117444   2.695   0.422   0.427 -0.8163  0.3157  0.9270
 1994SOL    HW217445   2.675   0.374   0.286 -2.0085 -0.4451 -1.4924
 1995SOL     OW17446   1.801   3.721   3.754 -0.2256  0.6000  0.0735
 1995SOL    HW117447   1.751   3.670   3.817  2.8878 -1.5839  0.8041
 1995SOL    HW217448   1.738   3.732   3.683  1.5858  0.3081 -1.5838
 1996SOL     OW17449   2.583   0.623  15.996  0.2426 -0.0727 -0.2238
 1996SOL    HW117450   2.558   0.576  15.917  3.0088 -1.0549 -0.5040
 1996SOL    HW217451   2.656   0.680  15.969 -0.2895  0.6304 -0.1960
 1997SOL     OW17452   0.534   1.364   6.446 -0.1681 -0.2660 -0.0288
 1997SOL    HW117453   0.447   1.395   6.471 -0.0645  0.4825 -0.5895
 1997SOL    HW217454   0.597   1.436   6.439 -0.7846  0.2267 -0.5234
 1998SOL     OW17455   3.463   2.680  12.077 -0.0833 -1.0743  0.0004
 1998SOL    HW117456   3.439   2.679  12.169  2.3214  0.2096  0.6213
 1998SOL    HW217457   3.534   2.616  12.082  0.2876 -0.5073  1.8930
 1999SOL     OW17458   3.169   2.310   9.124 -0.1700  0.0680 -0.0587
 1999SOL    HW117459   3.249   2.267   9.156  0.5670  1.3787 -0.1552
 1999SOL    HW217460   3.108   2.236   9.130  1.1044 -1.0145 -0.2296
 2000SOL     OW17461   3.404   0.423   3.818 -0.1918  0.2778 -0.2348
 2000SOL    HW117462   3.436   0.338   3.847  0.5015  0.1932 -1.2519
 2000SOL    HW217463   3.380   0.457   3.904  1.6323  0.9493  0.0057
 2001SOL     OW17464   1.201   1.844  16.709  0.4883  0.4798  0.0654
 2001SOL    HW117465   1.122   1.858  16.658  1.7897  0.9584 -1.8278
 2001SOL    HW217466   1.258   1.919  16.692 -1.2212  1.7310 -0.0182
 2002SOL     OW17467   2.259   1.977   8.178  0.7311 -0.4641  0.0989
 2002SOL    HW117468   2.342   1.939   8.207  1.7232  0.2296 -1.8220
 2002SOL    HW217469   2.211   1.911   8.127  0.8368 -1.1313  0.8668
 2003SOL     OW17470   0.514   0.049   0.179  0.0767  0.0265  0.2246
 2003SOL    HW117471   0.577   0.046   0.251 -0.7772  0.5017  0.9969
 2003SOL    HW217472   0.563   0.097   0.113  4.5071 -2.0135  2.0495
 2004SOL     OW17473   3.979   3.327   4.255  0.0115  0.1508  0.2350
 2004SOL    HW117474   3.931   3.361   4.330 -1.4771  4.0633 -2.4952
 2004SOL    HW217475   4.066   3.366   4.260  0.2399 -0.1969 -1.0108
 2005SOL     OW17476   3.153   1.273  14.062  0.6645 -0.1921  0.8657
 2005SOL    HW117477   3.119   1.277  14.151 -3.2747  1.4306 -0.7305
 2005SOL    HW217478   3.194   1.360  14.060  0.9834 -0.3078  2.4844
 2006SOL     OW17479   4.554   2.445   4.737 -0.5432  0.2645  0.2323
 2006SOL    HW117480   4.513   2.478   4.657  0.3663 -1.4858 -0.9701
 2006SOL    HW217481   4.492   2.378   4.764 -0.8069  0.7556  0.8424
 2007SOL     OW17482   0.761   4.596   2.518  0.8996 -0.1155 -0.3106
 2007SOL    HW117483   0.855   4.581   2.503  0.4557 -0.9800 -2.3109
 2007SOL    HW217484   0.742   4.684   2.485  0.4645 -0.1726 -0.2074
 2008SOL     OW17485   0.426   4.259   6.171  0.2537  0.0910  0.6442
 2008SOL    HW117486   0.399   4.228   6.257 -2.2919  0.1123 -0.1271
 2008SOL    HW217487   0.446   4.173   6.134 -2.4468 -0.1439 -0.2762
 2009SOL     OW17488   0.420   2.220   7.348  1.0697  0.1466 -0.0103
 2009SOL    HW117489   0.392   2.129   7.349  1.2657  0.0866 -0.0178
 2009SOL    HW217490   0.515   2.222   7.336  1.4467  0.2558  2.8094
 2010SOL     OW17491   3.112   3.834   7.648 -0.2406 -0.7892  0.2305
 2010SOL    HW117492   3.016   3.833   7.641 -0.2094  1.0123 -0.3472
 2010SOL    HW217493   3.141   3.917   7.611  0.0391 -0.1380  1.9049
 2011SOL     OW17494   0.269   3.676   2.394  0.0345 -0.0415 -0.0689
 2011SOL    HW117495   0.250   3.673   2.301 -3.2479  1.0978  0.5854
 2011SOL    HW217496   0.206   3.747   2.410  0.2782  0.1392  0.0933
 2012SOL     OW17497   3.185   2.703  12.360 -0.3785 -0.1642 -0.1991
 2012SOL    HW117498   3.268   2.665  12.331 -0.0455 -0.1475  0.7334
 2012SOL    HW217499   3.140   2.705  12.276 -0.2925 -0.1886 -0.2452
 2013SOL     OW17500   0.729   1.732   7.239  0.1561  0.9984  0.1034
 2013SOL    HW117501   0.795   1.697   7.300 -0.5174  1.2506  0.9820
 2013SOL    HW217502   0.714   1.664   7.174  1.3632 -0.6769  1.5740
 2014SOL     OW17503   0.991   3.196   8.052  0.0184 -0.4768  0.2181
 2014SOL    HW117504   0.897   3.182   8.061  0.4985 -3.2974  1.0328
 2014SOL    HW217505   1.005   3.125   7.988 -0.2104  0.4144 -0.8180
 2015SOL     OW17506   0.900   1.408  10.457  0.0542 -0.4445 -0.0826
 2015SOL    HW117507   0.944   1.418  10.542 -0.3188  0.0211  0.0540
 2015SOL    HW217508   0.975   1.379  10.404 -0.8392  0.3421 -1.7675
 2016SOL     OW17509   0.447   0.079  14.205 -0.2404 -0.4989  0.8240
 2016SOL    HW117510   0.403   0.110  14.126  0.5102 -0.1230  0.5443
 2016SOL    HW217511   0.516   0.146  14.213  0.2612 -0.8942 -0.1422
 2017SOL     OW17512   2.936   1.053   1.694 -0.0672  0.0853 -0.0204
 2017SOL    HW117513   3.027   1.024   1.690 -0.3236 -0.6303 -0.7128
 2017SOL    HW217514   2.905   1.053   1.604 -0.1435  1.5313 -0.0024
 2018SOL     OW17515   3.513   2.772   1.750 -0.2654 -0.0764  0.0644
 2018SOL    HW117516   3.496   2.850   1.802 -1.8146  0.2383 -0.9335
 2018SOL    HW217517   3.608   2.769   1.738 -0.3575  0.3247 -0.8025
 2019SOL     OW17518   0.929   1.993   9.030  0.6656  0.4704 -0.6965
 2019SOL    HW117519   0.902   2.080   9.061 -1.2783 -0.3382 -0.0634
 2019SOL    HW217520   1.019   1.996   9.061  0.4517  0.9118 -0.1172
 2020SOL     OW17521   1.408   1.019   7.212  0.7019 -0.0521  0.8339
 2020SOL    HW117522   1.397   1.065   7.129  2.1238  0.6691  1.0488
 2020SOL    HW217523   1.394   0.929   7.183  0.9195  0.7506 -1.7623
 2021SOL     OW17524   1.142   4.014   8.238  0.4978 -0.4553 -0.2972
 2021SOL    HW117525   1.049   4.035   8.250  0.7225 -0.4863  1.5291
 2021SOL    HW217526   1.167   4.068   8.163 -0.2940  0.4925  0.1026
 2022SOL     OW17527   0.248   1.547  14.385  0.1500  0.2511 -0.1249
 2022SOL    HW117528   0.209   1.502  14.310 -0.1856  2.1577 -1.0966
 2022SOL    HW217529   0.321   1.595  14.346  0.2326  1.5399  1.5755
 2023SOL     OW17530   0.614   2.292   4.174  0.1363 -0.1613 -0.3268
 2023SOL    HW117531   0.531   2.267   4.215  0.0261 -0.3628 -0.6745
 2023SOL    HW217532   0.592   2.384   4.156 -0.8999 -0.2745  0.3323
 2024SOL     OW17533   0.830   2.542   1.431 -0.0230  0.6234 -0.2647
 2024SOL    HW117534   0.891   2.548   1.357  0.2143 -1.0834 -0.2003
 2024SOL    HW217535   0.845   2.454   1.465 -0.9712 -0.1149 -1.7402
 2025SOL     OW17536   0.064   4.344   1.281 -0.0619  0.2081 -0.1867
 2025SOL    HW117537   0.056   4.416   1.218 -1.6719 -0.1176 -0.3492
 2025SOL    HW217538   4.694   4.328   1.294  0.0491  0.2285  0.6074
 2026SOL     OW17539   0.242   2.292   7.113 -0.3032  0.4858  0.6854
 2026SOL    HW117540   0.291   2.328   7.039  0.2967 -0.6506  0.5171
 2026SOL    HW217541   0.314   2.265   7.171 -0.3274 -0.1943  0.4021
 2027SOL     OW17542   3.028   4.445  12.524  0.1258 -0.0923 -0.1954
 2027SOL    HW117543   2.962   4.457  12.592  0.9446  1.3860  0.3607
 2027SOL    HW217544   3.116   4.460  12.559 -0.4604 -0.6622  1.5127
 2028SOL     OW17545   0.063   0.188   1.257  0.3269  0.3253  0.3334
 2028SOL    HW117546   4.705   0.190   1.309 -0.0264  0.7904 -0.2260
 2028SOL    HW217547   0.121   0.152   1.324  0.0262 -1.5507 -0.4221
 2029SOL     OW17548   2.075   1.890   1.785  0.1908 -0.1839  0.1385
 2029SOL    HW117549   2.059   1.872   1.692 -0.1767  0.9749 -0.0190
 2029SOL    HW217550   2.169   1.872   1.785  0.0125 -1.0801  1.2082
 2030SOL     OW17551   3.023   0.169   6.198 -0.2344 -0.2174  0.6938
 2030SOL    HW117552   3.053   0.080   6.180 -1.7834 -0.5505 -0.2527
 2030SOL    HW217553   3.035   0.164   6.293 -1.6441  0.3542  0.9094
 2031SOL     OW17554   0.209   2.979   4.083 -0.4533  0.7908 -0.3673
 2031SOL    HW117555   0.187   2.950   4.172  1.9019 -0.4931 -0.1925
 2031SOL    HW217556   0.131   3.030   4.061  0.8289  1.7257 -2.7645
 2032SOL     OW17557   2.498   1.437   7.661 -0.0972  0.0470 -0.3918
 2032SOL    HW117558   2.404   1.442   7.648 -0.0740  0.4815 -0.3638
 2032SOL    HW217559   2.515   1.342   7.664  2.0287  0.5255  2.3137
 2033SOL     OW17560   1.071   3.979   4.126 -0.3597  0.0249  0.0811
 2033SOL    HW117561   1.076   3.990   4.031 -0.7505  3.0670  0.3890
 2033SOL    HW217562   1.161   3.960   4.151 -0.4778 -0.4683  0.1345
 2034SOL     OW17563   2.500   1.627   1.507 -0.5351  0.1431 -0.1512
 2034SOL    HW117564   2.462   1.598   1.590  1.5745  0.1559  0.8264
 2034SOL    HW217565   2.550   1.549   1.482  1.6331  1.4068  0.1744
 2035SOL     OW17566   1.099   0.117   2.904  0.2132  0.3239  0.5784
 2035SOL    HW117567   1.050   0.098   2.824  0.4993  1.0531  0.2251
 2035SOL    HW217568   1.108   0.209   2.880 -1.5991  0.1419 -0.7896
 2036SOL     OW17569   1.599   0.718   7.574  0.3269 -0.5751  0.5856
 2036SOL    HW117570   1.600   0.797   7.629  0.2412  1.0422 -1.7236
 2036SOL    HW217571   1.601   0.755   7.486 -1.2414 -0.3472  0.6445
 2037SOL     OW17572   1.478   3.677  16.834  0.3519 -0.3334  0.5110
 2037SOL    HW117573   1.546   3.728  16.879  0.7208  0.7510 -1.2921
 2037SOL    HW217574   1.407   3.682  16.898  0.3957 -2.9695  0.7719
 2038SOL     OW17575   4.456   3.615  13.489 -0.0196  0.0455  0.2771
 2038SOL    HW117576   4.423   3.688  13.437  0.2858 -0.0192 -0.0068
 2038SOL    HW217577   4.427   3.540  13.438  2.9007  0.4302 -1.9311
 2039SOL     OW17578   3.132   3.227  15.941  0.0539 -0.3301 -0.2211
 2039SOL    HW117579   3.145   3.179  15.859 -0.7080 -0.6593 -0.1534
 2039SOL    HW217580   3.209   3.206  15.994  0.6215 -1.0594 -1.3495
 2040SOL     OW17581   1.582   0.814   4.329  0.1654 -0.4068  0.4892
 2040SOL    HW117582   1.535   0.868   4.266  1.0607 -0.9989 -0.6863
 2040SOL    HW217583   1.660   0.870   4.336  1.4542 -1.8289 -2.3112
 2041SOL     OW17584   1.556   3.208   1.859 -0.3913 -0.6075 -0.3169
 2041SOL    HW117585   1.524   3.206   1.769 -0.5669 -2.8921 -0.1985
 2041SOL    HW217586   1.550   3.115   1.879 -1.6054 -0.9007 -2.0160
 2042SOL     OW17587   1.993   4.424  11.079 -0.4020 -0.4627  0.0862
 2042SOL    HW117588   2.009   4.336  11.113 -0.2339 -0.3076  0.4157
 2042SOL    HW217589   2.084   4.448  11.059 -0.5319 -0.0303  0.0183
 2043SOL     OW17590   1.297   0.776   7.117  0.0810  0.2764  0.0879
 2043SOL    HW117591   1.325   0.751   7.030  2.1092  0.6895  0.6360
 2043SOL    HW217592   1.207   0.805   7.100 -1.5705 -3.0938  2.9478
 2044SOL     OW17593   2.562   0.964  13.248 -0.0039  1.0730 -0.5602
 2044SOL    HW117594   2.539   0.871  13.258 -0.3249  1.3189  1.0857
 2044SOL    HW217595   2.596   0.964  13.338 -1.6717 -0.7983  0.0920
 2045SOL     OW17596   3.583   2.922   7.769 -0.2543 -0.3279 -0.3100
 2045SOL    HW117597   3.510   2.862   7.752 -0.3884  0.9769 -4.2201
 2045SOL    HW217598   3.647   2.863   7.809 -1.7855 -1.5798  0.2900
 2046SOL     OW17599   0.094   0.816   6.953 -0.2374  0.4942 -0.1045
 2046SOL    HW117600   0.108   0.821   7.047 -0.3687 -1.0636 -0.0012
 2046SOL    HW217601   0.158   0.747   6.934 -2.6728 -2.6722  3.2961
 2047SOL     OW17602   4.048   1.883   3.949 -0.6086 -0.2264  0.1299
 2047SOL    HW117603   4.124   1.832   3.975 -0.9314 -0.4177  0.6979
 2047SOL    HW217604   4.091   1.964   3.923  1.2504 -1.2833 -0.0600
 2048SOL     OW17605   3.980   3.924  12.316 -0.0714  0.1465  0.3785
 2048SOL    HW117606   4.063   3.925  12.363 -0.4162  0.4357  0.9745
 2048SOL    HW217607   3.981   4.018  12.296  1.0086 -0.1005 -0.7575
 2049SOL     OW17608   0.913   1.965   1.907 -0.0354  0.1450  0.1333
 2049SOL    HW117609   0.850   1.917   1.853 -0.0847 -0.5363  0.7889
 2049SOL    HW217610   0.844   2.017   1.948  1.2082 -0.0074  2.4066
 2050SOL     OW17611   3.435   3.306  11.548 -0.2098  0.0498  0.1372
 2050SOL    HW117612   3.447   3.260  11.465 -4.1496  0.3711 -0.6015
 2050SOL    HW217613   3.340   3.304  11.557 -0.4575  1.6133 -2.2308
 2051SOL     OW17614   3.786   2.945   8.823 -0.0688 -0.6758 -0.1602
 2051SOL    HW117615   3.809   3.033   8.792  2.2009 -2.1064 -2.5761
 2051SOL    HW217616   3.747   2.966   8.908  0.0703 -2.7265  0.4150
 2052SOL     OW17617   4.081   0.973   0.966 -0.8152  0.2943 -0.2093
 2052SOL    HW117618   4.104   0.880   0.976 -1.9292  0.1138  0.6407
 2052SOL    HW217619   4.165   0.999   0.929 -0.1400 -1.8767 -0.2322
 2053SOL     OW17620   0.279   1.650  13.896 -0.3541 -0.6674 -0.0401
 2053SOL    HW117621   0.275   1.567  13.848 -2.5630 -0.3290 -0.4435
 2053SOL    HW217622   0.186   1.663  13.912 -0.3524  1.0800 -1.4078
 2054SOL     OW17623   3.991   4.105   1.478 -0.0457 -0.1851 -0.0097
 2054SOL    HW117624   4.045   4.150   1.543 -0.7659  3.2874 -1.7944
 2054SOL    HW217625   3.974   4.179   1.419 -0.1399 -1.7365 -1.9154
 2055SOL     OW17626   0.494   1.576   4.024  0.1440 -0.2294  0.4750
 2055SOL    HW117627   0.505   1.509   3.956  0.4263 -0.1753  0.4696
 2055SOL    HW217628   0.520   1.655   3.978  1.1232 -0.6695  0.2811
 2056SOL     OW17629   0.020   4.310   7.242 -0.2681 -0.1404  0.6342
 2056SOL    HW117630   4.661   4.276   7.278 -1.4128  2.3164  0.3761
 2056SOL    HW217631   0.039   4.385   7.299 -2.3948  0.7760  0.1427
 2057SOL     OW17632   0.224   3.076  17.645 -0.2598  0.6218  0.4910
 2057SOL    HW117633   0.317   3.079  17.627 -0.2448  0.7646  0.5872
 2057SOL    HW217634   0.184   3.057  17.560 -0.0785  3.8434 -0.3001
 2058SOL     OW17635   1.355   1.258   8.152 -0.9870  0.1708 -0.3366
 2058SOL    HW117636   1.402   1.335   8.184  1.5466 -0.2793 -3.0058
 2058SOL    HW217637   1.305   1.297   8.080 -1.6233 -0.1442 -0.0676
 2059SOL     OW17638   2.457   3.552  10.799  0.2364 -0.4961 -0.3219
 2059SOL    HW117639   2.380   3.498  10.778  0.7409 -0.8270 -1.3472
 2059SOL    HW217640   2.435   3.641  10.773  0.4581  0.1175  1.5915
 2060SOL     OW17641   1.147   2.793  13.320 -0.0531  0.1861 -0.0117
 2060SOL    HW117642   1.101   2.763  13.242 -0.3210  0.8619 -0.1167
 2060SOL    HW217643   1.098   2.872  13.343 -0.1422  0.0178  0.3851
 2061SOL     OW17644   2.443   0.591   3.196 -0.0220 -0.0309 -0.0515
 2061SOL    HW117645   2.368   0.555   3.243 -0.2023 -1.7016 -1.5870
 2061SOL    HW217646   2.426   0.568   3.104 -0.0764 -0.2755  0.0195
 2062SOL     OW17647   0.039   0.640   1.169 -0.3313 -0.0276  0.4218
 2062SOL    HW117648   0.107   0.585   1.209  0.3396  0.5751  0.1047
 2062SOL    HW217649   0.090   0.720   1.161 -0.0716 -0.4580 -2.0474
 2063SOL     OW17650   4.707   4.336   2.714  0.7552 -0.3670  0.5368
 2063SOL    HW117651   4.700   4.243   2.692  2.8731 -0.1130 -1.2960
 2063SOL    HW217652   4.623   4.362   2.676 -0.1641  0.5402  3.2025
 2064SOL     OW17653   3.981   2.259  14.652  0.4120 -0.0060  0.0099
 2064SOL    HW117654   3.958   2.348  14.679 -0.3339  0.4556 -2.1386
 2064SOL    HW217655   3.900   2.212  14.672 -0.0873  0.1873 -1.5681
 2065SOL     OW17656   0.873   1.629   5.831 -0.2068  0.4682  0.5528
 2065SOL    HW117657   0.818   1.648   5.907  0.1048 -0.1411  0.9364
 2065SOL    HW217658   0.818   1.621   5.754  0.9272  3.0457 -0.5110
 2066SOL     OW17659   1.885   0.342   0.138 -0.0434  0.2890 -0.3331
 2066SOL    HW117660   1.886   0.433   0.166  0.9581  0.4199 -0.7859
 2066SOL    HW217661   1.956   0.302   0.188 -1.0768  1.0482  1.7353
 2067SOL     OW17662   1.651   1.297   3.553  0.3156  0.0115 -0.5082
 2067SOL    HW117663   1.580   1.234   3.538  0.2077  0.2469 -0.9880
 2067SOL    HW217664   1.671   1.337   3.468  0.9185  1.1234  0.1610
 2068SOL     OW17665   3.766   3.481   8.025  0.4235  0.2876  0.1943
 2068SOL    HW117666   3.795   3.398   7.986  1.3130 -0.5675  2.6644
 2068SOL    HW217667   3.672   3.491   8.010  0.1304 -0.0664  1.8855
 2069SOL     OW17668   3.493   0.008   1.194  0.2963 -0.1409 -0.1133
 2069SOL    HW117669   3.425   0.074   1.181 -1.2631 -1.4255  1.5289
 2069SOL    HW217670   3.477   4.701   1.284  0.5683  1.1838  0.3689
 2070SOL     OW17671   2.885   3.875   2.378  0.4507  0.1868 -0.4120
 2070SOL    HW117672   2.969   3.897   2.416  0.2399  3.7168 -1.9563
 2070SOL    HW217673   2.827   3.942   2.414  0.7499  0.2654 -0.0832
 2071SOL     OW17674   4.351   1.175   2.136 -0.2029 -0.3176  0.7123
 2071SOL    HW117675   4.269   1.208   2.101  0.1160  1.1987  1.3820
 2071SOL    HW217676   4.339   1.213   2.224 -0.7153  2.2408 -0.4475
 2072SOL     OW17677   4.126   4.160   6.474 -0.6512 -0.1322  0.4200
 2072SOL    HW117678   4.053   4.220   6.456 -1.2805 -0.4232  1.9745
 2072SOL    HW217679   4.207   4.210   6.466 -2.6637  2.4720 -4.3668
 2073SOL     OW17680   2.527   3.466   5.487  0.8009 -0.3077 -0.3557
 2073SOL    HW117681   2.552   3.475   5.395  0.0657 -3.2203 -0.8551
 2073SOL    HW217682   2.484   3.380   5.488  0.3674 -0.0927 -0.4636
 2074SOL     OW17683   1.110   3.548   0.255 -0.1605  0.1984 -0.0957
 2074SOL    HW117684   1.162   3.469   0.241  0.0510  0.3091  0.0617
 2074SOL    HW217685   1.125   3.558   0.349 -1.9177 -1.1466  0.3175
 2075SOL     OW17686   4.567   3.240   3.582  0.8594 -0.1992  0.5882
 2075SOL    HW117687   4.660   3.262   3.588  0.6764 -0.0544  2.7563
 2075SOL    HW217688   4.524   3.322   3.606  1.6059  0.3380  0.0866
 2076SOL     OW17689   2.899   1.244   4.401  0.0708 -0.8442 -0.0248
 2076SOL    HW117690   2.824   1.303   4.391 -1.4494 -2.5055  1.5310
 2076SOL    HW217691   2.941   1.269   4.483  0.4331 -0.9784 -0.1691
 2077SOL     OW17692   3.348   2.125   0.694 -0.3067  0.4381 -0.1563
 2077SOL    HW117693   3.300   2.187   0.749  0.1788  1.9507 -1.4428
 2077SOL    HW217694   3.430   2.107   0.741 -0.9789 -3.2287 -0.3582
 2078SOL     OW17695   0.425   3.238  16.928 -0.2334  0.1897  0.0676
 2078SOL    HW117696   0.368   3.162  16.918 -0.9570  0.7281  0.1306
 2078SOL    HW217697   0.364   3.308  16.906  0.6970 -0.0148 -3.2756
 2079SOL     OW17698   2.180   0.166   4.290 -0.4483 -0.5021 -0.2007
 2079SOL    HW117699   2.131   0.235   4.246 -0.1331 -1.5682 -2.2358
 2079SOL    HW217700   2.229   0.225   4.347  0.2940  0.5330 -1.9260
 2080SOL     OW17701   3.631   0.929   6.424 -0.4523  0.0316  0.2276
 2080SOL    HW117702   3.648   0.886   6.508 -2.7898 -0.2933  0.5150
 2080SOL    HW217703   3.576   1.001   6.454 -0.6038  1.1806 -2.8958
 2081SOL     OW17704   0.895   2.244   8.165  0.0548  0.1899  0.5596
 2081SOL    HW117705   0.958   2.305   8.203 -0.7001  1.7707 -0.7509
 2081SOL    HW217706   0.842   2.215   8.240 -1.7844  1.6254 -0.1661
 2082SOL     OW17707   3.910   1.260   4.220 -0.0892 -0.2900 -0.7062
 2082SOL    HW117708   3.864   1.304   4.292  1.7372  0.1697  0.1654
 2082SOL    HW217709   3.839   1.260   4.155 -1.1864 -1.3893  0.4903
 2083SOL     OW17710   2.135   2.542   1.702  0.5284 -0.0301 -0.5011
 2083SOL    HW117711   2.099   2.461   1.667 -0.4936  0.4275 -0.4926
 2083SOL    HW217712   2.102   2.532   1.791  1.0167 -1.4963 -0.4790
 2084SOL     OW17713   3.265   0.157   4.484 -0.0502  0.4126  0.0098
 2084SOL    HW117714   3.318   0.139   4.406  2.0235  0.4406  1.4336
 2084SOL    HW217715   3.290   0.089   4.546 -0.7712 -1.3899 -1.6760
 2085SOL     OW17716   3.173   4.226   4.114  0.4789 -0.1577 -0.6737
 2085SOL    HW117717   3.126   4.142   4.115 -1.7597  1.1204  1.6926
 2085SOL    HW217718   3.238   4.208   4.182 -0.1217 -1.8814 -0.5252
 2086SOL     OW17719   3.545   1.915  10.875  0.0675 -0.0782  0.2578
 2086SOL    HW117720   3.623   1.961  10.905  1.6506 -1.9316 -1.0433
 2086SOL    HW217721   3.547   1.936  10.782 -1.0214 -0.5168  0.1290
 2087SOL     OW17722   3.437   4.302   1.143 -0.3752 -0.2637  0.0511
 2087SOL    HW117723   3.499   4.297   1.070  0.6374  0.3022  0.8904
 2087SOL    HW217724   3.446   4.210   1.168 -0.3792 -0.2620  0.0588
 2088SOL     OW17725   4.144   2.109   4.923 -0.5210 -0.0691 -0.0743
 2088SOL    HW117726   4.096   2.161   4.988  1.1340  0.4198  0.7527
 2088SOL    HW217727   4.103   2.023   4.914 -0.4628 -0.0946 -0.0948
 2089SOL     OW17728   0.542   2.626   9.123 -0.1015  0.0442 -0.2346
 2089SOL    HW117729   0.523   2.705   9.073  1.5329  0.4169 -0.2536
 2089SOL    HW217730   0.465   2.616   9.180  1.1593 -1.7607  1.1461
 2090SOL     OW17731   0.991   1.189   7.242  0.2351  0.1607 -0.0154
 2090SOL    HW117732   0.945   1.133   7.304 -0.9457 -1.0297 -1.9501
 2090SOL    HW217733   1.071   1.222   7.284 -0.1679 -0.8608  1.5480
 2091SOL     OW17734   2.113   1.004   2.122  0.2671  0.1467 -0.1509
 2091SOL    HW117735   2.204   0.997   2.152 -0.4920  0.2540  2.1728
 2091SOL    HW217736   2.134   1.052   2.042  0.0114  1.0680  0.3332
 2092SOL     OW17737   3.494   4.146   4.284  0.2007 -0.1287 -0.5975
 2092SOL    HW117738   3.450   4.225   4.315  0.9096  0.2376 -0.5221
 2092SOL    HW217739   3.581   4.184   4.290  0.3324 -0.8315  1.7886
 2093SOL     OW17740   1.891   1.121  11.930 -0.5337 -0.2468 -0.3845
 2093SOL    HW117741   1.900   1.127  11.835  0.7726 -2.4757 -0.4229
 2093SOL    HW217742   1.911   1.209  11.960  2.4031 -0.2735 -2.2771
 2094SOL     OW17743   2.384   2.499   7.900  0.1232  0.3065  0.0625
 2094SOL    HW117744   2.396   2.422   7.956  2.3067 -1.3764 -2.7240
 2094SOL    HW217745   2.327   2.451   7.840 -0.2793 -0.0332  0.7129
 2095SOL     OW17746   1.081   1.321   3.251  0.2072 -0.5106  0.1941
 2095SOL    HW117747   1.100   1.381   3.180  1.7387  0.0712  1.0980
 2095SOL    HW217748   1.030   1.373   3.312 -0.5581 -2.0586  0.8920
 2096SOL     OW17749   3.281   2.993   5.337  0.2830  0.4828  0.1584
 2096SOL    HW117750   3.342   2.943   5.392  1.3273  0.9220 -0.6204
 2096SOL    HW217751   3.234   2.927   5.286  0.7826 -0.7067  1.2148
 2097SOL     OW17752   0.089   0.797   0.874 -0.0950  0.0675 -0.4137
 2097SOL    HW117753   0.160   0.736   0.897 -1.2496  0.1239  3.3287
 2097SOL    HW217754   0.113   0.869   0.932 -1.8081  0.2593  0.0453
 2098SOL     OW17755   3.205   1.469  17.374  0.2772 -0.6942  0.0945
 2098SOL    HW117756   3.285   1.441  17.329  1.6921  1.1906  1.4282
 2098SOL    HW217757   3.217   1.425  17.459  2.9816 -0.7909 -0.3186
 2099SOL     OW17758   2.426   1.837   8.771  0.4249 -0.9804  0.4231
 2099SOL    HW117759   2.484   1.787   8.829 -0.6909 -4.3322 -1.3863
 2099SOL    HW217760   2.394   1.760   8.723 -0.3441  0.0558 -0.7230
 2100SOL     OW17761   2.830   4.283   5.198  0.6760  0.4638 -0.4134
 2100SOL    HW117762   2.883   4.344   5.147 -0.9202  1.1945 -1.1795
 2100SOL    HW217763   2.786   4.236   5.128 -2.2722  1.8712  0.5049
 2101SOL     OW17764   2.540   3.976   8.729 -0.1881  0.2106 -0.1355
 2101SOL    HW117765   2.479   3.919   8.777 -1.3913  1.1062 -0.5799
 2101SOL    HW217766   2.556   3.913   8.660  0.6106 -0.1096  0.3446
 2102SOL     OW17767   0.776   0.411   3.974 -0.2627  0.2646  0.4581
 2102SOL    HW117768   0.778   0.480   4.040 -0.3410  3.1271 -2.5287
 2102SOL    HW217769   0.739   0.337   4.021  1.8712  0.8266  3.0245
 2103SOL     OW17770   4.202   3.806   6.201 -0.5111  0.0089 -0.0619
 2103SOL    HW117771   4.239   3.887   6.168 -2.6789  1.2793  0.6342
 2103SOL    HW217772   4.153   3.844   6.274  1.1925 -0.2530  1.2251
 2104SOL     OW17773   2.701   1.887   3.669 -0.3664  0.0746  0.7659
 2104SOL    HW117774   2.793   1.877   3.647 -1.2082  0.1633 -2.8179
 2104SOL    HW217775   2.678   1.802   3.632 -0.6332  0.4495  0.0710
 2105SOL     OW17776   2.149   2.052   5.452  0.1276  0.1680  0.8338
 2105SOL    HW117777   2.219   2.023   5.394 -0.5044  1.9947 -0.8188
 2105SOL    HW217778   2.183   2.057   5.541  0.8494 -0.6804  0.6119
 2106SOL     OW17779   1.528   3.365   6.268 -0.2209  0.5559  0.6794
 2106SOL    HW117780   1.528   3.315   6.187 -0.7069  1.9602 -0.1948
 2106SOL    HW217781   1.438   3.397   6.263 -0.1266  0.4892 -1.4924
 2107SOL     OW17782   1.814   0.076   7.239  0.0029  0.1962  0.0769
 2107SOL    HW117783   1.814   4.718   7.289 -2.6426  0.9358  1.2960
 2107SOL    HW217784   1.725   0.110   7.249  1.5382  3.7052  1.6845
 2108SOL     OW17785   0.497   1.117   6.864 -0.2342  0.7552  0.5267
 2108SOL    HW117786   0.404   1.133   6.877 -0.8378 -0.1334 -2.8195
 2108SOL    HW217787   0.496   1.138   6.771  2.3338  0.3129  0.3838
 2109SOL     OW17788   3.855   3.602   9.393 -0.3529 -0.2936 -0.2191
 2109SOL    HW117789   3.895   3.600   9.306  1.2261  0.4516  0.4845
 2109SOL    HW217790   3.938   3.597   9.442  0.9128 -1.7765 -2.5226
 2110SOL     OW17791   0.898   3.978   2.024  0.3108  0.2348  0.0235
 2110SOL    HW117792   0.932   4.055   1.977  0.6282  1.1773  1.7722
 2110SOL    HW217793   0.818   3.964   1.974 -0.2756 -0.1359  1.0596
 2111SOL     OW17794   4.614   0.807   4.896 -0.6029 -0.0334 -0.2026
 2111SOL    HW117795   4.615   0.785   4.803  2.5287  0.3292 -0.2674
 2111SOL    HW217796   4.616   0.720   4.936 -1.2518 -0.9444 -2.1333
 2112SOL     OW17797   1.474   0.001   6.955  0.1626  0.5364 -0.0436
 2112SOL    HW117798   1.445   0.072   7.013 -1.8844 -0.8765  0.6583
 2112SOL    HW217799   1.566   4.715   6.980 -0.2812  0.2056  1.4542
 2113SOL     OW17800   1.193   1.609   1.081 -0.1294  0.1387 -0.4179
 2113SOL    HW117801   1.211   1.644   1.168  1.7590 -2.3790  0.1833
 2113SOL    HW217802   1.115   1.557   1.100  1.7731 -3.0151 -1.3219
 2114SOL     OW17803   4.187   3.802   9.336 -0.3462 -0.6749  0.1098
 2114SOL    HW117804   4.129   3.819   9.410  0.3341  0.8935  0.2843
 2114SOL    HW217805   4.139   3.794   9.254 -1.1998  1.9682  0.3470
 2115SOL     OW17806   4.152   0.234   7.411  0.2709  0.0730 -0.1051
 2115SOL    HW117807   4.162   0.323   7.379  1.6982 -0.6916 -1.7878
 2115SOL    HW217808   4.218   0.190   7.358  1.7318 -1.2463  2.7820
 2116SOL     OW17809   3.802   4.408   2.863  0.0061  0.2485  0.2908
 2116SOL    HW117810   3.765   4.492   2.834  1.6893  1.2201  0.9627
 2116SOL    HW217811   3.753   4.395   2.944 -0.7975  1.3378 -0.0223
 2117SOL     OW17812   2.327   4.638   7.453  0.5881 -0.2993  0.2522
 2117SOL    HW117813   2.240   4.674   7.472  0.3605 -0.7257  0.0029
 2117SOL    HW217814   2.326   4.668   7.362  0.9013 -0.2575  0.2631
 2118SOL     OW17815   2.206   3.728   8.098  0.2549 -0.4560 -0.5729
 2118SOL    HW117816   2.154   3.749   8.020 -1.3882  1.6021  1.0910
 2118SOL    HW217817   2.181   3.803   8.152  1.2244  0.5349 -1.4698
 2119SOL     OW17818   2.369   0.307   7.908  0.2003 -1.0647 -0.0235
 2119SOL    HW117819   2.375   0.282   7.816 -0.0734  1.4107 -0.7150
 2119SOL    HW217820   2.457   0.284   7.936  0.4841 -0.8645 -0.7518
 2120SOL     OW17821   1.576   1.352   4.712  0.0876  0.3028 -0.7715
 2120SOL    HW117822   1.647   1.404   4.676 -0.8278  1.5177 -0.8358
 2120SOL    HW217823   1.590   1.375   4.804  3.6109  0.0070 -1.2434
 2121SOL     OW17824   2.997   0.733   1.846  0.4086  0.2420  0.3387
 2121SOL    HW117825   2.904   0.731   1.823  0.5190 -0.5863 -0.0418
 2121SOL    HW217826   3.037   0.766   1.765  0.2243  0.3258  0.2812
 2122SOL     OW17827   1.240   2.514   0.543  0.1038  0.1067 -0.3411
 2122SOL    HW117828   1.325   2.523   0.588 -0.7576 -0.0669  1.3098
 2122SOL    HW217829   1.192   2.582   0.590 -1.9413 -0.8790 -1.0352
 2123SOL     OW17830   2.459   2.476  13.747 -0.4595  0.1838 -0.1181
 2123SOL    HW117831   2.426   2.518  13.668  0.1082  1.9461  0.5857
 2123SOL    HW217832   2.387   2.415  13.767 -0.2448  0.0157  0.1493
 2124SOL     OW17833   2.473   3.032   2.562  0.0051  0.5247  0.3237
 2124SOL    HW117834   2.491   2.940   2.543 -2.0767 -0.6782  4.2104
 2124SOL    HW217835   2.541   3.081   2.515 -1.8986  1.3472 -1.5426
 2125SOL     OW17836   3.655   0.097   2.596 -0.5193  0.4123 -0.4765
 2125SOL    HW117837   3.608   0.171   2.634 -0.7402 -0.2704  0.5792
 2125SOL    HW217838   3.694   0.053   2.672  0.6498  1.0388 -0.7193
 2126SOL     OW17839   2.724   0.992   4.195 -0.5524  0.2462  0.5733
 2126SOL    HW117840   2.768   1.054   4.137 -0.1726 -0.3168  0.2491
 2126SOL    HW217841   2.706   0.920   4.134  0.1916  0.7589 -0.2463
 2127SOL     OW17842   1.068   1.342  12.560 -0.2955 -0.0264 -0.2597
 2127SOL    HW117843   1.092   1.279  12.491  2.3760  0.0428  0.6017
 2127SOL    HW217844   1.148   1.395  12.569  0.3080 -0.6840 -1.6808
 2128SOL     OW17845   2.526   1.019   6.394 -0.1550  0.0346  0.1212
 2128SOL    HW117846   2.580   0.993   6.468  0.5265  0.4762 -0.2185
 2128SOL    HW217847   2.485   0.934   6.378  0.4883 -0.0741 -0.9303
 2129SOL     OW17848   0.586   2.554  14.184  0.4075  0.5561  0.0803
 2129SOL    HW117849   0.579   2.497  14.107 -0.8609  0.5204  0.2246
 2129SOL    HW217850   0.625   2.629  14.140  0.1892  1.3252  1.2095
 2130SOL     OW17851   0.884   4.201  14.691  0.6205  0.0203 -0.3654
 2130SOL    HW117852   0.866   4.177  14.782  2.0779 -0.2176 -0.1361
 2130SOL    HW217853   0.912   4.292  14.697  1.5229 -0.2383 -0.6116
 2131SOL     OW17854   1.423   2.327   8.778  0.1440 -0.0734 -0.5441
 2131SOL    HW117855   1.361   2.283   8.720  0.0254  0.2272 -0.6458
 2131SOL    HW217856   1.388   2.306   8.865 -0.5002  0.5010 -0.6634
 2132SOL     OW17857   2.438   4.450   6.774 -0.0465 -0.4785 -0.5255
 2132SOL    HW117858   2.423   4.477   6.864 -0.3618  0.8308 -0.9663
 2132SOL    HW217859   2.379   4.375   6.775 -2.3294  1.2997 -1.4466
 2133SOL     OW17860   4.084   2.400   1.607 -0.1499 -0.5077  0.2114
 2133SOL    HW117861   4.113   2.490   1.622 -0.1233 -0.5141  0.1991
 2133SOL    HW217862   4.024   2.391   1.681 -0.0360 -1.3922  0.1965
 2134SOL     OW17863   2.293   4.640   1.969 -0.2433 -0.0258  0.0215
 2134SOL    HW117864   2.267   4.548   1.976  3.9647 -1.3253 -1.5773
 2134SOL    HW217865   2.295   4.652   1.874 -1.5117 -0.6829 -0.0989
 2135SOL     OW17866   2.983   3.146  10.254  0.1745 -0.2435  0.0664
 2135SOL    HW117867   2.944   3.082  10.314 -1.8134  0.5608 -0.3968
 2135SOL    HW217868   2.994   3.218  10.317  0.3226  0.2011 -0.4685
 2136SOL     OW17869   0.923   1.086   3.163 -0.3445  0.3861 -0.4920
 2136SOL    HW117870   1.003   1.035   3.153 -0.4090  0.1416  0.2225
 2136SOL    HW217871   0.960   1.169   3.192 -0.4062 -0.0312  0.8032
 2137SOL     OW17872   1.220   1.402   1.480  0.2257  0.4228 -0.8529
 2137SOL    HW117873   1.253   1.471   1.422  2.4460 -1.9920 -2.4975
 2137SOL    HW217874   1.199   1.462   1.552 -3.9695 -0.8940 -1.0028
 2138SOL     OW17875   0.455   1.049   4.383  0.2044 -0.2025  0.0831
 2138SOL    HW117876   0.472   0.960   4.354  2.8226  0.2260  0.3207
 2138SOL    HW217877   0.360   1.051   4.374  0.0551  0.3791  1.7090
 2139SOL     OW17878   2.143   1.844   4.060 -0.3444 -0.3579  0.1629
 2139SOL    HW117879   2.195   1.764   4.054  0.7285  0.2772  0.8791
 2139SOL    HW217880   2.088   1.837   3.982  1.4827 -1.0216 -1.0866
 2140SOL     OW17881   1.486   1.062   8.302 -0.2455 -0.2047  0.1932
 2140SOL    HW117882   1.426   1.104   8.240 -0.4047 -1.0381 -0.2233
 2140SOL    HW217883   1.566   1.056   8.250 -1.1467  1.8575 -1.4163
 2141SOL     OW17884   0.782   1.003  17.628 -0.4453 -0.5034 -0.2966
 2141SOL    HW117885   0.708   1.008  17.567  1.9162  0.2035 -3.1125
 2141SOL    HW217886   0.784   1.095  17.653 -0.2798 -1.1031  1.8262
 2142SOL     OW17887   1.221   3.151   6.053 -0.0707 -0.0027 -0.0861
 2142SOL    HW117888   1.247   3.156   5.961  0.8954 -2.1081  0.0579
 2142SOL    HW217889   1.296   3.105   6.091  1.0181  2.0534  0.2369
 2143SOL     OW17890   4.558   1.930  17.284  0.3033  0.0119 -0.0622
 2143SOL    HW117891   4.463   1.932  17.295  0.2168 -0.1033 -0.8072
 2143SOL    HW217892   4.598   1.931  17.371 -0.1586  1.6767  0.1298
 2144SOL     OW17893   3.884   2.288   1.121 -0.3459  0.1166 -0.5097
 2144SOL    HW117894   3.841   2.372   1.137 -0.1532  0.4579 -1.7649
 2144SOL    HW217895   3.959   2.310   1.065 -0.0754  0.6740  0.0744
 2145SOL     OW17896   1.971   0.426   5.144  0.3700  0.0232 -0.4757
 2145SOL    HW117897   1.917   0.505   5.143 -1.0602 -0.9928 -1.4582
 2145SOL    HW217898   1.898   0.366   5.154  1.0627 -0.5632  1.1967
 2146SOL     OW17899   4.709   1.077   9.571  0.1616 -0.4012  0.4667
 2146SOL    HW117900   4.628   1.027   9.580 -1.0906  1.2044 -1.9984
 2146SOL    HW217901   0.022   1.025   9.499 -0.3564 -1.2678  0.8316
 2147SOL     OW17902   3.567   2.072   7.778 -0.3142  0.2120  0.6499
 2147SOL    HW117903   3.554   2.095   7.687 -0.4751 -0.3945  0.5170
 2147SOL    HW217904   3.481   2.082   7.819 -0.8369 -0.8704 -0.1763
 2148SOL     OW17905   2.388   1.842  15.621  0.1403  0.5547  0.1738
 2148SOL    HW117906   2.482   1.860  15.618 -0.0300  1.1922 -1.2851
 2148SOL    HW217907   2.350   1.869  15.705  0.5076 -1.9417  1.1506
 2149SOL     OW17908   2.471   2.615   6.261 -0.4891  0.7803  0.1063
 2149SOL    HW117909   2.555   2.593   6.302 -0.6679 -1.5416 -0.7792
 2149SOL    HW217910   2.438   2.690   6.311 -1.4972 -1.3163  2.5514
 2150SOL     OW17911   4.384   3.612   2.815  0.0694 -0.0189 -0.3125
 2150SOL    HW117912   4.329   3.534   2.825  1.2696 -0.9516 -1.0830
 2150SOL    HW217913   4.450   3.590   2.881 -0.4071 -2.3047 -0.6041
 2151SOL     OW17914   3.245   0.078   4.851  0.4017 -0.0241  0.0955
 2151SOL    HW117915   3.305   0.055   4.780 -0.2719  0.9368 -0.7876
 2151SOL    HW217916   3.240   4.712   4.887 -1.8240 -0.3216 -0.9428
 2152SOL     OW17917   0.515   0.734   7.504 -0.1619 -0.4081  0.4097
 2152SOL    HW117918   0.448   0.665   7.507  0.0004 -0.5520  0.7462
 2152SOL    HW217919   0.470   0.809   7.542 -0.2841 -0.6067  0.6585
 2153SOL     OW17920   2.253   2.097   3.019 -0.7047  0.1564  0.3412
 2153SOL    HW117921   2.318   2.167   3.008  2.3255 -2.8276 -0.8520
 2153SOL    HW217922   2.277   2.063   3.105  1.9847 -0.0919 -0.4812
 2154SOL     OW17923   4.271   1.232   7.173  0.3436 -0.3034  0.8327
 2154SOL    HW117924   4.269   1.150   7.221 -1.0831 -0.0565  1.2006
 2154SOL    HW217925   4.232   1.207   7.089  2.7104  0.7891 -0.5990
 2155SOL     OW17926   4.646   2.682  14.406 -0.1253 -0.1455 -0.0918
 2155SOL    HW117927   4.572   2.632  14.371 -0.5426 -0.9807  1.9809
 2155SOL    HW217928   4.689   2.720  14.329 -1.4923 -3.2646 -2.3821
 2156SOL     OW17929   2.560   4.252  15.262 -0.3891  0.2587 -0.5028
 2156SOL    HW117930   2.580   4.345  15.271 -3.6931  1.0473 -0.9963
 2156SOL    HW217931   2.608   4.229  15.183 -0.4013  2.5551 -1.1672
 2157SOL     OW17932   1.173   0.843  17.672 -0.0068  0.4103 -0.7408
 2157SOL    HW117933   1.142   0.786   0.050 -0.1417 -0.7460 -1.7481
 2157SOL    HW217934   1.260   0.872   0.007  0.6982 -1.4154 -1.0643
 2158SOL     OW17935   1.599   3.561  16.603  0.3407  0.5127  0.6654
 2158SOL    HW117936   1.650   3.611  16.539 -1.3891 -0.4104 -1.4521
 2158SOL    HW217937   1.569   3.628  16.665  1.7906  2.3767 -0.6577
 2159SOL     OW17938   3.644   4.675   3.224  0.4268 -0.2412 -0.7077
 2159SOL    HW117939   3.578   0.007   3.183  1.1428  0.4671 -0.9265
 2159SOL    HW217940   3.724   0.006   3.215  0.4112 -0.5257 -2.4476
 2160SOL     OW17941   4.319   1.938  17.399 -0.0967  0.0435 -0.2047
 2160SOL    HW117942   4.265   2.011  17.429  1.1011  0.7920  0.1106
 2160SOL    HW217943   4.254   1.875  17.368 -0.9097  0.9680 -0.3916
 2161SOL     OW17944   1.739   1.753  17.332  0.5852 -0.3627 -0.0259
 2161SOL    HW117945   1.798   1.729  17.260  1.0295 -1.1142  0.5931
 2161SOL    HW217946   1.717   1.673  17.379 -2.8708 -0.5361 -1.9048
 2162SOL     OW17947   4.567   3.322  12.437 -0.3500  0.4180  0.3230
 2162SOL    HW117948   4.575   3.251  12.372 -0.2646  0.5891  0.1461
 2162SOL    HW217949   4.529   3.264  12.503  0.5220  0.7742  1.1440
 2163SOL     OW17950   2.579   3.368   2.351 -0.8247 -0.0471  0.5380
 2163SOL    HW117951   2.643   3.318   2.403  0.3310  1.3171  0.4460
 2163SOL    HW217952   2.518   3.384   2.423  0.0245  2.9485  0.5744
 2164SOL     OW17953   1.559   2.908   8.345 -0.1745  0.1525 -0.6622
 2164SOL    HW117954   1.538   2.825   8.302  1.6197  0.1899 -1.6315
 2164SOL    HW217955   1.608   2.955   8.277 -0.1436 -2.1113 -2.1948
 2165SOL     OW17956   4.213   0.409   6.337  0.1435  0.0029 -0.1635
 2165SOL    HW117957   4.122   0.422   6.363 -0.1087  0.4872 -1.2727
 2165SOL    HW217958   4.245   0.352   6.406  1.2063  0.9078  0.0948
 2166SOL     OW17959   2.940   0.745   9.798 -0.4986 -0.2453 -0.0933
 2166SOL    HW117960   2.850   0.764   9.770 -0.1047 -0.0160 -1.1928
 2166SOL    HW217961   2.932   0.780   9.886  0.0898 -1.1833  0.3316
 2167SOL     OW17962   0.506   4.519   6.880  0.5366 -0.4080  0.2928
 2167SOL    HW117963   0.424   4.567   6.888  1.0089  0.2220  1.3335
 2167SOL    HW217964   0.546   4.509   6.966  2.3979 -1.1930 -0.6440
 2168SOL     OW17965   1.207   1.123   1.381 -0.2931 -0.1377  0.5942
 2168SOL    HW117966   1.233   1.204   1.424 -0.5796  0.1842  0.1594
 2168SOL    HW217967   1.262   1.122   1.303 -0.0126  2.1557  0.7674
 2169SOL     OW17968   4.243   4.353   9.028  0.0639 -0.0306 -0.1129
 2169SOL    HW117969   4.243   4.376   9.121  1.2989  1.2523 -0.4449
 2169SOL    HW217970   4.286   4.426   8.983  0.8273  0.0912  0.8321
 2170SOL     OW17971   2.146   2.589   8.602  0.0689  0.4339 -0.6698
 2170SOL    HW117972   2.067   2.561   8.556 -0.4072  3.1394 -1.4915
 2170SOL    HW217973   2.116   2.665   8.653 -0.7252 -1.5705  1.8417
 2171SOL     OW17974   3.537   2.185   3.501  0.2092  0.1451  0.2908
 2171SOL    HW117975   3.622   2.189   3.457  1.2931 -2.7962  2.1214
 2171SOL    HW217976   3.562   2.151   3.586 -1.1607 -1.6374 -0.0164
 2172SOL     OW17977   4.311   4.619  15.036  0.1912 -0.0689 -0.2283
 2172SOL    HW117978   4.251   4.596  15.107  0.1545 -1.7247 -0.8001
 2172SOL    HW217979   4.398   4.594  15.066  0.0945 -0.3463 -0.1763
 2173SOL     OW17980   2.670   1.714   8.825 -0.2128 -0.1596 -0.4263
 2173SOL    HW117981   2.625   1.669   8.753  0.2414 -0.7175 -0.3618
 2173SOL    HW217982   2.743   1.653   8.835 -0.8457 -0.6442  1.3204
 2174SOL     OW17983   1.738   0.595   4.258 -0.2785 -0.0327 -0.3329
 2174SOL    HW117984   1.667   0.660   4.263 -1.8254 -1.9297  2.2433
 2174SOL    HW217985   1.796   0.623   4.328 -0.3666 -0.3278 -0.1435
 2175SOL     OW17986   0.114   0.388  10.571  0.2234  0.1165  0.0614
 2175SOL    HW117987   0.108   0.480  10.598 -1.5107  0.3231 -1.0256
 2175SOL    HW217988   0.178   0.360  10.637 -1.5688 -1.0468  1.3150
 2176SOL     OW17989   2.185   2.755   2.912  0.5608  0.4611  0.2229
 2176SOL    HW117990   2.116   2.821   2.914 -0.2926 -0.4164 -0.4922
 2176SOL    HW217991   2.194   2.729   2.820 -1.2535  1.2682 -0.1788
 2177SOL     OW17992   3.339   3.460   5.704 -0.3226 -0.1131  0.0844
 2177SOL    HW117993   3.343   3.387   5.765 -3.2591  0.5654  1.1350
 2177SOL    HW217994   3.400   3.438   5.635  0.1713 -1.0410  0.8267
 2178SOL     OW17995   4.178   2.428   6.558 -0.3253  0.0514  0.2923
 2178SOL    HW117996   4.148   2.494   6.620  1.1441  0.3886  0.6545
 2178SOL    HW217997   4.251   2.482   6.529 -1.8586  0.9761 -1.7840
 2179SOL     OW17998   3.159   3.476   3.003 -0.2877 -0.2896  0.0514
 2179SOL    HW117999   3.101   3.445   2.934  0.9418 -0.7166 -0.7774
 2179SOL    HW218000   3.176   3.562   2.965 -2.2279 -0.4203 -1.1003
 2180SOL     OW18001   0.132   3.922  14.527  0.4102  0.1918 -0.2416
 2180SOL    HW118002   0.058   3.939  14.586  0.6546 -0.6499  0.3034
 2180SOL    HW218003   0.103   3.858  14.462  1.4629  0.2073 -0.7243
 2181SOL     OW18004   2.544   0.297   3.125  0.3472 -0.4204 -0.1377
 2181SOL    HW118005   2.517   0.333   3.209  2.5219  0.3616  0.2144
 2181SOL    HW218006   2.514   0.373   3.075 -0.5489 -0.9540 -0.4064
 2182SOL     OW18007   4.393   4.115   4.121 -0.7263  0.1859 -0.3189
 2182SOL    HW118008   4.439   4.093   4.040  0.1628 -2.7794  0.9955
 2182SOL    HW218009   4.333   4.186   4.097  1.3391  1.2590 -2.3652
 2183SOL     OW18010   4.576   0.944   0.870 -0.0680 -0.3433  0.4460
 2183SOL    HW118011   4.651   0.885   0.879 -1.9123 -2.4236  2.4062
 2183SOL    HW218012   4.535   0.919   0.953  1.1817  2.1880  1.8201
 2184SOL     OW18013   2.543   3.154   7.440 -0.2811  0.4174  0.3697
 2184SOL    HW118014   2.553   3.220   7.372  0.2045  1.2057  1.1939
 2184SOL    HW218015   2.568   3.076   7.391  1.2228 -0.2909  2.2645
 2185SOL     OW18016   2.992   4.670   2.330 -0.6367 -0.0271  0.0274
 2185SOL    HW118017   3.036   4.592   2.295 -0.8721 -0.4815  0.7351
 2185SOL    HW218018   2.963   4.711   2.249  0.9454  1.4337  0.2092
 2186SOL     OW18019   0.559   1.383   3.831  0.4190  0.2061  0.4088
 2186SOL    HW118020   0.571   1.294   3.864 -3.3390 -1.0858 -1.6321
 2186SOL    HW218021   0.602   1.385   3.746  0.7011  4.7996  0.6620
 2187SOL     OW18022   0.631   4.193   8.202  0.1534 -0.0749  0.0144
 2187SOL    HW118023   0.622   4.285   8.176 -0.8474 -0.4499 -0.9761
 2187SOL    HW218024   0.543   4.169   8.232 -0.4135 -0.2089 -1.7483
 2188SOL     OW18025   0.352   1.990  10.780 -0.6691  0.0698 -0.0586
 2188SOL    HW118026   0.322   1.908  10.740 -2.6230  0.4656  0.5774
 2188SOL    HW218027   0.280   1.997  10.842 -0.1722 -0.3055  0.5621
 2189SOL     OW18028   3.218   3.257   5.941 -0.2481  0.4466 -0.3090
 2189SOL    HW118029   3.222   3.250   5.846 -3.7330  0.7343 -0.4979
 2189SOL    HW218030   3.269   3.179   5.964  1.4898  0.8346 -2.9356
 2190SOL     OW18031   3.745   2.936   3.143  0.0198 -0.2011 -0.1799
 2190SOL    HW118032   3.683   3.002   3.111 -0.8304 -0.0981  1.6795
 2190SOL    HW218033   3.755   2.875   3.070  1.3726 -3.6772  2.9541
 2191SOL     OW18034   3.062   0.042   0.442 -0.1293  0.4957 -0.0954
 2191SOL    HW118035   3.035   0.091   0.364  1.8858  0.9725 -0.4945
 2191SOL    HW218036   3.149   0.078   0.458 -0.2468 -0.1372  1.9872
 2192SOL     OW18037   4.607   3.546   4.031 -0.4000 -0.4671  0.3792
 2192SOL    HW118038   4.669   3.525   3.961 -0.7176  2.0006 -0.6523
 2192SOL    HW218039   4.663   3.517   4.103  0.7155  3.5583  1.1216
 2193SOL     OW18040   0.015   0.316   4.885  0.2509  0.1085  0.4551
 2193SOL    HW118041   4.713   0.343   4.796  3.0560  2.4186  0.3958
 2193SOL    HW218042   0.060   0.235   4.863  0.9764  0.8336 -0.7431
 2194SOL     OW18043   0.784   2.533   2.984  0.1403 -0.2944  0.0167
 2194SOL    HW118044   0.760   2.587   2.909  1.3060  0.8699  0.4754
 2194SOL    HW218045   0.795   2.593   3.059  1.5041 -1.0478  0.4313
 2195SOL     OW18046   3.021   1.463   9.188  0.0153 -0.7369 -0.1847
 2195SOL    HW118047   2.949   1.524   9.201 -0.2291 -1.3547  1.3059
 2195SOL    HW218048   3.015   1.407   9.265 -0.0352 -0.1972  0.1994
 2196SOL     OW18049   2.430   4.115   4.462  0.1127 -0.2080  0.1645
 2196SOL    HW118050   2.423   4.200   4.420 -1.5114 -0.7507 -0.7131
 2196SOL    HW218051   2.351   4.069   4.432 -0.5820  1.5608 -0.6960
 2197SOL     OW18052   3.341   0.820   7.917  0.8220  0.2578  0.1955
 2197SOL    HW118053   3.367   0.819   8.009 -0.5621 -0.3649  0.5790
 2197SOL    HW218054   3.287   0.743   7.902 -2.7023  2.6749  0.3412
 2198SOL     OW18055   0.406   1.875   1.899 -0.6579 -0.4301  0.5146
 2198SOL    HW118056   0.311   1.870   1.904 -0.7397 -0.1079 -0.6236
 2198SOL    HW218057   0.400   1.941   1.830 -1.8295 -1.4773 -0.4064
 2199SOL     OW18058   4.536   4.371   5.335 -0.4152  0.0744 -0.7949
 2199SOL    HW118059   4.517   4.325   5.253  2.7221 -1.4256 -0.6740
 2199SOL    HW218060   4.606   4.312   5.362 -0.2446  0.9850  0.7787
 2200SOL     OW18061   2.313   4.313   1.311  0.1927 -0.2124  0.0187
 2200SOL    HW118062   2.363   4.301   1.230  1.4167 -0.3234  0.7977
 2200SOL    HW218063   2.369   4.380   1.350  0.9532 -0.3477 -0.8501
 2201SOL     OW18064   0.336   4.670  14.633  0.0526 -0.3404  0.0134
 2201SOL    HW118065   0.243   4.660  14.653 -0.6021 -0.3193 -3.0262
 2201SOL    HW218066   0.350   0.038  14.659  0.0237 -0.3140 -0.0624
 2202SOL     OW18067   1.776   2.657   2.847  0.0183  0.0070  0.0885
 2202SOL    HW118068   1.805   2.597   2.916 -2.4909  1.4853  2.3892
 2202SOL    HW218069   1.834   2.732   2.857 -0.0906  0.3061 -1.5055
 2203SOL     OW18070   4.695   4.127   3.674 -0.1102  0.0902 -0.2906
 2203SOL    HW118071   4.701   4.077   3.593  1.7879 -1.3301  0.7557
 2203SOL    HW218072   4.706   4.213   3.633 -0.9889  0.0278 -0.6633
 2204SOL     OW18073   1.598   1.083   4.620  0.1055 -0.3670  0.8264
 2204SOL    HW118074   1.643   1.129   4.549 -2.7589  2.5221  0.8335
 2204SOL    HW218075   1.563   1.156   4.671  1.3593 -0.4037  1.7182
 2205SOL     OW18076   1.989   2.735   3.982  0.3479  0.2042 -0.0200
 2205SOL    HW118077   2.071   2.731   3.932 -0.0476  1.1211 -0.7541
 2205SOL    HW218078   1.929   2.681   3.932  0.0957  2.4960 -2.1944
 2206SOL     OW18079   1.567   0.183   7.920 -0.0796  0.2855  0.0263
 2206SOL    HW118080   1.654   0.205   7.955  1.2054 -2.9743 -1.1676
 2206SOL    HW218081   1.540   0.273   7.899 -0.3869 -0.4616 -2.7126
 2207SOL     OW18082   2.056   0.758  16.072 -0.1052  0.0509 -0.0835
 2207SOL    HW118083   2.141   0.778  16.111  0.6310 -2.8728 -0.1540
 2207SOL    HW218084   2.084   0.692  16.008 -0.5713 -2.2949  2.1503
 2208SOL     OW18085   4.169   0.341   6.687  0.1356  0.1114 -0.3839
 2208SOL    HW118086   4.238   0.294   6.640  0.1284  0.6707 -0.9602
 2208SOL    HW218087   4.107   0.352   6.615 -0.6222  1.0321  0.4123
 2209SOL     OW18088   3.662   0.558   4.070  0.0492 -0.9237  0.3225
 2209SOL    HW118089   3.657   0.617   3.995 -3.5482 -0.9989  0.4974
 2209SOL    HW218090   3.698   0.616   4.136  0.3984 -1.9081  1.0066
 2210SOL     OW18091   2.086   1.934   5.041  0.1168 -0.0323  0.2936
 2210SOL    HW118092   2.060   2.023   5.062  1.3533  0.5533 -0.7079
 2210SOL    HW218093   2.136   1.942   4.960 -0.5690  0.9944 -0.0367
 2211SOL     OW18094   1.092   4.540   6.158  0.0968  0.8566  0.7661
 2211SOL    HW118095   1.059   4.471   6.100  1.7016  0.1498  0.7011
 2211SOL    HW218096   1.013   4.567   6.204 -0.9785 -0.1095 -0.5018
 2212SOL     OW18097   4.684   2.549   6.909  0.3153  0.1301 -0.2426
 2212SOL    HW118098   4.604   2.591   6.876 -1.5331 -3.0574  0.1908
 2212SOL    HW218099   0.019   2.534   6.833  0.2311 -2.3150  0.1830
 2213SOL     OW18100   3.021   1.231   1.067  0.4197 -0.0794 -0.2966
 2213SOL    HW118101   3.071   1.291   1.122  2.8236 -2.3744  0.0061
 2213SOL    HW218102   2.933   1.240   1.104  1.1847 -0.5767  1.6123
 2214SOL     OW18103   2.572   1.358   5.009  0.4840 -0.0051  0.5642
 2214SOL    HW118104   2.552   1.437   4.960  1.1391 -0.4391 -0.4033
 2214SOL    HW218105   2.629   1.389   5.080 -0.5230  0.1367  1.3101
 2215SOL     OW18106   3.632   1.149   8.534 -0.1098 -0.2265 -0.2436
 2215SOL    HW118107   3.539   1.135   8.555 -0.7621  1.0938 -2.1895
 2215SOL    HW218108   3.681   1.098   8.598 -1.0898 -0.0570  0.6524
 2216SOL     OW18109   1.564   0.591   0.072  0.3222 -0.9350 -0.0354
 2216SOL    HW118110   1.613   0.606  17.684 -0.1852 -1.5145 -0.4573
 2216SOL    HW218111   1.519   0.510   0.048  0.0281 -0.0556 -2.3707
 2217SOL     OW18112   0.487   1.085  15.693  0.0579  0.1270  0.1528
 2217SOL    HW118113   0.449   1.025  15.758 -1.7359  0.2148 -0.8446
 2217SOL    HW218114   0.582   1.076  15.703  0.4552  0.7370 -3.1069
 2218SOL     OW18115   1.637   1.863  14.505  0.0617 -0.4378 -0.2814
 2218SOL    HW118116   1.684   1.881  14.586 -2.1139  0.8445  0.6841
 2218SOL    HW218117   1.595   1.781  14.529 -1.6952  0.1595 -1.3005
 2219SOL     OW18118   0.488   3.000  17.535  0.1953  0.1350  0.2640
 2219SOL    HW118119   0.536   3.022  17.615  2.4890  2.1415 -1.6871
 2219SOL    HW218120   0.534   3.041  17.462  1.2543 -0.1941  0.7383
 2220SOL     OW18121   4.175   4.663   2.820  0.4968  0.2979  0.2575
 2220SOL    HW118122   4.243   4.685   2.883  0.3536 -3.0682  1.6267
 2220SOL    HW218123   4.106   4.670   2.886  1.8967 -2.8254  2.0579
 2221SOL     OW18124   3.594   0.566   3.439 -0.3882 -0.0506  0.5445
 2221SOL    HW118125   3.564   0.567   3.349 -0.5354 -2.3185  0.5873
 2221SOL    HW218126   3.516   0.531   3.482 -1.3611 -0.2867 -1.4563
 2222SOL     OW18127   3.506   1.469  15.048  0.0444 -0.1943 -0.0642
 2222SOL    HW118128   3.488   1.437  15.136 -0.0470 -1.5585 -0.5866
 2222SOL    HW218129   3.486   1.559  15.074 -0.6170 -0.1629 -0.6854
 2223SOL     OW18130   3.877   1.258   8.254 -0.0866  0.1430 -0.0272
 2223SOL    HW118131   3.858   1.300   8.170  0.9246 -1.2895 -0.9732
 2223SOL    HW218132   3.838   1.171   8.242  2.8882 -0.7327 -3.5003
 2224SOL     OW18133   2.902   3.780   3.345  0.1681  0.7384 -0.0961
 2224SOL    HW118134   2.911   3.803   3.252 -1.2054 -2.1128 -0.9460
 2224SOL    HW218135   2.809   3.804   3.350 -0.6963 -2.2093 -2.0099
 2225SOL     OW18136   0.808   1.905   7.619 -0.0260  0.5853  0.2407
 2225SOL    HW118137   0.867   1.905   7.695  0.5406 -1.6591 -0.2081
 2225SOL    HW218138   0.730   1.869   7.661  0.9679 -0.6328  1.0502
 2226SOL     OW18139   2.592   1.368  14.814 -0.1171 -0.0755 -0.6708
 2226SOL    HW118140   2.621   1.457  14.837 -1.5895  0.3291 -0.4034
 2226SOL    HW218141   2.655   1.314  14.862 -2.5489 -0.4411  2.0476
 2227SOL     OW18142   0.470   2.870  14.237  0.7405  0.1765  0.0759
 2227SOL    HW118143   0.541   2.818  14.200 -2.1404 -2.9555 -1.1008
 2227SOL    HW218144   0.508   2.884  14.324  3.8619 -1.3724 -1.0211
 2228SOL     OW18145   0.041   0.121  13.070  0.5974  0.7260 -0.4376
 2228SOL    HW118146   0.104   0.049  13.061 -1.8475 -1.3283 -0.7924
 2228SOL    HW218147   0.095   0.192  13.033 -0.0684  1.8274  0.7126
 2229SOL     OW18148   1.825   0.672   5.886 -0.4444 -0.3222  0.8163
 2229SOL    HW118149   1.733   0.695   5.881  0.0522  1.5856  0.1567
 2229SOL    HW218150   1.831   0.651   5.980  1.7042 -0.0955  0.7483
 2230SOL     OW18151   3.083   2.305   7.018  0.1864  0.4133 -0.0940
 2230SOL    HW118152   3.174   2.332   7.017 -0.2032  1.9011  4.2690
 2230SOL    HW218153   3.078   2.275   7.109  1.8732 -0.0081 -0.1486
 2231SOL     OW18154   3.846   4.707   8.385  0.8905 -0.0136 -0.7148
 2231SOL    HW118155   3.916   0.040   8.419 -0.5409  1.1711  0.2775
 2231SOL    HW218156   3.887   4.620   8.393  0.7541  0.1173  1.5582
 2232SOL     OW18157   0.163   4.586   8.241  0.3010 -0.5184  0.6880
 2232SOL    HW118158   0.103   4.559   8.310 -1.7312  0.6859 -0.6132
 2232SOL    HW218159   0.145   4.680   8.235 -0.3577 -0.7559 -1.0561
 2233SOL     OW18160   4.125   2.806  17.244  0.0573 -0.3655  0.0754
 2233SOL    HW118161   4.079   2.861  17.180 -0.3045 -0.9210 -0.1501
 2233SOL    HW218162   4.192   2.863  17.281  0.9006 -1.4756  0.2557
 2234SOL     OW18163   2.422   3.937   7.783  0.2046  0.3558  0.3948
 2234SOL    HW118164   2.373   4.018   7.794  1.3171  1.0667  0.1244
 2234SOL    HW218165   2.508   3.966   7.813  0.9770 -0.7873 -0.6680
 2235SOL     OW18166   1.608   1.624  14.666  0.1874 -0.2690 -0.3126
 2235SOL    HW118167   1.643   1.535  14.663  0.4722 -0.1944  0.8098
 2235SOL    HW218168   1.661   1.670  14.730 -1.0337  2.0754 -0.9838
 2236SOL     OW18169   1.606   2.553   7.984  0.2245 -0.1066 -0.6512
 2236SOL    HW118170   1.672   2.579   8.048 -0.7844  0.3199  0.2054
 2236SOL    HW218171   1.627   2.610   7.910  1.3948  0.4323  0.0903
 2237SOL     OW18172   3.883   0.948   2.761 -0.2016 -0.1292 -0.3693
 2237SOL    HW118173   3.937   1.026   2.754  0.7422 -0.5648  1.9717
 2237SOL    HW218174   3.795   0.980   2.779  0.7166  1.3268  1.4848
 2238SOL     OW18175   4.640   4.103   7.933 -0.4195  0.2269  0.4602
 2238SOL    HW118176   4.717   4.050   7.953 -1.9551 -2.0681  0.2266
 2238SOL    HW218177   4.686   4.187   7.937  0.8793 -0.3653 -2.2017
 2239SOL     OW18178   1.697   3.052   2.141  0.7845  0.1771 -0.0315
 2239SOL    HW118179   1.643   3.089   2.071  0.9895  3.2769  1.4751
 2239SOL    HW218180   1.762   2.992   2.102  1.0801 -0.0792  0.8519
 2240SOL     OW18181   2.014   4.632   9.912 -0.5080  0.1288  0.3300
 2240SOL    HW118182   2.101   4.653   9.946  0.4795 -2.3288 -0.6916
 2240SOL    HW218183   2.029   4.539   9.901  0.3201  0.3595 -0.4712
 2241SOL     OW18184   4.694   3.095  12.705  0.0536  0.3366 -0.2040
 2241SOL    HW118185   4.610   3.138  12.688 -0.9533 -1.4166  0.2567
 2241SOL    HW218186   0.001   3.156  12.773  0.3957 -1.6017  1.3978
 2242SOL     OW18187   3.560   1.375   0.470  0.0619 -0.1909 -0.4362
 2242SOL    HW118188   3.519   1.288   0.474  0.1849 -0.2197  0.1630
 2242SOL    HW218189   3.598   1.392   0.556 -2.0664  1.2089  0.2143
 2243SOL     OW18190   4.072   3.582   2.636  0.0964  0.4704  0.1532
 2243SOL    HW118191   4.096   3.554   2.548  1.6101  0.0844  0.6920
 2243SOL    HW218192   4.132   3.656   2.643 -1.5426  1.6637  1.4517
 2244SOL     OW18193   2.237   0.110  10.276 -0.0404  0.5746  0.0669
 2244SOL    HW118194   2.315   0.131  10.224  0.1321 -0.3264 -0.0516
 2244SOL    HW218195   2.276   0.107  10.364  1.7836 -0.6411 -0.7836
 2245SOL     OW18196   2.111   1.322  12.318  0.1750  0.1730 -0.0112
 2245SOL    HW118197   2.126   1.268  12.241 -1.2822  0.0727 -0.2285
 2245SOL    HW218198   2.048   1.390  12.294  0.4031  0.3049 -0.2376
 2246SOL     OW18199   4.430   2.628   5.193 -0.2034  0.6547 -0.5649
 2246SOL    HW118200   4.437   2.702   5.253  0.7091 -0.4490  0.7007
 2246SOL    HW218201   4.338   2.642   5.173 -0.4063 -1.6489 -1.2759
 2247SOL     OW18202   3.182   2.108   8.293 -0.2908  0.1976 -0.3434
 2247SOL    HW118203   3.232   2.188   8.281  1.2841 -0.4452  1.8702
 2247SOL    HW218204   3.203   2.055   8.216 -0.6242 -2.8227  1.6170
 2248SOL     OW18205   2.560   2.942  10.225  0.2149  0.1913  0.5558
 2248SOL    HW118206   2.631   2.899  10.177 -0.5556 -0.2238 -0.2193
 2248SOL    HW218207   2.486   2.898  10.182  0.2571  0.3889  0.2846
 2249SOL     OW18208   2.815   3.808   4.173 -0.5406  0.5906  0.0380
 2249SOL    HW118209   2.792   3.764   4.255 -0.0182 -0.8593 -0.5868
 2249SOL    HW218210   2.765   3.889   4.184 -0.5385  0.3914  1.5354
 2250SOL     OW18211   0.816   3.254   7.038  0.0755  0.2693  0.7362
 2250SOL    HW118212   0.816   3.233   6.944 -0.0040  0.9341  0.5876
 2250SOL    HW218213   0.743   3.314   7.047 -0.5768 -0.1956 -1.4475
 2251SOL     OW18214   0.471   2.723   2.442  0.1278 -0.3691  0.5864
 2251SOL    HW118215   0.412   2.649   2.442 -0.3845  0.0332 -2.8379
 2251SOL    HW218216   0.416   2.798   2.465  1.6363  0.4273  1.6376
 2252SOL     OW18217   1.740   3.736   6.737  0.1727  0.7098 -0.8937
 2252SOL    HW118218   1.681   3.735   6.663  0.3215 -0.3156 -0.9943
 2252SOL    HW218219   1.785   3.819   6.720 -1.0379  0.9085 -3.0764
 2253SOL     OW18220   3.965   4.242   3.869 -0.7097 -0.0735  0.2241
 2253SOL    HW118221   3.992   4.249   3.960 -2.0995 -2.8267  0.8645
 2253SOL    HW218222   4.048   4.258   3.825 -0.2460 -0.8471  0.8353
 2254SOL     OW18223   4.301   3.198   5.876  0.0918  0.3126 -0.0442
 2254SOL    HW118224   4.387   3.215   5.836  0.6560 -1.1740  0.5380
 2254SOL    HW218225   4.254   3.225   5.797 -0.0534  2.0234  0.6141
 2255SOL     OW18226   3.593   2.534   1.887 -0.1108  0.0500  0.4516
 2255SOL    HW118227   3.502   2.534   1.917 -1.0456  2.2091 -2.3645
 2255SOL    HW218228   3.593   2.621   1.849  1.6840 -0.0116  0.3342
 2256SOL     OW18229   4.708   1.456   9.755  0.3027 -0.7010  0.3493
 2256SOL    HW118230   4.672   1.535   9.713  0.9392  0.4832  2.0079
 2256SOL    HW218231   4.641   1.438   9.821 -0.3690  0.0562 -0.1219
 2257SOL     OW18232   1.265   1.244   2.834  0.2052  0.3036  0.3415
 2257SOL    HW118233   1.351   1.271   2.803 -0.0304 -0.5312 -1.0469
 2257SOL    HW218234   1.288   1.185   2.906 -2.7143 -0.1243  0.9441
 2258SOL     OW18235   0.493   4.255   5.609 -0.0841  0.0443 -0.4231
 2258SOL    HW118236   0.579   4.215   5.627 -0.8112 -0.7544  1.2593
 2258SOL    HW218237   0.516   4.317   5.540 -1.6256 -0.2519 -1.2081
 2259SOL     OW18238   3.410   1.214   4.949 -0.2584 -0.3938  0.2574
 2259SOL    HW118239   3.367   1.264   4.880  0.6290  2.0407  1.4703
 2259SOL    HW218240   3.467   1.278   4.992 -1.7037  1.2505 -0.3002
 2260SOL     OW18241   3.224   1.495  11.314  0.4547  0.1828 -0.0827
 2260SOL    HW118242   3.137   1.471  11.347  0.6303 -0.3176  0.0133
 2260SOL    HW218243   3.265   1.544  11.385  0.0704  0.5584 -0.1133
 2261SOL     OW18244   3.773   1.495  17.098 -0.4611  0.2957  0.5112
 2261SOL    HW118245   3.842   1.561  17.104 -0.3021  0.2090 -0.3093
 2261SOL    HW218246   3.735   1.531  17.017 -1.9432 -1.7396  0.2953
 2262SOL     OW18247   4.434   0.214   3.629 -0.3181  0.2836 -0.1095
 2262SOL    HW118248   4.507   0.159   3.600  0.9284  0.1572  3.2058
 2262SOL    HW218249   4.393   0.240   3.547 -1.8955 -1.5357  0.0956
 2263SOL     OW18250   2.208   0.386   5.042 -0.3419  0.1652 -0.0368
 2263SOL    HW118251   2.121   0.403   5.078 -0.0801  1.6105 -0.0801
 2263SOL    HW218252   2.220   0.469   4.996  0.9236 -0.3596 -0.6585
 2264SOL     OW18253   4.416   4.512   7.837 -0.4985 -0.0284 -0.2629
 2264SOL    HW118254   4.381   4.593   7.801  2.4313 -0.4043 -3.9608
 2264SOL    HW218255   4.465   4.487   7.759  0.7656 -0.7460  0.7650
 2265SOL     OW18256   2.918   1.874  10.029  0.1434 -0.6189 -0.1901
 2265SOL    HW118257   2.843   1.816  10.044  0.1139 -0.9910 -1.7408
 2265SOL    HW218258   2.865   1.954  10.027  1.4216  0.2342 -0.1904
 2266SOL     OW18259   2.266   1.951   9.995  0.0606 -0.0835 -0.5180
 2266SOL    HW118260   2.312   1.868  10.004 -1.0728 -0.6688 -0.1459
 2266SOL    HW218261   2.248   1.979  10.085  0.1945 -1.4241 -0.0753
 2267SOL     OW18262   0.423   2.989   9.369  0.3415 -0.0409  0.5380
 2267SOL    HW118263   0.426   3.035   9.453  2.0945  1.7521 -0.5002
 2267SOL    HW218264   0.440   2.900   9.400 -0.2310  0.4809  2.3510
 2268SOL     OW18265   0.283   4.284   0.164  0.5128 -0.0219  0.0994
 2268SOL    HW118266   0.359   4.342   0.160  1.3813 -1.2501 -1.5806
 2268SOL    HW218267   0.217   4.345   0.197  1.7320  2.7491 -2.6328
 2269SOL     OW18268   2.220   0.746   8.714 -0.3047  0.1898  0.2136
 2269SOL    HW118269   2.188   0.804   8.645 -1.2704 -1.6231 -0.8681
 2269SOL    HW218270   2.141   0.750   8.768  1.0129 -0.3773  2.1953
 2270SOL     OW18271   1.098   3.313  13.683 -0.5688 -0.0499  0.4126
 2270SOL    HW118272   1.167   3.330  13.748  0.5886  1.0338 -1.0983
 2270SOL    HW218273   1.039   3.385  13.705  0.2663 -0.1060  2.8932
 2271SOL     OW18274   4.649   0.465  11.483 -0.6693  0.0817  0.6380
 2271SOL    HW118275   4.696   0.382  11.485  0.8085  0.9957  4.3172
 2271SOL    HW218276   4.702   0.514  11.419  0.1193 -0.1595  1.1094
 2272SOL     OW18277   3.732   2.276   5.175 -0.3650 -0.0521 -0.2332
 2272SOL    HW118278   3.673   2.235   5.113 -0.2808 -1.1489  0.4061
 2272SOL    HW218279   3.706   2.367   5.159 -0.4848 -0.0025  0.2288
 2273SOL     OW18280   1.296   0.424   1.605  0.4403 -0.0987 -0.3632
 2273SOL    HW118281   1.374   0.446   1.655 -0.0338 -0.9655  0.7669
 2273SOL    HW218282   1.262   0.513   1.598 -0.0163 -0.3747 -1.6896
 2274SOL     OW18283   3.470   0.490   1.187  0.6277 -0.4996  0.7678
 2274SOL    HW118284   3.490   0.441   1.267 -0.6376 -0.5755  1.0383
 2274SOL    HW218285   3.541   0.459   1.130  1.3031  1.0542  0.7470
 2275SOL     OW18286   1.745   2.877   8.772 -0.4063  0.3768  0.4577
 2275SOL    HW118287   1.687   2.953   8.768  1.3721  1.6365 -1.1582
 2275SOL    HW218288   1.830   2.904   8.738 -1.4507  0.6730 -1.8971
 2276SOL     OW18289   2.388   0.218   4.916 -0.1482  0.3910  0.5521
 2276SOL    HW118290   2.434   0.297   4.888  0.3356  0.6374  2.0215
 2276SOL    HW218291   2.339   0.259   4.987 -2.7148  1.6112 -1.9513
 2277SOL     OW18292   1.685   4.487   6.368  0.0474  0.6273  0.3845
 2277SOL    HW118293   1.644   4.570   6.392  0.6617  1.0238  0.0600
 2277SOL    HW218294   1.779   4.507   6.366  0.0768  0.3289 -1.1578
 2278SOL     OW18295   3.159   2.573   9.990  0.2185 -0.2504 -0.5202
 2278SOL    HW118296   3.155   2.621  10.072 -0.8334 -1.3482  0.0816
 2278SOL    HW218297   3.083   2.609   9.943 -2.5331 -3.1951  1.6389
 2279SOL     OW18298   2.021   2.017   9.873 -0.2858 -0.2578 -0.0645
 2279SOL    HW118299   2.042   2.049   9.785 -1.0498  0.5014  0.0185
 2279SOL    HW218300   2.102   1.970   9.892 -1.0120 -1.7748 -0.7550
 2280SOL     OW18301   2.543   3.017  13.535 -0.3290 -0.5360  0.1642
 2280SOL    HW118302   2.560   3.048  13.446 -0.3520  0.4678  0.5130
 2280SOL    HW218303   2.467   3.067  13.562 -0.7071 -0.1373 -1.6596
 2281SOL     OW18304   0.604   2.766  17.646  0.1082  0.3630  0.0660
 2281SOL    HW118305   0.625   2.709  17.572 -0.0673  0.7933 -0.3125
 2281SOL    HW218306   0.565   2.837  17.595  2.9822  0.9547 -1.3190
 2282SOL     OW18307   0.705   3.132  13.032  0.2142  0.5102 -0.3047
 2282SOL    HW118308   0.706   3.088  13.117 -0.1846  0.0885 -0.5179
 2282SOL    HW218309   0.771   3.198  13.053  1.2988 -0.5246 -0.4748
 2283SOL     OW18310   1.709   4.259   6.663  0.4868 -0.4734  0.1903
 2283SOL    HW118311   1.772   4.281   6.732  0.8786 -0.0187 -0.3127
 2283SOL    HW218312   1.665   4.344   6.661 -2.6951 -2.1568 -0.8976
 2284SOL     OW18313   2.984   3.748  17.544  0.4779 -0.2393 -0.0425
 2284SOL    HW118314   2.919   3.817  17.558 -0.4057 -0.8644 -1.1111
 2284SOL    HW218315   2.984   3.706  17.630 -0.7132  0.2783  0.2132
 2285SOL     OW18316   4.237   1.119   6.183 -0.4051 -0.2094 -0.0181
 2285SOL    HW118317   4.306   1.063   6.148  0.0441  1.2212 -1.4153
 2285SOL    HW218318   4.173   1.091   6.118 -0.7261  0.3371  0.0600
 2286SOL     OW18319   2.086   3.070   3.893  0.4644  0.4338 -0.0305
 2286SOL    HW118320   2.083   2.979   3.863 -1.0986  0.3279  0.4282
 2286SOL    HW218321   2.037   3.118   3.827  0.4059 -1.8054 -1.6115
 2287SOL     OW18322   0.874   1.737   0.948 -0.2185  0.0766 -0.6857
 2287SOL    HW118323   0.926   1.701   1.020  0.0193  1.2089 -0.2989
 2287SOL    HW218324   0.829   1.658   0.919  0.2606 -0.0823 -0.9908
 2288SOL     OW18325   2.636   2.180   8.006 -0.3920 -0.1792  0.3362
 2288SOL    HW118326   2.675   2.224   8.082 -0.0502  1.4159 -0.7609
 2288SOL    HW218327   2.622   2.088   8.026 -0.9241 -0.0134  0.7497
 2289SOL     OW18328   4.430   3.765   2.278  0.5777 -0.1839 -0.5747
 2289SOL    HW118329   4.448   3.859   2.266  0.4248 -0.1621 -0.6367
 2289SOL    HW218330   4.438   3.751   2.372  1.1014 -0.5260 -0.6748
 2290SOL     OW18331   2.841   1.584   6.521  0.0949  0.0862  0.0418
 2290SOL    HW118332   2.871   1.504   6.565  0.4840 -0.2547 -0.8533
 2290SOL    HW218333   2.871   1.639   6.593  0.8708 -0.6395  0.2763
 2291SOL     OW18334   3.481   1.482   9.792 -0.4074  0.0606 -1.0245
 2291SOL    HW118335   3.487   1.388   9.773  0.0494 -0.3328  1.0953
 2291SOL    HW218336   3.566   1.505   9.828 -0.5628  1.3966 -1.4959
 2292SOL     OW18337   2.539   1.943   4.709  0.3687  0.3637 -0.5595
 2292SOL    HW118338   2.576   2.028   4.683 -1.1869  0.7746 -1.3995
 2292SOL    HW218339   2.446   1.966   4.713  0.9953  2.9487 -0.4347
 2293SOL     OW18340   0.822   2.080  15.208  0.5614 -0.1484 -0.2924
 2293SOL    HW118341   0.888   2.012  15.219 -0.9469 -1.7120 -0.8385
 2293SOL    HW218342   0.877   2.158  15.220  1.5876 -0.8643 -0.3923
 2294SOL     OW18343   1.629   0.396   9.498 -0.3361  0.4844 -0.6788
 2294SOL    HW118344   1.534   0.406   9.508 -0.1873  0.4011  0.8946
 2294SOL    HW218345   1.632   0.300   9.492 -1.3149  0.3908  0.2256
 2295SOL     OW18346   1.288   0.341   5.010  0.2583  0.1705  0.6060
 2295SOL    HW118347   1.372   0.361   5.051  2.3208 -2.7264 -2.2405
 2295SOL    HW218348   1.245   0.425   5.021  1.1754  0.3573  2.8433
 2296SOL     OW18349   3.599   1.017   9.561  0.0385 -0.3621  0.1602
 2296SOL    HW118350   3.518   1.043   9.604  0.4906  1.0287  0.1742
 2296SOL    HW218351   3.662   1.082   9.592  1.4063 -1.5454 -0.1226
 2297SOL     OW18352   3.480   0.291   5.938 -0.0358  0.5858  0.2453
 2297SOL    HW118353   3.438   0.309   6.023 -1.4140 -3.5187  0.4834
 2297SOL    HW218354   3.408   0.244   5.894 -0.4899 -1.3259  2.9531
 2298SOL     OW18355   4.208   1.422  14.516 -0.0730 -0.0760 -0.5545
 2298SOL    HW118356   4.152   1.483  14.468  1.7091  3.5858  2.0266
 2298SOL    HW218357   4.146   1.380  14.576  0.6619  0.7729  0.8020
 2299SOL     OW18358   0.746   0.179   7.615 -0.2071 -0.0003 -0.0195
 2299SOL    HW118359   0.708   0.224   7.539 -1.3233 -0.0370  0.5232
 2299SOL    HW218360   0.691   0.208   7.687 -1.2530 -0.3804 -0.6605
 2300SOL     OW18361   0.982   2.944  10.706 -0.0152  0.1075 -0.3762
 2300SOL    HW118362   1.050   2.907  10.650 -0.3957 -0.8142 -0.2417
 2300SOL    HW218363   0.912   2.968  10.646  1.8361  0.7185 -2.2739
 2301SOL     OW18364   0.876   0.470   5.453  0.0613  0.2548  0.1255
 2301SOL    HW118365   0.906   0.493   5.541 -2.9208  0.2410  1.1429
 2301SOL    HW218366   0.806   0.533   5.436  0.5091  0.6061 -0.4445
 2302SOL     OW18367   2.678   2.469   1.866 -0.1132 -0.5201 -0.1650
 2302SOL    HW118368   2.694   2.562   1.848  1.7728 -1.4759 -3.5100
 2302SOL    HW218369   2.732   2.426   1.799  1.0341 -1.3186  1.2828
 2303SOL     OW18370   4.444   4.541   8.916 -0.2834 -0.0458 -0.0600
 2303SOL    HW118371   4.508   4.596   8.961 -0.1025 -1.1147  0.9921
 2303SOL    HW218372   4.489   4.518   8.835 -0.5725 -4.2513  0.9646
 2304SOL     OW18373   3.661   1.350   3.531 -0.7545  0.2859  0.1699
 2304SOL    HW118374   3.745   1.369   3.572 -1.0227  0.1800  0.7697
 2304SOL    HW218375   3.677   1.265   3.489 -1.2961  0.4699 -0.4181
 2305SOL     OW18376   4.515   4.292   4.603 -0.0849 -0.6057  0.3608
 2305SOL    HW118377   4.569   4.371   4.601  1.6795 -1.8097 -0.5939
 2305SOL    HW218378   4.455   4.319   4.533  0.3272  0.5805  0.4647
 2306SOL     OW18379   1.648   3.745   5.736  0.2566  0.4072 -0.6080
 2306SOL    HW118380   1.652   3.673   5.673  0.8001  0.5596 -0.7497
 2306SOL    HW218381   1.569   3.792   5.710 -1.3905 -2.8497 -1.4576
 2307SOL     OW18382   2.655   2.641  13.993  0.1312  0.0185  0.4772
 2307SOL    HW118383   2.725   2.580  14.016 -0.2607  0.2391  2.2827
 2307SOL    HW218384   2.602   2.640  14.073  1.6711 -0.1611  1.5015
 2308SOL     OW18385   1.483   2.115   2.138  0.0672 -0.3061 -0.4770
 2308SOL    HW118386   1.416   2.182   2.155  0.1516 -0.0814 -1.0155
 2308SOL    HW218387   1.446   2.091   2.053  0.7483 -1.1828 -0.5197
 2309SOL     OW18388   1.578   0.192   3.878 -0.1122 -0.4997 -0.2452
 2309SOL    HW118389   1.509   0.197   3.812 -0.9558 -1.4671  0.5504
 2309SOL    HW218390   1.532   0.244   3.945 -1.3817  0.9400 -2.2489
 2310SOL     OW18391   0.338   4.616   4.163 -0.2764 -0.4247  0.0968
 2310SOL    HW118392   0.389   4.668   4.225 -1.0827  1.4440 -0.7961
 2310SOL    HW218393   0.358   4.661   4.081 -0.7175  1.0657  0.8092
 2311SOL     OW18394   0.114   1.543   7.999  0.6231 -0.5195 -0.0919
 2311SOL    HW118395   0.030   1.509   7.967  1.6631  0.2298 -3.6085
 2311SOL    HW218396   0.155   1.474   8.051  0.9188 -0.1305  0.1937
 2312SOL     OW18397   4.648   1.501   8.812  0.1328 -0.0624  0.0671
 2312SOL    HW118398   4.621   1.533   8.898  0.0581  0.6479 -0.2190
 2312SOL    HW218399   4.598   1.564   8.760  0.4634  1.9038  2.1191
 2313SOL     OW18400   1.313   3.568   7.892 -0.2561 -0.6977  0.3510
 2313SOL    HW118401   1.263   3.635   7.939 -1.3801 -0.7528 -0.7616
 2313SOL    HW218402   1.347   3.529   7.973 -1.2485 -1.2691  0.4969
 2314SOL     OW18403   0.550   1.176   0.991  0.0602  0.1739  0.2193
 2314SOL    HW118404   0.549   1.167   0.896  2.8234  0.6992  0.1478
 2314SOL    HW218405   0.559   1.272   0.992 -0.2931  0.1915  1.3127
 2315SOL     OW18406   3.403   3.536   8.251  0.4204 -0.2096  0.3835
 2315SOL    HW118407   3.340   3.598   8.214 -1.0457 -2.3924 -0.7899
 2315SOL    HW218408   3.359   3.529   8.336 -1.9692 -0.0938 -0.8454
 2316SOL     OW18409   1.028   4.246   0.388  0.6673 -0.0296 -0.4413
 2316SOL    HW118410   1.015   4.229   0.295  0.4869  0.4306 -0.5034
 2316SOL    HW218411   1.026   4.158   0.423  0.6269  1.0249  2.1965
 2317SOL     OW18412   1.271   1.481   5.318  0.9413  0.8624 -0.2800
 2317SOL    HW118413   1.178   1.496   5.298  0.5133 -0.7226  0.5333
 2317SOL    HW218414   1.270   1.392   5.281  0.8312  0.9433 -0.4744
 2318SOL     OW18415   2.581   1.579   6.769 -0.1829  0.1281  0.0895
 2318SOL    HW118416   2.668   1.575   6.809 -0.4050 -0.3490  0.5272
 2318SOL    HW218417   2.554   1.662   6.809 -0.3752 -0.1765  0.5995
 2319SOL     OW18418   2.156   1.183   1.387  0.0353  0.7552  0.2017
 2319SOL    HW118419   2.152   1.087   1.380  2.2754  0.6978 -0.2952
 2319SOL    HW218420   2.139   1.202   1.295  3.6456  0.2388 -0.5792
 2320SOL     OW18421   2.121   3.314   1.438 -0.1683  0.0023  0.7698
 2320SOL    HW118422   2.162   3.253   1.500  1.7155 -0.4469 -0.9045
 2320SOL    HW218423   2.028   3.304   1.457 -0.0809 -0.5641  0.8996
 2321SOL     OW18424   3.410   1.019   0.970  0.4621 -0.0718 -0.0444
 2321SOL    HW118425   3.394   1.019   0.876 -0.5140  0.1015  0.1249
 2321SOL    HW218426   3.392   0.931   1.002  1.5240 -0.5120 -0.6664
 2322SOL     OW18427   1.370   1.441   7.160  0.8045 -0.1923  0.5100
 2322SOL    HW118428   1.441   1.462   7.222 -0.6700  0.5548  1.9556
 2322SOL    HW218429   1.324   1.374   7.210  0.0321 -0.2730 -0.3041
 2323SOL     OW18430   0.305   1.519   1.598  0.4062  0.1769  0.1016
 2323SOL    HW118431   0.289   1.521   1.504  0.4070 -1.2251  0.0700
 2323SOL    HW218432   0.269   1.604   1.625  1.0036  1.4136 -3.0774
 2324SOL     OW18433   2.748   1.432   3.364  0.9292  0.0885  0.0738
 2324SOL    HW118434   2.674   1.385   3.325 -0.0808  0.6532  1.3060
 2324SOL    HW218435   2.794   1.466   3.287 -2.2086  1.5027 -1.1875
 2325SOL     OW18436   1.714   2.952  13.038  0.1191  0.0622 -0.2848
 2325SOL    HW118437   1.784   2.951  13.104  0.5329  1.3366 -0.7096
 2325SOL    HW218438   1.715   2.857  13.024 -1.9762  0.0947 -0.6165
 2326SOL     OW18439   1.306   0.540  16.309  0.0910 -0.5038 -0.1092
 2326SOL    HW118440   1.308   0.460  16.256  1.0659  0.2962 -1.3041
 2326SOL    HW218441   1.399   0.561  16.319 -0.6169  1.6987  1.8044
 2327SOL     OW18442   0.729   1.189  14.288 -0.2013  0.1207 -0.0239
 2327SOL    HW118443   0.651   1.196  14.342  0.8440 -0.7714  1.6151
 2327SOL    HW218444   0.712   1.107  14.242 -1.7094  0.5830 -0.2755
 2328SOL     OW18445   1.396   4.067   4.583  0.1460  0.1759 -0.1848
 2328SOL    HW118446   1.347   4.122   4.522  0.2663 -1.7306 -2.0101
 2328SOL    HW218447   1.327   4.031   4.638  2.7300 -3.4409  0.6985
 2329SOL     OW18448   3.096   1.280   2.302  0.3567 -0.3239  0.0936
 2329SOL    HW118449   3.137   1.197   2.275 -1.8213 -0.8427 -1.5325
 2329SOL    HW218450   3.062   1.246   2.385  0.6729 -1.9069 -0.4259
 2330SOL     OW18451   2.480   1.553   5.887 -0.4773 -0.6824  0.1411
 2330SOL    HW118452   2.476   1.605   5.806  0.3117 -1.6787 -0.5303
 2330SOL    HW218453   2.447   1.613   5.955 -1.7005 -0.0298 -1.0106
 2331SOL     OW18454   1.316   3.661  13.845  0.3867 -0.3508 -0.1982
 2331SOL    HW118455   1.280   3.655  13.756 -1.9503  1.9490  0.5911
 2331SOL    HW218456   1.364   3.736  13.808  2.2936 -1.6592 -0.3541
 2332SOL     OW18457   1.416   2.694   5.897 -0.7261  0.2846 -0.6810
 2332SOL    HW118458   1.376   2.664   5.815  1.5002 -3.4431 -0.4160
 2332SOL    HW218459   1.510   2.680   5.884 -0.4684  0.4205  1.1115
 2333SOL     OW18460   1.870   1.818   3.620 -0.2056  0.4655 -0.0233
 2333SOL    HW118461   1.919   1.752   3.570 -0.0466  0.6721 -0.1453
 2333SOL    HW218462   1.848   1.768   3.698  0.8478 -1.4015 -0.9223
 2334SOL     OW18463   1.029   4.001   0.182 -0.0063 -0.3003 -0.4182
 2334SOL    HW118464   1.009   4.092   0.158 -0.2477 -0.9513 -2.6301
 2334SOL    HW218465   1.078   3.975   0.105  0.6615 -0.5031  0.0709
 2335SOL     OW18466   1.739   3.135   6.977 -0.6533  0.2982  0.3276
 2335SOL    HW118467   1.648   3.165   6.988 -0.4902  0.7889  0.3169
 2335SOL    HW218468   1.745   3.050   7.022 -0.0451  0.3861  0.4080
 2336SOL     OW18469   3.811   1.224   2.617  0.2189  0.3425 -0.0020
 2336SOL    HW118470   3.789   1.315   2.600  0.2322  0.8502  2.6145
 2336SOL    HW218471   3.862   1.213   2.537  1.4342 -0.3676  0.8715
 2337SOL     OW18472   4.083   1.838   3.427  0.3804  0.8198  0.0790
 2337SOL    HW118473   4.045   1.817   3.342 -0.5399 -1.6574  1.0986
 2337SOL    HW218474   4.019   1.893   3.472 -0.1666 -0.1249  0.4624
 2338SOL     OW18475   3.348   1.894   5.515 -0.2047 -0.1634  0.4425
 2338SOL    HW118476   3.397   1.974   5.492 -1.6135  1.3358  2.6145
 2338SOL    HW218477   3.309   1.929   5.595  0.9840  2.0571  0.0552
 2339SOL     OW18478   3.519   2.181   9.484  0.3265 -0.0413 -0.2590
 2339SOL    HW118479   3.512   2.262   9.534 -1.3105 -1.5652  1.9695
 2339SOL    HW218480   3.449   2.182   9.419 -0.8730  3.2358  1.0943
 2340SOL     OW18481   4.221   2.912   1.899 -0.2761 -0.5386 -0.8302
 2340SOL    HW118482   4.286   2.901   1.830  2.3831  1.1682  1.4121
 2340SOL    HW218483   4.154   2.846   1.885 -0.7977 -0.4571  1.1525
 2341SOL     OW18484   1.176   4.398  16.098 -0.6679  0.1817 -0.2024
 2341SOL    HW118485   1.184   4.441  16.013  0.6749  0.5370  0.0922
 2341SOL    HW218486   1.249   4.336  16.097 -1.6612 -0.9665 -0.6598
 2342SOL     OW18487   0.403   0.330   2.199 -0.0067  0.3286 -0.6577
 2342SOL    HW118488   0.379   0.347   2.108 -1.8658 -3.3037 -0.8240
 2342SOL    HW218489   0.473   0.393   2.217  0.1176  0.0121 -0.0206
 2343SOL     OW18490   2.199   3.102  11.198 -0.0371 -0.2250  0.8720
 2343SOL    HW118491   2.103   3.099  11.203  0.0731 -0.7701  2.9754
 2343SOL    HW218492   2.227   3.147  11.278  2.3362  1.9075 -1.1735
 2344SOL     OW18493   0.679   2.442   2.396 -0.2783 -0.0820 -0.0674
 2344SOL    HW118494   0.631   2.444   2.313 -1.7974  0.7426  0.8269
 2344SOL    HW218495   0.636   2.373   2.446  0.3067  0.7070  1.5032
 2345SOL     OW18496   3.336   2.712   5.874 -0.4610  0.0108  0.7372
 2345SOL    HW118497   3.294   2.788   5.913 -0.9940 -0.0024  0.1947
 2345SOL    HW218498   3.419   2.747   5.844 -0.3978 -0.2248  0.6391
 2346SOL     OW18499   3.204   2.473   3.717  0.2966  0.3014  0.5289
 2346SOL    HW118500   3.113   2.467   3.745  1.1111 -3.0873  2.3997
 2346SOL    HW218501   3.227   2.561   3.749  1.3943  0.4499 -0.6313
 2347SOL     OW18502   3.777   1.027   6.055  0.1278 -0.0942  0.3969
 2347SOL    HW118503   3.772   0.933   6.072  1.6443 -0.0339  1.1032
 2347SOL    HW218504   3.819   1.059   6.134  0.7691 -1.0582  0.4461
 2348SOL     OW18505   3.339   4.388  12.294 -0.0278  0.4355 -0.2410
 2348SOL    HW118506   3.332   4.420  12.384  0.3525 -0.8940  0.2555
 2348SOL    HW218507   3.273   4.444  12.253 -1.9134 -1.5217  0.1249
 2349SOL     OW18508   1.878   3.321   2.068 -0.2603 -0.3030  0.0172
 2349SOL    HW118509   1.954   3.376   2.088 -1.5285  2.2593 -2.1797
 2349SOL    HW218510   1.859   3.272   2.149  1.8367 -1.5024 -0.2212
 2350SOL     OW18511   2.364   0.180   5.958 -0.1701  0.6233  0.4266
 2350SOL    HW118512   2.358   0.189   6.053  0.0313 -0.8835  0.5846
 2350SOL    HW218513   2.281   0.223   5.937 -0.3212 -0.2188 -0.7373
 2351SOL     OW18514   0.606   1.768   2.636  0.0751  0.6968 -0.4486
 2351SOL    HW118515   0.632   1.841   2.693  0.6348 -0.2723  0.5434
 2351SOL    HW218516   0.683   1.711   2.632  0.9738  1.9451 -0.9569
 2352SOL     OW18517   4.597   4.125   5.768  0.6761 -0.1953  0.3533
 2352SOL    HW118518   4.530   4.185   5.734  0.5451 -0.5918 -0.0937
 2352SOL    HW218519   4.574   4.122   5.860  0.0770  0.3285  0.2220
 2353SOL     OW18520   2.550   2.533   6.973  0.1368 -0.1222  0.5826
 2353SOL    HW118521   2.534   2.439   6.984 -1.7747  0.1211 -0.1341
 2353SOL    HW218522   2.645   2.531   6.985  0.2390  3.6651  0.4423
 2354SOL     OW18523   2.270   3.696   6.212 -0.1167  0.6871 -0.3339
 2354SOL    HW118524   2.268   3.612   6.258  1.4647  0.4146 -0.7653
 2354SOL    HW218525   2.197   3.683   6.151 -0.2287  1.2530 -0.3272
 2355SOL     OW18526   3.679   4.241   6.137 -0.1331 -0.0272 -0.7000
 2355SOL    HW118527   3.687   4.193   6.055 -0.7993 -0.1172 -0.7104
 2355SOL    HW218528   3.721   4.324   6.114 -1.8035  0.8937 -0.4354
 2356SOL     OW18529   2.540   3.312   0.360  0.2878  0.0362 -0.2844
 2356SOL    HW118530   2.601   3.240   0.345  0.1153  0.0573 -1.0880
 2356SOL    HW218531   2.597   3.388   0.356  2.5276 -1.6308  0.0189
 2357SOL     OW18532   3.766   2.258   3.899 -0.7303  0.4563  0.0206
 2357SOL    HW118533   3.760   2.344   3.940 -0.5722  0.0176  0.9688
 2357SOL    HW218534   3.829   2.217   3.958  0.4366  2.0806 -0.1245
 2358SOL     OW18535   0.099   0.320   7.667  0.2815 -0.0533 -0.0260
 2358SOL    HW118536   0.083   0.237   7.711  3.5747 -0.3797  0.5807
 2358SOL    HW218537   0.101   0.286   7.578  0.6872 -2.7577  1.0302
 2359SOL     OW18538   4.660   0.856   3.787  0.5790 -0.4087 -0.3071
 2359SOL    HW118539   4.581   0.832   3.834 -1.1888  1.2980 -2.3980
 2359SOL    HW218540   4.712   0.776   3.788  0.5935 -0.4115 -0.9788
 2360SOL     OW18541   1.391   2.380  16.749 -0.0535 -0.9301  0.4796
 2360SOL    HW118542   1.325   2.396  16.682  1.1190  0.6695 -0.3129
 2360SOL    HW218543   1.431   2.467  16.754  1.1322 -1.5311  1.4164
 2361SOL     OW18544   1.889   0.847   6.309  0.0204  0.0214 -0.2325
 2361SOL    HW118545   1.931   0.823   6.392 -1.7854 -0.5394  0.5163
 2361SOL    HW218546   1.804   0.884   6.332 -0.5736 -0.6928 -1.2987
 2362SOL     OW18547   0.212   0.520   2.562  0.0742  0.2496  0.3381
 2362SOL    HW118548   0.289   0.577   2.565  0.9339 -0.8417 -0.5762
 2362SOL    HW218549   0.186   0.538   2.472  1.0571 -0.9397 -0.1931
 2363SOL     OW18550   1.043   4.551   4.530  0.7209  0.6329 -0.4013
 2363SOL    HW118551   1.054   4.456   4.529 -2.1224  0.3034  0.4548
 2363SOL    HW218552   1.134   4.567   4.505  0.9448  0.7294  0.4711
 2364SOL     OW18553   0.161   0.710  15.438 -0.3802  0.0785 -0.4539
 2364SOL    HW118554   0.253   0.737  15.444 -0.1668 -0.9117  0.7244
 2364SOL    HW218555   0.170   0.615  15.434 -0.9480  0.0336 -0.6413
 2365SOL     OW18556   3.931   1.818   2.246 -0.4485  0.1766  0.2461
 2365SOL    HW118557   4.014   1.781   2.217 -0.6423  1.7402 -2.3474
 2365SOL    HW218558   3.951   1.908   2.220  0.3498 -0.0847 -0.0290
 2366SOL     OW18559   1.366   3.354   3.931 -0.1574  0.9687 -0.6847
 2366SOL    HW118560   1.333   3.343   4.020 -0.8880  0.6742 -0.9884
 2366SOL    HW218561   1.437   3.291   3.932 -1.4698 -0.5194 -1.1195
 2367SOL     OW18562   0.813   3.781   2.515 -0.2536 -0.1423 -0.3911
 2367SOL    HW118563   0.821   3.873   2.540 -0.7593  0.3880 -2.1646
 2367SOL    HW218564   0.827   3.789   2.420  0.2705  2.5581 -0.0721
 2368SOL     OW18565   3.745   3.447  15.764 -0.3337  0.1987 -0.3499
 2368SOL    HW118566   3.809   3.466  15.832 -1.4117  0.2527  0.6522
 2368SOL    HW218567   3.702   3.368  15.795 -1.2678 -0.0753 -2.3538
 2369SOL     OW18568   3.150   1.359   8.832  0.2697  0.1724  0.1311
 2369SOL    HW118569   3.122   1.268   8.841  0.5533  0.2525  1.7655
 2369SOL    HW218570   3.244   1.340   8.836 -0.2187 -1.8270  2.3785
 2370SOL     OW18571   2.745   3.854   5.991 -0.1667 -0.3083  0.3106
 2370SOL    HW118572   2.758   3.773   6.040 -2.2919 -0.9705 -0.2188
 2370SOL    HW218573   2.651   3.868   5.999  0.0362  0.9558  0.6329
 2371SOL     OW18574   3.001   1.695  10.854  0.0559  0.0147  0.1071
 2371SOL    HW118575   3.025   1.708  10.946 -3.1148 -1.3050  1.1058
 2371SOL    HW218576   2.978   1.784  10.830  0.1823 -0.0750 -0.3501
 2372SOL     OW18577   1.228   0.808  16.560  0.0856 -0.5057 -0.6823
 2372SOL    HW118578   1.308   0.756  16.569 -0.5052 -1.5351 -1.2970
 2372SOL    HW218579   1.247   0.878  16.498 -1.7496  2.2115  1.8790
 2373SOL     OW18580   3.029   1.320   5.212  0.8669  0.0084 -0.2533
 2373SOL    HW118581   3.057   1.232   5.190 -0.4036 -0.9813  2.1529
 2373SOL    HW218582   2.945   1.300   5.254  0.6263 -0.9947 -1.2216
 2374SOL     OW18583   2.911   2.646   0.809 -0.2615  0.1010  0.2316
 2374SOL    HW118584   2.982   2.592   0.772 -0.7088 -0.4788  0.2217
 2374SOL    HW218585   2.942   2.646   0.900  1.0051  2.9611 -0.2108
 2375SOL     OW18586   4.266   0.110   2.117 -0.0772  0.1348  0.1089
 2375SOL    HW118587   4.190   0.110   2.176 -0.8082  0.9423 -0.8455
 2375SOL    HW218588   4.338   0.120   2.180  0.9521  0.4394 -1.1107
 2376SOL     OW18589   1.470   0.823  12.161  0.0921  0.2100  0.9324
 2376SOL    HW118590   1.485   0.900  12.107  1.0548 -1.8877 -1.7715
 2376SOL    HW218591   1.513   0.854  12.241  0.5341  1.8616  0.0571
 2377SOL     OW18592   4.360   0.939   5.598 -0.6950  0.0020 -0.1431
 2377SOL    HW118593   4.372   1.014   5.656 -0.6946 -0.5380  0.5629
 2377SOL    HW218594   4.265   0.931   5.594 -0.8274  1.1399  0.9681
 2378SOL     OW18595   1.099   4.171   4.745  0.0240  0.3906 -0.4374
 2378SOL    HW118596   1.023   4.126   4.782  1.5794 -0.8115  1.2885
 2378SOL    HW218597   1.167   4.109   4.770 -0.0323  0.0951 -1.0281
 2379SOL     OW18598   2.656   1.911   9.812  0.4251 -0.1130 -0.0006
 2379SOL    HW118599   2.709   1.991   9.817  0.2863 -0.0340  0.1932
 2379SOL    HW218600   2.668   1.881   9.721 -0.9829  0.1894 -0.2923
 2380SOL     OW18601   3.308   4.040   0.542 -0.2549  0.1719  0.1526
 2380SOL    HW118602   3.381   4.095   0.569 -0.2024  0.8238 -1.3523
 2380SOL    HW218603   3.240   4.108   0.544  0.6471  1.0745 -0.4975
 2381SOL     OW18604   0.021   0.722   3.029  0.8191  0.0861 -0.1146
 2381SOL    HW118605   4.674   0.755   2.972  1.3262  0.4915 -0.4992
 2381SOL    HW218606   0.082   0.698   2.959  2.1733  0.4005  0.9666
 2382SOL     OW18607   1.720   3.288   9.828  0.8720  0.1905  0.1565
 2382SOL    HW118608   1.753   3.209   9.784 -1.2162 -0.8266  0.4638
 2382SOL    HW218609   1.650   3.249   9.879 -0.2911  0.8878 -0.9099
 2383SOL     OW18610   3.067   1.990   7.961 -0.0818  0.2469 -0.9303
 2383SOL    HW118611   3.044   1.900   7.983 -2.1596  0.4547 -2.2602
 2383SOL    HW218612   3.162   1.985   7.954  0.0008  1.3574 -0.6999
 2384SOL     OW18613   4.175   3.738   3.319  0.1356  0.1636  0.2447
 2384SOL    HW118614   4.178   3.722   3.225 -2.5856 -2.7631  0.6445
 2384SOL    HW218615   4.121   3.669   3.359  1.0150  0.2446  1.5783
 2385SOL     OW18616   3.108   2.721  10.235  0.2779  0.2949  0.0818
 2385SOL    HW118617   3.107   2.707  10.330  0.0945 -0.2928 -0.0090
 2385SOL    HW218618   3.183   2.781  10.230  1.1537 -0.9015 -1.2405
 2386SOL     OW18619   1.220   3.403  11.003  0.0600  1.1353 -0.1652
 2386SOL    HW118620   1.165   3.385  10.927  2.2867  2.2920 -2.0698
 2386SOL    HW218621   1.278   3.327  11.002 -0.9756  0.3511 -0.3780
 2387SOL     OW18622   0.115   4.384  13.082 -0.0066  0.2762 -0.2475
 2387SOL    HW118623   0.057   4.309  13.096 -0.2304  0.4968  0.0060
 2387SOL    HW218624   0.196   4.338  13.103  0.3155  0.5714 -0.8682
 2388SOL     OW18625   1.934   2.768   3.148 -0.0819  0.6149 -0.3398
 2388SOL    HW118626   1.973   2.852   3.124 -0.9093  1.4819  1.3394
 2388SOL    HW218627   1.893   2.794   3.230  0.1797 -2.9642  0.9137
 2389SOL     OW18628   3.684   0.654   8.067  0.4754 -0.2648 -0.2947
 2389SOL    HW118629   3.752   0.713   8.100 -0.5094  0.6070  0.1866
 2389SOL    HW218630   3.628   0.652   8.144 -0.2034  0.2310 -0.7753
 2390SOL     OW18631   2.874   1.963  15.450 -0.3618 -0.7512 -0.1061
 2390SOL    HW118632   2.795   1.940  15.500 -1.7433  0.9528 -1.4717
 2390SOL    HW218633   2.877   1.890  15.389 -0.2694  0.6740 -1.8044
 2391SOL     OW18634   0.700   2.226   7.766 -0.4034 -0.5132  0.0011
 2391SOL    HW118635   0.633   2.193   7.706  0.1867 -2.2113  0.2903
 2391SOL    HW218636   0.680   2.316   7.739  2.1038  0.4378  1.3234
 2392SOL     OW18637   3.355   1.436   6.811  0.2551  0.3318  0.5466
 2392SOL    HW118638   3.310   1.508   6.856 -0.1050  0.4463  0.0064
 2392SOL    HW218639   3.395   1.474   6.733  0.3837 -1.9791 -0.4804
 2393SOL     OW18640   1.384   2.318   4.700 -0.4569  0.2025  0.1048
 2393SOL    HW118641   1.367   2.275   4.616 -1.0735 -0.3036  0.4856
 2393SOL    HW218642   1.405   2.248   4.761 -1.2976  0.3103  0.5245
 2394SOL     OW18643   2.720   0.968   6.582  0.5538 -0.1676  0.7761
 2394SOL    HW118644   2.786   1.031   6.609 -0.9147  1.2250  1.0962
 2394SOL    HW218645   2.773   0.888   6.585  1.0115  0.2231  3.0565
 2395SOL     OW18646   1.809   2.284   4.650 -0.2009 -0.1602  0.4810
 2395SOL    HW118647   1.777   2.331   4.727 -1.4453 -1.4945  0.7744
 2395SOL    HW218648   1.902   2.307   4.642  0.3268 -2.2701  0.5807
 2396SOL     OW18649   1.303   0.836   9.353  0.3468 -0.4185 -0.5623
 2396SOL    HW118650   1.305   0.781   9.274  0.4425 -1.3635  0.0985
 2396SOL    HW218651   1.342   0.911   9.309  3.1616 -0.9667  0.9644
 2397SOL     OW18652   2.747   3.784   5.531 -0.1017  0.6093  0.0420
 2397SOL    HW118653   2.677   3.846   5.549 -1.9379 -2.2890  2.8144
 2397SOL    HW218654   2.724   3.769   5.439 -0.6296  0.5928  0.1773
 2398SOL     OW18655   3.167   1.915   0.962  0.1736  0.0084  0.5208
 2398SOL    HW118656   3.211   1.974   0.901 -0.1993 -0.7226 -0.4666
 2398SOL    HW218657   3.235   1.869   1.012  1.0722 -0.5678 -1.2277
 2399SOL     OW18658   3.344   4.415   7.587  0.2548 -0.1912 -0.1895
 2399SOL    HW118659   3.337   4.335   7.639  0.6901  1.0713  1.8054
 2399SOL    HW218660   3.376   4.474   7.655 -0.8719 -1.6218  1.5696
 2400SOL     OW18661   1.555   0.984   3.230  0.2375  0.4841  0.2159
 2400SOL    HW118662   1.645   1.002   3.260  0.6614  0.0047 -0.7856
 2400SOL    HW218663   1.511   0.948   3.307  0.1680 -0.9688 -0.5252
 2401SOL     OW18664   2.799   4.526   6.947 -0.3427 -0.2149 -0.0299
 2401SOL    HW118665   2.832   4.453   6.895  1.3827  0.3719  0.2475
 2401SOL    HW218666   2.867   4.594   6.946 -1.1592  0.6170  2.7379
 2402SOL     OW18667   4.131   2.850   2.451  0.2936  0.3985 -0.2150
 2402SOL    HW118668   4.084   2.793   2.390  1.4498 -0.4076 -0.3388
 2402SOL    HW218669   4.061   2.916   2.459  0.3021  0.4794 -0.8077
 2403SOL     OW18670   4.038   4.380   4.297 -0.0944 -0.2169 -0.0747
 2403SOL    HW118671   3.967   4.377   4.361 -0.7519  0.5859 -0.7741
 2403SOL    HW218672   4.023   4.466   4.258  0.3749 -1.1380 -2.2674
 2404SOL     OW18673   1.625   3.437   5.677  0.0223  0.5029 -0.5319
 2404SOL    HW118674   1.688   3.373   5.710 -0.2116  1.0368  0.9466
 2404SOL    HW218675   1.543   3.407   5.717  1.2385 -2.5496 -0.3245
 2405SOL     OW18676   1.645   0.622   3.689 -0.5572  0.0141 -0.0809
 2405SOL    HW118677   1.582   0.605   3.759  0.4609  3.6854  1.7188
 2405SOL    HW218678   1.601   0.684   3.631 -0.8379  0.2573  0.3963
 2406SOL     OW18679   1.984   3.578   2.584 -0.2332 -0.0196  0.1607
 2406SOL    HW118680   1.996   3.533   2.668 -0.5419  2.2679  1.4299
 2406SOL    HW218681   1.893   3.605   2.597  0.2943  2.4669 -1.4388
 2407SOL     OW18682   4.059   2.408   6.305  0.2244 -0.5398 -0.2383
 2407SOL    HW118683   3.969   2.440   6.304  0.6756  0.6990 -0.9559
 2407SOL    HW218684   4.078   2.414   6.399  0.6114 -3.4085 -0.1341
 2408SOL     OW18685   1.237   2.229   6.617  0.6129  0.5922 -0.1104
 2408SOL    HW118686   1.257   2.157   6.677 -2.6886  0.4489  0.7891
 2408SOL    HW218687   1.325   2.268   6.611  1.0293 -0.1731  0.9952
 2409SOL     OW18688   3.472   1.282   9.513 -0.0779  0.1355  0.0938
 2409SOL    HW118689   3.406   1.227   9.555  0.1371  0.5387  0.9542
 2409SOL    HW218690   3.552   1.265   9.563  0.2678 -0.4161 -0.6329
 2410SOL     OW18691   1.542   4.423   4.465 -0.0401  0.1825  0.8555
 2410SOL    HW118692   1.609   4.381   4.410 -0.1569  0.3614  0.5735
 2410SOL    HW218693   1.600   4.487   4.506  0.6769 -0.6540  1.1288
 2411SOL     OW18694   3.698   1.900   7.968 -0.5234  0.1140 -0.3300
 2411SOL    HW118695   3.691   1.968   7.901 -2.5962 -0.2047 -0.4425
 2411SOL    HW218696   3.634   1.931   8.032 -0.3509 -0.5495  0.1630
 2412SOL     OW18697   1.755   4.066   6.252 -0.2954 -0.2903 -0.0551
 2412SOL    HW118698   1.837   4.091   6.210 -0.4072 -1.4474 -0.9506
 2412SOL    HW218699   1.775   4.053   6.344 -0.1572 -1.3977 -0.2436
 2413SOL     OW18700   4.148   2.472   2.339 -0.7801  0.3832  0.1271
 2413SOL    HW118701   4.106   2.544   2.292 -0.4765 -0.2795 -1.1628
 2413SOL    HW218702   4.133   2.504   2.427 -1.1853 -3.0479  1.2949
 2414SOL     OW18703   0.261   3.215   6.400 -0.1538 -0.5087  0.1656
 2414SOL    HW118704   0.178   3.197   6.355 -0.4038  3.2918 -0.8920
 2414SOL    HW218705   0.241   3.252   6.486 -0.4002  0.2460 -0.2153
 2415SOL     OW18706   3.815   1.065  12.284  0.0006 -0.4474 -0.9789
 2415SOL    HW118707   3.874   0.998  12.318 -1.7693 -0.8095  1.4153
 2415SOL    HW218708   3.870   1.093  12.211 -0.7412 -0.2229 -1.4516
 2416SOL     OW18709   4.207   4.155   0.295 -0.0474  0.0128  0.1668
 2416SOL    HW118710   4.166   4.187   0.375 -1.7319 -0.2271 -0.5973
 2416SOL    HW218711   4.291   4.201   0.300 -1.1280  2.1536 -1.3743
 2417SOL     OW18712   2.341   2.696   6.727  0.7300 -0.6391  0.3689
 2417SOL    HW118713   2.352   2.670   6.819  1.4857 -1.1749  0.1225
 2417SOL    HW218714   2.407   2.763   6.709 -0.1290  0.1461  0.0974
 2418SOL     OW18715   2.201   1.047   8.314 -0.0454 -0.2556 -0.1566
 2418SOL    HW118716   2.132   1.045   8.247  0.6632  1.9442 -0.9623
 2418SOL    HW218717   2.162   1.115   8.370 -1.6478 -1.1982 -0.1311
 2419SOL     OW18718   0.042   3.689  10.918  0.4954  0.1019 -0.0781
 2419SOL    HW118719   0.062   3.605  10.960 -0.2819 -0.8183 -1.5389
 2419SOL    HW218720   0.024   3.741  10.997 -0.9266  0.9000 -0.9270
 2420SOL     OW18721   3.940   4.072   4.332  0.4585  0.1729  0.7860
 2420SOL    HW118722   3.885   3.998   4.308  0.4194 -0.1547  1.8530
 2420SOL    HW218723   3.874   4.141   4.329 -0.0018 -0.3993 -1.8947
 2421SOL     OW18724   1.099   3.866   1.004 -0.3693  0.2622  0.3872
 2421SOL    HW118725   1.082   3.956   1.034 -0.1328 -0.3802  2.4856
 2421SOL    HW218726   1.158   3.840   1.075  0.7482 -0.6082 -0.8653
 2422SOL     OW18727   4.356   1.179   4.517 -0.5194 -0.0888 -0.2717
 2422SOL    HW118728   4.319   1.202   4.432  0.5506 -0.1630 -0.7519
 2422SOL    HW218729   4.446   1.208   4.506  0.1998 -1.7972  0.9427
 2423SOL     OW18730   0.078   1.754   6.224  0.1006  0.8125  0.2305
 2423SOL    HW118731   0.085   1.847   6.204 -0.6298  0.9279  0.5580
 2423SOL    HW218732   0.039   1.769   6.309 -2.1555  1.3023 -0.9108
 2424SOL     OW18733   0.712   3.076   6.563 -0.2568 -0.2430 -0.2768
 2424SOL    HW118734   0.620   3.091   6.538  0.8198  2.3535 -2.6055
 2424SOL    HW218735   0.717   2.983   6.543 -0.5542 -0.4259  0.4699
 2425SOL     OW18736   0.456   1.625   2.992  0.3572 -0.0822  0.6757
 2425SOL    HW118737   0.393   1.657   2.927  0.3458 -0.8733  0.2959
 2425SOL    HW218738   0.479   1.709   3.032  0.7494 -0.9132  2.1951
 2426SOL     OW18739   1.188   4.432   9.243  0.0341 -0.3422 -0.1881
 2426SOL    HW118740   1.146   4.491   9.180 -3.2362 -1.1103  1.2946
 2426SOL    HW218741   1.130   4.356   9.234  0.3410 -0.5730 -0.2310
 2427SOL     OW18742   0.059   3.845   0.378 -0.0309 -0.2263  1.0216
 2427SOL    HW118743   0.005   3.843   0.299 -0.9645 -0.8159  1.6686
 2427SOL    HW218744   0.035   3.760   0.415 -0.9974  0.5435  2.1715
 2428SOL     OW18745   2.166   0.711  11.326 -0.1357 -0.5413  0.0489
 2428SOL    HW118746   2.227   0.738  11.394  0.3242 -0.1697 -0.5161
 2428SOL    HW218747   2.091   0.707  11.387 -0.3931  0.6409 -0.1793
 2429SOL     OW18748   3.770   1.823   5.573 -0.5473  0.0843  0.0118
 2429SOL    HW118749   3.809   1.872   5.645 -0.5668  0.9403 -0.5609
 2429SOL    HW218750   3.843   1.776   5.534  0.8770  0.3854  2.2793
 2430SOL     OW18751   2.288   1.209  16.850 -0.5490  0.3662 -0.2526
 2430SOL    HW118752   2.266   1.273  16.783  2.9075  1.5144 -0.3150
 2430SOL    HW218753   2.360   1.259  16.889 -1.4289 -0.5463  2.5936
 2431SOL     OW18754   1.423   1.818   5.269 -0.3672 -0.1239  0.3099
 2431SOL    HW118755   1.365   1.770   5.210 -0.2947  0.0024  0.1383
 2431SOL    HW218756   1.506   1.772   5.262 -0.3295  0.0510 -0.3976
 2432SOL     OW18757   0.033   2.932  14.261  0.1810  0.2276  0.4630
 2432SOL    HW118758   0.022   3.017  14.305 -0.9957 -0.2766  1.1466
 2432SOL    HW218759   0.109   2.951  14.206 -0.6170  2.3110  0.0612
 2433SOL     OW18760   3.859   3.108   2.733 -0.4452  0.2552  0.5190
 2433SOL    HW118761   3.802   3.031   2.737 -3.2619  2.3193  0.1794
 2433SOL    HW218762   3.804   3.164   2.678 -0.6143 -0.2520  0.1613
 2434SOL     OW18763   4.405   2.567   6.506 -0.2679 -0.1820 -0.6211
 2434SOL    HW118764   4.493   2.567   6.470  0.8242  0.8647  2.0567
 2434SOL    HW218765   4.422   2.582   6.599 -1.3384  0.1654 -0.4826
 2435SOL     OW18766   3.395   2.475   4.856  0.1360  0.0613 -0.6659
 2435SOL    HW118767   3.472   2.522   4.826 -1.2323  3.2614  0.7894
 2435SOL    HW218768   3.335   2.490   4.783  0.6481 -0.9725 -1.2974
 2436SOL     OW18769   3.702   2.993   4.793  0.0452 -0.4362  0.0025
 2436SOL    HW118770   3.649   3.000   4.713  2.0934 -0.2703 -1.3270
 2436SOL    HW218771   3.655   3.064   4.837 -0.9694  0.0799 -1.9110
 2437SOL     OW18772   3.556   4.117   7.575 -0.4301  0.0831 -0.3262
 2437SOL    HW118773   3.605   4.168   7.511  1.4295  0.1908  1.1678
 2437SOL    HW218774   3.615   4.043   7.591 -0.6376  0.5349  2.5623
 2438SOL     OW18775   3.962   3.089   4.005  0.1207 -0.5495 -0.3681
 2438SOL    HW118776   4.052   3.102   4.037 -1.1400  2.0840  2.1040
 2438SOL    HW218777   3.928   3.174   4.032  0.6430 -0.3289 -0.4032
 2439SOL     OW18778   3.962   3.065   6.717  0.4960  0.5772 -0.0102
 2439SOL    HW118779   3.948   2.971   6.729  1.2781  0.7276  2.0958
 2439SOL    HW218780   3.874   3.095   6.740  0.3341  0.2089 -0.1572
 2440SOL     OW18781   3.325   0.226   1.178  0.1227 -0.3986 -0.0611
 2440SOL    HW118782   3.254   0.288   1.161  0.3271  0.5485  2.5438
 2440SOL    HW218783   3.399   0.287   1.178 -0.0640 -0.1769 -0.5281
 2441SOL     OW18784   4.636   0.100   1.660  0.0025 -0.3770  0.1206
 2441SOL    HW118785   4.626   0.183   1.614  0.0703 -0.3660  0.1264
 2441SOL    HW218786   4.655   0.031   1.596  0.8546 -0.5834  0.5844
 2442SOL     OW18787   0.017   1.344   4.277  0.0116  0.4836 -0.8501
 2442SOL    HW118788   4.706   1.432   4.260 -1.4258  0.2450  0.9249
 2442SOL    HW218789   4.689   1.296   4.212  0.4204 -1.0196 -0.0526
 2443SOL     OW18790   4.159   3.351   7.776  0.3038  0.0700  0.1867
 2443SOL    HW118791   4.143   3.444   7.763  0.7795 -0.0006 -0.9040
 2443SOL    HW218792   4.068   3.328   7.795  0.4261 -1.0848 -0.6188
 2444SOL     OW18793   3.147   2.037   4.398  0.6610 -0.7934 -0.2725
 2444SOL    HW118794   3.236   2.011   4.376  1.3237  0.9240  0.3764
 2444SOL    HW218795   3.168   2.113   4.453 -1.5345  0.1146 -0.6868
 2445SOL     OW18796   0.470   2.049   3.765 -0.1595  0.1834  0.0675
 2445SOL    HW118797   0.509   2.136   3.762  0.9928 -0.3086  1.0490
 2445SOL    HW218798   0.503   2.016   3.681 -1.1367 -0.1261 -0.2004
 2446SOL     OW18799   1.341   1.713  12.452 -0.1141 -0.4329 -0.1367
 2446SOL    HW118800   1.275   1.777  12.476  0.5818 -0.5193  1.9712
 2446SOL    HW218801   1.285   1.666  12.390  1.5320  0.2781 -2.2006
 2447SOL     OW18802   3.050   0.491   7.201 -0.1734 -0.3579  0.1879
 2447SOL    HW118803   3.045   0.464   7.110 -1.9292 -1.2509  0.5400
 2447SOL    HW218804   3.138   0.465   7.226  0.6468  2.0433 -0.2389
 2448SOL     OW18805   0.596   0.506   4.460  0.1949  0.3596 -0.5784
 2448SOL    HW118806   0.566   0.441   4.524 -1.0128  2.2957  0.8115
 2448SOL    HW218807   0.522   0.493   4.400 -0.3525  0.8650 -0.0205
 2449SOL     OW18808   3.544   3.779   4.993 -0.1259  0.2821  0.4161
 2449SOL    HW118809   3.634   3.750   4.983 -0.6500 -0.9861 -0.5642
 2449SOL    HW218810   3.536   3.857   4.938  2.4027  1.5740  1.8345
 2450SOL     OW18811   4.720   3.501   6.271  0.4663  0.4756 -0.0229
 2450SOL    HW118812   0.061   3.573   6.277 -0.1604  1.0672 -0.5315
 2450SOL    HW218813   4.708   3.480   6.364  2.0390  0.0834  0.0967
 2451SOL     OW18814   0.539   3.744   5.317 -0.4026 -0.3000  0.1031
 2451SOL    HW118815   0.634   3.751   5.306 -0.0158 -1.5031  2.5974
 2451SOL    HW218816   0.508   3.761   5.229 -1.8205  0.8129  0.8227
 2452SOL     OW18817   0.262   1.955   5.513  0.2960  0.3527 -0.1358
 2452SOL    HW118818   0.270   1.875   5.565  0.6481 -1.2960 -2.6859
 2452SOL    HW218819   0.354   1.982   5.510  0.5382 -0.5386 -0.9428
 2453SOL     OW18820   3.658   3.597   8.662 -0.2379  0.3398  0.1174
 2453SOL    HW118821   3.655   3.663   8.732 -1.0772 -0.7913  1.1618
 2453SOL    HW218822   3.567   3.606   8.633 -0.7154 -1.9514  0.8458
 2454SOL     OW18823   0.368   2.291  17.097 -0.9215 -0.1583 -0.3911
 2454SOL    HW118824   0.284   2.275  17.140 -0.3358  0.0207  0.8214
 2454SOL    HW218825   0.383   2.206  17.054  1.6468  1.2482 -2.2787
 2455SOL     OW18826   1.852   1.924   7.001 -0.0107 -0.0721  0.4203
 2455SOL    HW118827   1.897   2.001   7.036 -0.8719  1.4849 -1.8305
 2455SOL    HW218828   1.762   1.937   7.030  0.3575  0.5091  1.3011
 2456SOL     OW18829   0.804   4.584   5.100 -0.0173  0.1119 -0.3939
 2456SOL    HW118830   0.800   4.649   5.170  3.8375  0.8387 -0.8630
 2456SOL    HW218831   0.766   4.514   5.153  0.9130 -0.0300  0.0835
 2457SOL     OW18832   3.896   3.637   6.779 -0.3200 -0.0850 -0.0469
 2457SOL    HW118833   3.897   3.715   6.835 -2.8056  0.2833 -0.5014
 2457SOL    HW218834   3.895   3.564   6.842 -3.4148 -2.2520 -2.5868
 2458SOL     OW18835   4.296   3.948   4.735 -0.1577 -0.1659 -0.2481
 2458SOL    HW118836   4.359   3.966   4.666  2.2939  0.9960  2.2877
 2458SOL    HW218837   4.216   3.988   4.702  1.1026  2.0974 -0.5378
 2459SOL     OW18838   4.286   4.534   9.827 -0.0498  0.4222 -0.2515
 2459SOL    HW118839   4.368   4.512   9.871 -0.8243 -0.5640  0.7039
 2459SOL    HW218840   4.323   4.583   9.754 -0.6363 -0.1978 -0.9666
 2460SOL     OW18841   4.052   3.911   4.601  0.2249  0.2744 -0.0621
 2460SOL    HW118842   4.042   3.819   4.577  0.2592 -0.3334  2.2502
 2460SOL    HW218843   4.016   3.956   4.524  1.1832 -0.0216 -0.6725
 2461SOL     OW18844   0.852   1.079   1.293  0.4487 -0.6950  0.9013
 2461SOL    HW118845   0.757   1.072   1.282  0.8610 -3.4396 -0.9135
 2461SOL    HW218846   0.863   1.173   1.306 -0.3628 -0.4504 -0.2189
 2462SOL     OW18847   0.289   4.658   2.474 -0.0918  0.3163  0.6319
 2462SOL    HW118848   0.273   4.681   2.566  2.1378 -0.2915  1.1806
 2462SOL    HW218849   0.363   4.598   2.482  0.2216  0.6385  0.1481
 2463SOL     OW18850   2.024   1.497   5.103 -0.1594 -0.1332 -0.0711
 2463SOL    HW118851   2.100   1.475   5.049  1.3100  0.6430  1.6798
 2463SOL    HW218852   1.992   1.571   5.051 -0.2016  0.7031  1.1270
 2464SOL     OW18853   4.401   3.617   6.323  0.6343  0.0768  0.3811
 2464SOL    HW118854   4.345   3.623   6.245  0.0645 -0.7272  0.7327
 2464SOL    HW218855   4.340   3.594   6.393  0.0310  1.3359  0.2711
 2465SOL     OW18856   2.147   4.719   2.606  0.1132 -0.4138 -0.0654
 2465SOL    HW118857   2.072   0.048   2.634  2.4923  2.3168  1.2759
 2465SOL    HW218858   2.153   0.023   2.515  2.4348  0.7102  0.3960
 2466SOL     OW18859   4.407   0.025  15.878  0.0513 -0.2915 -1.0117
 2466SOL    HW118860   4.368   4.666  15.908  0.1440 -0.4960 -1.4365
 2466SOL    HW218861   4.338   0.065  15.825 -1.1858 -1.3215 -0.1793
 2467SOL     OW18862   4.109   4.460   5.729 -0.6214  0.6741  0.1060
 2467SOL    HW118863   4.041   4.408   5.771 -0.6631  0.8883  0.3071
 2467SOL    HW218864   4.060   4.476   5.649 -0.4260  0.7719  0.0041
 2468SOL     OW18865   0.801   0.506   0.292  0.2074 -0.5994  0.7103
 2468SOL    HW118866   0.829   0.449   0.364 -0.8722 -1.9835  0.0408
 2468SOL    HW218867   0.708   0.487   0.308  0.4849 -0.8172  2.0445
 2469SOL     OW18868   2.382   0.547  15.817  0.1810  0.1098  0.1240
 2469SOL    HW118869   2.322   0.611  15.856 -0.4927  0.0787 -0.8444
 2469SOL    HW218870   2.371   0.557  15.722  0.8361 -1.0645 -0.0779
 2470SOL     OW18871   2.280   2.293   7.356  0.2255  0.2836  0.0853
 2470SOL    HW118872   2.334   2.264   7.430  0.8446  2.7026  0.5722
 2470SOL    HW218873   2.201   2.240   7.368  0.7537 -0.6295 -0.4375
 2471SOL     OW18874   3.012   1.835  17.464 -0.3429  0.6801 -0.1430
 2471SOL    HW118875   2.964   1.769  17.514 -2.6676  0.4344 -2.6885
 2471SOL    HW218876   3.026   1.905  17.527  0.0359 -1.2361  1.8937
 2472SOL     OW18877   3.568   2.783   4.947 -0.1041  0.2395 -0.6443
 2472SOL    HW118878   3.618   2.834   4.884  1.6978 -1.4607 -0.5848
 2472SOL    HW218879   3.478   2.810   4.929  0.0743  1.1428 -0.1563
 2473SOL     OW18880   0.394   0.240   1.717  0.4390  0.1126 -0.1821
 2473SOL    HW118881   0.446   0.178   1.665  0.9893  3.2823 -3.3650
 2473SOL    HW218882   0.325   0.192   1.764 -0.0987  0.6834 -0.3868
 2474SOL     OW18883   0.994   0.210   3.915  0.1634 -0.4845  0.4479
 2474SOL    HW118884   0.950   0.295   3.921 -1.0282 -1.1141  0.5005
 2474SOL    HW218885   0.918   0.152   3.912 -0.3231  0.2283 -1.7739
 2475SOL     OW18886   0.508   4.269   1.637  0.2377 -0.0467 -0.5685
 2475SOL    HW118887   0.561   4.194   1.664 -0.7063 -0.3060  0.5509
 2475SOL    HW218888   0.570   4.339   1.656 -0.6495  0.9480 -1.3511
 2476SOL     OW18889   4.721   1.490   0.434 -0.3281  0.3670  0.0073
 2476SOL    HW118890   0.045   1.504   0.515 -2.4093  0.8201  1.1351
 2476SOL    HW218891   0.025   1.399   0.417 -0.1181  0.4077  0.1266
 2477SOL     OW18892   3.613   0.217   7.913  0.2421  0.0023  0.5102
 2477SOL    HW118893   3.640   0.305   7.885  0.0946  0.1877  0.9581
 2477SOL    HW218894   3.673   0.195   7.984 -0.3431  3.5987  2.1064
 2478SOL     OW18895   4.698   0.323  15.504 -0.2847  0.3582 -0.4100
 2478SOL    HW118896   4.658   0.341  15.589  1.1253 -0.2332  0.3812
 2478SOL    HW218897   4.630   0.260  15.479  0.9186 -0.6091 -1.2120
 2479SOL     OW18898   3.682   0.514   7.842  0.0055  0.3069  0.0239
 2479SOL    HW118899   3.700   0.552   7.928  1.4153 -0.6850  0.1570
 2479SOL    HW218900   3.763   0.465   7.832  1.7383  3.1605  0.0260
 2480SOL     OW18901   2.828   2.748  11.880  0.0821 -0.2474  0.0563
 2480SOL    HW118902   2.759   2.683  11.893  0.4572 -0.0387  3.1156
 2480SOL    HW218903   2.855   2.767  11.970 -0.8923  0.8192  0.1165
 2481SOL     OW18904   3.360   2.032   2.356 -0.2712 -0.3359  0.1570
 2481SOL    HW118905   3.360   1.960   2.293  0.2306 -0.0036 -0.2301
 2481SOL    HW218906   3.447   2.071   2.342 -0.0478 -1.1461 -0.6955
 2482SOL     OW18907   2.294   1.413  16.704 -0.1695  0.8465 -0.2646
 2482SOL    HW118908   2.252   1.499  16.700  0.8565  1.4086  1.0344
 2482SOL    HW218909   2.259   1.379  16.622  0.8411 -0.4055 -0.1762
 2483SOL     OW18910   0.621   3.555   8.569 -0.1106 -0.2219  0.2589
 2483SOL    HW118911   0.587   3.624   8.626  1.4153  0.2897  0.5555
 2483SOL    HW218912   0.555   3.540   8.500  2.3411 -0.4028 -2.0375
 2484SOL     OW18913   3.232   3.779   1.791  0.0711 -0.0215  0.0909
 2484SOL    HW118914   3.154   3.833   1.799  1.0232  1.0610  2.0705
 2484SOL    HW218915   3.189   3.694   1.785 -0.1420 -0.0157  1.6857
 2485SOL     OW18916   2.266   1.160   7.789 -0.2949 -0.2757 -0.0935
 2485SOL    HW118917   2.270   1.067   7.765  1.0591 -0.0576 -0.7048
 2485SOL    HW218918   2.337   1.170   7.852  1.1375 -0.9569 -1.6072
 2486SOL     OW18919   4.478   3.883  12.246 -0.4255 -0.3474 -0.3799
 2486SOL    HW118920   4.487   3.788  12.239  0.8278 -0.4941  3.3143
 2486SOL    HW218921   4.473   3.913  12.155 -0.0743  2.2168  0.4361
 2487SOL     OW18922   1.031   2.510   6.157  0.4418  0.1138  0.0286
 2487SOL    HW118923   1.020   2.592   6.109 -1.0551 -0.9901 -1.5009
 2487SOL    HW218924   0.975   2.451   6.107  0.1596  0.7338 -0.3940
 2488SOL     OW18925   2.719   3.408   4.080  0.1010 -0.1359  0.2031
 2488SOL    HW118926   2.765   3.325   4.088 -1.4860 -1.5200 -4.9302
 2488SOL    HW218927   2.762   3.451   4.006 -0.8835  0.5782  0.0494
 2489SOL     OW18928   0.722   2.205   6.534  0.4071  0.3424 -0.4816
 2489SOL    HW118929   0.797   2.234   6.586 -1.1911 -0.9240  2.4850
 2489SOL    HW218930   0.691   2.281   6.484  0.2140 -0.4278 -1.5306
 2490SOL     OW18931   2.384   1.123   8.103 -0.2310  0.2556  0.3707
 2490SOL    HW118932   2.408   1.044   8.056 -0.1510  0.6350 -0.2321
 2490SOL    HW218933   2.323   1.087   8.168 -1.7356  0.7963 -0.7298
 2491SOL     OW18934   2.642   3.985   6.486 -0.3026  0.8054  0.2582
 2491SOL    HW118935   2.653   3.927   6.411 -1.7120  1.1282 -0.1962
 2491SOL    HW218936   2.552   3.967   6.512 -0.3712  2.3950  1.1258
 2492SOL     OW18937   0.979   4.271   9.125  0.0553 -0.1969 -0.1939
 2492SOL    HW118938   0.895   4.227   9.132  1.4614 -2.8743 -0.2530
 2492SOL    HW218939   0.999   4.254   9.033  0.5333  1.2464 -0.3654
 2493SOL     OW18940   4.400   0.679  12.173  0.1510 -0.6088  0.2931
 2493SOL    HW118941   4.393   0.588  12.202  1.3519 -1.0724 -0.8819
 2493SOL    HW218942   4.371   0.676  12.082  1.9862 -1.9919 -0.2485
 2494SOL     OW18943   0.075   1.825   2.216  0.2760  0.8019 -0.8189
 2494SOL    HW118944   4.706   1.849   2.228 -0.3347 -1.3236 -1.1021
 2494SOL    HW218945   0.102   1.792   2.301  0.6847 -0.0931 -1.2934
 2495SOL     OW18946   0.230   2.779  14.410  0.9267  0.0714  0.1523
 2495SOL    HW118947   0.160   2.811  14.353  0.9967 -0.0988 -0.0289
 2495SOL    HW218948   0.207   2.687  14.422 -2.8124  1.0478  0.6558
 2496SOL     OW18949   0.665   1.169   5.628 -0.0992  0.0616  0.7628
 2496SOL    HW118950   0.658   1.204   5.540 -0.9801  2.2384  1.6797
 2496SOL    HW218951   0.624   1.245   5.670  0.9355  0.5083  0.9577
 2497SOL     OW18952   3.095   4.556  10.266  0.0448 -0.3252 -0.6450
 2497SOL    HW118953   3.111   4.494  10.337 -1.0622 -1.0407 -1.0086
 2497SOL    HW218954   3.180   4.546  10.222  1.6873 -0.6930  2.6251
 2498SOL     OW18955   4.416   4.636  10.222 -0.1875  0.1318  0.0808
 2498SOL    HW118956   4.418   4.673  10.311 -1.5127  1.3889 -0.4139
 2498SOL    HW218957   4.380   4.715  10.181  0.2213  0.4941  0.4071
 2499SOL     OW18958   1.398   4.465   4.109  0.0910 -0.8656  0.6982
 2499SOL    HW118959   1.437   4.409   4.042  2.4233  1.4144  0.1428
 2499SOL    HW218960   1.307   4.457   4.083 -0.1582  1.2186  1.0022
 2500SOL     OW18961   3.136   0.592  10.676 -0.1008  0.3488 -1.2601
 2500SOL    HW118962   3.147   0.673  10.726 -0.3374  1.0003 -2.2616
 2500SOL    HW218963   3.189   0.522  10.714  1.5414  2.6214  0.6731
 2501SOL     OW18964   1.875   0.471  11.456  0.0213  0.4562 -0.1005
 2501SOL    HW118965   1.864   0.562  11.427 -0.2366  0.4786  0.0641
 2501SOL    HW218966   1.873   0.489  11.550  1.4810  1.1017 -0.1919
 2502SOL     OW18967   0.539   0.879   3.405  0.2111 -0.2175 -0.2331
 2502SOL    HW118968   0.622   0.917   3.434 -0.1994  1.4941 -1.3046
 2502SOL    HW218969   0.481   0.954   3.414  0.6633  0.0708  0.2650
 2503SOL     OW18970   1.697   1.758   4.478 -0.6007  0.0735 -0.1940
 2503SOL    HW118971   1.649   1.739   4.397  0.5757 -0.0355 -0.8736
 2503SOL    HW218972   1.704   1.853   4.464 -1.0553  0.3472  1.5360
 2504SOL     OW18973   0.803   2.009   7.891  0.0055 -0.2819  0.2604
 2504SOL    HW118974   0.787   2.053   7.807 -4.2062  0.0283  1.2032
 2504SOL    HW218975   0.718   2.035   7.927  0.2714 -0.4398  0.9958
 2505SOL     OW18976   3.253   0.940   4.727 -0.0578  0.3369  0.4435
 2505SOL    HW118977   3.180   0.897   4.772  1.0868 -0.4678  1.5442
 2505SOL    HW218978   3.201   1.015   4.698  0.7678  0.8178  0.2010
 2506SOL     OW18979   1.101   0.383   9.006 -0.0383  0.3190  0.3622
 2506SOL    HW118980   1.043   0.365   8.932  1.7367 -0.0519 -0.9071
 2506SOL    HW218981   1.187   0.372   8.966 -1.0218  0.5934 -1.8249
 2507SOL     OW18982   1.392   1.222   7.010  0.5033 -0.2470  0.3576
 2507SOL    HW118983   1.352   1.260   6.931  0.2199 -1.2632  0.0118
 2507SOL    HW218984   1.391   1.300   7.065 -1.5369 -1.5229  2.0995
 2508SOL     OW18985   1.181   4.057   6.020  0.1497  0.0990  0.1228
 2508SOL    HW118986   1.117   4.120   6.054  0.8851  1.1277 -0.4381
 2508SOL    HW218987   1.259   4.110   6.004 -0.4501  0.2440 -2.3555
 2509SOL     OW18988   2.578   0.715   8.525 -0.1661 -0.5678 -0.4216
 2509SOL    HW118989   2.504   0.654   8.530 -0.3988 -0.2066  0.6393
 2509SOL    HW218990   2.542   0.803   8.532 -2.7236 -1.6421  0.1116
 2510SOL     OW18991   4.270   1.263   7.519 -0.0795  0.2849 -0.3203
 2510SOL    HW118992   4.358   1.231   7.502 -0.7008 -0.6139 -1.8030
 2510SOL    HW218993   4.228   1.177   7.517 -1.0057  0.6889  1.3511
 2511SOL     OW18994   4.488   0.213   2.630  0.4740 -0.3089  0.6108
 2511SOL    HW118995   4.394   0.200   2.623  0.4741  0.8100 -1.3961
 2511SOL    HW218996   4.512   0.120   2.633 -1.5106 -0.8004  1.3677
 2512SOL     OW18997   4.395   0.920   2.479  0.1700  0.1405  0.0138
 2512SOL    HW118998   4.305   0.941   2.453 -0.0534  2.2141  2.4301
 2512SOL    HW218999   4.438   0.947   2.398 -0.6133 -0.4395 -0.5989
 2513SOL     OW19000   4.577   0.616   0.942 -0.4595  0.1924 -1.0006
 2513SOL    HW119001   4.655   0.640   0.992 -1.0335 -1.3376  0.6166
 2513SOL    HW219002   4.609   0.619   0.853  0.8626 -0.6055 -0.5428
 2514SOL     OW19003   0.322   3.933  12.324 -0.5860  0.5866  0.1759
 2514SOL    HW119004   0.384   3.879  12.372  0.5568 -0.5269 -2.5393
 2514SOL    HW219005   0.383   4.006  12.307 -0.4147  0.6786  1.1834
 2515SOL     OW19006   1.521   3.139   5.685 -0.2367  0.1497 -0.2934
 2515SOL    HW119007   1.606   3.094   5.691 -1.4215 -2.3016 -2.2455
 2515SOL    HW219008   1.488   3.112   5.600  0.2936  1.7342 -1.0126
 2516SOL     OW19009   4.054   0.233   6.051  0.5211 -0.3782 -0.5697
 2516SOL    HW119010   4.130   0.189   6.015  0.7920 -0.9317  0.6768
 2516SOL    HW219011   3.990   0.163   6.054  0.2687 -0.2609 -3.4854
 2517SOL     OW19012   4.193   0.382   4.603 -0.0897 -0.2032  0.5298
 2517SOL    HW119013   4.288   0.393   4.597 -0.2356  1.2796  0.8872
 2517SOL    HW219014   4.199   0.314   4.670 -1.1870  0.6428  1.4764
 2518SOL     OW19015   2.209   3.295  14.723  0.4161 -0.1085  0.2122
 2518SOL    HW119016   2.135   3.274  14.780  0.8437  2.0052  1.5505
 2518SOL    HW219017   2.184   3.249  14.643 -0.3708  0.5924  0.0444
 2519SOL     OW19018   0.569   1.532  12.142 -0.3935  0.8676  0.4672
 2519SOL    HW119019   0.536   1.473  12.074  0.0300  3.2691 -1.8474
 2519SOL    HW219020   0.501   1.524  12.209 -1.1797 -0.9625 -0.5437
 2520SOL     OW19021   1.961   2.287   2.130 -0.1309  0.3367  0.1248
 2520SOL    HW119022   1.876   2.246   2.116  1.0719 -1.4327 -1.8629
 2520SOL    HW219023   1.962   2.348   2.056 -1.6649 -0.4440 -0.5351
 2521SOL     OW19024   0.712   1.021   6.030 -0.3548 -0.0736 -0.3068
 2521SOL    HW119025   0.792   1.068   6.052 -1.0642 -0.1540  2.3921
 2521SOL    HW219026   0.737   0.937   6.068  2.1792 -0.2161 -2.3145
 2522SOL     OW19027   0.037   4.392   4.363 -0.0980 -0.4257  0.5769
 2522SOL    HW119028   0.079   4.349   4.437  0.9663  2.7198  1.7848
 2522SOL    HW219029   4.697   4.444   4.413 -0.5452 -2.0618  1.7164
 2523SOL     OW19030   4.119   2.850  10.057 -0.2539  0.4739 -0.1711
 2523SOL    HW119031   4.151   2.930  10.098  0.0698  1.4685 -2.3326
 2523SOL    HW219032   4.092   2.795  10.130  1.2102  1.5586  1.1865
 2524SOL     OW19033   3.941   1.394  14.625  0.7754  0.1470 -0.3266
 2524SOL    HW119034   3.866   1.349  14.587 -0.5619  0.3936  2.0159
 2524SOL    HW219035   3.904   1.456  14.688  0.1396 -1.2632  0.6929
 2525SOL     OW19036   0.297   3.311   3.969 -0.3502  0.4331 -0.4506
 2525SOL    HW119037   0.354   3.280   4.038  1.7379  0.1491 -2.3184
 2525SOL    HW219038   0.233   3.352   4.028 -0.7215 -0.5358 -0.1896
 2526SOL     OW19039   1.046   4.162   6.310  0.0416 -0.0269 -0.4626
 2526SOL    HW119040   1.029   4.210   6.391 -2.2032 -0.4850 -0.6604
 2526SOL    HW219041   1.142   4.154   6.305 -0.1601 -1.0352 -2.9107
 2527SOL     OW19042   3.895   2.737   1.502 -0.0590  0.0530 -0.2364
 2527SOL    HW119043   3.938   2.695   1.429  1.8158 -1.2216  1.6092
 2527SOL    HW219044   3.931   2.826   1.506 -0.5329  0.1895  1.2945
 2528SOL     OW19045   2.941   4.039   7.937 -0.0604  0.6283  0.1916
 2528SOL    HW119046   3.007   4.098   7.973 -2.5788  2.9601  0.9089
 2528SOL    HW219047   2.997   3.962   7.925 -3.5135 -1.9624  0.6158
 2529SOL     OW19048   0.763   0.203   3.496  0.3807  0.2517 -0.1413
 2529SOL    HW119049   0.728   0.121   3.531 -1.6030  0.6149 -1.2508
 2529SOL    HW219050   0.782   0.254   3.574  0.5371  1.0554 -0.7082
 2530SOL     OW19051   0.577   3.061   3.043  0.1633  0.2431  0.8446
 2530SOL    HW119052   0.569   3.154   3.019 -0.5425 -0.9972 -3.7242
 2530SOL    HW219053   0.671   3.064   3.061  0.5184 -0.5853 -0.9399
 2531SOL     OW19054   2.096   4.383   9.895  0.2220  0.1023  0.3907
 2531SOL    HW119055   2.151   4.380   9.973 -3.1154 -2.3298  2.6280
 2531SOL    HW219056   2.045   4.302   9.901  0.4428 -0.1632 -1.2896
 2532SOL     OW19057   3.690   0.556   2.366  0.6868  0.4987 -0.1133
 2532SOL    HW119058   3.691   0.650   2.382 -2.8674  0.9231 -2.2539
 2532SOL    HW219059   3.682   0.557   2.270  0.5724  3.8658 -0.0636
 2533SOL     OW19060   3.770   2.540   1.122  0.0428 -0.0873 -0.4314
 2533SOL    HW119061   3.691   2.589   1.145  0.1081  0.1390 -0.6969
 2533SOL    HW219062   3.799   2.610   1.064 -2.2914  1.6388  0.4951
 2534SOL     OW19063   3.215   1.413  15.561  0.6468  0.2491 -0.3229
 2534SOL    HW119064   3.308   1.411  15.582  0.2239  0.2068  1.4966
 2534SOL    HW219065   3.226   1.422  15.466  1.1764 -0.6684 -0.3462
 2535SOL     OW19066   4.437   4.080   7.607  0.3588 -0.4262 -0.3725
 2535SOL    HW119067   4.401   4.114   7.689  1.5926  0.8856 -0.3722
 2535SOL    HW219068   4.433   3.985   7.618 -0.8516 -0.2503  0.6619
 2536SOL     OW19069   3.191   2.195  14.696 -0.3557  0.1847  1.0445
 2536SOL    HW119070   3.183   2.109  14.737  0.4128 -0.3405  0.0942
 2536SOL    HW219071   3.197   2.249  14.775 -2.9761 -0.6648  1.7968
 2537SOL     OW19072   2.169   3.770   2.666  0.3881  0.0123 -0.3392
 2537SOL    HW119073   2.120   3.699   2.624  0.7972 -1.6689  2.0684
 2537SOL    HW219074   2.208   3.813   2.590  1.9887  0.0740  0.5279
 2538SOL     OW19075   2.817   0.782  14.216  0.6876 -0.7176 -0.4199
 2538SOL    HW119076   2.910   0.774  14.235  0.7816  0.5180 -0.3240
 2538SOL    HW219077   2.791   0.754  14.303  0.1862 -0.1857 -0.3929
 2539SOL     OW19078   0.884   2.000   2.555 -0.1465 -0.5447  0.2790
 2539SOL    HW119079   0.917   1.911   2.546  0.2977 -0.4272  0.7294
 2539SOL    HW219080   0.840   1.988   2.640  1.7607  1.2631  1.5227
 2540SOL     OW19081   1.806   2.190  10.307  0.1382  0.4163  0.1348
 2540SOL    HW119082   1.860   2.122  10.346  0.3547  0.9622  0.7793
 2540SOL    HW219083   1.821   2.254  10.377 -1.5636  1.1498 -0.1719
 2541SOL     OW19084   4.600   1.930   8.042 -0.0427 -0.1216  0.1197
 2541SOL    HW119085   4.684   1.957   8.080  0.0372 -1.3579  0.8359
 2541SOL    HW219086   4.603   1.835   8.034  2.6503  0.1426 -1.8920
 2542SOL     OW19087   4.438   4.100  12.797 -0.3581 -0.0133  0.0817
 2542SOL    HW119088   4.369   4.066  12.741 -1.1943  1.6924  0.0958
 2542SOL    HW219089   4.496   4.141  12.733 -0.1972 -1.1689 -0.5100
 2543SOL     OW19090   2.754   4.101   5.893 -0.4629 -0.1729  0.0317
 2543SOL    HW119091   2.756   4.016   5.937  3.5217 -0.9850 -1.6736
 2543SOL    HW219092   2.846   4.126   5.904 -0.0844 -1.2723 -0.6093
 2544SOL     OW19093   1.235   2.962   3.614  0.1348  0.2052 -0.0512
 2544SOL    HW119094   1.263   3.035   3.560  1.1142 -1.2735 -1.5340
 2544SOL    HW219095   1.140   2.973   3.615 -0.0540 -1.4654  1.8333
 2545SOL     OW19096   2.000   1.796   6.813  0.4113 -0.0136 -0.1023
 2545SOL    HW119097   2.022   1.876   6.766  2.8358  1.4343  3.4989
 2545SOL    HW219098   1.964   1.833   6.894  2.1526  1.5040 -0.0109
 2546SOL     OW19099   2.447   4.493   6.123 -0.5062  0.0574 -0.2324
 2546SOL    HW119100   2.475   4.402   6.132 -0.7950  0.1107  1.2471
 2546SOL    HW219101   2.530   4.541   6.122  0.2434 -1.2289 -0.7248
 2547SOL     OW19102   1.055   4.319   3.659  0.3510  0.3648  0.3238
 2547SOL    HW119103   1.109   4.262   3.604  3.1324  0.2489  3.1541
 2547SOL    HW219104   1.097   4.310   3.745  0.2653 -2.6539  0.0470
 2548SOL     OW19105   2.919   3.722   1.018  0.3982  0.4807 -0.1151
 2548SOL    HW119106   2.887   3.662   1.086 -2.7423 -0.3226 -2.3563
 2548SOL    HW219107   2.970   3.664   0.961  1.9644  1.8807 -0.1478
 2549SOL     OW19108   1.386   0.485  14.462 -0.1280  0.2225 -0.4026
 2549SOL    HW119109   1.340   0.401  14.452 -0.5893  0.2297  1.6518
 2549SOL    HW219110   1.475   0.449  14.453 -1.1985 -1.8262 -2.7865
 2550SOL     OW19111   1.880   1.419   6.718 -0.3056 -0.7645  0.0518
 2550SOL    HW119112   1.843   1.451   6.635  0.5967 -1.8036 -0.7506
 2550SOL    HW219113   1.811   1.406   6.782  0.1775 -0.2386  0.6834
 2551SOL     OW19114   0.939   2.986   0.965  0.6495  0.5554  1.0806
 2551SOL    HW119115   0.879   2.993   0.890  0.3178  0.5204  1.3433
 2551SOL    HW219116   0.918   3.066   1.013 -0.6881  3.1689 -3.7846
 2552SOL     OW19117   4.590   1.177   5.195  0.4219  0.2489 -0.2863
 2552SOL    HW119118   4.616   1.085   5.203 -0.6964  0.0773  1.3696
 2552SOL    HW219119   4.665   1.216   5.241 -0.2053  1.5758 -0.3904
 2553SOL     OW19120   0.506   2.135   2.601  0.3829  0.1665  0.0861
 2553SOL    HW119121   0.472   2.181   2.524 -0.2476  1.6258  1.2476
 2553SOL    HW219122   0.465   2.174   2.678 -0.1621 -0.3427  0.0554
 2554SOL     OW19123   1.544   1.914   7.370  0.0370  0.1425  0.6636
 2554SOL    HW119124   1.459   1.895   7.331  0.3463  0.4111 -0.1324
 2554SOL    HW219125   1.596   1.847   7.326  0.2487  0.0799  1.0099
 2555SOL     OW19126   3.888   2.662   3.576  0.5483 -0.3627  0.0426
 2555SOL    HW119127   3.899   2.750   3.611  0.0161 -0.6085  0.8451
 2555SOL    HW219128   3.981   2.642   3.566  0.4923 -0.3215 -0.5558
 2556SOL     OW19129   0.916   3.436   4.992 -0.2746  0.2118 -0.1202
 2556SOL    HW119130   0.981   3.370   4.968 -0.3290 -0.2145  0.8970
 2556SOL    HW219131   0.842   3.413   4.936  0.0037 -0.5423 -0.1782
 2557SOL     OW19132   2.861   3.694   6.190  1.5380  0.4005 -0.3512
 2557SOL    HW119133   2.797   3.661   6.253  0.7155 -2.5552 -2.6972
 2557SOL    HW219134   2.885   3.777   6.230 -0.8397  0.6955  0.4370
 2558SOL     OW19135   1.023   3.867   6.258  0.0936 -0.0539  0.2042
 2558SOL    HW119136   1.049   3.950   6.298  2.6262 -0.5108 -0.4690
 2558SOL    HW219137   1.094   3.855   6.195 -0.0080  3.5846 -0.5949
 2559SOL     OW19138   3.588   1.165   3.132  0.2588  0.3212  0.0025
 2559SOL    HW119139   3.550   1.134   3.214  0.1279 -0.1907 -0.2493
 2559SOL    HW219140   3.669   1.115   3.120  0.4412  0.4555  0.7134
 2560SOL     OW19141   2.567   3.027   6.966 -0.4553  0.4561 -0.1595
 2560SOL    HW119142   2.530   3.114   6.954  0.7507  0.8846 -0.7580
 2560SOL    HW219143   2.561   2.992   6.878  1.1479  2.9378 -1.2429
 2561SOL     OW19144   4.426   0.960   6.058 -0.1679  0.1168 -0.1903
 2561SOL    HW119145   4.440   0.866   6.044 -0.8124  0.4193 -2.7031
 2561SOL    HW219146   4.510   1.006   6.064  0.8139 -1.1801 -4.1352
 2562SOL     OW19147   0.706   0.394   6.541 -0.0652  0.0203 -0.0384
 2562SOL    HW119148   0.659   0.464   6.496 -0.0268  0.1408  0.1070
 2562SOL    HW219149   0.729   0.333   6.471  2.3676  0.7529  0.0946
 2563SOL     OW19150   2.759   4.034  10.623 -0.1032 -0.6133 -0.7340
 2563SOL    HW119151   2.731   4.090  10.550  2.7211 -0.6454 -1.8350
 2563SOL    HW219152   2.826   4.083  10.670 -0.6834 -1.0091  0.5110
 2564SOL     OW19153   3.479   0.297   9.658  0.2120  0.4806  0.2717
 2564SOL    HW119154   3.448   0.222   9.708  0.0017  0.4090  0.0358
 2564SOL    HW219155   3.436   0.366   9.709 -1.9682 -0.8454  0.2459
 2565SOL     OW19156   4.138   4.388   1.973 -0.2215  0.2257 -0.6724
 2565SOL    HW119157   4.091   4.335   2.037  3.1355  0.3931  1.8993
 2565SOL    HW219158   4.226   4.350   1.978 -0.3227  0.4014  2.3330
 2566SOL     OW19159   0.125   1.690   3.455  0.0853 -0.0128 -0.0221
 2566SOL    HW119160   0.052   1.648   3.501  0.7625  0.1769  1.2180
 2566SOL    HW219161   0.182   1.614   3.444 -0.8381 -0.8715  1.1039
 2567SOL     OW19162   0.912   4.558   5.517 -0.2992  0.1903  0.2099
 2567SOL    HW119163   0.960   4.476   5.535 -2.6243 -1.0188  0.8575
 2567SOL    HW219164   0.928   4.602   5.601  0.3365 -0.0839  0.2404
 2568SOL     OW19165   4.543   4.057  11.515 -0.2324  0.0693  0.0133
 2568SOL    HW119166   4.585   3.971  11.514 -0.4992 -0.0530 -0.8919
 2568SOL    HW219167   4.538   4.085  11.423  4.0455  1.6066  0.2416
 2569SOL     OW19168   1.841   0.978  11.333  0.5365 -0.1800  0.0452
 2569SOL    HW119169   1.864   1.065  11.366 -0.5644  0.8809 -1.9500
 2569SOL    HW219170   1.854   0.984  11.238 -3.8631  0.2775 -0.5330
 2570SOL     OW19171   3.786   4.371  15.788 -0.4853 -0.3185 -0.0042
 2570SOL    HW119172   3.698   4.405  15.801  0.3597  1.6180  0.7132
 2570SOL    HW219173   3.766   4.298  15.730 -3.2406  1.6966 -1.5479
 2571SOL     OW19174   4.563   1.881   9.114 -0.2313  0.3819  0.6411
 2571SOL    HW119175   4.623   1.955   9.116 -0.6554  0.7268  0.4876
 2571SOL    HW219176   4.490   1.920   9.161 -1.4717  0.1972 -1.1123
 2572SOL     OW19177   1.350   1.368  12.479  0.0836  0.4048 -0.0913
 2572SOL    HW119178   1.315   1.351  12.391 -0.0731  2.8255 -0.4771
 2572SOL    HW219179   1.413   1.298  12.461 -1.7493 -1.2528 -0.0645
 2573SOL     OW19180   3.817   4.452   4.478 -0.0150  0.1526  0.1424
 2573SOL    HW119181   3.764   4.531   4.469  0.0929  0.1067 -0.9555
 2573SOL    HW219182   3.847   4.453   4.569 -1.0343  0.5235  0.4673
 2574SOL     OW19183   4.316   1.933   7.969  0.5856 -0.3393  0.2400
 2574SOL    HW119184   4.407   1.928   7.997  1.1766  1.0753 -1.4414
 2574SOL    HW219185   4.295   2.026   7.957 -1.1983 -0.7584  0.0795
 2575SOL     OW19186   4.223   3.157   7.310 -0.5219  0.0947 -0.2494
 2575SOL    HW119187   4.282   3.225   7.341  0.8630 -0.6394 -1.2770
 2575SOL    HW219188   4.237   3.093   7.380 -1.5139  0.9077  0.6825
 2576SOL     OW19189   4.041   4.456   9.903 -0.5670 -0.4435  0.0363
 2576SOL    HW119190   4.074   4.367   9.913 -0.7279 -0.4349  0.6273
 2576SOL    HW219191   4.125   4.501   9.890 -2.1011  2.5102  0.4771
 2577SOL     OW19192   3.372   0.393   1.598 -0.5531  0.1548  0.2340
 2577SOL    HW119193   3.333   0.381   1.685 -2.8041 -0.7889 -0.9109
 2577SOL    HW219194   3.287   0.383   1.555  0.2926  0.8242 -1.5727
 2578SOL     OW19195   3.187   4.677  15.899  0.4630  0.1418 -0.0257
 2578SOL    HW119196   3.145   4.692  15.814 -0.7305  0.0440  0.5495
 2578SOL    HW219197   3.138   4.600  15.927 -0.3248  0.2024 -1.2343
 2579SOL     OW19198   1.379   0.297   0.465 -0.3102  0.2999 -0.1542
 2579SOL    HW119199   1.327   0.237   0.518  1.6704  0.1506  1.5952
 2579SOL    HW219200   1.307   0.343   0.422 -1.2701  1.2821  2.4630
 2580SOL     OW19201   2.391   1.508   1.720  0.1993 -0.5502  0.1858
 2580SOL    HW119202   2.367   1.426   1.678  1.4878 -2.0416  2.3328
 2580SOL    HW219203   2.443   1.488   1.798 -1.3776 -1.1655  1.0865
 2581SOL     OW19204   0.189   1.587   7.749  0.4873 -0.4528  0.1671
 2581SOL    HW119205   0.121   1.647   7.720  2.0418  1.8441  1.2646
 2581SOL    HW219206   0.160   1.572   7.839 -0.3528  0.0791 -0.0146
 2582SOL     OW19207   4.495   3.914  11.983 -0.2107  0.0220  0.1400
 2582SOL    HW119208   4.467   3.900  11.892 -1.9793  0.0940  0.6780
 2582SOL    HW219209   4.462   4.002  11.998 -3.3853 -1.2920  0.8273
 2583SOL     OW19210   1.510   0.347   6.295 -0.2807 -0.1413 -0.2279
 2583SOL    HW119211   1.440   0.412   6.304  0.5779  0.6533  0.6459
 2583SOL    HW219212   1.523   0.306   6.380 -0.2759 -0.4134 -0.3604
 2584SOL     OW19213   4.037   3.516   3.398 -0.1138 -0.5738 -0.1809
 2584SOL    HW119214   4.079   3.505   3.483  2.5871  1.1955 -1.3062
 2584SOL    HW219215   4.068   3.444   3.342  0.0192 -0.4678 -0.2443
 2585SOL     OW19216   2.532   0.545  14.430  0.7977 -0.0594 -0.0522
 2585SOL    HW119217   2.445   0.520  14.461  1.2541  0.2573  1.4676
 2585SOL    HW219218   2.552   0.482  14.361 -0.1821 -0.5750  0.1335
 2586SOL     OW19219   3.666   0.576   1.987  0.0505  0.3619 -0.2718
 2586SOL    HW119220   3.695   0.539   1.903 -1.8703 -1.5612 -0.1060
 2586SOL    HW219221   3.670   0.500   2.045 -1.9861  1.5066  1.3522
 2587SOL     OW19222   3.377   0.886   2.614  0.1076 -0.1308 -0.4420
 2587SOL    HW119223   3.391   0.870   2.520  0.2726  0.3031 -0.4899
 2587SOL    HW219224   3.376   0.793   2.637  2.4691 -0.0092  0.1856
 2588SOL     OW19225   0.517   3.749   8.053 -0.3848  0.0279 -0.2639
 2588SOL    HW119226   0.523   3.832   8.005  0.5714  1.2678  2.0027
 2588SOL    HW219227   0.588   3.700   8.013 -0.5064 -1.1559  0.9618
 2589SOL     OW19228   1.481   3.275   6.957 -0.6220 -0.0426 -0.7033
 2589SOL    HW119229   1.494   3.366   6.929 -0.2196  0.1832  0.2011
 2589SOL    HW219230   1.420   3.288   7.030  0.0211  1.4920 -0.4409
 2590SOL     OW19231   0.175   1.914   5.152 -0.1432  0.2609  0.1567
 2590SOL    HW119232   0.210   1.955   5.231  1.6536 -0.1513 -0.4411
 2590SOL    HW219233   0.118   1.844   5.186  2.0002  0.0334  3.3060
 2591SOL     OW19234   2.586   1.326   8.052 -0.1253  0.2127 -0.5439
 2591SOL    HW119235   2.657   1.327   7.988  0.4482 -1.3100  0.0889
 2591SOL    HW219236   2.526   1.257   8.024  0.6622 -0.4631 -0.5492
 2592SOL     OW19237   4.173   4.182   7.300  0.2920  0.1250  0.2270
 2592SOL    HW119238   4.167   4.156   7.392 -0.3957  3.1747  1.0603
 2592SOL    HW219239   4.101   4.142   7.250  0.1649  1.8221 -0.9566
 2593SOL     OW19240   0.065   2.023   6.130  0.0078 -0.6202 -0.0980
 2593SOL    HW119241   4.715   2.072   6.169  0.4842  0.1432 -0.1795
 2593SOL    HW219242   0.139   2.063   6.175  1.0343 -2.4456 -0.2004
 2594SOL     OW19243   1.608   3.002   8.586  0.0056  0.1276 -0.7043
 2594SOL    HW119244   1.584   2.971   8.498  1.1517 -2.4893 -0.0972
 2594SOL    HW219245   1.608   3.097   8.574 -1.4300 -0.1229 -2.8173
 2595SOL     OW19246   3.530   3.592   4.754  0.2145  0.0827  0.0909
 2595SOL    HW119247   3.492   3.652   4.689  1.8248  2.5312  1.4374
 2595SOL    HW219248   3.624   3.608   4.751  0.0250  1.3497  0.5575
 2596SOL     OW19249   4.658   1.635   9.061  0.2155  0.1705  0.0150
 2596SOL    HW119250   4.634   1.726   9.073  1.4501  0.4281  0.5591
 2596SOL    HW219251   4.584   1.590   9.102 -0.2752  0.0281 -1.0403
 2597SOL     OW19252   3.773   1.259   2.207  0.2037 -0.2065 -0.4826
 2597SOL    HW119253   3.810   1.346   2.219 -2.3650  0.7883  0.1910
 2597SOL    HW219254   3.763   1.254   2.112  0.3391 -0.0621 -0.5038
 2598SOL     OW19255   1.735   3.612   0.421 -0.4948  0.6487  0.0496
 2598SOL    HW119256   1.722   3.683   0.358 -1.0203  0.7599  0.2910
 2598SOL    HW219257   1.658   3.563   0.393  0.5026  1.0138 -3.3779
 2599SOL     OW19258   2.709   1.824   1.627  0.3107  0.3912 -0.0388
 2599SOL    HW119259   2.791   1.780   1.647 -0.0581  0.1062  0.8569
 2599SOL    HW219260   2.647   1.753   1.611 -1.2118  1.5943  0.4937
 2600SOL     OW19261   1.469   1.225   2.084 -0.3379  0.4900 -0.2685
 2600SOL    HW119262   1.488   1.225   2.178  1.2821  0.0070 -0.5862
 2600SOL    HW219263   1.488   1.317   2.067 -0.5898  0.4847 -0.5924
 2601SOL     OW19264   4.552   4.026   6.307 -0.0369 -0.1698 -0.0020
 2601SOL    HW119265   4.567   3.942   6.349 -0.6633  0.8520  2.2880
 2601SOL    HW219266   4.645   4.049   6.301 -0.1168 -0.7216 -3.0503
 2602SOL     OW19267   2.589   2.515   6.537  0.5584 -0.0260 -0.3289
 2602SOL    HW119268   2.539   2.589   6.569  0.6184 -0.0651 -0.1436
 2602SOL    HW219269   2.535   2.443   6.570  2.8319 -2.5110 -1.9105
 2603SOL     OW19270   4.620   4.354   5.967  0.3743 -0.4609  0.4360
 2603SOL    HW119271   4.673   4.416   5.916  0.5091  0.0796  1.2310
 2603SOL    HW219272   4.686   4.301   6.012 -0.4960 -0.4818  1.6958
 2604SOL     OW19273   0.192   1.478  12.146  0.3657  0.3622 -0.3710
 2604SOL    HW119274   0.277   1.474  12.103 -0.5121 -0.8893 -1.9753
 2604SOL    HW219275   0.160   1.390  12.126 -2.2158  1.0373  0.7194
 2605SOL     OW19276   0.173   3.861   6.136 -0.3112 -0.1338  0.2002
 2605SOL    HW119277   0.092   3.853   6.086 -0.4918 -1.2326  0.6765
 2605SOL    HW219278   0.205   3.773   6.115 -0.0525  0.3950 -1.6087
 2606SOL     OW19279   2.997   3.648   0.112 -0.0175 -0.6080  0.3383
 2606SOL    HW119280   2.967   3.707   0.181  0.5918  0.5372 -0.3738
 2606SOL    HW219281   2.981   3.572   0.169 -0.9683 -0.7941 -0.1717
 2607SOL     OW19282   2.351   4.710  10.853  0.1638  0.2636  0.0396
 2607SOL    HW119283   2.305   0.042  10.917 -1.9490  0.6917 -1.8666
 2607SOL    HW219284   2.429   0.039  10.832  0.3115 -0.6454 -1.6501
 2608SOL     OW19285   0.614   0.176   1.326 -0.0072 -0.6883  0.0765
 2608SOL    HW119286   0.709   0.166   1.322  0.0155 -1.0399  1.3588
 2608SOL    HW219287   0.613   0.237   1.401  1.5595  0.1398 -0.5748
 2609SOL     OW19288   2.179   1.969   6.649 -0.5005  0.5735  0.7998
 2609SOL    HW119289   2.252   1.927   6.606 -0.9408  1.1771 -0.5326
 2609SOL    HW219290   2.209   1.959   6.740 -0.3943 -0.8528  0.5993
 2610SOL     OW19291   4.086   1.381  16.536  0.5357 -0.3972  0.5513
 2610SOL    HW119292   4.009   1.326  16.519  0.6261 -0.5471  0.6317
 2610SOL    HW219293   4.101   1.358  16.628  0.9700 -1.2856  0.2544
 2611SOL     OW19294   2.874   2.067   2.552 -0.3588  0.0843  0.4758
 2611SOL    HW119295   2.815   2.094   2.481  0.7209 -2.4819 -1.3769
 2611SOL    HW219296   2.961   2.075   2.514 -0.3422  1.3260  0.7726
 2612SOL     OW19297   3.242   4.692  10.777 -0.3795  0.4923 -0.3173
 2612SOL    HW119298   3.191   0.017  10.712  1.7170  2.3230 -0.6125
 2612SOL    HW219299   3.260   0.034  10.845  0.5223 -0.4405  0.3314
 2613SOL     OW19300   3.838   4.282   6.354  0.4994 -0.5992 -0.2937
 2613SOL    HW119301   3.762   4.245   6.309 -0.9315  0.9794  0.8686
 2613SOL    HW219302   3.897   4.291   6.278  0.5424  2.2731  0.1139
 2614SOL     OW19303   2.074   2.767   6.643  0.3230  0.3024 -0.1332
 2614SOL    HW119304   2.017   2.695   6.615  1.0691 -0.3044 -0.0728
 2614SOL    HW219305   2.159   2.729   6.663  0.2720 -0.6442 -1.7487
 2615SOL     OW19306   0.676   4.665  15.940 -0.0305 -0.3540 -0.5779
 2615SOL    HW119307   0.637   0.010  15.996 -0.0120 -0.3009 -0.6287
 2615SOL    HW219308   0.692   4.704  15.855  0.2976  0.2712 -0.2313
 2616SOL     OW19309   1.821   1.312  12.236 -0.0019  0.0500  0.1931
 2616SOL    HW119310   1.760   1.243  12.211 -0.3101  0.3838  0.0307
 2616SOL    HW219311   1.854   1.291  12.323  3.5655  0.0136 -1.1408
 2617SOL     OW19312   1.556   2.000   5.504 -0.2805  0.5026 -0.2735
 2617SOL    HW119313   1.633   1.943   5.500 -2.0147 -1.6425 -2.5384
 2617SOL    HW219314   1.525   1.988   5.414  0.7987 -0.6690 -0.4879
 2618SOL     OW19315   4.204   0.496  12.769 -1.0691 -0.5878 -0.0013
 2618SOL    HW119316   4.243   0.435  12.831  0.0398 -0.4291 -0.5392
 2618SOL    HW219317   4.185   0.425  12.708  1.2712 -1.6377  0.4884
 2619SOL     OW19318   1.451   3.645   7.087  0.2294 -0.0223 -0.2599
 2619SOL    HW119319   1.422   3.729   7.052 -0.1109 -0.0599 -0.0666
 2619SOL    HW219320   1.384   3.587   7.052  1.0034 -1.9166  1.3867
 2620SOL     OW19321   0.107   3.397  11.026  0.0249  0.2592 -0.1689
 2620SOL    HW119322   0.131   3.356  10.943 -1.8585  0.2583 -0.6957
 2620SOL    HW219323   0.033   3.344  11.053  0.1312  0.6853  0.9362
 2621SOL     OW19324   2.101   3.927  16.925 -0.0241 -0.5423  0.6332
 2621SOL    HW119325   2.096   4.012  16.882  1.0569 -1.4572 -1.2961
 2621SOL    HW219326   2.193   3.935  16.953  0.1015 -1.0361  0.3591
 2622SOL     OW19327   2.555   2.354   0.378 -0.5574 -0.1170 -1.0017
 2622SOL    HW119328   2.492   2.301   0.329 -1.3745 -0.1687  0.1136
 2622SOL    HW219329   2.552   2.436   0.327  2.7010  2.4392  2.9560
 2623SOL     OW19330   3.549   3.110   6.583  0.3604 -0.4419 -0.3130
 2623SOL    HW119331   3.559   3.181   6.520 -1.5977  0.5008  0.4243
 2623SOL    HW219332   3.511   3.043   6.527  2.5191 -2.0921  0.1986
 2624SOL     OW19333   0.294   1.115   2.588 -0.1304  0.1207  0.6138
 2624SOL    HW119334   0.258   1.070   2.511  0.4212 -0.2937  0.5936
 2624SOL    HW219335   0.218   1.106   2.646  0.1224  0.9706  1.0694
 2625SOL     OW19336   4.705   2.921   4.687  0.5205 -0.3106  0.1477
 2625SOL    HW119337   0.071   2.891   4.668  0.1938 -1.7717  0.9910
 2625SOL    HW219338   4.640   2.893   4.622 -0.8005  2.2286  0.3350
 2626SOL     OW19339   4.319   0.281   8.943  0.0492 -0.1222 -0.2542
 2626SOL    HW119340   4.323   0.317   9.032  0.0421  2.7612 -1.4323
 2626SOL    HW219341   4.408   0.253   8.921  0.3958  0.9445 -0.2357
 2627SOL     OW19342   4.073   4.545  11.438  0.6487  0.2111  0.0519
 2627SOL    HW119343   4.024   4.465  11.455 -0.9231  1.1022 -0.3142
 2627SOL    HW219344   4.070   4.551  11.342  2.0531 -0.9044 -0.0562
 2628SOL     OW19345   2.965   0.124   5.333  0.3010  0.4014 -0.7441
 2628SOL    HW119346   2.926   0.128   5.420 -1.5407 -0.2408 -1.5365
 2628SOL    HW219347   2.902   0.175   5.281  1.0929  2.8021  0.6471
 2629SOL     OW19348   2.691   2.189   6.628 -0.8564 -0.5962  0.2598
 2629SOL    HW119349   2.756   2.202   6.696 -0.9957  3.5043 -0.4222
 2629SOL    HW219350   2.743   2.149   6.558 -0.3842  0.6103 -0.0757
 2630SOL     OW19351   1.804   3.708  11.216 -0.8262  0.4235 -0.2059
 2630SOL    HW119352   1.716   3.712  11.178 -0.8477  1.5120 -0.0255
 2630SOL    HW219353   1.859   3.697  11.138 -0.7645  1.2655 -0.2846
 2631SOL     OW19354   4.173   3.569   6.072  0.4963 -0.4823  0.1485
 2631SOL    HW119355   4.246   3.575   6.011  0.6726  2.3132  0.6467
 2631SOL    HW219356   4.192   3.649   6.121 -2.0744  0.8671 -1.0425
 2632SOL     OW19357   3.307   1.103  13.018  0.4871 -0.6878  0.0023
 2632SOL    HW119358   3.346   1.072  12.937 -1.2936 -0.6818 -0.8477
 2632SOL    HW219359   3.348   1.031  13.067 -1.4585 -0.9300  1.2587
 2633SOL     OW19360   2.346   2.706   7.003 -0.2168 -0.1429 -0.2903
 2633SOL    HW119361   2.419   2.645   6.990  0.7489  0.9634  0.0427
 2633SOL    HW219362   2.323   2.675   7.091 -1.6527  0.4787 -0.4612
 2634SOL     OW19363   1.280   1.602  16.604  0.7005  0.3950  0.1939
 2634SOL    HW119364   1.266   1.614  16.510  1.0620 -1.3827 -0.0783
 2634SOL    HW219365   1.260   1.690  16.636 -1.6641 -1.0182  2.6182
 2635SOL     OW19366   4.379   1.356  14.313  0.6204  0.6516 -0.7160
 2635SOL    HW119367   4.303   1.348  14.256  1.3287 -0.5048 -1.4895
 2635SOL    HW219368   4.346   1.380  14.400  0.6381 -0.6350 -0.3516
 2636SOL     OW19369   4.373   3.701   3.523 -0.2596  0.3502  0.3406
 2636SOL    HW119370   4.303   3.723   3.461 -0.2812 -1.1327 -0.1653
 2636SOL    HW219371   4.356   3.760   3.596  0.9221 -0.3884  1.1971
 2637SOL     OW19372   2.019   2.937   7.305  0.8822  0.2424  0.0956
 2637SOL    HW119373   2.053   2.847   7.313  1.5587  0.4999  0.1258
 2637SOL    HW219374   2.094   2.977   7.260 -1.0351 -0.0004 -3.2943
 2638SOL     OW19375   1.621   4.026   3.130 -0.0837 -0.6514 -0.4369
 2638SOL    HW119376   1.613   4.027   3.034  0.3058  0.1530 -0.4621
 2638SOL    HW219377   1.698   4.081   3.145 -0.6691 -0.3839  1.6032
 2639SOL     OW19378   0.668   2.807   3.474  0.6820 -0.5467 -0.4618
 2639SOL    HW119379   0.588   2.815   3.525 -0.0481  0.6261 -1.7924
 2639SOL    HW219380   0.640   2.848   3.392 -1.9308  0.7066  1.0773
 2640SOL     OW19381   3.775   1.940   1.696 -0.1584  0.5967  0.2955
 2640SOL    HW119382   3.837   2.005   1.729 -0.1979  1.2572 -0.9061
 2640SOL    HW219383   3.805   1.915   1.608 -2.0469  1.2888 -0.5662
 2641SOL     OW19384   2.513   2.344  16.823 -0.0432  0.0792 -1.0474
 2641SOL    HW119385   2.577   2.407  16.789  0.0617  1.4171  1.6783
 2641SOL    HW219386   2.443   2.401  16.857  2.1926  0.4669  2.8462
 2642SOL     OW19387   4.385   4.325   5.557  0.7409  0.2226  0.3338
 2642SOL    HW119388   4.441   4.355   5.485 -1.7644  0.3234 -1.5599
 2642SOL    HW219389   4.319   4.393   5.570  0.1606  0.1778 -2.3877
 2643SOL     OW19390   3.788   3.839  13.910 -0.2172 -0.4497  0.2809
 2643SOL    HW119391   3.694   3.858  13.900 -0.1215 -0.6542 -1.0438
 2643SOL    HW219392   3.829   3.885  13.837 -1.3908 -0.5979 -0.4805
 2644SOL     OW19393   3.834   1.849  12.796 -0.6234  0.2172  0.3297
 2644SOL    HW119394   3.907   1.873  12.854  2.2377 -3.6154 -1.7168
 2644SOL    HW219395   3.786   1.931  12.783 -0.1895  0.9977  3.6500
 2645SOL     OW19396   1.192   4.113   2.302  0.3448 -0.0089  0.2516
 2645SOL    HW119397   1.189   4.025   2.338 -2.4805 -0.0740 -0.1126
 2645SOL    HW219398   1.203   4.099   2.208 -2.3106  1.0833 -0.2513
 2646SOL     OW19399   4.434   1.976   3.329 -0.5787 -0.1854 -0.0522
 2646SOL    HW119400   4.526   1.993   3.310  0.1277 -1.9949  1.7314
 2646SOL    HW219401   4.393   2.038   3.269  3.2813  2.4810  0.0735
 2647SOL     OW19402   0.176   0.738   8.453  0.1169  0.4785  0.3159
 2647SOL    HW119403   0.208   0.827   8.439  0.3192  0.2917 -0.4299
 2647SOL    HW219404   0.083   0.758   8.441  0.1328  1.9878  2.7891
 2648SOL     OW19405   1.975   0.546  14.929  0.1642 -0.2000  0.3151
 2648SOL    HW119406   1.914   0.554  15.003  1.1717 -1.2270  1.2582
 2648SOL    HW219407   1.908   0.535  14.862 -0.8008  2.1652  0.9082
 2649SOL     OW19408   2.956   1.507  11.425  0.0904  0.3268  0.0346
 2649SOL    HW119409   3.017   1.535  11.493 -0.1789 -0.1978  0.4890
 2649SOL    HW219410   2.871   1.538  11.455 -0.7858 -2.3370  0.2435
 2650SOL     OW19411   0.248   0.267  17.400 -0.5670  0.4899 -0.4248
 2650SOL    HW119412   0.332   0.231  17.429 -0.4682 -0.6013 -2.1080
 2650SOL    HW219413   0.201   0.195  17.359  1.2929 -0.6730 -0.5062
 2651SOL     OW19414   1.008   0.346   3.407  0.1274 -0.3960 -0.6547
 2651SOL    HW119415   1.016   0.279   3.340  1.0773 -0.1671 -0.7678
 2651SOL    HW219416   0.925   0.315   3.444  0.5022 -1.5473 -0.7564
 2652SOL     OW19417   4.034   0.300   3.984 -0.2477  0.1883 -0.1017
 2652SOL    HW119418   3.965   0.326   3.923 -0.9764 -2.2081 -0.3179
 2652SOL    HW219419   4.075   0.230   3.932 -1.3313 -0.6387  0.1366
 2653SOL     OW19420   0.777   1.761  12.739  0.2118 -0.0574 -0.5190
 2653SOL    HW119421   0.794   1.765  12.833 -2.9945 -1.1617  0.0902
 2653SOL    HW219422   0.835   1.689  12.712  0.0060 -0.3276 -0.2411
 2654SOL     OW19423   3.318   0.913   7.491  0.7340 -0.3709 -0.3798
 2654SOL    HW119424   3.231   0.953   7.502  0.1543 -1.3104 -1.5470
 2654SOL    HW219425   3.303   0.887   7.400 -0.6753 -0.3917 -0.1534
 2655SOL     OW19426   0.196   0.358   8.675 -0.0280  0.0668 -0.6296
 2655SOL    HW119427   0.102   0.373   8.678  0.3178  1.8465  1.6056
 2655SOL    HW219428   0.205   0.276   8.725 -1.9544  0.7565  0.8419
 2656SOL     OW19429   4.527   0.724   7.687  0.1264 -0.2670  0.1058
 2656SOL    HW119430   4.472   0.729   7.765 -0.1855 -0.2518 -0.1155
 2656SOL    HW219431   4.595   0.665   7.719 -0.9161  0.4704  3.6278
 2657SOL     OW19432   2.958   0.865   6.825  0.0982  0.1665  0.0575
 2657SOL    HW119433   2.915   0.826   6.749  1.2210  0.0039 -0.4933
 2657SOL    HW219434   3.031   0.900   6.774  0.0148 -0.4889 -0.5033
 2658SOL     OW19435   1.608   4.183   4.737 -0.4879  0.0796  0.8297
 2658SOL    HW119436   1.589   4.272   4.766  1.7407  1.2421 -1.3182
 2658SOL    HW219437   1.559   4.175   4.655  3.0869 -0.0860 -1.2775
 2659SOL     OW19438   3.996   3.341  11.765 -0.5125 -0.0362  0.0786
 2659SOL    HW119439   4.068   3.298  11.718 -0.5001  1.2998 -1.1062
 2659SOL    HW219440   4.040   3.404  11.822 -1.1158  0.5085 -0.0576
 2660SOL     OW19441   3.404   3.950   2.149 -0.1925  0.1588  0.0576
 2660SOL    HW119442   3.310   3.966   2.158 -0.6234 -1.1096 -2.2662
 2660SOL    HW219443   3.412   3.893   2.073 -0.4059 -0.9441  0.8675
 2661SOL     OW19444   1.312   1.009   0.423 -0.3231  0.4346 -0.0645
 2661SOL    HW119445   1.303   1.050   0.337  1.1953 -3.9109 -2.2684
 2661SOL    HW219446   1.232   0.958   0.439  0.0178  0.5479  2.0866
 2662SOL     OW19447   3.171   0.565   8.891 -0.0063 -0.3378  0.1972
 2662SOL    HW119448   3.105   0.633   8.878  0.6589  0.5630  1.5568
 2662SOL    HW219449   3.116   0.488   8.909  0.2792 -0.3775  0.9074
 2663SOL     OW19450   2.180   3.123   3.468  0.1106 -0.0968 -0.0539
 2663SOL    HW119451   2.096   3.114   3.513  0.1288 -0.1087 -0.0222
 2663SOL    HW219452   2.176   3.049   3.408 -0.9842  0.0632 -0.1867
 2664SOL     OW19453   4.067   1.218   2.473 -0.1399 -0.3221  0.1502
 2664SOL    HW119454   4.133   1.274   2.515  0.2775 -2.4251  2.3544
 2664SOL    HW219455   4.054   1.284   2.405 -0.3871  0.4162  0.9231
 2665SOL     OW19456   1.431   2.328  17.204 -0.2531 -0.3781 -0.3707
 2665SOL    HW119457   1.348   2.280  17.205 -0.4688  0.0394  0.9499
 2665SOL    HW219458   1.451   2.325  17.297 -1.4536 -2.1030 -0.1737
 2666SOL     OW19459   3.094   3.096   7.509  0.1642  0.8463 -0.8719
 2666SOL    HW119460   3.122   3.188   7.519 -0.8171  0.9644  0.8791
 2666SOL    HW219461   3.169   3.059   7.463  0.5729  1.6833 -0.8904
 2667SOL     OW19462   1.935   4.075   8.327  0.7991  0.5377 -0.0585
 2667SOL    HW119463   2.004   4.039   8.272  0.5535  2.5740 -1.6990
 2667SOL    HW219464   1.988   4.132   8.383  0.3673  0.5194  0.3744
 2668SOL     OW19465   3.281   3.644   5.007  0.0355 -0.1163 -0.6893
 2668SOL    HW119466   3.235   3.680   4.931  0.4190 -0.8147 -1.2430
 2668SOL    HW219467   3.360   3.693   5.027 -0.6561  0.7924 -0.1793
 2669SOL     OW19468   4.591   2.829  16.764  0.3796  0.2733  0.0600
 2669SOL    HW119469   4.610   2.762  16.830 -1.1001  0.3238  0.5483
 2669SOL    HW219470   4.569   2.905  16.818 -1.4573 -0.1794 -0.0457
 2670SOL     OW19471   3.707   0.828   4.139 -0.8961 -0.2351 -0.0351
 2670SOL    HW119472   3.725   0.918   4.112  3.3521 -2.0574 -3.2675
 2670SOL    HW219473   3.639   0.846   4.205 -0.1065  1.9256  0.1719
 2671SOL     OW19474   1.359   0.677  13.541  0.0237  0.3135 -0.0591
 2671SOL    HW119475   1.326   0.610  13.481 -0.0619  0.7491 -0.5097
 2671SOL    HW219476   1.419   0.722  13.482  0.9160  0.4262  0.9445
 2672SOL     OW19477   3.793   0.454   1.780  0.3499 -0.7051 -0.3868
 2672SOL    HW119478   3.874   0.499   1.755  0.6722 -1.5337 -0.8730
 2672SOL    HW219479   3.817   0.366   1.811 -0.4248 -1.3396 -1.5718
 2673SOL     OW19480   0.849   0.925   3.400 -0.2794 -0.5455 -0.2867
 2673SOL    HW119481   0.853   0.981   3.323  1.5683 -1.7903 -1.0828
 2673SOL    HW219482   0.860   0.840   3.357  0.7535 -1.2724  1.3951
 2674SOL     OW19483   3.288   0.208   5.793 -0.3100 -0.7905 -0.5511
 2674SOL    HW119484   3.194   0.209   5.811  0.4946 -1.2783  3.5484
 2674SOL    HW219485   3.286   0.187   5.699 -0.9804 -0.3473 -0.6331
 2675SOL     OW19486   0.558   0.607   1.773 -0.6852 -0.1291 -0.1502
 2675SOL    HW119487   0.645   0.636   1.799 -1.4147  0.7241  1.3247
 2675SOL    HW219488   0.503   0.633   1.847 -1.1951 -0.6949 -0.3304
 2676SOL     OW19489   3.674   4.707   9.798 -0.4788 -0.0165 -0.3305
 2676SOL    HW119490   3.584   4.700   9.766 -1.4670 -1.6525  2.7825
 2676SOL    HW219491   3.722   4.659   9.731  1.8878  0.5759  0.9685
 2677SOL     OW19492   3.827   0.785   9.516 -0.3320  0.1899 -0.2393
 2677SOL    HW119493   3.739   0.822   9.508  0.5742  2.6341  1.1543
 2677SOL    HW219494   3.850   0.758   9.427 -0.4271  1.3866 -0.6342
 2678SOL     OW19495   0.843   0.783   0.142  0.2648  0.6005 -0.3724
 2678SOL    HW119496   0.850   0.859   0.084 -0.9665 -0.1924 -1.5968
 2678SOL    HW219497   0.843   0.829   0.226 -1.7554  2.6713 -1.4974
 2679SOL     OW19498   0.132   0.751  14.765  0.4027 -1.0046  0.0893
 2679SOL    HW119499   0.106   0.743  14.673  2.9062 -1.5488 -0.5701
 2679SOL    HW219500   0.164   0.840  14.778 -1.4434 -0.1295 -1.3479
 2680SOL     OW19501   1.233   2.648  10.880 -0.3363  0.1460  0.2406
 2680SOL    HW119502   1.280   2.667  10.962 -0.5300  2.8780 -0.2749
 2680SOL    HW219503   1.159   2.706  10.895  2.0415  2.8930  1.4280
 2681SOL     OW19504   4.148   3.897   7.838  0.1178  1.2475 -0.1407
 2681SOL    HW119505   4.225   3.947   7.864  0.0429  0.3061  1.8770
 2681SOL    HW219506   4.084   3.930   7.902 -1.3994 -0.6283 -0.6994
 2682SOL     OW19507   3.167   1.305   3.012  0.6172  0.0246  0.6042
 2682SOL    HW119508   3.164   1.392   2.972  2.9400 -1.2221 -2.2818
 2682SOL    HW219509   3.263   1.298   3.004  0.4509 -1.2005 -0.3184
 2683SOL     OW19510   3.117   0.896  10.363 -0.3391  0.7706 -0.4852
 2683SOL    HW119511   3.109   0.902  10.459 -1.1021 -0.2359 -0.4897
 2683SOL    HW219512   3.179   0.824  10.359 -1.8754 -0.5402 -0.4194
 2684SOL     OW19513   2.484   3.682   0.464  0.0380 -0.3138 -0.7746
 2684SOL    HW119514   2.408   3.671   0.406 -1.6001  1.9374  0.9543
 2684SOL    HW219515   2.555   3.660   0.403  1.8714  2.4401  0.4010
 2685SOL     OW19516   4.614   1.480   3.244 -0.0693 -0.0981  0.4191
 2685SOL    HW119517   4.537   1.505   3.193  0.5078  2.9930  1.0766
 2685SOL    HW219518   4.675   1.440   3.182  0.2665  1.4431 -0.2408
 2686SOL     OW19519   0.316   0.567   3.103  0.2016  0.2380 -0.3411
 2686SOL    HW119520   0.375   0.641   3.118 -0.1777  0.2892  0.8833
 2686SOL    HW219521   0.311   0.567   3.007  2.0340 -1.1998 -0.4505
 2687SOL     OW19522   1.556   0.608   3.976  0.5346 -0.0369 -0.3655
 2687SOL    HW119523   1.638   0.565   4.000 -0.2502 -0.7780  0.9703
 2687SOL    HW219524   1.491   0.548   4.013  0.7419  1.0749  1.7746
 2688SOL     OW19525   3.581   2.372  13.402  0.1607  0.1692  0.0112
 2688SOL    HW119526   3.608   2.398  13.314 -0.9801  1.0890 -0.0821
 2688SOL    HW219527   3.539   2.289  13.382  0.4536 -0.2709  1.2397
 2689SOL     OW19528   4.260   0.245   7.824 -0.2051  0.1020  0.4614
 2689SOL    HW119529   4.332   0.237   7.886  0.7180 -2.2233 -0.8948
 2689SOL    HW219530   4.209   0.303   7.881  0.1215  0.0416  0.8173
 2690SOL     OW19531   2.351   1.002   2.788 -0.3674 -0.2141  0.3433
 2690SOL    HW119532   2.308   1.017   2.703  0.5112  0.6055  0.0452
 2690SOL    HW219533   2.399   1.084   2.794 -0.0823 -0.4315  0.9921
 2691SOL     OW19534   0.948   4.541   4.848 -0.2631  0.1608  0.0336
 2691SOL    HW119535   0.920   4.563   4.937 -1.1840  0.5734 -0.3730
 2691SOL    HW219536   0.877   4.496   4.803 -0.3956 -1.7824  2.1660
 2692SOL     OW19537   2.397   4.600   3.347  0.3377  0.2140  0.3390
 2692SOL    HW119538   2.383   4.511   3.315 -2.1606  0.2052  1.4250
 2692SOL    HW219539   2.316   4.604   3.398  0.7961  0.7283  1.0312
 2693SOL     OW19540   2.080   3.463   3.983 -0.0009  0.0027  0.3167
 2693SOL    HW119541   2.091   3.466   3.888  0.6121 -1.5117  0.3402
 2693SOL    HW219542   2.017   3.535   3.994  0.5525  0.5427 -0.1123
 2694SOL     OW19543   0.566   2.742   9.799  0.2012 -0.2627 -0.1807
 2694SOL    HW119544   0.571   2.667   9.740  2.7466  1.7996 -2.5574
 2694SOL    HW219545   0.588   2.704   9.884  1.1837 -1.5904 -1.0410
 2695SOL     OW19546   2.646   2.561  12.000 -0.1207  0.2535 -0.3545
 2695SOL    HW119547   2.692   2.556  12.084 -0.5686 -1.3327 -0.2010
 2695SOL    HW219548   2.572   2.615  12.027  1.6953  1.4873  2.1436
 2696SOL     OW19549   4.570   1.002   7.268  0.3288 -0.6906 -0.4802
 2696SOL    HW119550   4.479   0.981   7.246 -1.2392  2.4258  2.8965
 2696SOL    HW219551   4.581   1.073   7.205 -2.3165 -1.1295 -1.4302
 2697SOL     OW19552   0.811   0.076   8.267  0.6192 -0.3418  0.0219
 2697SOL    HW119553   0.740   0.089   8.330 -0.6199  1.6456 -1.7739
 2697SOL    HW219554   0.777   0.148   8.214  0.2508  0.5027  1.4049
 2698SOL     OW19555   2.016   2.685   3.478  0.3352  0.2363  0.1091
 2698SOL    HW119556   1.999   2.603   3.432 -0.3408  1.9199 -2.6814
 2698SOL    HW219557   1.930   2.720   3.453 -0.0123 -0.9319 -0.3437
 2699SOL     OW19558   3.107   1.114   7.466 -0.3573 -0.0160 -0.0957
 2699SOL    HW119559   3.016   1.141   7.475 -0.5503 -0.7180  0.1069
 2699SOL    HW219560   3.084   1.024   7.440 -0.5073 -0.0446  0.1373
 2700SOL     OW19561   3.519   0.633   1.538  0.1400 -0.3657 -0.0024
 2700SOL    HW119562   3.479   0.551   1.569  2.0657 -1.1385  0.4381
 2700SOL    HW219563   3.608   0.598   1.531  1.0362  2.1745 -1.1540
 2701SOL     OW19564   4.121   4.116   8.986  0.3774  0.3656 -0.0991
 2701SOL    HW119565   4.159   4.202   8.970  1.1294  0.2093  0.8876
 2701SOL    HW219566   4.137   4.109   9.080 -1.0579  0.6390  0.1781
 2702SOL     OW19567   3.452   1.656   4.690  0.5267  0.0219  1.0237
 2702SOL    HW119568   3.363   1.679   4.714  0.8947  1.4065  1.0382
 2702SOL    HW219569   3.461   1.562   4.704  0.6765 -0.5476 -2.8060
 2703SOL     OW19570   3.439   0.038  15.805  0.2468 -0.0398  0.6895
 2703SOL    HW119571   3.357   0.001  15.836 -0.5258 -0.4377 -1.7832
 2703SOL    HW219572   3.426   0.128  15.775  0.7065  0.0400  0.7308
 2704SOL     OW19573   1.491   3.446   0.344  0.7364  0.7824  0.3112
 2704SOL    HW119574   1.470   3.353   0.334  0.3553  0.7887  1.0357
 2704SOL    HW219575   1.403   3.482   0.359 -0.2272 -0.2148 -2.8154
 2705SOL     OW19576   2.109   3.450   3.719 -0.6373 -0.1277  0.1640
 2705SOL    HW119577   2.162   3.406   3.651 -1.1493  0.0529 -0.3482
 2705SOL    HW219578   2.121   3.540   3.690  1.5273 -0.2451  0.6828
 2706SOL     OW19579   2.189   1.588   8.601 -0.1594  0.0895  0.0843
 2706SOL    HW119580   2.229   1.632   8.526  1.2109 -0.3931  0.5333
 2706SOL    HW219581   2.116   1.649   8.607 -0.7786 -0.5480 -1.0332
 2707SOL     OW19582   3.362   2.575   2.748 -0.2280 -0.1423  0.2086
 2707SOL    HW119583   3.430   2.606   2.807  0.0031 -1.9033  0.8750
 2707SOL    HW219584   3.417   2.529   2.684 -0.1713 -1.3976  1.1486
 2708SOL     OW19585   0.957   3.537   7.081  0.3485 -0.0305 -0.0714
 2708SOL    HW119586   0.892   3.467   7.085  1.2249 -0.8512  0.0083
 2708SOL    HW219587   0.929   3.602   7.145 -0.8684 -1.6976  1.0803
 2709SOL     OW19588   3.687   0.512   6.884  0.9410 -0.1127  0.0980
 2709SOL    HW119589   3.710   0.419   6.887  0.3077 -0.2821 -0.2988
 2709SOL    HW219590   3.775   0.550   6.875  1.2987 -0.8320  0.5265
 2710SOL     OW19591   2.710   1.148   2.568 -0.7329  0.1345  0.1514
 2710SOL    HW119592   2.635   1.167   2.625 -0.1258  0.2953  0.9002
 2710SOL    HW219593   2.717   1.236   2.531 -0.5264  0.2754  0.5223
 2711SOL     OW19594   0.123   2.883   5.102 -0.0968  0.5710 -0.4706
 2711SOL    HW119595   0.193   2.822   5.124 -0.1330  0.1117 -1.5861
 2711SOL    HW219596   0.053   2.818   5.100  1.4959 -1.1963  2.0231
 2712SOL     OW19597   1.246   0.550   0.855 -0.1129 -0.9766 -0.1984
 2712SOL    HW119598   1.245   0.618   0.923 -0.2879 -0.1733 -1.0056
 2712SOL    HW219599   1.299   0.488   0.906  1.7252  2.1316  1.6451
 2713SOL     OW19600   3.752   3.402  12.710  0.6178 -0.3205 -0.8098
 2713SOL    HW119601   3.794   3.394  12.796 -0.8983 -0.2713 -0.0621
 2713SOL    HW219602   3.812   3.438  12.645  0.6317 -0.6343 -0.9709
 2714SOL     OW19603   3.039   2.622  12.109 -0.3233 -0.6928 -0.5968
 2714SOL    HW119604   2.949   2.608  12.137 -0.0490 -0.5557  0.3397
 2714SOL    HW219605   3.048   2.555  12.041 -1.5899  3.0843 -4.4782
 2715SOL     OW19606   2.838   1.089   1.437 -0.5780  0.1390 -0.7349
 2715SOL    HW119607   2.854   1.183   1.451  3.2902 -0.5202 -0.8013
 2715SOL    HW219608   2.840   1.080   1.341 -2.2835 -2.3003 -0.5442
 2716SOL     OW19609   3.053   3.536   5.472 -0.4368 -0.6799 -0.5033
 2716SOL    HW119610   3.059   3.618   5.521  1.6180 -2.4472  2.1710
 2716SOL    HW219611   3.045   3.474   5.544  0.6634  0.2742  0.4372
 2717SOL     OW19612   1.993   0.283   3.396  0.1705 -0.0282 -0.3352
 2717SOL    HW119613   1.965   0.244   3.313 -2.1906 -1.5985  1.1898
 2717SOL    HW219614   1.931   0.356   3.400  0.7595  0.4516 -0.0863
 2718SOL     OW19615   0.497   3.188   3.614  0.3204 -0.1987 -0.0247
 2718SOL    HW119616   0.418   3.134   3.608  0.3799 -0.2497 -0.3419
 2718SOL    HW219617   0.472   3.262   3.670 -0.2590 -1.1390  0.9636
 2719SOL     OW19618   2.696   2.388   3.535 -0.3380 -0.3841  0.4362
 2719SOL    HW119619   2.679   2.482   3.525 -1.6057 -0.6615 -0.0383
 2719SOL    HW219620   2.615   2.369   3.583  0.4404  3.7959  3.4724
 2720SOL     OW19621   3.300   4.186   4.772 -0.5105 -0.4886 -0.4611
 2720SOL    HW119622   3.344   4.232   4.843  0.4317 -0.0158 -1.3457
 2720SOL    HW219623   3.300   4.257   4.708 -1.6025 -0.4349 -0.3983
 2721SOL     OW19624   2.241   1.336   2.656  0.7722 -0.0953  0.4015
 2721SOL    HW119625   2.215   1.426   2.676 -1.9859 -0.7633 -0.2045
 2721SOL    HW219626   2.320   1.343   2.603  1.5888  0.4313  1.7168
 2722SOL     OW19627   3.865   0.655   9.245  0.2748  0.4120 -0.7682
 2722SOL    HW119628   3.862   0.696   9.159  0.8840  1.0655 -0.4801
 2722SOL    HW219629   3.945   0.602   9.239 -0.0511 -0.4480  2.6415
 2723SOL     OW19630   3.007   4.169  14.916  0.3738 -0.0226 -0.0437
 2723SOL    HW119631   2.961   4.220  14.982  0.0608  1.2572 -1.2640
 2723SOL    HW219632   2.948   4.195  14.846  1.7931  0.3458 -1.1213
 2724SOL     OW19633   3.493   2.297  10.658 -0.1365 -0.1121  0.3051
 2724SOL    HW119634   3.570   2.350  10.680 -1.2724  1.2879  0.9723
 2724SOL    HW219635   3.422   2.341  10.705  0.9307  0.6276  1.2395
 2725SOL     OW19636   2.029   1.904   8.013  0.5498 -0.6414 -0.3414
 2725SOL    HW119637   1.981   1.851   8.076  1.1507  2.9277  3.1334
 2725SOL    HW219638   1.962   1.972   8.002 -0.7916 -1.6070  1.8715
 2726SOL     OW19639   0.545   1.033   4.646 -0.0960 -0.1054 -0.0309
 2726SOL    HW119640   0.557   0.938   4.634  0.4991 -0.3617  2.4833
 2726SOL    HW219641   0.524   1.061   4.558  0.9628  0.4953 -0.0859
 2727SOL     OW19642   0.063   4.158  15.027 -0.2790  0.0066 -0.2073
 2727SOL    HW119643   4.695   4.129  15.024 -0.8408  1.6644  1.1083
 2727SOL    HW219644   0.098   4.080  14.983 -1.5325 -2.3000  2.8054
 2728SOL     OW19645   2.724   2.176  14.682 -0.8121 -0.1600 -0.3658
 2728SOL    HW119646   2.793   2.161  14.618 -0.1196 -0.2576  0.3998
 2728SOL    HW219647   2.725   2.271  14.673 -1.9502 -0.1767 -0.6019
 2729SOL     OW19648   3.073   2.562  11.120 -0.2672  0.4787  0.2706
 2729SOL    HW119649   3.151   2.584  11.068  0.0189  0.8721  0.8653
 2729SOL    HW219650   3.034   2.647  11.139  1.4163  1.3516 -0.1326
 2730SOL     OW19651   2.035   4.382   5.497 -0.3088 -0.3493  0.0219
 2730SOL    HW119652   2.130   4.385   5.515 -0.5428  2.5630  0.8502
 2730SOL    HW219653   2.036   4.398   5.403  1.7515 -1.2014 -0.1137
 2731SOL     OW19654   2.782   0.674  14.472 -0.2217 -0.2642 -0.0377
 2731SOL    HW119655   2.699   0.628  14.466 -1.1221  1.1978  1.3134
 2731SOL    HW219656   2.777   0.713  14.559  1.2767  0.6358 -0.3611
 2732SOL     OW19657   0.889   3.945  15.478 -0.2283  0.4252  0.0823
 2732SOL    HW119658   0.822   4.001  15.438 -0.5224  1.9537  2.7431
 2732SOL    HW219659   0.851   3.926  15.564 -3.0417 -1.5181 -1.5787
 2733SOL     OW19660   3.809   2.359   9.891 -0.4010 -0.2907 -0.7614
 2733SOL    HW119661   3.793   2.354   9.985  2.9237 -4.0434 -0.3664
 2733SOL    HW219662   3.854   2.276   9.876  0.2488 -0.0814  0.0233
 2734SOL     OW19663   3.454   4.599   6.596  0.3313  0.0739  0.0405
 2734SOL    HW119664   3.527   4.548   6.562  1.9677  1.4813  1.4879
 2734SOL    HW219665   3.418   4.528   6.649  0.2469  1.9178  2.4517
 2735SOL     OW19666   2.499   4.470  12.688 -0.2267  0.1750 -0.1074
 2735SOL    HW119667   2.547   4.398  12.649 -0.4525 -0.1043  0.1270
 2735SOL    HW219668   2.420   4.421  12.710 -1.0636  0.7468 -1.8958
 2736SOL     OW19669   1.061   4.364   8.597 -0.1320 -0.2699 -0.8274
 2736SOL    HW119670   1.111   4.291   8.633 -1.9504 -0.6692  0.9416
 2736SOL    HW219671   1.033   4.330   8.512 -0.6703 -0.1279 -0.7066
 2737SOL     OW19672   1.566   3.082   8.915  0.7426  0.2922  0.1670
 2737SOL    HW119673   1.485   3.111   8.874  1.1876  1.6044  0.2196
 2737SOL    HW219674   1.543   3.003   8.965  0.7562  0.7754  0.9484
 2738SOL     OW19675   0.148   3.693   8.050 -0.3007  0.2231 -0.1352
 2738SOL    HW119676   0.086   3.636   8.096  0.7099 -0.2550  0.6306
 2738SOL    HW219677   0.228   3.641   8.046  0.6665  1.7906 -1.4110
 2739SOL     OW19678   3.894   1.206   7.814  0.1688  0.3818  0.0209
 2739SOL    HW119679   3.912   1.118   7.847 -1.1444  0.4753  1.0082
 2739SOL    HW219680   3.864   1.194   7.724  0.8883  0.7606 -0.2712
 2740SOL     OW19681   1.579   1.933   0.312 -0.5771 -0.6693  0.4588
 2740SOL    HW119682   1.498   1.887   0.289 -0.0827  0.0855 -2.8167
 2740SOL    HW219683   1.541   2.021   0.315  1.0270  0.0510 -0.4655
 2741SOL     OW19684   2.540   2.748  10.928 -0.5096 -0.3857  0.2675
 2741SOL    HW119685   2.448   2.726  10.914 -0.5340 -1.0765  1.5412
 2741SOL    HW219686   2.543   2.824  10.986 -2.2296 -1.4133  1.7349
 2742SOL     OW19687   4.178   3.064   8.165  0.1831  0.4403  0.2216
 2742SOL    HW119688   4.088   3.083   8.192  0.2038 -2.5748  2.4310
 2742SOL    HW219689   4.196   3.151   8.130  0.9396 -1.2415 -3.6110
 2743SOL     OW19690   2.437   3.306   2.581 -0.2646 -0.0840  0.5182
 2743SOL    HW119691   2.442   3.305   2.677  0.4123 -0.6282  0.4760
 2743SOL    HW219692   2.432   3.214   2.556 -3.1248 -0.1989  1.5050
 2744SOL     OW19693   1.636   3.910  16.876  0.0635  0.9000  0.3024
 2744SOL    HW119694   1.551   3.946  16.901 -0.3855 -0.3931  0.6545
 2744SOL    HW219695   1.678   3.915  16.962  0.3099  1.6027  0.1363
 2745SOL     OW19696   4.102   2.925   9.757 -0.1479 -0.0693 -0.0602
 2745SOL    HW119697   4.185   2.968   9.779 -1.3168  1.7608  0.7929
 2745SOL    HW219698   4.114   2.917   9.662  2.2363 -1.9355  0.3701
 2746SOL     OW19699   2.312   3.926   3.468 -0.3346  1.0236 -0.2341
 2746SOL    HW119700   2.351   3.932   3.555  2.8120  2.2090 -1.7325
 2746SOL    HW219701   2.275   3.840   3.447  1.3409  0.1622  0.3419
 2747SOL     OW19702   3.028   0.884   6.343 -0.6065  0.3503 -0.0828
 2747SOL    HW119703   3.123   0.874   6.351 -0.3604  2.4579 -0.2965
 2747SOL    HW219704   2.996   0.928   6.422  1.8962 -0.6949  1.5101
 2748SOL     OW19705   3.129   1.925  11.119 -0.2270  0.2925 -0.0268
 2748SOL    HW119706   3.133   2.020  11.126 -2.7298  0.3505  0.5771
 2748SOL    HW219707   3.098   1.893  11.203  1.0059 -0.1161  0.2748
 2749SOL     OW19708   2.513   3.649  13.830  0.2622 -0.7195  0.5204
 2749SOL    HW119709   2.426   3.650  13.870  0.1912  0.2851  0.3324
 2749SOL    HW219710   2.501   3.729  13.780  1.2132  0.3638  2.0335
 2750SOL     OW19711   3.331   3.174   9.383  0.5480  0.5720  0.8682
 2750SOL    HW119712   3.312   3.265   9.358  3.1308  0.5969 -1.0041
 2750SOL    HW219713   3.242   3.140   9.373  1.1582 -0.4385 -1.2116
 2751SOL     OW19714   2.727   4.102  16.385  0.2450 -0.1131 -0.2845
 2751SOL    HW119715   2.698   4.151  16.308  2.0575 -0.2655 -1.0826
 2751SOL    HW219716   2.664   4.124  16.453  0.1446 -2.2932  0.3430
 2752SOL     OW19717   1.360   4.114   6.301 -0.4771  0.2424 -0.3101
 2752SOL    HW119718   1.421   4.053   6.259  0.2580  2.5722 -2.6064
 2752SOL    HW219719   1.381   4.117   6.394 -0.6956 -0.4351 -0.2376
 2753SOL     OW19720   2.016   2.885   5.352  0.3191 -0.0186  0.3785
 2753SOL    HW119721   2.045   2.838   5.274 -0.0180 -0.8708  0.7598
 2753SOL    HW219722   2.065   2.967   5.342  2.2748 -1.3216 -0.9152
 2754SOL     OW19723   2.269   1.905   0.484 -0.2334  0.0307 -0.0811
 2754SOL    HW119724   2.333   1.844   0.523  0.2203 -1.2671 -2.8116
 2754SOL    HW219725   2.299   1.980   0.535 -2.4827  0.0320  1.2446
 2755SOL     OW19726   3.641   3.817   1.090 -0.2868  0.6118 -0.0879
 2755SOL    HW119727   3.654   3.789   1.181 -0.4914  2.0076  0.3708
 2755SOL    HW219728   3.727   3.818   1.048  0.2888  1.0105  1.1109
 2756SOL     OW19729   3.125   1.764  11.664 -0.3390  0.4505 -0.3004
 2756SOL    HW119730   3.151   1.723  11.746  0.0063  0.3954 -0.4378
 2756SOL    HW219731   3.211   1.799  11.640  0.1864  0.6687  1.8970
 2757SOL     OW19732   4.715   4.472  10.097  0.1733  0.1504 -0.0500
 2757SOL    HW119733   0.027   4.521  10.172  0.1841  0.0556  0.0072
 2757SOL    HW219734   4.622   4.488  10.112 -0.0533 -0.8186 -0.4390
 2758SOL     OW19735   1.801   0.364   0.502  0.1350  0.4799  0.4364
 2758SOL    HW119736   1.758   0.285   0.470 -0.3065  1.0481 -0.4015
 2758SOL    HW219737   1.864   0.327   0.563  0.1087  1.0808  0.8346
 2759SOL     OW19738   4.460   1.816   2.807  0.0242  0.2448 -0.0306
 2759SOL    HW119739   4.524   1.874   2.765  0.1558 -0.3806 -0.6997
 2759SOL    HW219740   4.519   1.753   2.849  1.9117  2.2123  0.3017
 2760SOL     OW19741   4.092   0.695   6.220 -0.5356 -0.0547  0.5143
 2760SOL    HW119742   4.166   0.637   6.235 -0.8935 -0.8006 -0.6075
 2760SOL    HW219743   4.120   0.730   6.135  2.2622  1.4788  2.0578
 2761SOL     OW19744   1.788   1.596  12.712 -0.0905  0.6076 -0.3845
 2761SOL    HW119745   1.859   1.616  12.651 -0.4009 -1.6176 -1.4937
 2761SOL    HW219746   1.730   1.550  12.650  1.4513  1.4505 -2.4463
 2762SOL     OW19747   3.009   4.111  12.636 -0.1415 -0.8784  0.9414
 2762SOL    HW119748   2.970   4.030  12.668 -0.1025 -1.6692 -1.0027
 2762SOL    HW219749   3.046   4.094  12.549  0.8081  2.1992  0.7364
 2763SOL     OW19750   1.191   2.665   8.620  0.3795  0.3777  0.1336
 2763SOL    HW119751   1.278   2.682   8.655  1.4124 -2.4023 -1.0559
 2763SOL    HW219752   1.208   2.598   8.553 -0.0630  2.2926 -1.9038
 2764SOL     OW19753   2.272   2.792   3.525 -0.0889 -0.1971  0.4998
 2764SOL    HW119754   2.280   2.838   3.442  1.7578  0.3552  0.9828
 2764SOL    HW219755   2.191   2.752   3.494  0.1766 -1.4121  1.3449
 2765SOL     OW19756   3.031   1.102   2.017  0.2806  0.1228  0.4036
 2765SOL    HW119757   2.974   1.122   1.943  2.3122 -0.1310 -1.2122
 2765SOL    HW219758   3.119   1.111   1.981  0.2572  0.3123  0.3940
 2766SOL     OW19759   3.897   2.073   2.905  0.0660 -0.4487 -0.2501
 2766SOL    HW119760   3.968   2.029   2.858 -0.6322 -1.4624 -0.3628
 2766SOL    HW219761   3.916   2.067   2.999 -0.0214  0.0599 -0.2008
 2767SOL     OW19762   2.956   1.112   2.951 -0.1245 -0.3370  0.0382
 2767SOL    HW119763   2.990   1.194   2.986  0.3566 -1.8393  3.1209
 2767SOL    HW219764   3.036   1.079   2.911  0.5091 -0.4582  1.4124
 2768SOL     OW19765   3.762   2.098  10.130 -0.3732 -0.1000 -0.0380
 2768SOL    HW119766   3.832   2.099  10.196 -1.4981  2.2280  1.1391
 2768SOL    HW219767   3.737   2.189  10.143 -3.8958 -1.2486  1.1998
 2769SOL     OW19768   3.746   2.644  15.608  0.2554 -0.0156  0.2535
 2769SOL    HW119769   3.666   2.597  15.634  0.7542 -0.3844  1.1162
 2769SOL    HW219770   3.817   2.595  15.650 -0.1951 -0.6540  0.2786
 2770SOL     OW19771   2.372   4.212   7.046  0.1291  0.1258 -0.1525
 2770SOL    HW119772   2.386   4.305   7.061  2.0762 -0.1050 -0.4789
 2770SOL    HW219773   2.444   4.174   7.096  0.5452  0.6127 -0.3767
 2771SOL     OW19774   0.811   3.355   3.056  0.2004 -0.6694  0.3913
 2771SOL    HW119775   0.782   3.445   3.068 -2.3696 -1.5096  0.4460
 2771SOL    HW219776   0.769   3.340   2.972  1.9031 -0.4252 -0.5105
 2772SOL     OW19777   2.658   2.806   5.986 -0.1759  0.4797 -0.4424
 2772SOL    HW119778   2.732   2.862   6.008 -2.1808  2.0155  2.2932
 2772SOL    HW219779   2.698   2.724   6.017 -0.9762  0.2899  0.0755
 2773SOL     OW19780   0.202   1.871  17.393  0.4515  0.6127 -0.7028
 2773SOL    HW119781   0.276   1.815  17.366  0.7617  1.9492 -2.6117
 2773SOL    HW219782   0.265   1.937  17.419  1.3570 -0.4594 -0.1743
 2774SOL     OW19783   1.526   3.251   6.016 -0.2522  0.0428  0.0469
 2774SOL    HW119784   1.532   3.166   5.972 -2.0191 -0.2689  0.4314
 2774SOL    HW219785   1.620   3.259   6.034 -0.0977 -0.7603 -0.3979
 2775SOL     OW19786   0.622   0.295   1.588 -0.1244 -0.0822 -0.1583
 2775SOL    HW119787   0.566   0.308   1.665 -1.5414  0.0713 -1.2073
 2775SOL    HW219788   0.712   0.296   1.621 -0.5354 -0.1929  0.9838
 2776SOL     OW19789   1.777   3.756   6.086 -0.4104 -0.1806  0.2462
 2776SOL    HW119790   1.842   3.819   6.057  0.1240  0.5293  2.9153
 2776SOL    HW219791   1.783   3.762   6.182  2.9859 -1.5418  0.1298
 2777SOL     OW19792   2.546   0.114   4.367 -0.0543  0.4948  0.0888
 2777SOL    HW119793   2.463   0.119   4.319  0.6188 -0.5195 -1.1969
 2777SOL    HW219794   2.565   0.206   4.385  1.5186  0.0324  0.8110
 2778SOL     OW19795   3.976   1.083   1.878  0.6621  0.0031  0.2182
 2778SOL    HW119796   3.915   1.156   1.889  1.3205  0.5293  0.4411
 2778SOL    HW219797   3.924   1.004   1.890  2.0159 -0.4444  3.0374
 2779SOL     OW19798   3.223   2.554   4.658  0.4014  0.2296 -0.2502
 2779SOL    HW119799   3.208   2.642   4.694 -0.7560  0.3999 -1.1735
 2779SOL    HW219800   3.132   2.537   4.634  0.6108  1.6520 -2.0145
 2780SOL     OW19801   1.327   2.914   1.686 -0.2437  0.4917  0.0575
 2780SOL    HW119802   1.245   2.870   1.706  0.0543 -0.3457 -0.5837
 2780SOL    HW219803   1.355   2.847   1.624 -2.5006  0.1263 -0.5720
 2781SOL     OW19804   0.099   2.148   2.976  0.0624  0.1032 -0.1466
 2781SOL    HW119805   0.070   2.236   2.999  0.6018  0.0268  0.8522
 2781SOL    HW219806   0.116   2.141   2.882  2.4611  0.1368  0.2722
 2782SOL     OW19807   1.205   0.729   1.061 -0.0570  0.1669 -0.5114
 2782SOL    HW119808   1.271   0.796   1.045 -0.7631  1.2320  1.0286
 2782SOL    HW219809   1.238   0.685   1.140  1.3958  2.1469 -0.0276
 2783SOL     OW19810   3.245   0.498  12.450 -0.2789  0.5193  0.2289
 2783SOL    HW119811   3.299   0.424  12.477 -2.0690 -0.2279  1.7339
 2783SOL    HW219812   3.293   0.575  12.480 -0.9021 -0.0391  2.6394
 2784SOL     OW19813   0.020   3.529   5.656 -0.4074 -0.2084  0.3550
 2784SOL    HW119814   4.657   3.494   5.632  0.6638 -2.4267 -0.2192
 2784SOL    HW219815   0.012   3.609   5.604 -2.1078  0.1885  1.2224
 2785SOL     OW19816   0.156   0.958   7.915 -0.4415  0.0182 -0.3470
 2785SOL    HW119817   0.128   0.997   7.833  1.9283  1.0524 -0.6807
 2785SOL    HW219818   0.252   0.961   7.909 -0.3643 -3.4695 -0.6495
 2786SOL     OW19819   1.628   1.178   7.506 -0.0989 -0.1443 -0.2405
 2786SOL    HW119820   1.533   1.168   7.508 -0.2657  0.9959 -2.2900
 2786SOL    HW219821   1.641   1.156   7.413 -0.7189  0.2393 -0.4159
 2787SOL     OW19822   2.453   3.237  10.830  0.2510 -0.2065  0.3923
 2787SOL    HW119823   2.398   3.308  10.798  2.5847  1.2923 -0.2741
 2787SOL    HW219824   2.438   3.259  10.922  1.0976  0.6911  0.3189
 2788SOL     OW19825   3.561   1.175   4.459 -0.1894 -0.2232  0.7662
 2788SOL    HW119826   3.491   1.185   4.395  1.3076 -0.4442 -0.9157
 2788SOL    HW219827   3.567   1.080   4.468  0.9794 -0.1432  0.8058
 2789SOL     OW19828   1.101   4.703  17.337 -0.1273 -0.5021  0.0677
 2789SOL    HW119829   1.180   0.015  17.378 -0.2771  0.1154 -0.1700
 2789SOL    HW219830   1.139   4.648  17.269  0.8007  0.7486 -0.4145
 2790SOL     OW19831   2.920   2.309  10.823 -0.1737 -0.5073 -0.5323
 2790SOL    HW119832   2.912   2.273  10.734  0.0142 -1.6930 -0.0680
 2790SOL    HW219833   2.921   2.401  10.798 -0.8957 -0.0992  0.9533
 2791SOL     OW19834   2.302   4.451   8.194 -0.3888 -0.4918  0.3584
 2791SOL    HW119835   2.373   4.500   8.235 -2.0155  2.2641 -0.1291
 2791SOL    HW219836   2.264   4.523   8.144 -0.7175 -0.8760  0.0498
 2792SOL     OW19837   2.944   4.547   4.030 -0.1434  0.4887  0.9402
 2792SOL    HW119838   2.916   4.504   4.110 -0.8167 -2.3054 -0.7980
 2792SOL    HW219839   2.995   4.473   3.997 -1.4075 -0.3750  0.9172
 2793SOL     OW19840   1.640   2.161   7.451 -0.2078 -0.1003  0.0716
 2793SOL    HW119841   1.600   2.174   7.537 -0.0710  1.4729 -0.0977
 2793SOL    HW219842   1.597   2.080   7.424  2.5371 -0.9998 -1.5974
 2794SOL     OW19843   4.090   2.353   6.907  0.4995  0.2509  0.2666
 2794SOL    HW119844   3.996   2.343   6.923 -0.1152  0.9031 -2.9877
 2794SOL    HW219845   4.105   2.267   6.868 -0.7005  1.0538 -1.9569
 2795SOL     OW19846   0.349   1.216  14.962  0.1735  0.5496 -0.5018
 2795SOL    HW119847   0.444   1.225  14.972  0.2468  0.0317 -0.7346
 2795SOL    HW219848   0.327   1.309  14.949  0.0989  0.5204 -0.5848
 2796SOL     OW19849   0.120   1.004   6.351  0.0093 -0.4798 -0.4118
 2796SOL    HW119850   0.112   1.035   6.441  0.1589 -1.1154 -0.1843
 2796SOL    HW219851   0.204   1.046   6.330 -1.6188  2.0080 -2.0776
 2797SOL     OW19852   3.965   0.022   7.331  0.1749  0.1079 -0.0443
 2797SOL    HW119853   3.994   0.099   7.378  0.7725 -0.4241  0.4539
 2797SOL    HW219854   4.004   0.041   7.245 -0.4844 -0.2221 -0.4211
 2798SOL     OW19855   1.446   3.703   5.369  0.1533  0.2371  0.9564
 2798SOL    HW119856   1.444   3.771   5.437  1.5374  2.4128 -1.1750
 2798SOL    HW219857   1.359   3.663   5.370  0.4297 -0.4761 -2.5925
 2799SOL     OW19858   1.000   3.036  13.358 -0.1018 -0.2606  0.3303
 2799SOL    HW119859   0.916   3.053  13.317 -0.6932 -0.1049  1.6292
 2799SOL    HW219860   1.040   3.123  13.371 -0.1480 -0.1233 -0.4419
 2800SOL     OW19861   3.282   3.611  12.666  0.5642  0.6067  0.0548
 2800SOL    HW119862   3.265   3.698  12.703 -1.4138  0.4261 -0.4425
 2800SOL    HW219863   3.378   3.612  12.665  0.5748 -0.2672  0.2352
 2801SOL     OW19864   3.947   0.392   9.532  0.4087 -0.1856  0.3592
 2801SOL    HW119865   3.878   0.344   9.578  0.2224 -0.5552 -0.3131
 2801SOL    HW219866   3.966   0.452   9.605 -0.1394 -1.0892  1.2511
 2802SOL     OW19867   0.623   2.623   5.559  0.1665 -0.1051 -0.1211
 2802SOL    HW119868   0.679   2.625   5.636  0.9175  0.6173 -0.6893
 2802SOL    HW219869   0.535   2.596   5.587 -0.1449  1.7393  0.6806
 2803SOL     OW19870   0.270   0.616   4.746 -0.0490  0.0212  0.5142
 2803SOL    HW119871   0.268   0.644   4.837  0.0511 -0.2975  0.6142
 2803SOL    HW219872   0.357   0.647   4.722 -0.8020 -0.0872 -2.4804
 2804SOL     OW19873   0.897   4.338  10.266  0.0603 -0.1798  0.1116
 2804SOL    HW119874   0.961   4.384  10.319 -1.7877  0.4195  1.8424
 2804SOL    HW219875   0.816   4.356  10.315 -1.1196 -0.1114 -1.8848
 2805SOL     OW19876   1.288   2.895  15.970  0.0871  0.5320  0.4741
 2805SOL    HW119877   1.331   2.874  15.887  1.5693  0.7513  1.1816
 2805SOL    HW219878   1.215   2.952  15.947  0.2049  0.6211  0.3187
 2806SOL     OW19879   2.243   1.016   0.211  0.3784 -0.2132  0.1298
 2806SOL    HW119880   2.244   0.933   0.259 -0.6047 -0.2823  0.0394
 2806SOL    HW219881   2.168   1.006   0.152 -0.1385  0.9297  0.6077
 2807SOL     OW19882   4.297   4.146   8.074  0.5574 -0.1668 -0.1907
 2807SOL    HW119883   4.345   4.160   8.155  0.7814  0.1660 -0.3817
 2807SOL    HW219884   4.302   4.051   8.064  1.3449 -0.3561  2.0065
 2808SOL     OW19885   3.874   0.399   6.188  0.1577 -0.0534  0.1727
 2808SOL    HW119886   3.913   0.398   6.101  0.8712 -0.8276  0.5032
 2808SOL    HW219887   3.792   0.355   6.169 -0.2614 -0.0988  2.0575
 2809SOL     OW19888   2.289   1.746   2.841 -0.2307  0.6870 -0.6934
 2809SOL    HW119889   2.327   1.818   2.790  2.4507  0.8716  1.5398
 2809SOL    HW219890   2.255   1.692   2.770  0.8942  0.0785 -0.7783
 2810SOL     OW19891   2.913   2.879   5.147  0.4005 -0.0333 -0.2974
 2810SOL    HW119892   2.849   2.949   5.157 -0.2315 -0.4386 -1.4500
 2810SOL    HW219893   2.850   2.813   5.118 -0.8647  0.3915  1.5063
 2811SOL     OW19894   0.095   0.863   0.599 -0.4998 -0.4359  0.2827
 2811SOL    HW119895   0.080   0.957   0.614 -0.3152 -0.1382 -1.3650
 2811SOL    HW219896   0.075   0.819   0.681 -0.7226  0.8546  0.9281
 2812SOL     OW19897   0.004   3.158  11.174 -0.4556  0.4380  0.2812
 2812SOL    HW119898   0.076   3.107  11.136  1.9862  1.9970  2.7710
 2812SOL    HW219899   0.055   3.195  11.246  0.3034 -0.7338  0.3451
 2813SOL     OW19900   3.831   3.088   4.290 -0.0847  0.4071  0.2270
 2813SOL    HW119901   3.886   3.165   4.275 -0.2908  0.6432  0.6805
 2813SOL    HW219902   3.756   3.126   4.243 -0.3984 -0.5074 -0.0199
 2814SOL     OW19903   4.643   3.378  13.876 -0.1909 -0.2546  0.3760
 2814SOL    HW119904   4.632   3.472  13.891  2.9788  0.1798 -0.2045
 2814SOL    HW219905   4.584   3.363  13.802 -0.3665 -1.4184  0.7531
 2815SOL     OW19906   2.683   1.908   9.542  0.6018  0.5093  0.5191
 2815SOL    HW119907   2.715   1.992   9.509  0.2280  0.2545 -0.4768
 2815SOL    HW219908   2.731   1.846   9.487  0.6126  0.2621  0.8041
 2816SOL     OW19909   2.178   1.951  10.285  0.3164  0.0227 -0.0429
 2816SOL    HW119910   2.138   2.012  10.347  1.6331  0.2676  0.5885
 2816SOL    HW219911   2.100   1.909  10.250  0.1993 -1.3999  1.9050
 2817SOL     OW19912   3.692   3.192  15.311  0.3057  0.2677  0.1631
 2817SOL    HW119913   3.705   3.278  15.351  0.3389  1.1907 -1.8331
 2817SOL    HW219914   3.612   3.204  15.260 -0.2728 -0.2422  0.9596
 2818SOL     OW19915   1.657   1.683   5.237  0.5595 -0.6163 -0.5337
 2818SOL    HW119916   1.677   1.625   5.164 -0.7829 -0.8895 -0.6707
 2818SOL    HW219917   1.695   1.631   5.309  1.4497  0.5313 -0.1802
 2819SOL     OW19918   3.511   4.722   4.134 -0.5136 -0.0962 -0.2933
 2819SOL    HW119919   3.516   0.094   4.122 -0.8889  0.0532  0.6882
 2819SOL    HW219920   3.537   4.692   4.047 -1.4602 -2.1309  0.1185
 2820SOL     OW19921   0.320   3.971   3.100  1.0213 -0.1465 -0.0888
 2820SOL    HW119922   0.322   3.937   3.010 -1.8202 -2.1780  0.6034
 2820SOL    HW219923   0.306   3.894   3.156 -0.6322 -0.3619 -0.8233
 2821SOL     OW19924   0.930   0.459   5.758 -0.0306 -0.3197  0.0507
 2821SOL    HW119925   0.936   0.364   5.761 -1.0898 -0.3905 -0.0889
 2821SOL    HW219926   1.018   0.475   5.792 -0.2624 -1.0772  1.0207
 2822SOL     OW19927   2.390   3.219  14.900  0.5605 -0.7988  0.5360
 2822SOL    HW119928   2.331   3.250  14.831 -1.3981  0.1913  2.6327
 2822SOL    HW219929   2.455   3.289  14.905 -0.4975  0.4431 -2.7659
 2823SOL     OW19930   1.727   4.184   7.690 -0.2665  0.3591  0.2479
 2823SOL    HW119931   1.728   4.277   7.714  0.1056  0.1779  0.9374
 2823SOL    HW219932   1.676   4.151   7.764 -1.3147 -0.5489 -0.8801
 2824SOL     OW19933   3.516   3.725   2.359  0.0831 -0.2707 -0.1729
 2824SOL    HW119934   3.497   3.788   2.289 -0.6967  0.0675  0.3496
 2824SOL    HW219935   3.608   3.698   2.352  0.1990 -0.3768  1.8445
 2825SOL     OW19936   4.201   3.846   2.705  0.0687  0.7385  0.0618
 2825SOL    HW119937   4.148   3.908   2.755 -2.8513 -0.3836 -1.5828
 2825SOL    HW219938   4.172   3.861   2.615  3.6413  2.2273 -0.8415
 2826SOL     OW19939   4.011   3.143   9.890 -0.0009 -0.8934 -0.0104
 2826SOL    HW119940   3.966   3.091   9.957  0.0590  0.6192  1.2126
 2826SOL    HW219941   4.036   3.079   9.823  1.7343  0.6504 -0.8309
 2827SOL     OW19942   1.469   2.029   4.390 -0.0555 -0.1604 -0.6179
 2827SOL    HW119943   1.467   1.934   4.381  0.7226 -0.0687 -1.7256
 2827SOL    HW219944   1.564   2.043   4.398  0.0488 -0.7958 -0.7320
 2828SOL     OW19945   3.204   3.828   3.145  0.3616  0.1340  0.0669
 2828SOL    HW119946   3.250   3.791   3.070  0.2363  0.4174 -0.1500
 2828SOL    HW219947   3.168   3.910   3.112  1.0004 -0.4188 -1.9669
 2829SOL     OW19948   1.879   0.152   3.180 -0.0342 -0.4643  0.0149
 2829SOL    HW119949   1.919   0.067   3.161 -1.0374 -1.3851  1.9632
 2829SOL    HW219950   1.789   0.143   3.150  0.1473 -0.0561 -0.6365
 2830SOL     OW19951   0.383   1.872   8.508  0.1740  0.6976 -0.1984
 2830SOL    HW119952   0.367   1.847   8.417 -0.0839  2.5015 -0.6470
 2830SOL    HW219953   0.389   1.783   8.544  1.0439  0.0638 -1.9017
 2831SOL     OW19954   3.527   3.996   0.866  0.3527  0.2837 -0.0464
 2831SOL    HW119955   3.451   4.053   0.872 -0.4996 -0.7787 -0.7130
 2831SOL    HW219956   3.520   3.946   0.948  2.9770  0.1194  0.0866
 2832SOL     OW19957   4.236   1.872   8.344  0.0155  0.0546  0.0424
 2832SOL    HW119958   4.184   1.948   8.319  2.7045  2.1690  0.8942
 2832SOL    HW219959   4.238   1.828   8.259  4.4060  2.3982 -1.0575
 2833SOL     OW19960   0.661   4.393   5.224  0.0823 -0.0770  0.4034
 2833SOL    HW119961   0.676   4.446   5.302 -2.3239  0.0970  0.7471
 2833SOL    HW219962   0.704   4.315   5.260 -0.4681 -0.6888 -0.2484
 2834SOL     OW19963   3.208   0.054   5.489  0.7760 -0.3486 -0.6159
 2834SOL    HW119964   3.263   0.131   5.506 -0.5569  1.2046 -3.2677
 2834SOL    HW219965   3.148   0.086   5.421 -1.1468 -1.0822  0.7244
 2835SOL     OW19966   0.234   1.541   5.170  0.0026  0.0066  0.0490
 2835SOL    HW119967   0.328   1.559   5.170  0.1902 -0.9584  1.7074
 2835SOL    HW219968   0.208   1.577   5.085  1.4633  1.9521  0.4251
 2836SOL     OW19969   1.475   3.405  14.477 -0.0739 -0.4282 -0.1656
 2836SOL    HW119970   1.405   3.411  14.411  0.0704  0.2815 -0.2492
 2836SOL    HW219971   1.518   3.320  14.470 -0.7920 -0.7141 -1.2138
 2837SOL     OW19972   0.943   4.452  11.522  0.0395 -0.2653 -0.0113
 2837SOL    HW119973   0.897   4.430  11.441 -1.4795  0.7730  0.5605
 2837SOL    HW219974   0.944   4.368  11.567 -0.6395  0.0864  0.6769
 2838SOL     OW19975   2.728   2.427   7.182 -0.3010 -0.3700 -0.2501
 2838SOL    HW119976   2.772   2.450   7.100 -0.2783  0.8048  0.0822
 2838SOL    HW219977   2.792   2.392   7.244 -1.1648  1.8627  1.9062
 2839SOL     OW19978   2.128   4.277  11.392  0.1820 -0.1651 -0.3589
 2839SOL    HW119979   2.127   4.299  11.485 -0.8136 -0.5793 -0.2647
 2839SOL    HW219980   2.039   4.243  11.381 -0.4337  1.6976 -1.1311
 2840SOL     OW19981   3.735   1.463   2.471 -0.2329 -0.0990 -0.6611
 2840SOL    HW119982   3.768   1.500   2.389 -1.2946  0.5440 -0.7938
 2840SOL    HW219983   3.734   1.549   2.514 -0.6964 -0.5751  0.2716
 2841SOL     OW19984   3.375   2.603   4.409 -0.6036  0.1412  0.0078
 2841SOL    HW119985   3.322   2.680   4.390 -0.9840 -0.3340 -0.8519
 2841SOL    HW219986   3.330   2.562   4.483 -0.8948  0.2226 -0.1235
 2842SOL     OW19987   4.257   1.867   1.102 -0.2353 -0.3135 -0.1481
 2842SOL    HW119988   4.182   1.904   1.149  0.7506  1.2245  0.2072
 2842SOL    HW219989   4.293   1.946   1.060 -0.7840  1.4096  2.6703
 2843SOL     OW19990   4.571   4.547   4.517 -0.1833 -0.1947 -0.2965
 2843SOL    HW119991   4.492   4.600   4.525 -0.5789 -0.8047 -0.1235
 2843SOL    HW219992   4.630   4.603   4.466  1.0098  0.2660  1.6098
 2844SOL     OW19993   0.815   1.179   7.954  0.1353  0.0761 -0.2944
 2844SOL    HW119994   0.756   1.253   7.942 -0.2126  0.3128  2.8212
 2844SOL    HW219995   0.876   1.189   7.881 -0.0444  0.2462 -0.4207
 2845SOL     OW19996   0.778   4.585   2.192 -0.2129  0.6101  0.8050
 2845SOL    HW119997   0.825   4.519   2.142  2.3158 -0.1604  4.1891
 2845SOL    HW219998   0.838   4.596   2.266  0.4286 -0.3119  0.4142
 2846SOL     OW19999   0.776   2.249   7.012 -0.0321  0.2153 -0.2214
 2846SOL    HW120000   0.800   2.298   7.091  1.1503 -0.4372 -0.1806
 2846SOL    HW220001   0.717   2.309   6.967  0.8011  1.0941 -0.1453
 2847SOL     OW20002   3.148   1.941   4.915  0.3484  0.1800 -0.1825
 2847SOL    HW120003   3.122   1.948   5.007  0.1865  1.7451 -0.3417
 2847SOL    HW220004   3.238   1.913   4.930  0.2334 -1.3193 -2.3039
 2848SOL     OW20005   0.512   3.304  12.872 -0.1166 -0.1204 -0.1144
 2848SOL    HW120006   0.441   3.245  12.848  1.5170 -1.6367 -1.2878
 2848SOL    HW220007   0.588   3.246  12.860  1.0766  1.0420  1.6733
 2849SOL     OW20008   0.167   1.074   4.377 -0.6121 -0.0844 -0.6212
 2849SOL    HW120009   0.085   1.044   4.340 -0.9608  0.6925 -0.4764
 2849SOL    HW220010   0.166   1.011   4.450 -0.8765  0.5991 -0.0292
 2850SOL     OW20011   3.142   3.022   6.461 -0.3597 -0.2179 -0.6209
 2850SOL    HW120012   3.201   3.051   6.530  0.4055 -2.2022 -0.4333
 2850SOL    HW220013   3.053   3.037   6.493 -0.2042 -0.2173 -0.1881
 2851SOL     OW20014   3.633   2.474   8.374 -0.4958 -0.2446  0.4687
 2851SOL    HW120015   3.688   2.472   8.453 -1.8044 -0.2576  1.3756
 2851SOL    HW220016   3.552   2.450   8.418 -1.2007  0.1812 -0.6069
 2852SOL     OW20017   3.385   4.593  16.483  0.2016 -0.3766  0.4814
 2852SOL    HW120018   3.395   4.688  16.476 -1.6317 -0.1549  0.8514
 2852SOL    HW220019   3.309   4.584  16.541 -1.7363 -1.1065 -2.1763
 2853SOL     OW20020   2.413   2.763   5.488  0.1638  0.2295 -0.3095
 2853SOL    HW120021   2.398   2.725   5.401 -0.9161  2.2024 -0.9909
 2853SOL    HW220022   2.504   2.791   5.479  0.0383  0.8244  0.2741
 2854SOL     OW20023   4.339   1.575   3.757 -0.2263 -0.0268 -0.7633
 2854SOL    HW120024   4.336   1.542   3.667  1.8915 -3.2745  0.3672
 2854SOL    HW220025   4.305   1.663   3.738  0.0482  0.6810  1.9271
 2855SOL     OW20026   0.351   4.196   4.793  0.8156 -1.1960  0.0971
 2855SOL    HW120027   0.397   4.221   4.873  2.2871  0.5498 -1.2996
 2855SOL    HW220028   0.409   4.226   4.723  0.0883 -1.7137 -0.7160
 2856SOL     OW20029   3.525   4.622   3.660 -0.0174 -0.2157  0.0142
 2856SOL    HW120030   3.539   4.625   3.755 -1.5704 -0.8895  0.2658
 2856SOL    HW220031   3.569   4.540   3.638 -0.3274 -1.4724  4.0046
 2857SOL     OW20032   2.036   0.000   7.817  0.0938 -0.3868 -0.2767
 2857SOL    HW120033   2.021   0.072   7.755  1.1876  0.1444  0.0796
 2857SOL    HW220034   2.012   4.652   7.757  2.1621 -1.2409 -0.0961
 2858SOL     OW20035   4.217   3.802   5.199  0.1870 -0.0950  0.1673
 2858SOL    HW120036   4.189   3.882   5.245  1.0112 -0.5422  1.4391
 2858SOL    HW220037   4.137   3.797   5.146 -0.5116 -0.6780  1.2916
 2859SOL     OW20038   2.049   4.009   7.364 -0.4516  0.2480  0.5178
 2859SOL    HW120039   2.065   4.011   7.459  0.4973  0.5738  0.3525
 2859SOL    HW220040   2.026   3.921   7.335 -2.6636  1.2634 -0.8236
 2860SOL     OW20041   3.579   0.408  15.976  0.0013 -0.0836  0.7492
 2860SOL    HW120042   3.624   0.488  16.005  1.6492 -0.7974  0.1094
 2860SOL    HW220043   3.622   0.339  16.027  0.5129  0.7740  1.4909
 2861SOL     OW20044   1.639   0.408  15.063  0.1055 -0.0764 -0.1462
 2861SOL    HW120045   1.699   0.482  15.075 -0.5127  0.4097 -0.0147
 2861SOL    HW220046   1.661   0.375  14.976  0.9684  1.1841 -0.4004
 2862SOL     OW20047   1.624   1.601   2.303  0.3264 -0.2235 -0.3661
 2862SOL    HW120048   1.689   1.610   2.234 -0.6089  0.2405 -1.1933
 2862SOL    HW220049   1.602   1.690   2.329 -0.7509 -0.5150 -0.2557
 2863SOL     OW20050   4.521   1.834   2.250 -0.2388 -0.3688  0.5669
 2863SOL    HW120051   4.489   1.912   2.296  1.5914  0.7067  0.0027
 2863SOL    HW220052   4.484   1.765   2.305 -0.2985 -0.5453  0.3017
 2864SOL     OW20053   1.216   2.584   0.922 -0.1199 -1.0014  0.2932
 2864SOL    HW120054   1.310   2.599   0.912 -0.8283  2.1251 -1.9161
 2864SOL    HW220055   1.185   2.635   0.847 -0.4416  3.8056  3.6777
 2865SOL     OW20056   2.076   0.015   6.900 -0.0313  0.2223  0.5755
 2865SOL    HW120057   1.984   4.714   6.901  0.1572 -0.5254 -0.0844
 2865SOL    HW220058   2.070   0.081   6.970 -0.2066  0.8282 -0.0118
 2866SOL     OW20059   0.134   1.972  11.683  0.6210  0.6146  0.0898
 2866SOL    HW120060   0.194   1.961  11.756  0.3357  1.2615  0.4236
 2866SOL    HW220061   0.176   1.911  11.622 -3.1342 -1.8119 -0.0530
 2867SOL     OW20062   2.857   4.253   8.219  0.2911 -0.4043 -0.2301
 2867SOL    HW120063   2.920   4.184   8.240 -0.2223 -0.3573  1.4799
 2867SOL    HW220064   2.825   4.290   8.302  2.9546  0.3398  0.4853
 2868SOL     OW20065   4.052   1.113   8.633 -0.4097  0.0327  0.6583
 2868SOL    HW120066   4.118   1.181   8.620  0.7105 -1.1206  0.3023
 2868SOL    HW220067   3.996   1.156   8.697 -1.5876 -1.3657  0.5658
 2869SOL     OW20068   0.496   0.963   7.636  0.0381 -0.2247  0.9339
 2869SOL    HW120069   0.584   1.002   7.634 -0.3202  0.4925 -0.7643
 2869SOL    HW220070   0.447   1.004   7.565 -0.2635 -1.3587  0.4848
 2870SOL     OW20071   0.159   0.687   3.824  0.1851  0.4118  0.1969
 2870SOL    HW120072   0.234   0.738   3.794  0.3676 -0.6941 -1.2411
 2870SOL    HW220073   0.179   0.614   3.764  2.4895  2.2127 -1.2337
 2871SOL     OW20074   1.087   3.512   4.699  0.0136  0.1125  0.1710
 2871SOL    HW120075   1.156   3.526   4.763 -0.1037  0.2561  0.2639
 2871SOL    HW220076   1.051   3.428   4.727  2.9628 -0.6725  1.5476
 2872SOL     OW20077   4.139   4.665   4.398  0.2210 -0.6321 -0.1591
 2872SOL    HW120078   4.195   4.640   4.324 -0.7577 -2.4870 -0.2796
 2872SOL    HW220079   4.064   4.688   4.344  0.9024 -0.7730 -1.1742
 2873SOL     OW20080   1.460   2.357   5.045  0.1451  0.1183 -0.3449
 2873SOL    HW120081   1.395   2.288   5.030 -0.5779 -0.0382  3.5212
 2873SOL    HW220082   1.476   2.339   5.138 -1.2288  0.0055 -0.1287
 2874SOL     OW20083   4.392   4.715   9.576 -0.4715 -0.0412  0.1103
 2874SOL    HW120084   4.332   0.022   9.507  0.2853 -2.2603 -1.4788
 2874SOL    HW220085   4.392   0.075   9.625  0.7815 -0.0518  0.1186
 2875SOL     OW20086   4.545   0.572   5.181  0.3367  0.2255  0.9916
 2875SOL    HW120087   4.638   0.549   5.172  0.7728  1.6892  1.8048
 2875SOL    HW220088   4.503   0.535   5.104  1.3427  0.1081  0.4935
 2876SOL     OW20089   0.983   1.542   4.316  0.3567 -0.4528 -0.2075
 2876SOL    HW120090   1.004   1.615   4.258 -0.7552  0.0724  0.0518
 2876SOL    HW220091   0.900   1.517   4.275  1.0016 -1.5537 -0.8399
 2877SOL     OW20092   2.276   4.581   6.317 -0.4080 -0.1926  0.3363
 2877SOL    HW120093   2.327   4.536   6.250  1.8591  0.3356  1.7071
 2877SOL    HW220094   2.344   4.593   6.384  0.1782  0.0458 -0.3085
 2878SOL     OW20095   2.835   3.301   1.445  0.1250 -0.0203 -0.2559
 2878SOL    HW120096   2.805   3.211   1.456  1.0180 -0.3661 -0.6596
 2878SOL    HW220097   2.802   3.325   1.359 -1.0023  0.1284  0.2213
 2879SOL     OW20098   2.898   4.228  12.982 -0.0396  0.7666 -0.2645
 2879SOL    HW120099   2.990   4.234  12.954 -0.3456  1.1385 -1.1754
 2879SOL    HW220100   2.907   4.233  13.077 -0.4543 -0.3833 -0.1589
 2880SOL     OW20101   0.617   3.962   2.681  0.4674  0.3426 -0.3223
 2880SOL    HW120102   0.705   3.996   2.665  0.6977 -0.3654 -0.5641
 2880SOL    HW220103   0.579   4.004   2.604 -0.4000  2.0679  1.0483
 2881SOL     OW20104   0.100   1.040   7.676  0.3896  0.0936 -0.1512
 2881SOL    HW120105   0.010   1.054   7.644 -0.0489 -0.3028  0.9179
 2881SOL    HW220106   0.150   1.117   7.648 -0.4643  0.8301  0.3264
 2882SOL     OW20107   1.291   2.354   1.848 -0.1600  0.0531 -0.1541
 2882SOL    HW120108   1.335   2.417   1.792  1.4179  0.6631  1.7504
 2882SOL    HW220109   1.266   2.286   1.786  0.8476  1.1450 -1.7434
 2883SOL     OW20110   4.330   4.128   2.799 -0.3596  0.0554 -0.3143
 2883SOL    HW120111   4.254   4.118   2.857 -0.8802  0.5359 -0.9095
 2883SOL    HW220112   4.350   4.216   2.830 -0.7406  0.1993 -0.4782
 2884SOL     OW20113   3.110   4.141   1.832  0.2865 -0.0643  0.3054
 2884SOL    HW120114   3.074   4.056   1.806 -0.1082 -0.0328  0.7434
 2884SOL    HW220115   3.197   4.147   1.793 -0.2520  2.1791 -0.5583
 2885SOL     OW20116   2.245   0.881   1.573  0.1326 -0.3240 -0.4627
 2885SOL    HW120117   2.210   0.792   1.579  0.1442 -0.5048 -2.8698
 2885SOL    HW220118   2.158   0.921   1.570 -0.0454 -0.5915  1.0783
 2886SOL     OW20119   3.313   0.420  11.620 -0.0955  0.5023 -0.5407
 2886SOL    HW120120   3.245   0.384  11.677 -0.1283 -0.9566 -1.5046
 2886SOL    HW220121   3.273   0.413  11.533 -0.5562  1.3643 -0.3984
 2887SOL     OW20122   0.156   1.203   3.561  0.8723  0.6763 -0.4650
 2887SOL    HW120123   0.072   1.164   3.540  1.6572 -0.8864 -0.7075
 2887SOL    HW220124   0.160   1.184   3.654 -2.4709  1.6800 -0.1483
 2888SOL     OW20125   3.165   4.239  13.621  0.1622  0.2912 -0.0564
 2888SOL    HW120126   3.199   4.269  13.537 -0.8986 -2.6417 -1.5324
 2888SOL    HW220127   3.228   4.263  13.689  0.0366  3.1936 -0.9503
 2889SOL     OW20128   0.937   3.188   3.365  0.0328  0.5037 -0.1017
 2889SOL    HW120129   1.008   3.215   3.423 -1.1666  2.1274  0.6009
 2889SOL    HW220130   0.870   3.167   3.431 -1.5697 -0.2515 -1.9807
 2890SOL     OW20131   1.594   3.682   3.560 -0.0682 -0.6247  0.0566
 2890SOL    HW120132   1.606   3.746   3.490 -0.0063 -2.6903 -1.8060
 2890SOL    HW220133   1.498   3.673   3.560 -0.1344 -0.0301  1.8743
 2891SOL     OW20134   4.588   2.382  14.825  0.1191 -0.2286 -0.1505
 2891SOL    HW120135   4.573   2.433  14.745 -2.1064  0.4793  0.7055
 2891SOL    HW220136   4.670   2.339  14.801  0.5944  0.3839  0.3794
 2892SOL     OW20137   2.477   2.942   8.814  0.2611 -1.0354  0.3022
 2892SOL    HW120138   2.450   2.855   8.844  1.4997 -0.7353  2.2816
 2892SOL    HW220139   2.570   2.934   8.793  0.6290  0.9181  1.1798
 2893SOL     OW20140   0.610   3.412   7.116 -0.4684  0.0807 -0.3938
 2893SOL    HW120141   0.529   3.460   7.096  0.4675  1.6007 -0.5556
 2893SOL    HW220142   0.598   3.406   7.211  2.8058 -1.7288 -0.1019
 2894SOL     OW20143   3.144   1.593  11.089 -0.1295  0.3732  0.0011
 2894SOL    HW120144   3.185   1.551  11.165  0.0990  0.3306 -0.1441
 2894SOL    HW220145   3.197   1.672  11.097  0.7690 -0.3346  0.9983
 2895SOL     OW20146   0.859   0.406   5.095  0.0690 -0.0607  0.2880
 2895SOL    HW120147   0.925   0.352   5.139 -0.6963 -1.3974 -0.1967
 2895SOL    HW220148   0.904   0.487   5.070  3.5647 -1.8200  0.8599
 2896SOL     OW20149   4.640   1.994  17.017  0.0976  0.0166  0.5498
 2896SOL    HW120150   4.630   1.899  17.015  1.8001 -0.1889  2.2488
 2896SOL    HW220151   4.632   1.996  17.113 -1.0495 -0.0795  0.4608
 2897SOL     OW20152   0.799   3.907  10.814  0.2796 -0.3504 -0.0453
 2897SOL    HW120153   0.862   3.976  10.794  0.1882 -0.6385 -1.3127
 2897SOL    HW220154   0.753   3.941  10.891 -0.0364 -4.2492  1.5159
 2898SOL     OW20155   3.483   4.075   2.609  0.2762 -0.0118  0.3839
 2898SOL    HW120156   3.500   4.089   2.516 -0.0895  0.0279  0.3224
 2898SOL    HW220157   3.571   4.087   2.643 -0.2130 -0.8633  1.9585
 2899SOL     OW20158   1.608   3.890  13.792 -0.5868 -0.5594  0.0923
 2899SOL    HW120159   1.581   3.838  13.717  0.5004 -0.1624 -0.5814
 2899SOL    HW220160   1.646   3.961  13.740 -0.3080  1.1898  2.6438
 2900SOL     OW20161   1.706   3.785   2.938  0.5530 -0.9472 -0.2160
 2900SOL    HW120162   1.686   3.692   2.925 -0.4822 -0.7957  0.3319
 2900SOL    HW220163   1.637   3.836   2.897  0.9951  0.3977  0.6979
 2901SOL     OW20164   2.749   2.684  14.684 -0.3547  0.1485 -0.6009
 2901SOL    HW120165   2.786   2.678  14.772 -1.8155  1.7553  0.1243
 2901SOL    HW220166   2.692   2.761  14.689  1.9987  1.8034  0.6970
 2902SOL     OW20167   2.728   0.511   2.808  0.5331 -0.4835  0.4172
 2902SOL    HW120168   2.662   0.567   2.766  1.0049  0.2207  0.6064
 2902SOL    HW220169   2.691   0.425   2.788 -1.1865  0.0419  1.4186
 2903SOL     OW20170   0.726   0.450   1.945  0.0177  0.4991  0.1494
 2903SOL    HW120171   0.773   0.526   1.912 -0.6264  1.4432  1.4554
 2903SOL    HW220172   0.727   0.390   1.870  1.1185 -0.0435  0.5846
 2904SOL     OW20173   1.305   1.055   6.355  0.1083 -0.0034 -0.1390
 2904SOL    HW120174   1.334   0.987   6.415  0.1572 -0.3037 -0.5056
 2904SOL    HW220175   1.210   1.045   6.347  0.0305  1.0364 -0.5293
 2905SOL     OW20176   3.397   2.702   7.762  0.5053  0.3385 -0.3662
 2905SOL    HW120177   3.387   2.610   7.784  1.5227  0.4645  0.5955
 2905SOL    HW220178   3.319   2.734   7.806  3.1405  1.5396  3.4224
 2906SOL     OW20179   3.644   0.071   1.677 -0.3617  0.1287 -0.3602
 2906SOL    HW120180   3.560   0.095   1.718  0.0229 -1.1361  1.1392
 2906SOL    HW220181   3.647   4.698   1.679  0.1002  0.1868  2.1691
 2907SOL     OW20182   3.396   2.193   1.896  0.1359  0.4086 -0.4074
 2907SOL    HW120183   3.386   2.256   1.825  1.1943 -0.8705 -1.6850
 2907SOL    HW220184   3.387   2.250   1.972 -0.1871 -1.9081  1.2924
 2908SOL     OW20185   1.804   0.985  13.063  0.3024  0.0405  0.0678
 2908SOL    HW120186   1.861   1.060  13.047 -0.2630  0.1560 -1.3403
 2908SOL    HW220187   1.859   0.906  13.068 -0.0908 -0.2010  0.6474
 2909SOL     OW20188   2.958   1.088   6.601  0.2353 -0.2914  0.1838
 2909SOL    HW120189   3.043   1.088   6.646  0.7929  0.0798 -0.8744
 2909SOL    HW220190   2.951   1.181   6.580 -0.7072 -0.0162  1.7072
 2910SOL     OW20191   3.246   1.834   8.149 -0.3652 -0.2521 -0.1530
 2910SOL    HW120192   3.151   1.832   8.157 -0.1913  0.9131  2.3420
 2910SOL    HW220193   3.267   1.748   8.113  0.8529 -0.4064  0.9147
 2911SOL     OW20194   0.014   2.609   6.110 -0.1658  0.5494 -0.5344
 2911SOL    HW120195   0.083   2.591   6.173 -1.6003  0.8855  1.1295
 2911SOL    HW220196   0.064   2.616   6.029  1.4683  0.3396  0.4529
 2912SOL     OW20197   2.935   0.977   3.272 -0.3345 -0.0912 -0.2486
 2912SOL    HW120198   2.966   0.961   3.183  1.2659 -1.0136  0.4727
 2912SOL    HW220199   2.989   1.051   3.298  0.0913  0.2758 -2.1916
 2913SOL     OW20200   2.888   2.129   3.962  0.6155  0.2479  0.2563
 2913SOL    HW120201   2.862   2.221   3.961  3.3051  1.0286  1.4186
 2913SOL    HW220202   2.929   2.131   4.049  0.1068 -2.0417  0.5320
 2914SOL     OW20203   2.080   3.097   1.609 -0.4055  0.0603 -0.0591
 2914SOL    HW120204   2.028   3.022   1.580 -1.4538  0.2635  1.3172
 2914SOL    HW220205   2.016   3.130   1.672 -1.4252 -3.0662  0.5242
 2915SOL     OW20206   1.921   1.246   5.674 -0.6467 -0.2358  0.0567
 2915SOL    HW120207   1.946   1.228   5.583 -0.8872  1.7377 -0.3920
 2915SOL    HW220208   1.931   1.158   5.711  0.7251 -1.0668 -2.2519
 2916SOL     OW20209   3.689   1.656   8.324  0.3277 -0.3014 -0.2645
 2916SOL    HW120210   3.696   1.572   8.370 -1.2289  0.6571  1.7491
 2916SOL    HW220211   3.648   1.622   8.244  2.9621 -2.0892 -0.8500
 2917SOL     OW20212   0.110   2.405  16.734  0.0480 -0.1246  0.9091
 2917SOL    HW120213   0.047   2.360  16.791  0.6532  0.7855  2.2826
 2917SOL    HW220214   0.187   2.411  16.790 -0.4663 -2.5674  1.8772
 2918SOL     OW20215   0.845   4.164   2.604 -0.5174 -0.2043 -0.3017
 2918SOL    HW120216   0.843   4.133   2.514  0.9369 -0.5868 -0.2057
 2918SOL    HW220217   0.775   4.228   2.607 -2.0043 -1.9360  2.0669
 2919SOL     OW20218   0.596   2.448  10.505  0.0549 -0.0461  0.4282
 2919SOL    HW120219   0.627   2.526  10.551 -1.7608 -0.2204  1.9535
 2919SOL    HW220220   0.521   2.422  10.559 -0.0525 -0.2120  0.1986
 2920SOL     OW20221   3.054   4.614   8.246  0.0106  0.1202  0.1883
 2920SOL    HW120222   3.021   4.695   8.208 -1.0175 -0.4442 -0.1105
 2920SOL    HW220223   2.977   4.571   8.283  1.0870 -2.5952 -0.7327
 2921SOL     OW20224   0.513   1.696  13.279  0.6594 -0.1861 -0.1104
 2921SOL    HW120225   0.490   1.691  13.186 -1.4844  1.6039  0.3266
 2921SOL    HW220226   0.428   1.673  13.317  0.8891 -2.1650 -0.7788
 2922SOL     OW20227   2.492   0.228  15.674 -0.2126  0.2066  0.0626
 2922SOL    HW120228   2.417   0.286  15.669  0.8465  1.5340 -0.5890
 2922SOL    HW220229   2.530   0.234  15.586 -1.5889  2.1393 -0.4046
 2923SOL     OW20230   3.882   3.840   1.968  0.5071  0.1408 -0.2024
 2923SOL    HW120231   3.902   3.882   1.884 -1.0551 -0.2452 -0.7589
 2923SOL    HW220232   3.803   3.792   1.943 -0.7909  2.6995 -1.0003
 2924SOL     OW20233   4.051   2.665  10.263 -0.2944  0.1239 -0.3169
 2924SOL    HW120234   4.010   2.581  10.240 -1.2987  0.3902  0.4632
 2924SOL    HW220235   4.110   2.656  10.338 -0.8103  0.1518  0.0943
 2925SOL     OW20236   2.801   2.498   5.270 -0.7137 -0.2399 -0.3295
 2925SOL    HW120237   2.751   2.549   5.207 -0.6427 -0.2112 -0.3618
 2925SOL    HW220238   2.745   2.514   5.346  0.3240 -0.6588  0.5205
 2926SOL     OW20239   3.323   1.648   8.636  0.7425  0.1808  1.0210
 2926SOL    HW120240   3.382   1.723   8.639 -0.0916  0.8458  0.8710
 2926SOL    HW220241   3.239   1.693   8.637  0.1126 -0.9654 -0.6455
 2927SOL     OW20242   2.252   3.930   6.393  0.2295  0.0089  0.5893
 2927SOL    HW120243   2.258   3.851   6.338  0.5246  2.8759 -3.4929
 2927SOL    HW220244   2.226   3.983   6.317  0.3100  0.3057  0.7726
 2928SOL     OW20245   4.287   0.452   7.300 -0.0503  0.0228  0.2969
 2928SOL    HW120246   4.366   0.474   7.251  1.1007 -0.4528  1.9444
 2928SOL    HW220247   4.217   0.510   7.269  0.5674  1.3712  1.4231
 2929SOL     OW20248   2.991   1.530   3.650  0.3947  0.2986  0.6333
 2929SOL    HW120249   3.080   1.536   3.616 -0.5134  0.4570 -1.6987
 2929SOL    HW220250   2.987   1.569   3.737 -2.0364 -1.1466  1.1873
 2930SOL     OW20251   1.959   1.884   0.519 -0.1097  0.3411  0.0881
 2930SOL    HW120252   2.050   1.890   0.490 -1.1867  1.3453 -3.1112
 2930SOL    HW220253   1.925   1.825   0.452  0.0902 -0.2804  0.5364
 2931SOL     OW20254   0.807   1.369   3.081  0.3003 -0.1122 -0.7422
 2931SOL    HW120255   0.772   1.418   3.006 -2.1633  1.0945  1.1897
 2931SOL    HW220256   0.877   1.328   3.030  2.2763  1.6330  0.5336
 2932SOL     OW20257   0.411   4.221   3.058  0.0046 -0.2903 -0.0244
 2932SOL    HW120258   0.487   4.212   3.000 -1.1133  0.7608 -1.6526
 2932SOL    HW220259   0.371   4.134   3.051 -1.1140  0.1836  0.5559
 2933SOL     OW20260   0.232   4.249  11.964  0.2879 -0.1468 -0.0514
 2933SOL    HW120261   0.272   4.298  11.892  1.3507 -1.0025 -0.0419
 2933SOL    HW220262   0.160   4.310  11.979 -0.8898 -1.5227 -0.1592
 2934SOL     OW20263   3.248   3.732  16.815  0.3638  0.2172 -0.1318
 2934SOL    HW120264   3.173   3.770  16.768  1.8700  1.4704 -1.5176
 2934SOL    HW220265   3.300   3.705  16.739  0.0045 -0.1718 -0.2456
 2935SOL     OW20266   0.748   3.754  12.752  0.0594 -0.6955 -0.6652
 2935SOL    HW120267   0.755   3.805  12.672 -0.4060  0.1044 -0.1939
 2935SOL    HW220268   0.664   3.709  12.744 -1.0354  1.0060  1.0685
 2936SOL     OW20269   2.660   2.480   5.752 -0.2579 -0.2189 -0.5539
 2936SOL    HW120270   2.660   2.559   5.805  0.6586 -1.9885  2.0767
 2936SOL    HW220271   2.730   2.439   5.803 -0.6747  0.1851  0.3361
 2937SOL     OW20272   1.526   4.320   7.521  0.0165 -0.0884  0.3351
 2937SOL    HW120273   1.580   4.373   7.580  1.4624  2.4330 -3.2581
 2937SOL    HW220274   1.567   4.235   7.537 -0.6055 -0.5124 -0.3000
 2938SOL     OW20275   1.419   4.617  16.314 -0.0341 -0.9694  0.1441
 2938SOL    HW120276   1.363   4.540  16.313 -0.9940 -0.2868  1.0047
 2938SOL    HW220277   1.507   4.579  16.318 -0.0108 -1.0726 -1.3834
 2939SOL     OW20278   2.802   2.011   6.458 -0.2347 -0.1563 -0.1752
 2939SOL    HW120279   2.720   1.972   6.425 -0.9362  2.1771 -1.2185
 2939SOL    HW220280   2.873   1.963   6.416  0.3374  0.9304 -0.4505
 2940SOL     OW20281   3.425   1.561  16.672 -0.0123  0.7786 -0.1139
 2940SOL    HW120282   3.359   1.586  16.606  0.9346 -1.0807 -1.7577
 2940SOL    HW220283   3.482   1.501  16.624  2.3108  1.7289  1.4299
 2941SOL     OW20284   2.072   3.920   1.880 -0.1358  0.7260  0.0998
 2941SOL    HW120285   2.032   3.951   1.798 -1.6500 -0.1365  0.5170
 2941SOL    HW220286   2.002   3.866   1.914  0.4005  1.2875  2.0963
 2942SOL     OW20287   3.390   2.324   5.231  0.7075  0.0686 -0.7066
 2942SOL    HW120288   3.387   2.248   5.290  0.2751  0.2527 -0.4967
 2942SOL    HW220289   3.376   2.403   5.283  0.9954 -1.3357  1.5084
 2943SOL     OW20290   2.303   3.772   0.960 -0.4978  0.0635 -0.1054
 2943SOL    HW120291   2.324   3.772   0.867 -1.4490 -1.5065 -0.3290
 2943SOL    HW220292   2.307   3.863   0.989  0.8698  0.1090 -0.4759
 2944SOL     OW20293   1.231   3.288   7.455  0.5758  0.1509 -0.3302
 2944SOL    HW120294   1.303   3.227   7.470 -0.4787 -0.9287  0.3482
 2944SOL    HW220295   1.246   3.354   7.524  0.1952  0.6550 -0.7240
 2945SOL     OW20296   0.944   0.088  17.065 -0.2083 -0.3064 -1.2320
 2945SOL    HW120297   1.021   0.119  17.113 -0.2966  0.5483 -1.6379
 2945SOL    HW220298   0.873   0.120  17.121  1.5130  0.6961  0.3729
 2946SOL     OW20299   0.071   0.431  14.749 -0.2827 -0.3276 -0.3934
 2946SOL    HW120300   0.116   0.509  14.781 -2.1617  0.3326  0.6426
 2946SOL    HW220301   4.718   0.489  14.738  1.1858  1.2832 -2.2620
 2947SOL     OW20302   0.172   3.060   8.067 -0.5472 -0.1960  0.2114
 2947SOL    HW120303   0.224   2.998   8.118  0.1416 -0.7361 -1.1699
 2947SOL    HW220304   0.083   3.049   8.101 -0.5688 -1.3161 -0.2175
 2948SOL     OW20305   2.656   0.180   6.916  0.1350 -0.1424  0.4209
 2948SOL    HW120306   2.567   0.151   6.896 -0.5185  0.7350  2.0919
 2948SOL    HW220307   2.709   0.107   6.883  0.4639 -0.7822  2.4143
 2949SOL     OW20308   1.890   4.183   6.030  0.2841  0.5468 -0.4762
 2949SOL    HW120309   1.924   4.272   6.015  2.0050 -0.2629 -1.4085
 2949SOL    HW220310   1.891   4.137   5.946  0.4828 -1.0553  0.4132
 2950SOL     OW20311   3.402   4.195  13.376 -0.6092 -0.0858  0.1907
 2950SOL    HW120312   3.347   4.196  13.298  0.8308  0.2651 -0.8148
 2950SOL    HW220313   3.471   4.253  13.344 -0.4539 -2.0339 -2.9138
 2951SOL     OW20314   3.340   1.770  10.996 -0.0355 -0.2753  0.1473
 2951SOL    HW120315   3.398   1.834  10.954  0.1776 -2.5684 -3.0420
 2951SOL    HW220316   3.270   1.831  11.017 -0.6143 -0.6298 -0.7548
 2952SOL     OW20317   3.653   3.481   5.724  0.1342 -0.3581 -0.2977
 2952SOL    HW120318   3.681   3.567   5.693 -0.6901  0.1280  0.3091
 2952SOL    HW220319   3.710   3.465   5.799  0.0640  3.0535  0.4810
 2953SOL     OW20320   3.287   1.884   2.835  0.1208  0.5871  0.5686
 2953SOL    HW120321   3.197   1.887   2.868  0.2089  1.8027  0.6897
 2953SOL    HW220322   3.311   1.974   2.814  0.2879 -0.0569 -1.9728
 2954SOL     OW20323   3.990   1.158   9.156 -0.1083 -0.1885  0.6568
 2954SOL    HW120324   4.020   1.074   9.122 -0.6436 -0.6067  1.2061
 2954SOL    HW220325   4.032   1.166   9.242  2.6130 -1.4377 -0.5727
 2955SOL     OW20326   2.249   4.292  11.861 -0.0031  0.2165 -0.1187
 2955SOL    HW120327   2.188   4.326  11.927 -0.0444 -0.1791  0.0467
 2955SOL    HW220328   2.196   4.294  11.782 -0.4037  2.1264  0.1969
 2956SOL     OW20329   3.850   1.250   7.351 -0.1412  0.3044  0.4342
 2956SOL    HW120330   3.769   1.300   7.337  0.6377  0.6247 -2.8986
 2956SOL    HW220331   3.919   1.315   7.340 -0.9808  0.7405 -2.2450
 2957SOL     OW20332   2.543   2.281   3.311 -0.1509  0.2239 -0.1685
 2957SOL    HW120333   2.490   2.344   3.360  0.8109  0.3201  0.7395
 2957SOL    HW220334   2.626   2.326   3.327 -0.6693  1.0303  0.2515
 2958SOL     OW20335   2.820   2.025  11.260 -0.0423  0.0592 -0.0089
 2958SOL    HW120336   2.896   1.979  11.294  1.7398  4.5245  2.0172
 2958SOL    HW220337   2.859   2.059  11.179 -0.6365 -2.1437 -1.2145
 2959SOL     OW20338   1.548   0.714   5.936  0.0187 -0.5782 -0.1354
 2959SOL    HW120339   1.464   0.740   5.974 -0.2722 -0.0111 -1.1727
 2959SOL    HW220340   1.554   0.778   5.865  1.2789  0.3038  0.7773
 2960SOL     OW20341   0.904   2.914   6.771  0.1466 -0.1758  0.3101
 2960SOL    HW120342   0.971   2.887   6.834  0.9970 -0.2460 -0.6200
 2960SOL    HW220343   0.956   2.924   6.691 -1.8263  1.2782 -0.7986
 2961SOL     OW20344   1.118   0.163   6.003 -0.1799 -0.3498  0.0368
 2961SOL    HW120345   1.199   0.113   6.001  1.3265  2.0898  0.5137
 2961SOL    HW220346   1.111   0.201   5.915  0.3406 -0.1220  0.0967
 2962SOL     OW20347   4.328   0.929   3.694  0.4287 -0.4021 -0.1896
 2962SOL    HW120348   4.344   0.900   3.605  2.2835 -0.9953  0.3395
 2962SOL    HW220349   4.368   1.016   3.690  0.6367 -0.4739  0.3363
 2963SOL     OW20350   2.780   1.371  11.097  0.3222 -0.5550  1.3294
 2963SOL    HW120351   2.699   1.390  11.144  1.4866 -0.3801  3.3005
 2963SOL    HW220352   2.817   1.459  11.094 -2.2029  0.4272 -0.8694
 2964SOL     OW20353   4.620   1.454   7.880  0.3951  1.4222 -0.0087
 2964SOL    HW120354   4.619   1.480   7.788 -1.4002  0.2332 -0.3188
 2964SOL    HW220355   4.593   1.362   7.876  0.0348  1.5440 -0.3708
 2965SOL     OW20356   1.705   1.269  11.590  0.1026  0.0744 -0.2716
 2965SOL    HW120357   1.703   1.212  11.513  0.1971 -1.8218  1.1190
 2965SOL    HW220358   1.795   1.260  11.620 -0.0332 -0.0021  0.1251
 2966SOL     OW20359   1.399   3.574   1.801  0.3622 -0.5581 -0.5331
 2966SOL    HW120360   1.309   3.605   1.798  0.2676 -0.5677  2.6815
 2966SOL    HW220361   1.397   3.494   1.747 -0.1633 -1.7530  1.2761
 2967SOL     OW20362   0.163   3.779   4.142  0.1759  0.1361 -0.2801
 2967SOL    HW120363   0.102   3.732   4.199  0.5537  0.7702  0.6411
 2967SOL    HW220364   0.121   3.863   4.155 -2.0981 -0.9557 -0.6221
 2968SOL     OW20365   0.383   0.885   3.813 -0.0485 -0.4199  0.0105
 2968SOL    HW120366   0.473   0.854   3.826  0.6976  1.8183  0.1250
 2968SOL    HW220367   0.395   0.970   3.856 -1.0755 -1.1770  1.8130
 2969SOL     OW20368   1.040   0.758   5.973  0.0132 -0.2245  0.0198
 2969SOL    HW120369   1.062   0.667   5.952  1.4977  0.2016 -0.2452
 2969SOL    HW220370   1.121   0.787   6.014 -1.3428  3.7899 -0.1479
 2970SOL     OW20371   3.619   2.474   8.050 -0.6471  0.1126 -0.3360
 2970SOL    HW120372   3.536   2.475   8.002 -1.2411 -0.7175  0.6627
 2970SOL    HW220373   3.583   2.420   8.120  3.1789 -1.1703  0.6355
 2971SOL     OW20374   2.207   3.064   0.878  0.5466 -0.4857 -0.2916
 2971SOL    HW120375   2.292   3.023   0.864 -0.1777 -2.1625  0.2058
 2971SOL    HW220376   2.224   3.158   0.873 -2.1826 -0.0312 -1.2440
 2972SOL     OW20377   0.236   1.926  14.835 -0.3286  0.3777  0.0179
 2972SOL    HW120378   0.150   1.938  14.794 -0.3555  3.4945  0.9699
 2972SOL    HW220379   0.205   1.940  14.925  0.8279 -1.8215  0.7800
 2973SOL     OW20380   2.832   2.374   1.652  0.0295  0.4475 -0.3927
 2973SOL    HW120381   2.862   2.307   1.591 -0.6030  0.8849 -1.1961
 2973SOL    HW220382   2.918   2.406   1.679  0.2004  1.8554 -2.6087
 2974SOL     OW20383   4.638   0.798  13.527 -0.1138  0.3059 -0.2139
 2974SOL    HW120384   4.667   0.728  13.586 -0.0752 -0.5355 -1.2276
 2974SOL    HW220385   4.661   0.755  13.444 -0.7901  0.4293 -0.4644
 2975SOL     OW20386   4.133   0.166  14.242 -0.1529 -0.0981 -0.6779
 2975SOL    HW120387   4.120   0.199  14.331 -0.7122  1.3995 -1.3246
 2975SOL    HW220388   4.159   0.079  14.273 -1.4324 -0.4569 -0.5970
 2976SOL     OW20389   0.364   0.825   6.103 -0.2135  0.3773 -0.1623
 2976SOL    HW120390   0.403   0.833   6.190 -1.2538 -4.2923  0.7257
 2976SOL    HW220391   0.307   0.902   6.104  0.8955  1.2259 -0.9541
 2977SOL     OW20392   3.680   0.702  13.900 -0.4954  0.4789  0.0218
 2977SOL    HW120393   3.665   0.608  13.910  2.4258  0.0524  0.3358
 2977SOL    HW220394   3.743   0.725  13.968  1.2836  0.2572 -1.5720
 2978SOL     OW20395   3.825   0.276   4.672 -0.2906 -0.1901 -0.0800
 2978SOL    HW120396   3.851   0.187   4.695 -1.2443  0.3637  3.1609
 2978SOL    HW220397   3.861   0.324   4.747 -0.0669 -0.3146 -0.1095
 2979SOL     OW20398   2.381   4.569   8.652 -0.0304 -0.3277 -0.1533
 2979SOL    HW120399   2.444   4.505   8.686 -3.7817 -3.7085  0.4638
 2979SOL    HW220400   2.340   4.601   8.732 -0.7986 -0.2480 -0.5750
 2980SOL     OW20401   2.255   4.635   3.982 -0.3906 -0.4843 -0.1747
 2980SOL    HW120402   2.228   4.722   3.954  0.7229  0.1840  0.8282
 2980SOL    HW220403   2.349   4.642   3.964 -0.5349  1.6275 -0.0162
 2981SOL     OW20404   3.222   4.566   4.971  0.0102  0.3644  0.0344
 2981SOL    HW120405   3.183   4.580   5.057  0.5595  1.3927  0.1174
 2981SOL    HW220406   3.150   4.521   4.926  0.3225 -1.2792  1.1501
 2982SOL     OW20407   3.700   2.637   6.113  0.2432  0.7985 -0.0741
 2982SOL    HW120408   3.791   2.608   6.121  0.8496  2.9997  1.1363
 2982SOL    HW220409   3.712   2.732   6.117  0.9546  0.5864  3.0022
 2983SOL     OW20410   0.331   2.562   8.620  0.0630  0.5117  0.4278
 2983SOL    HW120411   0.396   2.568   8.549 -0.7925  1.7012 -0.2622
 2983SOL    HW220412   0.259   2.519   8.575 -2.2557  3.0380  1.7372
 2984SOL     OW20413   0.755   2.107   6.015  0.7684  0.6262  0.7544
 2984SOL    HW120414   0.680   2.049   6.026 -0.9233  2.6417 -0.1206
 2984SOL    HW220415   0.780   2.105   6.107  0.6595  1.2596  0.7956
 2985SOL     OW20416   2.751   0.358  10.483 -1.0028 -0.4729 -0.3680
 2985SOL    HW120417   2.714   0.279  10.444 -1.0049 -0.0398 -1.2321
 2985SOL    HW220418   2.707   0.360  10.568  2.2866  0.0495  1.2864
 2986SOL     OW20419   3.087   3.135   4.066  0.1873  0.0660 -0.1695
 2986SOL    HW120420   3.126   3.051   4.041 -2.6719 -0.6641 -2.2585
 2986SOL    HW220421   3.135   3.201   4.016  0.0174 -0.0169 -0.4448
 2987SOL     OW20422   2.166   3.679   3.381 -0.5622  0.5302 -0.2872
 2987SOL    HW120423   2.130   3.662   3.468  0.5084 -0.6528 -0.0755
 2987SOL    HW220424   2.140   3.605   3.327  0.6361  0.4805 -0.7962
 2988SOL     OW20425   4.162   2.800   5.184  0.0658 -0.0550  0.1412
 2988SOL    HW120426   4.118   2.772   5.264  1.5289 -0.7777  0.6869
 2988SOL    HW220427   4.098   2.859   5.144  2.3323  1.9668 -0.4853
 2989SOL     OW20428   1.921   2.589   2.139  0.4246 -0.2942 -0.4173
 2989SOL    HW120429   1.839   2.573   2.185  0.3880  0.2579 -0.2916
 2989SOL    HW220430   1.977   2.558   2.210 -0.6026 -0.3578  0.3681
 2990SOL     OW20431   3.439   0.117   1.852 -0.4410 -0.3940 -0.0430
 2990SOL    HW120432   3.379   0.096   1.924 -1.0994  0.1032 -0.4463
 2990SOL    HW220433   3.417   0.210   1.849 -0.2418 -0.2907  1.7405
 2991SOL     OW20434   1.279   0.479   6.401  0.3194  0.2131  0.2925
 2991SOL    HW120435   1.226   0.462   6.323 -3.0640 -2.3001  3.1242
 2991SOL    HW220436   1.257   0.399   6.448  0.1532 -0.9819 -1.8157
 2992SOL     OW20437   1.156   3.826  12.955  0.0225  0.1755 -0.2836
 2992SOL    HW120438   1.243   3.800  12.926 -0.9573 -1.7444 -1.4866
 2992SOL    HW220439   1.169   3.914  12.991 -0.7465 -0.0420  0.5229
 2993SOL     OW20440   1.600   1.267   6.568 -0.0164 -0.0762  0.6793
 2993SOL    HW120441   1.592   1.289   6.660  0.7897  1.2035  0.4317
 2993SOL    HW220442   1.511   1.247   6.539  0.4261  0.3359 -1.0105
 2994SOL     OW20443   0.014   3.713  14.392 -0.4079  0.2251  0.0237
 2994SOL    HW120444   4.679   3.673  14.327 -0.6842  0.6468  0.0059
 2994SOL    HW220445   0.090   3.729  14.336 -0.3623 -0.7424 -0.1946
 2995SOL     OW20446   3.282   1.017   6.329  0.5373  0.1039  0.4964
 2995SOL    HW120447   3.232   1.087   6.288  0.4614 -0.2187  0.0336
 2995SOL    HW220448   3.348   1.063   6.382  0.3066  0.7641  0.2118
 2996SOL     OW20449   0.889   4.601   6.330 -0.1268 -0.0199  0.2626
 2996SOL    HW120450   0.885   4.571   6.421 -0.2463 -3.1299 -0.7686
 2996SOL    HW220451   0.795   4.608   6.317 -0.3970 -1.6798  1.3333
 2997SOL     OW20452   4.558   2.877  17.200 -1.0251  0.1092 -0.6012
 2997SOL    HW120453   4.580   2.786  17.182 -1.1344 -0.0167 -0.0681
 2997SOL    HW220454   4.507   2.901  17.122 -0.0242  0.2931 -1.2027
 2998SOL     OW20455   0.125   3.720   6.579  0.1502 -0.8680 -0.6329
 2998SOL    HW120456   0.194   3.667   6.619  0.7027 -1.3274 -2.2079
 2998SOL    HW220457   0.166   3.776   6.513  0.5182 -0.3350  0.0434
 2999SOL     OW20458   1.685   2.649   4.318  0.0641 -0.2190 -0.0490
 2999SOL    HW120459   1.666   2.569   4.269  0.2532  0.7587 -1.7186
 2999SOL    HW220460   1.771   2.626   4.353  0.3759 -1.2497 -1.5024
 3000SOL     OW20461   3.526   0.312   1.387 -0.1989 -0.3630 -0.2502
 3000SOL    HW120462   3.607   0.268   1.416 -1.0620 -2.2116 -0.6252
 3000SOL    HW220463   3.471   0.328   1.464  0.3388 -1.8670  0.4533
 3001SOL     OW20464   3.768   3.545  12.004  0.3051 -0.3638 -0.2463
 3001SOL    HW120465   3.713   3.468  12.017  1.6053 -1.1805  0.3754
 3001SOL    HW220466   3.702   3.605  11.970  1.0711  1.2160  1.0445
 3002SOL     OW20467   2.379   4.621   2.706 -0.1803 -0.1728  0.3781
 3002SOL    HW120468   2.301   4.657   2.662 -0.4899 -0.8151  0.3926
 3002SOL    HW220469   2.447   4.642   2.643  1.2684 -3.2130  0.9221
 3003SOL     OW20470   2.210   4.346   4.580 -0.0136  0.0302 -0.4099
 3003SOL    HW120471   2.177   4.306   4.661 -1.2333 -3.3247 -2.5410
 3003SOL    HW220472   2.123   4.351   4.539  0.2660  0.3092 -0.9651
 3004SOL     OW20473   2.542   2.712   4.802  0.5604  0.4260 -0.8505
 3004SOL    HW120474   2.614   2.775   4.812  0.4880  0.3037  0.4196
 3004SOL    HW220475   2.587   2.630   4.779  1.1182  0.7600 -0.9723
 3005SOL     OW20476   2.990   3.711   9.401  0.4445  0.0941 -0.5370
 3005SOL    HW120477   2.976   3.729   9.494  0.9691 -0.1308 -0.4138
 3005SOL    HW220478   3.073   3.665   9.392  0.2985  0.1488 -2.2265
 3006SOL     OW20479   4.643   0.240   5.132 -0.0844  0.2054  0.3441
 3006SOL    HW120480   4.627   0.275   5.044 -1.2605  0.6658  0.7466
 3006SOL    HW220481   0.005   0.201   5.114 -0.4513 -0.3725 -0.1306
 3007SOL     OW20482   1.477   3.141  15.284 -0.1669 -0.3220  0.4978
 3007SOL    HW120483   1.495   3.066  15.227 -1.4551  0.7641 -1.3494
 3007SOL    HW220484   1.554   3.198  15.283 -2.1482  2.3191 -1.5873
 3008SOL     OW20485   2.938   2.109   4.808  0.4577 -0.2540  0.0434
 3008SOL    HW120486   3.022   2.077   4.840  0.3257 -0.4819  0.1641
 3008SOL    HW220487   2.917   2.025   4.767 -1.9646 -0.5829  1.9352
 3009SOL     OW20488   3.125   0.728   5.571  0.0052  0.4979 -0.2509
 3009SOL    HW120489   3.075   0.712   5.652 -0.6217 -0.5533 -0.8387
 3009SOL    HW220490   3.188   0.791   5.605 -1.2115  1.5133  0.1297
 3010SOL     OW20491   4.164   0.851   8.239  0.6288  0.1680  0.3561
 3010SOL    HW120492   4.203   0.813   8.317 -2.7460  1.2200  2.5337
 3010SOL    HW220493   4.199   0.940   8.247 -0.8561  0.9034 -1.3240
 3011SOL     OW20494   0.009   1.902  11.280 -0.2548  0.4946 -0.4284
 3011SOL    HW120495   0.100   1.903  11.250 -0.6886  1.5984 -1.6995
 3011SOL    HW220496   4.694   1.916  11.193  1.9938  2.3321 -1.0932
 3012SOL     OW20497   4.421   3.887   6.677 -0.5421 -0.4835  0.0743
 3012SOL    HW120498   4.462   3.858   6.596 -1.5004 -2.5079  0.2981
 3012SOL    HW220499   4.492   3.858   6.735  0.2415  0.8928 -0.2079
 3013SOL     OW20500   2.529   0.449   4.048 -0.3760  0.1342  0.2899
 3013SOL    HW120501   2.606   0.457   3.992  1.0786 -2.9176  1.8354
 3013SOL    HW220502   2.461   0.490   3.995  0.8094 -0.9227 -2.0357
 3014SOL     OW20503   2.062   2.951   8.516 -0.1849 -0.5882  0.3262
 3014SOL    HW120504   2.061   2.915   8.605  0.7031 -0.1825  0.5045
 3014SOL    HW220505   2.119   3.027   8.533 -1.3723  0.5762 -0.9106
 3015SOL     OW20506   3.450   4.534   7.801 -0.4829 -0.1510  0.4279
 3015SOL    HW120507   3.497   4.451   7.793  0.0361  0.1842 -0.0005
 3015SOL    HW220508   3.408   4.529   7.887  0.2605  2.1294  0.9468
 3016SOL     OW20509   3.729   2.787   8.519  0.7226  0.2251  0.0481
 3016SOL    HW120510   3.739   2.856   8.584 -3.1127  0.8713 -0.0262
 3016SOL    HW220511   3.634   2.788   8.509  0.6717 -0.7999  0.4547
 3017SOL     OW20512   3.219   4.677   3.818 -0.5043 -0.1867 -0.1047
 3017SOL    HW120513   3.203   4.592   3.860  0.4055 -0.1253  0.3796
 3017SOL    HW220514   3.140   4.686   3.767 -0.1305 -1.0640 -0.8421
 3018SOL     OW20515   2.608   0.646   6.550 -0.2745  0.5474  0.0255
 3018SOL    HW120516   2.544   0.688   6.493  0.8468  1.7022 -0.3776
 3018SOL    HW220517   2.572   0.653   6.638  0.6910 -0.8111  0.5361
 3019SOL     OW20518   3.666   1.839   5.314 -0.4276 -0.3603 -0.0248
 3019SOL    HW120519   3.734   1.907   5.318  0.2701 -0.9765 -1.2461
 3019SOL    HW220520   3.667   1.807   5.404 -1.7478  0.8371  0.4068
 3020SOL     OW20521   2.398   3.503  14.699  0.0811 -0.0121 -0.4550
 3020SOL    HW120522   2.437   3.486  14.785 -0.2965  0.1010 -0.2607
 3020SOL    HW220523   2.337   3.429  14.690 -0.4288  0.2607  0.7991
 3021SOL     OW20524   0.706   1.181   0.716  0.0089  0.1012  0.6134
 3021SOL    HW120525   0.751   1.164   0.634  1.4267 -1.0165  1.6301
 3021SOL    HW220526   0.742   1.268   0.733 -1.3006  1.0169 -1.3278
 3022SOL     OW20527   1.327   4.500   3.257 -0.2123  0.5267 -0.1662
 3022SOL    HW120528   1.250   4.502   3.201  0.0387  1.4576 -0.4758
 3022SOL    HW220529   1.383   4.442   3.205  0.6800 -0.6730  2.1310
 3023SOL     OW20530   3.159   4.416   8.079 -0.1170 -0.0810 -0.0834
 3023SOL    HW120531   3.138   4.468   8.156 -0.2938  0.0518 -0.2206
 3023SOL    HW220532   3.250   4.445   8.068 -0.1568  0.2685  0.4950
 3024SOL     OW20533   0.610   3.977  11.585  0.3592 -0.5305 -0.2552
 3024SOL    HW120534   0.543   3.968  11.653 -0.3316 -0.7212 -0.9578
 3024SOL    HW220535   0.557   3.978  11.505 -1.4894  1.4018  1.0047
 3025SOL     OW20536   2.478   2.011  12.590 -0.3856  0.0678  0.0991
 3025SOL    HW120537   2.534   2.089  12.588  0.5883 -0.6076  2.2299
 3025SOL    HW220538   2.493   1.996  12.683  2.7865  2.3264 -0.0618
 3026SOL     OW20539   0.316   4.359  16.328 -0.5323 -0.2343 -0.2545
 3026SOL    HW120540   0.319   4.274  16.285  3.0985 -0.7832  1.1019
 3026SOL    HW220541   0.224   4.383  16.316 -0.2430  0.7402 -0.5983
 3027SOL     OW20542   0.297   4.197  13.149  0.3249 -0.8406 -0.3990
 3027SOL    HW120543   0.375   4.174  13.199 -0.0748 -2.4136 -0.5013
 3027SOL    HW220544   0.308   4.145  13.069 -1.3812  0.1899 -1.3112
 3028SOL     OW20545   4.031   2.418   4.443  0.3158 -0.0307  0.2908
 3028SOL    HW120546   4.042   2.335   4.489 -0.6315 -0.7765 -0.8274
 3028SOL    HW220547   4.120   2.431   4.409  0.5093 -0.6991  0.5403
 3029SOL     OW20548   0.779   0.688   5.797 -0.3792 -0.7332 -0.7579
 3029SOL    HW120549   0.847   0.629   5.764  2.2175  0.4749  2.3157
 3029SOL    HW220550   0.809   0.770   5.759 -0.8755  0.1821  0.8128
 3030SOL     OW20551   2.863   0.362  15.028  0.5919  0.0365 -0.4319
 3030SOL    HW120552   2.874   0.338  14.936 -0.8457  0.5045 -0.7254
 3030SOL    HW220553   2.847   0.283  15.079  1.6077  0.0897 -0.0168
 3031SOL     OW20554   4.491   0.795   0.478  0.9476  0.3029  0.2900
 3031SOL    HW120555   4.466   0.719   0.427  0.8416  0.0598  0.7062
 3031SOL    HW220556   4.560   0.762   0.536  0.9359  1.5895  1.0448
 3032SOL     OW20557   0.248   0.854  13.896  0.2296  0.4198  0.3072
 3032SOL    HW120558   0.155   0.865  13.915 -0.1371  1.3728 -2.0467
 3032SOL    HW220559   0.243   0.800  13.817  1.0093  0.0043  0.5411
 3033SOL     OW20560   1.021   1.926   3.131 -0.6233 -0.6017 -0.4170
 3033SOL    HW120561   0.961   1.907   3.059 -2.0874  0.0172  0.6476
 3033SOL    HW220562   1.086   1.857   3.114  0.6166  0.3669  0.4136
 3034SOL     OW20563   1.647   3.997  14.239  0.2584  0.3402 -0.2793
 3034SOL    HW120564   1.680   4.057  14.172  0.1932 -0.0526 -0.6699
 3034SOL    HW220565   1.644   3.917  14.186 -0.5854 -0.7260  1.3785
 3035SOL     OW20566   2.578   2.090   0.498  0.2294 -0.3225  0.2901
 3035SOL    HW120567   2.556   2.139   0.419  2.4110  0.5372  0.1976
 3035SOL    HW220568   2.502   2.102   0.554  1.4541 -0.5707  2.0128
 3036SOL     OW20569   1.972   4.585   3.111  0.1050 -0.3723 -0.3891
 3036SOL    HW120570   1.897   4.553   3.161 -0.8835  1.1469 -0.9275
 3036SOL    HW220571   2.028   4.507   3.107 -1.1663 -1.3349  0.6287
 3037SOL     OW20572   0.653   4.514   8.203 -0.1075  0.2766  0.1301
 3037SOL    HW120573   0.576   4.503   8.258 -0.6131 -0.2907 -0.7055
 3037SOL    HW220574   0.634   4.595   8.155  3.2178  0.8796 -0.1573
 3038SOL     OW20575   0.129   2.306  13.164 -0.7926 -0.1613 -0.1130
 3038SOL    HW120576   0.212   2.266  13.137 -0.6078  0.8774 -1.0973
 3038SOL    HW220577   0.127   2.385  13.109 -1.9054  0.1008  0.3095
 3039SOL     OW20578   0.248   1.188  14.443 -0.4778 -0.6036  0.2923
 3039SOL    HW120579   0.225   1.103  14.404  0.5242 -1.5914  1.8495
 3039SOL    HW220580   0.166   1.206  14.490 -0.4488  0.6748 -0.1506
 3040SOL     OW20581   2.851   1.437   1.900  0.0208  0.5338  0.8608
 3040SOL    HW120582   2.941   1.471   1.904  0.2551  0.0908 -0.5850
 3040SOL    HW220583   2.824   1.466   1.813 -0.0661  0.4993  0.8763
 3041SOL     OW20584   4.170   1.603   4.932  0.0852 -0.0906 -0.8236
 3041SOL    HW120585   4.166   1.534   4.866 -0.2654 -1.6057  0.7772
 3041SOL    HW220586   4.131   1.672   4.878 -3.4828 -0.7645  0.8548
 3042SOL     OW20587   4.431   1.194  10.431 -0.5010  0.3343 -0.1376
 3042SOL    HW120588   4.472   1.108  10.435  2.6867  1.8179 -0.0390
 3042SOL    HW220589   4.512   1.238  10.404 -0.7832  0.8614 -0.1379
 3043SOL     OW20590   0.571   0.433  15.536  1.2590 -0.1790 -0.2015
 3043SOL    HW120591   0.653   0.450  15.489 -0.0047  1.4150 -1.8237
 3043SOL    HW220592   0.578   0.504  15.600 -0.2329  1.5241 -1.9393
 3044SOL     OW20593   2.446   3.784   1.201 -0.1295  0.0049  0.0193
 3044SOL    HW120594   2.447   3.757   1.109 -0.5765  2.1242 -0.6087
 3044SOL    HW220595   2.352   3.802   1.212 -0.1828 -0.8815  0.9382
 3045SOL     OW20596   2.812   3.035  10.455 -0.2829 -0.0863 -0.9932
 3045SOL    HW120597   2.744   2.972  10.479 -1.1247  1.4221  0.6333
 3045SOL    HW220598   2.765   3.108  10.495  2.7843  0.9259  0.7337
 3046SOL     OW20599   2.811   0.923   5.708 -0.1485  0.0759  0.4614
 3046SOL    HW120600   2.774   0.977   5.778 -1.4562 -0.5986  0.2873
 3046SOL    HW220601   2.847   0.841   5.742  0.7615  0.5062  0.5384
 3047SOL     OW20602   4.186   1.205   1.508 -0.2551  0.0127 -0.1039
 3047SOL    HW120603   4.173   1.111   1.502  0.4080 -0.1250  0.6112
 3047SOL    HW220604   4.264   1.208   1.451  1.5896  3.5470  2.6012
 3048SOL     OW20605   2.851   2.080   7.136 -0.0085  0.0024 -0.4746
 3048SOL    HW120606   2.899   2.137   7.196 -2.9460  1.0380  0.9214
 3048SOL    HW220607   2.915   2.051   7.071 -1.1323 -3.1341 -0.1752
 3049SOL     OW20608   3.590   4.407   8.716 -0.3078  0.0165  0.6846
 3049SOL    HW120609   3.595   4.495   8.679 -3.4919 -0.0679  0.0324
 3049SOL    HW220610   3.682   4.394   8.740  0.2684  0.2849 -1.3449
 3050SOL     OW20611   4.708   0.796  14.107  0.0655 -0.3191 -0.4349
 3050SOL    HW120612   4.627   0.784  14.156 -0.1210  0.7140 -0.4922
 3050SOL    HW220613   0.022   0.707  14.098 -1.5662 -0.7727 -2.4159
 3051SOL     OW20614   3.128   0.689   8.568 -0.2229  0.4007 -0.5656
 3051SOL    HW120615   3.137   0.777   8.534 -4.2311  1.0184 -0.0531
 3051SOL    HW220616   3.151   0.707   8.659 -3.1926  2.1766 -0.1981
 3052SOL     OW20617   2.506   1.552   8.689  0.5387  0.0128 -0.5372
 3052SOL    HW120618   2.526   1.536   8.597  2.1817  0.8002 -0.3240
 3052SOL    HW220619   2.442   1.481   8.697  0.9769 -0.2515  0.7473
 3053SOL     OW20620   3.101   3.055  14.095 -0.2500  0.0993  0.1065
 3053SOL    HW120621   3.109   3.001  14.016 -3.5338 -0.6889  0.3089
 3053SOL    HW220622   3.006   3.055  14.107 -0.2486 -0.1439  0.1003
 3054SOL     OW20623   4.673   3.892   0.678 -0.3121  0.1116  0.2364
 3054SOL    HW120624   0.045   3.905   0.682  0.0018 -1.5884 -1.5150
 3054SOL    HW220625   4.659   3.870   0.586  0.3047 -1.7138  0.5717
 3055SOL     OW20626   1.052   2.111   5.269 -0.2456 -0.0264 -0.2863
 3055SOL    HW120627   1.054   2.131   5.175 -0.1264  0.9107 -0.0848
 3055SOL    HW220628   1.143   2.118   5.298 -0.1409  0.8320 -0.8169
 3056SOL     OW20629   4.654   1.339  14.291 -0.0019 -0.5274  0.5566
 3056SOL    HW120630   4.560   1.357  14.296  0.1019 -0.0601  0.7764
 3056SOL    HW220631   4.679   1.288  14.368 -1.5793 -1.9777  0.1030
 3057SOL     OW20632   4.034   0.889   2.979  0.5724 -0.0035 -0.6900
 3057SOL    HW120633   3.985   0.949   3.035  0.1445 -0.2283 -0.8216
 3057SOL    HW220634   3.965   0.867   2.917  0.5077 -0.4735 -0.4521
 3058SOL     OW20635   3.024   2.565  14.658 -0.2508 -0.4256 -0.0079
 3058SOL    HW120636   2.940   2.604  14.637  0.6046  1.2275 -0.3329
 3058SOL    HW220637   3.034   2.503  14.585 -0.1512  0.3259 -0.6335
 3059SOL     OW20638   2.902   0.216   7.217  0.5818 -0.2378  0.6276
 3059SOL    HW120639   2.959   0.292   7.210  1.9222 -1.3348 -0.2915
 3059SOL    HW220640   2.895   0.197   7.311  0.5537  1.2833  0.9287
 3060SOL     OW20641   2.253   1.990  10.688  0.5286  0.6251  0.5300
 3060SOL    HW120642   2.306   1.950  10.756  2.7040 -0.1261 -1.5913
 3060SOL    HW220643   2.168   1.951  10.709  1.0110 -0.3034  0.7437
 3061SOL     OW20644   4.613   0.995   1.294  0.3228 -0.1067  0.5406
 3061SOL    HW120645   4.568   1.058   1.350 -1.9252 -0.5744 -0.7034
 3061SOL    HW220646   4.583   1.033   1.211  2.5390  2.2699  0.8434
 3062SOL     OW20647   2.085   1.143   6.863 -0.2108 -0.4495 -0.3573
 3062SOL    HW120648   2.174   1.119   6.835  0.0375  0.7646 -0.6130
 3062SOL    HW220649   2.028   1.152   6.787 -0.5200 -0.6151 -0.1438
 3063SOL     OW20650   1.936   4.532   8.178 -0.7139 -0.1399 -0.6327
 3063SOL    HW120651   1.850   4.502   8.152 -1.3006 -1.6984  3.1637
 3063SOL    HW220652   1.924   4.535   8.273  2.2569 -1.4883 -0.1967
 3064SOL     OW20653   0.861   0.463   8.236  0.0874 -0.3108 -0.4735
 3064SOL    HW120654   0.821   0.550   8.234  0.5570 -0.0938 -0.3234
 3064SOL    HW220655   0.948   0.486   8.204  0.2243  0.6654  0.6031
 3065SOL     OW20656   2.115   0.809   5.444 -0.2005  0.0044 -0.1334
 3065SOL    HW120657   2.119   0.723   5.401  0.2257 -0.0959  0.1131
 3065SOL    HW220658   2.070   0.859   5.376  0.0309 -1.0645 -1.0770
 3066SOL     OW20659   0.520   4.051  14.199  0.0123 -0.3860 -0.7338
 3066SOL    HW120660   0.533   3.960  14.170  0.9934  0.0991 -1.7934
 3066SOL    HW220661   0.427   4.038  14.218  0.1369 -3.2017 -1.9153
 3067SOL     OW20662   3.989   4.325   1.270  0.5991  0.0721  0.8540
 3067SOL    HW120663   4.082   4.304   1.262  0.9640  1.3928  1.6006
 3067SOL    HW220664   3.960   4.320   1.179  0.5674 -0.8641  0.9207
 3068SOL     OW20665   0.087   1.963   4.023  0.0525  0.5132 -0.3437
 3068SOL    HW120666   0.112   1.903   4.094  0.2664 -1.6076 -2.1950
 3068SOL    HW220667   0.166   2.017   4.017 -0.9561  2.0801  0.5045
 3069SOL     OW20668   0.880   4.635   0.619  0.4547  0.3829  0.4318
 3069SOL    HW120669   0.947   4.624   0.552  0.8671 -3.2327  1.4192
 3069SOL    HW220670   0.868   4.545   0.649  1.9352 -0.8055 -2.5093
 3070SOL     OW20671   2.990   3.661   7.408 -0.2167 -0.7132  0.1287
 3070SOL    HW120672   3.033   3.609   7.341 -1.5299 -0.8999 -0.5713
 3070SOL    HW220673   3.025   3.624   7.489  0.9852  0.6292  0.2201
 3071SOL     OW20674   3.105   3.061   6.156  0.2625 -0.0505 -0.1158
 3071SOL    HW120675   3.088   3.139   6.208 -0.5226  0.7803 -1.6327
 3071SOL    HW220676   3.039   3.070   6.086 -0.6805 -1.6029  0.5644
 3072SOL     OW20677   2.859   4.057  13.984  0.1241  0.0753 -0.4029
 3072SOL    HW120678   2.866   4.044  14.079 -2.0325 -0.4476 -0.2984
 3072SOL    HW220679   2.824   3.972  13.957  0.7278  0.3788 -2.1279
 3073SOL     OW20680   1.820   0.517   5.573  0.1678 -0.0183  0.3191
 3073SOL    HW120681   1.731   0.544   5.594 -0.6553 -0.4684 -2.5383
 3073SOL    HW220682   1.795   0.462   5.499 -0.9274  0.8455  0.0578
 3074SOL     OW20683   3.021   2.526   3.387  0.3482 -0.2425  0.1260
 3074SOL    HW120684   3.012   2.609   3.434 -0.7795 -1.5957  2.2765
 3074SOL    HW220685   3.096   2.488   3.433  0.5112 -1.3139 -1.0302
 3075SOL     OW20686   4.720   2.573   4.388  0.5561  0.4610  0.0328
 3075SOL    HW120687   0.054   2.540   4.458 -0.4415 -0.0657  0.5904
 3075SOL    HW220688   4.636   2.589   4.432  0.5088 -0.1612  0.1676
 3076SOL     OW20689   4.082   2.535   4.199 -0.6567 -0.2124  0.0397
 3076SOL    HW120690   4.042   2.611   4.156  2.9217  0.1083 -2.8119
 3076SOL    HW220691   4.003   2.502   4.240 -1.3769  2.1621  0.5251
 3077SOL     OW20692   0.042   3.777  15.176 -0.2241 -0.2071 -0.3879
 3077SOL    HW120693   0.039   3.846  15.243 -1.5518 -1.2623  0.6306
 3077SOL    HW220694   0.069   3.828  15.100  3.7288  0.2455  1.2828
 3078SOL     OW20695   2.552   2.313   1.316  0.5927 -0.2461  0.2843
 3078SOL    HW120696   2.532   2.340   1.226  1.2571 -1.6390 -0.2715
 3078SOL    HW220697   2.604   2.234   1.307  0.8671  0.0716 -0.9133
 3079SOL     OW20698   3.498   0.467   9.202 -0.2035  0.3849 -1.0243
 3079SOL    HW120699   3.407   0.481   9.174 -0.7718  1.4659  1.3170
 3079SOL    HW220700   3.470   0.417   9.279 -1.4763  0.3611 -1.5069
 3080SOL     OW20701   0.503   2.477   7.160 -0.1710 -0.5047 -0.0934
 3080SOL    HW120702   0.542   2.554   7.202 -2.1999  1.2086 -1.3457
 3080SOL    HW220703   0.480   2.420   7.233 -0.3900 -1.0803 -0.6118
 3081SOL     OW20704   3.653   2.312  16.699  0.3091  0.2527  0.4033
 3081SOL    HW120705   3.643   2.338  16.607 -0.4611 -1.3664  0.0329
 3081SOL    HW220706   3.668   2.218  16.693  1.5460  0.4213  1.0221
 3082SOL     OW20707   4.415   2.869  11.016  0.7273 -0.1708 -0.3362
 3082SOL    HW120708   4.321   2.887  11.016  0.7886  0.1470 -0.7011
 3082SOL    HW220709   4.425   2.822  11.099  3.1734  0.5366 -0.2186
 3083SOL     OW20710   3.764   0.094   8.910 -0.6806  1.0008 -0.4112
 3083SOL    HW120711   3.834   0.046   8.867 -0.9818  1.5354 -1.5006
 3083SOL    HW220712   3.762   0.040   8.990  1.9939  1.9314  0.2735
 3084SOL     OW20713   3.794   2.071   2.485 -0.4206 -0.0648  0.0759
 3084SOL    HW120714   3.761   1.992   2.442  0.7238 -0.3240 -0.3145
 3084SOL    HW220715   3.784   2.042   2.575 -1.8569  2.5653  0.7852
 3085SOL     OW20716   2.770   1.802   2.615 -0.2228 -0.4153 -0.2176
 3085SOL    HW120717   2.798   1.740   2.547 -0.6816 -0.9805  0.1040
 3085SOL    HW220718   2.819   1.878   2.585 -0.3993 -0.5823 -0.9340
 3086SOL     OW20719   1.410   4.647   3.843 -0.5002 -0.2039 -0.1867
 3086SOL    HW120720   1.478   4.665   3.778 -1.7167  0.5218 -1.2567
 3086SOL    HW220721   1.461   4.596   3.906 -1.5126  1.8518  2.2890
 3087SOL     OW20722   2.114   2.461   3.244  0.5035 -0.3644 -0.0122
 3087SOL    HW120723   2.098   2.388   3.184 -1.5307 -1.7469  2.1940
 3087SOL    HW220724   2.193   2.498   3.206 -0.2473 -2.3197 -3.4256
 3088SOL     OW20725   1.344   0.421   8.162 -0.1866 -0.3559 -0.7745
 3088SOL    HW120726   1.330   0.487   8.230 -2.3146 -1.0684 -0.5249
 3088SOL    HW220727   1.429   0.387   8.193 -0.2906  0.2397  0.1741
 3089SOL     OW20728   2.872   0.994   4.652  0.5809 -0.4049 -0.6304
 3089SOL    HW120729   2.795   0.963   4.607 -0.3349  0.5127  0.2968
 3089SOL    HW220730   2.852   1.087   4.659 -0.3814 -0.6459 -0.2301
 3090SOL     OW20731   1.560   4.453   3.477  0.2166 -0.4325 -0.1399
 3090SOL    HW120732   1.649   4.424   3.496  0.5702 -0.7972 -2.3903
 3090SOL    HW220733   1.547   4.527   3.536  0.8410  0.0710 -0.6383
 3091SOL     OW20734   4.245   1.246  10.687 -0.0955  0.3279  0.4650
 3091SOL    HW120735   4.236   1.197  10.769  0.8281  0.7737  0.8342
 3091SOL    HW220736   4.229   1.334  10.719  0.3245  0.3227  0.6961
 3092SOL     OW20737   4.126   2.476  12.139 -0.0586  0.2393  0.5199
 3092SOL    HW120738   4.062   2.547  12.130  1.0038  1.1869  0.3305
 3092SOL    HW220739   4.097   2.447  12.226  1.6600 -2.1424  0.2897
 3093SOL     OW20740   3.050   1.988   6.925  0.1676 -0.2857  0.3637
 3093SOL    HW120741   3.106   2.001   6.848  0.8630 -0.6520  0.8054
 3093SOL    HW220742   3.116   1.999   6.993  0.8313 -0.8936 -0.1815
 3094SOL     OW20743   0.008   0.231   1.876 -0.1515 -0.5970 -0.1168
 3094SOL    HW120744   4.687   0.164   1.822  0.7687 -1.0438 -0.3075
 3094SOL    HW220745   4.652   0.276   1.905 -0.2818  0.0624 -1.5007
 3095SOL     OW20746   1.482   3.185  16.689  0.0376  0.3649 -0.2447
 3095SOL    HW120747   1.472   3.260  16.629 -1.2132  0.5032  0.1288
 3095SOL    HW220748   1.575   3.165  16.682  0.4616  1.9910  0.8922
 3096SOL     OW20749   2.355   1.908   1.495  0.6038  0.0425 -0.6817
 3096SOL    HW120750   2.427   1.968   1.514  0.1751  0.7160 -1.1702
 3096SOL    HW220751   2.326   1.877   1.581  2.5280  2.8594  0.9787
 3097SOL     OW20752   2.118   2.982  16.341 -0.0233  0.6322 -0.0150
 3097SOL    HW120753   2.143   3.074  16.337 -1.8794  1.0890 -1.4073
 3097SOL    HW220754   2.030   2.988  16.302 -0.6141  2.2735  1.5429
 3098SOL     OW20755   2.402   4.291  10.819 -0.3348 -0.5333 -0.1056
 3098SOL    HW120756   2.477   4.351  10.822  1.9788 -3.4274  0.7980
 3098SOL    HW220757   2.346   4.333  10.884  0.9078  1.2054 -0.1553
 3099SOL     OW20758   0.874   3.758   7.212 -0.7231  0.3893 -0.1902
 3099SOL    HW120759   0.803   3.742   7.274  0.5505 -1.4259  0.8177
 3099SOL    HW220760   0.942   3.790   7.272 -0.5963  1.8899 -1.1316
 3100SOL     OW20761   3.323   2.236   3.079  0.1503  0.8010  0.4675
 3100SOL    HW120762   3.377   2.276   3.146 -1.0385  0.7570  1.4480
 3100SOL    HW220763   3.285   2.316   3.043 -2.3713 -0.5715  0.0650
 3101SOL     OW20764   3.826   1.861   1.425  0.0561 -0.2028 -0.7634
 3101SOL    HW120765   3.862   1.942   1.391 -0.4980  0.1634 -0.4867
 3101SOL    HW220766   3.738   1.863   1.387  0.7892 -1.3420 -2.5082
 3102SOL     OW20767   0.958   3.917  16.672 -0.4001 -0.4350 -0.3174
 3102SOL    HW120768   0.945   3.894  16.580 -0.1723 -2.3122  0.1096
 3102SOL    HW220769   1.031   3.860  16.697  0.6393  1.4123  0.7999
 3103SOL     OW20770   4.654   2.612   6.392 -0.0272  0.0561 -0.3416
 3103SOL    HW120771   4.713   2.687   6.394 -0.3775  0.3436 -0.6605
 3103SOL    HW220772   4.617   2.639   6.308 -1.0473 -0.4400 -0.0544
 3104SOL     OW20773   0.196   1.812   7.997 -0.5685 -0.1993  0.3600
 3104SOL    HW120774   0.217   1.802   8.090 -1.2016  0.0818  0.5305
 3104SOL    HW220775   0.191   1.718   7.977  0.4838 -0.1639 -0.1162
 3105SOL     OW20776   1.186   0.193   9.357  0.3675 -0.5785  0.6559
 3105SOL    HW120777   1.154   0.208   9.268 -2.7038 -0.4065  1.7944
 3105SOL    HW220778   1.141   0.113   9.382 -0.0121 -0.8802 -0.9947
 3106SOL     OW20779   3.001   4.589  13.052 -0.0979 -0.4621  0.4960
 3106SOL    HW120780   3.086   4.570  13.012  0.3075 -0.3789  1.3311
 3106SOL    HW220781   2.943   4.520  13.017  0.1254  0.4903 -1.7648
 3107SOL     OW20782   1.667   2.425   2.489 -0.2167 -0.0767 -0.1010
 3107SOL    HW120783   1.648   2.414   2.396  2.1264  0.9032 -0.6856
 3107SOL    HW220784   1.628   2.345   2.525  1.7884 -0.5558  1.0094
 3108SOL     OW20785   3.118   1.664  15.030 -0.3770  0.0786 -0.1065
 3108SOL    HW120786   3.209   1.686  15.010  0.3871 -2.0965  0.9855
 3108SOL    HW220787   3.110   1.576  14.993  0.8456 -0.3934  0.7418
 3109SOL     OW20788   2.589   4.101  13.817  0.2742 -0.4654  0.2372
 3109SOL    HW120789   2.618   4.149  13.894  0.0837 -0.9486  0.6093
 3109SOL    HW220790   2.635   4.019  13.835 -1.4146 -2.0397 -2.5689
 3110SOL     OW20791   3.374   1.380   8.523  0.0366 -0.0330  0.2157
 3110SOL    HW120792   3.281   1.404   8.524  0.9099  3.3528  1.4693
 3110SOL    HW220793   3.416   1.466   8.535  0.9861 -0.5002  0.2007
 3111SOL     OW20794   1.293   4.639   5.997  0.0641 -0.2730 -0.1554
 3111SOL    HW120795   1.237   4.604   5.928  0.4273 -2.1801  0.5419
 3111SOL    HW220796   1.260   4.587   6.070 -3.9483  2.2810 -0.1246
 3112SOL     OW20797   3.330   3.174   2.426 -0.1006  0.0259 -0.2546
 3112SOL    HW120798   3.353   3.255   2.470  0.3718 -0.4813  0.4238
 3112SOL    HW220799   3.342   3.202   2.335  3.1407  0.6221  0.3738
 3113SOL     OW20800   3.143   0.709   5.302 -0.2238  0.4303  0.2009
 3113SOL    HW120801   3.051   0.728   5.284 -0.5803 -0.8678  0.6851
 3113SOL    HW220802   3.138   0.705   5.397  1.9829 -1.9507  0.2111
 3114SOL     OW20803   0.055   4.529   7.406 -0.1204 -0.4231  0.9885
 3114SOL    HW120804   0.010   4.560   7.485  0.8398 -1.2100  1.8490
 3114SOL    HW220805   0.146   4.545   7.432  0.2602 -1.2349  0.1735
 3115SOL     OW20806   4.683   4.531   2.917 -0.1548 -0.2807 -0.2838
 3115SOL    HW120807   0.020   4.605   2.905 -0.5998 -0.0367 -0.9611
 3115SOL    HW220808   4.708   4.472   2.845  0.4212 -0.5473  0.1308
 3116SOL     OW20809   4.350   3.045   4.658 -0.0470  0.1379 -0.8698
 3116SOL    HW120810   4.298   3.024   4.736  1.1480  0.9418  0.1313
 3116SOL    HW220811   4.402   3.124   4.672  1.1339 -0.3575 -2.4773
 3117SOL     OW20812   0.276   1.756   9.027  0.3736 -0.1015 -0.4007
 3117SOL    HW120813   0.201   1.808   8.997  0.2185  0.7133  1.3868
 3117SOL    HW220814   0.343   1.778   8.961  0.5301  0.7960  0.0502
 3118SOL     OW20815   1.598   2.191  16.676  0.0736 -0.3656  0.0154
 3118SOL    HW120816   1.664   2.260  16.684 -1.8808  1.7824 -2.4934
 3118SOL    HW220817   1.525   2.252  16.673  0.2862 -0.0309  1.3649
 3119SOL     OW20818   2.092   3.232   4.108 -0.7931 -0.2543  0.4459
 3119SOL    HW120819   2.113   3.156   4.053 -0.3927 -0.0197  0.2760
 3119SOL    HW220820   2.100   3.307   4.050  0.7749 -1.5521 -1.0459
 3120SOL     OW20821   3.540   3.378   9.514  0.1641  0.3995  0.0266
 3120SOL    HW120822   3.481   3.346   9.582 -0.9818 -1.6115 -1.9122
 3120SOL    HW220823   3.587   3.295   9.500 -1.3896 -0.6786  1.1734
 3121SOL     OW20824   1.651   2.666   2.591  0.2648  0.1455 -0.2122
 3121SOL    HW120825   1.694   2.656   2.676 -0.8104 -1.3861  0.1472
 3121SOL    HW220826   1.629   2.578   2.561  1.4060 -0.0790 -0.3827
 3122SOL     OW20827   3.935   3.522   0.618 -0.3956 -0.4560  0.0547
 3122SOL    HW120828   3.921   3.544   0.526 -0.2423 -0.4806  0.0263
 3122SOL    HW220829   3.954   3.428   0.609 -0.9791 -0.5294 -0.3771
 3123SOL     OW20830   3.962   1.282   2.934 -0.1072  0.7781  0.2648
 3123SOL    HW120831   3.888   1.298   2.875 -1.9692 -1.1219  2.1052
 3123SOL    HW220832   4.039   1.289   2.878  0.9587 -1.0577  1.5096
 3124SOL     OW20833   3.747   2.168   8.443 -0.3584 -0.1195 -0.5993
 3124SOL    HW120834   3.737   2.224   8.519 -2.7912  0.2694 -1.1918
 3124SOL    HW220835   3.658   2.133   8.446 -1.0421  1.4934 -2.2537
 3125SOL     OW20836   0.307   3.891  14.740 -0.0014 -0.5316 -0.3524
 3125SOL    HW120837   0.256   3.863  14.664  1.4594  0.2862 -1.6362
 3125SOL    HW220838   0.387   3.928  14.702 -0.5401  0.4895 -0.4724
 3126SOL     OW20839   3.123   4.010   4.692  0.1762  0.4353  0.3683
 3126SOL    HW120840   3.190   4.078   4.700 -1.8424  2.3090  1.3221
 3126SOL    HW220841   3.137   3.984   4.601 -1.5031  0.4083  0.1302
 3127SOL     OW20842   1.393   2.031  16.628  0.6682  0.5000 -0.1121
 3127SOL    HW120843   1.373   2.051  16.536 -0.5653 -0.4241 -0.0431
 3127SOL    HW220844   1.472   2.081  16.648  1.0480  0.2799 -1.0313
 3128SOL     OW20845   3.151   4.093   2.112 -0.2769  0.2895  0.0222
 3128SOL    HW120846   3.091   4.021   2.133 -0.6826  0.4305 -0.6538
 3128SOL    HW220847   3.110   4.126   2.032 -2.9794 -1.8720  0.4823
 3129SOL     OW20848   3.827   1.347  11.320 -0.1369  0.6768  0.9970
 3129SOL    HW120849   3.732   1.359  11.321 -0.2414 -0.0761  0.7264
 3129SOL    HW220850   3.834   1.252  11.308 -1.6617  0.5694  1.0202
 3130SOL     OW20851   1.136   3.901  15.151  0.2857  0.0348  0.2104
 3130SOL    HW120852   1.079   3.830  15.182 -0.5029  1.4135  1.8920
 3130SOL    HW220853   1.084   3.978  15.173 -2.5841 -1.0066 -3.0075
 3131SOL     OW20854   2.905   1.956   9.227  0.1757  0.2948  0.3443
 3131SOL    HW120855   2.916   1.909   9.145  1.9214  0.2134  0.6193
 3131SOL    HW220856   2.900   1.884   9.290 -0.3498  0.4666  0.5000
 3132SOL     OW20857   3.370   2.358   8.666 -0.9131  0.1640  0.1619
 3132SOL    HW120858   3.340   2.443   8.698 -0.0812  0.0778  1.1973
 3132SOL    HW220859   3.357   2.301   8.742 -1.3854  0.7940  0.5574
 3133SOL     OW20860   1.298   2.498   8.428  0.3318 -0.4850  0.1367
 3133SOL    HW120861   1.285   2.406   8.449  1.0607 -1.1987 -2.6243
 3133SOL    HW220862   1.252   2.511   8.345  0.5231  0.2175  0.1377
 3134SOL     OW20863   0.850   1.504   6.117  0.9008  0.4092 -0.0889
 3134SOL    HW120864   0.854   1.578   6.177  0.7093  1.5929 -1.5280
 3134SOL    HW220865   0.917   1.520   6.050  1.7292 -0.6146  0.5029
 3135SOL     OW20866   3.338   3.353   4.784  0.5276 -0.2378 -0.9168
 3135SOL    HW120867   3.387   3.431   4.809 -0.6075 -0.1480  0.9861
 3135SOL    HW220868   3.344   3.369   4.690  1.3700  2.0895 -0.4649
 3136SOL     OW20869   1.265   1.455   6.554  0.4573 -0.5564  0.6701
 3136SOL    HW120870   1.321   1.473   6.479 -2.6373 -0.8144 -1.7098
 3136SOL    HW220871   1.235   1.543   6.580  1.8047  0.0084  0.2906
 3137SOL     OW20872   4.706   3.345   3.059  0.3801 -0.1265  0.1756
 3137SOL    HW120873   0.047   3.340   3.130 -0.3358 -1.4353  0.7077
 3137SOL    HW220874   0.027   3.301   2.986 -0.0284 -1.3432  0.6718
 3138SOL     OW20875   2.150   1.390   3.068  0.5128  0.1362  0.0643
 3138SOL    HW120876   2.094   1.322   3.030  2.1154 -0.9590 -0.3626
 3138SOL    HW220877   2.153   1.447   2.992 -0.0056  0.6345  0.4253
 3139SOL     OW20878   2.520   3.627  11.053 -0.3493 -0.0222 -0.2072
 3139SOL    HW120879   2.499   3.569  10.979 -1.4448 -1.2794  1.0901
 3139SOL    HW220880   2.453   3.694  11.038 -0.5738  0.2239  1.9549
 3140SOL     OW20881   2.391   3.174  17.500 -0.4234 -0.3496  0.3632
 3140SOL    HW120882   2.389   3.136  17.588 -1.4206 -0.3955  0.3114
 3140SOL    HW220883   2.485   3.164  17.482 -1.1962 -1.4295 -3.0872
 3141SOL     OW20884   4.120   0.091   1.430  0.5019 -0.0849 -0.2297
 3141SOL    HW120885   4.137   0.184   1.446  0.7239 -0.1232 -0.2431
 3141SOL    HW220886   4.087   0.067   1.517  0.2556 -1.1219 -0.6088
 3142SOL     OW20887   1.198   0.599   4.593 -0.4057 -0.2641  0.1510
 3142SOL    HW120888   1.210   0.630   4.503 -0.5415 -0.9247 -0.0955
 3142SOL    HW220889   1.199   0.504   4.584  0.2975 -0.5459  3.1380
 3143SOL     OW20890   4.218   3.563  16.233 -0.2387 -0.5595  0.2671
 3143SOL    HW120891   4.184   3.636  16.286 -0.1009 -1.1356  1.1595
 3143SOL    HW220892   4.207   3.600  16.146 -0.4490  2.0840  1.3823
 3144SOL     OW20893   3.281   0.846   7.234  0.3455 -0.3936  0.1723
 3144SOL    HW120894   3.298   0.753   7.249 -0.3025 -0.8086 -1.6157
 3144SOL    HW220895   3.344   0.863   7.164  1.3056  0.4111  1.2453
 3145SOL     OW20896   3.343   2.168  10.227  0.3077  0.0266 -0.8735
 3145SOL    HW120897   3.336   2.257  10.261  2.0321 -0.0412 -0.3256
 3145SOL    HW220898   3.258   2.145  10.189 -0.5338 -0.3427  1.2313
 3146SOL     OW20899   4.351   0.559   8.671 -0.5224  0.0686 -0.2678
 3146SOL    HW120900   4.306   0.480   8.698  1.9285 -0.8416  1.2048
 3146SOL    HW220901   4.367   0.599   8.757 -0.2308  0.1556 -0.3617
 3147SOL     OW20902   1.615   3.811   4.190  0.4399  0.8518  0.4802
 3147SOL    HW120903   1.643   3.831   4.101  0.9315  0.0448  0.4604
 3147SOL    HW220904   1.601   3.718   4.174  0.3975  0.5846  2.0789
 3148SOL     OW20905   1.398   2.230   7.616 -0.4038 -0.1753 -0.3707
 3148SOL    HW120906   1.434   2.311   7.651  2.8372 -1.3665 -0.9123
 3148SOL    HW220907   1.389   2.255   7.524 -2.3447 -0.3508 -0.2285
 3149SOL     OW20908   3.767   3.694   6.278 -0.0982  0.1773  0.0891
 3149SOL    HW120909   3.804   3.670   6.363  1.3231  1.1116 -0.2665
 3149SOL    HW220910   3.816   3.769   6.243  0.9633 -0.3816  0.3791
 3150SOL     OW20911   0.062   2.264   6.679 -0.2521  0.5133  0.4340
 3150SOL    HW120912   0.083   2.357   6.683  5.0665 -0.6935  0.0081
 3150SOL    HW220913   0.010   2.259   6.760 -1.5340 -3.1275 -0.6104
 3151SOL     OW20914   3.156   0.397   9.927  0.2711  0.0481 -0.4829
 3151SOL    HW120915   3.090   0.356   9.872  0.0584  0.0885 -0.2600
 3151SOL    HW220916   3.210   0.447   9.867  0.9295 -0.6054 -0.4294
 3152SOL     OW20917   1.883   0.493   3.687 -0.0348 -0.2502  0.0875
 3152SOL    HW120918   1.856   0.405   3.663 -1.6826  0.3877 -0.3439
 3152SOL    HW220919   1.799   0.538   3.684 -0.2342 -0.4199  3.1810
 3153SOL     OW20920   1.857   1.050   3.200  0.4763  0.3406  0.4560
 3153SOL    HW120921   1.896   0.981   3.147 -1.3173 -1.5210  1.5833
 3153SOL    HW220922   1.811   1.100   3.133 -0.0404 -0.3875  0.2795
 3154SOL     OW20923   4.658   2.897   2.768  0.2333  0.0135  0.0776
 3154SOL    HW120924   0.000   2.844   2.815  1.0620 -0.9563 -2.1727
 3154SOL    HW220925   4.662   2.860   2.680 -2.4554 -0.6219  0.2215
 3155SOL     OW20926   3.792   0.101   7.565  0.1971 -0.2997 -0.2285
 3155SOL    HW120927   3.814   0.016   7.604 -0.8890 -1.0857 -1.3606
 3155SOL    HW220928   3.705   0.110   7.603  0.1842 -1.6118  0.0273
 3156SOL     OW20929   2.832   0.039   9.033 -0.1911  0.0908  0.1074
 3156SOL    HW120930   2.892   0.007   8.965 -1.3099  0.1140 -0.8791
 3156SOL    HW220931   2.807   4.683   9.082  0.2366 -1.1799 -1.6988
 3157SOL     OW20932   1.993   3.518   6.738 -0.2731  0.0294 -0.2125
 3157SOL    HW120933   2.027   3.530   6.649  0.4903  0.6242  0.1619
 3157SOL    HW220934   1.899   3.531   6.731  0.0778  2.5566 -0.0692
 3158SOL     OW20935   1.088   1.043   5.123  0.3169  0.3291  0.0717
 3158SOL    HW120936   1.141   1.121   5.109 -0.9502  1.3017  0.7307
 3158SOL    HW220937   1.027   1.055   5.051 -1.8447 -0.5612  1.7688
 3159SOL     OW20938   1.920   4.575  16.113  0.1728  0.1893  0.1827
 3159SOL    HW120939   1.933   4.639  16.183 -1.0832  0.6997 -0.0583
 3159SOL    HW220940   1.998   4.588  16.060 -0.4432  1.2116 -0.4687
 3160SOL     OW20941   2.738   1.894  16.160  0.1944 -0.3055 -0.2424
 3160SOL    HW120942   2.700   1.951  16.093 -0.4663 -1.6386 -1.0115
 3160SOL    HW220943   2.713   1.809  16.124  1.7590 -0.4814 -0.8934
 3161SOL     OW20944   0.586   4.377  11.333 -0.3307  0.4764 -0.2964
 3161SOL    HW120945   0.661   4.321  11.353 -1.5205 -1.8004 -2.2566
 3161SOL    HW220946   0.598   4.449  11.395 -0.8885  0.1387  0.2075
 3162SOL     OW20947   4.050   0.151   0.895 -0.5479 -0.0713 -0.1335
 3162SOL    HW120948   3.986   0.184   0.832 -1.1451  2.2908  1.7265
 3162SOL    HW220949   4.047   0.057   0.879 -1.8210  0.0271 -0.4890
 3163SOL     OW20950   0.471   4.340   4.543  0.2991  0.3886  0.5838
 3163SOL    HW120951   0.544   4.283   4.566 -0.1192 -0.7628 -0.9646
 3163SOL    HW220952   0.451   4.318   4.452 -1.9715  1.0471  0.9282
 3164SOL     OW20953   0.982   0.997  10.960  0.1277  0.4371 -0.1235
 3164SOL    HW120954   0.993   0.908  10.994 -0.8188  0.4298  0.1576
 3164SOL    HW220955   0.973   0.981  10.866 -1.9480  1.1143 -0.0472
 3165SOL     OW20956   2.550   3.132  12.635 -0.2982  0.1413  0.3542
 3165SOL    HW120957   2.585   3.188  12.566  1.4107 -1.0987  0.2206
 3165SOL    HW220958   2.627   3.149  12.690 -1.3874 -1.2551  2.3267
 3166SOL     OW20959   2.586   3.359   4.516  0.3150  0.3802  1.2432
 3166SOL    HW120960   2.567   3.354   4.423 -0.0513  2.5079  1.2131
 3166SOL    HW220961   2.532   3.434   4.540  0.1918  0.7223 -0.1158
 3167SOL     OW20962   1.250   2.748   5.181  0.1732  1.1274  0.7522
 3167SOL    HW120963   1.298   2.687   5.125  1.6528  2.6431  0.3434
 3167SOL    HW220964   1.178   2.782   5.128  1.4420  0.1767 -1.6313
 3168SOL     OW20965   3.965   2.437   4.846  0.3376  0.3800 -0.3620
 3168SOL    HW120966   3.949   2.522   4.805 -0.6004  0.6435  0.5334
 3168SOL    HW220967   3.947   2.448   4.940 -1.1150 -0.2022 -0.5684
 3169SOL     OW20968   1.523   3.052   9.860  0.2997 -0.0378 -0.1687
 3169SOL    HW120969   1.505   3.093   9.945 -0.6714  1.5883 -1.1535
 3169SOL    HW220970   1.435   3.031   9.828  0.3196 -0.5299  0.0982
 3170SOL     OW20971   0.476   2.953   4.074 -0.0516  1.1963 -0.5330
 3170SOL    HW120972   0.480   2.977   3.982 -2.0268  1.6860 -0.4826
 3170SOL    HW220973   0.381   2.957   4.084 -0.1374 -0.3768 -0.7019
 3171SOL     OW20974   0.673   3.907   1.897  0.0926  0.6088 -0.2312
 3171SOL    HW120975   0.698   3.815   1.893  0.4515  0.7066 -0.1716
 3171SOL    HW220976   0.619   3.903   1.817 -2.2238 -2.4178  1.4745
 3172SOL     OW20977   0.171   4.024  17.195  0.2336  0.3982  0.1830
 3172SOL    HW120978   0.137   4.101  17.150 -0.1281  0.7513  1.0575
 3172SOL    HW220979   0.208   4.059  17.277 -0.2240 -1.8260  1.3515
 3173SOL     OW20980   2.218   0.202  16.739 -0.2229  0.2406 -0.1769
 3173SOL    HW120981   2.270   0.272  16.778 -1.8599  0.6144  1.3455
 3173SOL    HW220982   2.265   0.194  16.657  0.9099 -0.2312  0.5250
 3174SOL     OW20983   3.928   1.985   5.786  0.4396 -0.0036  0.1678
 3174SOL    HW120984   3.988   2.030   5.845  1.3250 -2.0202  0.7967
 3174SOL    HW220985   3.863   1.963   5.853  0.0583 -0.7430 -0.4495
 3175SOL     OW20986   1.002   4.571   2.403  0.2472  0.8385  0.0724
 3175SOL    HW120987   1.054   4.595   2.325 -0.6398 -0.6781 -0.9883
 3175SOL    HW220988   1.034   4.481   2.413 -1.5314  0.2774  0.6028
 3176SOL     OW20989   0.032   4.361   3.538 -0.4260  0.7279 -0.0693
 3176SOL    HW120990   4.659   4.358   3.531 -0.4286 -1.5868  0.6432
 3176SOL    HW220991   0.046   4.446   3.496  2.0437  1.3323  2.0047
 3177SOL     OW20992   2.801   2.632  10.378 -0.5710  0.2871  0.0022
 3177SOL    HW120993   2.877   2.666  10.426  0.9127  0.7061 -2.6548
 3177SOL    HW220994   2.807   2.684  10.298  1.3550  1.0329  0.6349
 3178SOL     OW20995   2.713   1.252   2.982  0.1928 -0.3918 -0.0817
 3178SOL    HW120996   2.793   1.202   2.966  0.3170 -0.2664  0.1474
 3178SOL    HW220997   2.666   1.199   3.047 -0.8210  2.9743  1.9222
 3179SOL     OW20998   3.145   3.238  13.728  0.9524  0.2288  0.7274
 3179SOL    HW120999   3.116   3.299  13.661  1.8372 -0.0890  0.0455
 3179SOL    HW221000   3.066   3.244  13.782  0.1413  1.3827 -0.5960
 3180SOL     OW21001   4.591   1.261   4.501 -0.1261  0.3058  0.1629
 3180SOL    HW121002   4.662   1.300   4.552  1.0210 -2.0421  0.3437
 3180SOL    HW221003   4.635   1.263   4.415  0.3065  2.7419  0.4323
 3181SOL     OW21004   3.093   1.869  11.369  0.1169  0.7042 -0.1348
 3181SOL    HW121005   3.097   1.813  11.447  0.9893  0.3949 -0.4024
 3181SOL    HW221006   3.188   1.880  11.364 -0.0818  1.2162 -2.6344
 3182SOL     OW21007   4.704   2.295  13.595 -0.3378  0.6033 -0.6534
 3182SOL    HW121008   4.717   2.210  13.637  0.3614 -0.0768 -2.2825
 3182SOL    HW221009   4.684   2.349  13.672  1.6592 -1.4459  1.2978
 3183SOL     OW21010   3.513   4.211   0.485  0.0683 -0.0675 -0.3279
 3183SOL    HW121011   3.600   4.188   0.450  0.8065  4.2425 -1.2927
 3183SOL    HW221012   3.528   4.303   0.504  1.9391 -0.4219 -0.0769
 3184SOL     OW21013   2.743   4.342   8.454  0.0605 -0.4482 -0.2559
 3184SOL    HW121014   2.797   4.338   8.533 -2.9914 -3.0217  1.6759
 3184SOL    HW221015   2.673   4.288   8.490  1.5163 -0.7191  2.1588
 3185SOL     OW21016   3.660   1.616   9.513  0.5584 -0.0190  0.0675
 3185SOL    HW121017   3.733   1.595   9.572  1.0302  1.1105 -0.1167
 3185SOL    HW221018   3.635   1.697   9.557 -0.4846  0.0458 -0.6537
 3186SOL     OW21019   1.870   3.064   0.574  0.2289  0.0070 -0.3506
 3186SOL    HW121020   1.800   3.123   0.546 -0.1660 -0.2150  0.1774
 3186SOL    HW221021   1.843   3.052   0.665 -0.2412  3.1498 -0.0842
 3187SOL     OW21022   2.675   1.645   7.457  0.7287 -0.1534 -0.0661
 3187SOL    HW121023   2.597   1.608   7.415  1.2995 -1.4647  0.0226
 3187SOL    HW221024   2.700   1.716   7.399  0.7982 -1.8395 -2.0941
 3188SOL     OW21025   4.151   0.353  10.052 -0.3445 -0.0764  0.1591
 3188SOL    HW121026   4.209   0.342  10.127 -2.9340  2.8782  2.5948
 3188SOL    HW221027   4.161   0.265  10.015 -0.3670 -0.7788  1.8184
 3189SOL     OW21028   4.435   2.352   3.922 -0.3519 -0.1935  0.0516
 3189SOL    HW121029   4.487   2.282   3.882 -1.5465 -1.4219  0.6263
 3189SOL    HW221030   4.389   2.390   3.847  0.5067  1.0407  0.1590
 3190SOL     OW21031   4.688   3.612   0.512 -0.1005 -0.4181  0.3966
 3190SOL    HW121032   0.016   3.619   0.593 -0.2018  4.2757  0.0416
 3190SOL    HW221033   4.647   3.528   0.533  0.1812 -0.3152  1.3756
 3191SOL     OW21034   1.819   3.420   9.592  0.0329 -0.3023  0.3236
 3191SOL    HW121035   1.796   3.358   9.522 -0.1985 -0.7216  0.7784
 3191SOL    HW221036   1.782   3.382   9.672  0.7634 -2.0722 -0.1627
 3192SOL     OW21037   4.085   4.242   3.122  0.3587 -0.3386 -0.2689
 3192SOL    HW121038   4.007   4.190   3.140 -1.1967  2.1589  0.2055
 3192SOL    HW221039   4.079   4.256   3.027 -1.2313 -3.5249 -0.6240
 3193SOL     OW21040   1.548   0.470  16.835  0.1151 -0.0749  0.5630
 3193SOL    HW121041   1.529   0.558  16.866  2.6329  0.5662  0.3223
 3193SOL    HW221042   1.468   0.442  16.790 -0.5440 -1.6062  2.7123
 3194SOL     OW21043   2.915   2.391   9.560 -0.5210  0.3178  0.0459
 3194SOL    HW121044   2.942   2.467   9.509  0.6881  0.1330  0.3924
 3194SOL    HW221045   2.957   2.400   9.646  0.8977  1.6646 -0.7942
 3195SOL     OW21046   1.458   2.467   1.102  0.7300  0.1257  0.0665
 3195SOL    HW121047   1.469   2.529   1.029  0.3699 -0.8666 -0.8251
 3195SOL    HW221048   1.448   2.386   1.052 -0.8625  1.3567 -1.6178
 3196SOL     OW21049   2.568   3.619   3.417  0.0661 -0.1501  0.0200
 3196SOL    HW121050   2.595   3.587   3.503  0.3431  1.7345  0.6286
 3196SOL    HW221051   2.592   3.710   3.433 -0.6411 -0.3883  2.3534
 3197SOL     OW21052   3.907   1.992   4.349  0.2071  0.3414  0.1182
 3197SOL    HW121053   3.826   2.036   4.373 -0.7858  0.6619 -3.8782
 3197SOL    HW221054   3.887   1.904   4.382  0.5758  1.0724  2.3182
 3198SOL     OW21055   3.910   2.208   4.117  0.0810 -0.4203 -0.1274
 3198SOL    HW121056   4.004   2.224   4.116 -0.3987  2.2209 -2.9439
 3198SOL    HW221057   3.889   2.273   4.184 -1.7316  1.8453 -2.9231
 3199SOL     OW21058   3.952   3.890   5.788  0.5231  0.2006  0.2749
 3199SOL    HW121059   4.011   3.894   5.712 -1.0163 -3.7787 -1.1668
 3199SOL    HW221060   3.981   3.973   5.825 -1.0411  0.8191  0.0802
 3200SOL     OW21061   3.592   0.795   5.764 -0.2821 -0.3877 -0.1122
 3200SOL    HW121062   3.645   0.743   5.825 -0.1880 -0.3680 -0.1782
 3200SOL    HW221063   3.532   0.724   5.740 -0.3331 -0.5252  0.4054
 3201SOL     OW21064   2.260   2.106   6.215  0.2457  0.0085  0.0733
 3201SOL    HW121065   2.321   2.163   6.261 -1.4385  0.9975  1.0928
 3201SOL    HW221066   2.233   2.161   6.141 -0.4512  3.1530  2.6878
 3202SOL     OW21067   2.521   0.224   5.742  0.2520 -0.1469  0.0574
 3202SOL    HW121068   2.471   0.190   5.817 -0.3790  1.4648  0.3844
 3202SOL    HW221069   2.467   0.296   5.708  0.1640 -1.0886 -1.7767
 3203SOL     OW21070   3.371   2.960   8.154  0.3861  0.1194  0.0455
 3203SOL    HW121071   3.282   2.923   8.154  0.7386 -0.7225 -2.0289
 3203SOL    HW221072   3.421   2.881   8.133 -0.8259 -0.3435 -1.1237
 3204SOL     OW21073   0.756   3.824   1.145 -0.4237  0.2144 -0.3335
 3204SOL    HW121074   0.790   3.831   1.055  1.4082 -0.6620  0.3026
 3204SOL    HW221075   0.662   3.840   1.139 -0.6870 -1.2286 -0.2264
 3205SOL     OW21076   0.239   1.587   2.018  0.6046  0.1747  0.3306
 3205SOL    HW121077   0.231   1.492   2.008  1.0935  0.1394  0.2988
 3205SOL    HW221078   0.187   1.607   2.096  1.0639  2.9254 -0.0540
 3206SOL     OW21079   0.345   3.834   7.436  0.4455 -0.1507 -0.1227
 3206SOL    HW121080   0.438   3.849   7.456  0.2089 -1.1641  1.7854
 3206SOL    HW221081   0.337   3.884   7.355  0.3033 -1.4448 -0.9057
 3207SOL     OW21082   2.895   1.942  10.824 -1.1463  0.0716 -0.3286
 3207SOL    HW121083   2.899   2.025  10.872  2.8445 -0.9086  1.0411
 3207SOL    HW221084   2.957   1.963  10.754  1.4007 -1.2939  1.5036
 3208SOL     OW21085   4.382   1.137  15.814  0.3506 -0.0030 -0.0460
 3208SOL    HW121086   4.398   1.137  15.720 -1.7780 -0.1145 -0.4049
 3208SOL    HW221087   4.429   1.220  15.822  1.3834 -0.4593 -1.4612
 3209SOL     OW21088   2.905   4.205   9.207  0.1159 -0.2356 -0.1734
 3209SOL    HW121089   2.984   4.176   9.162  1.8656  1.7049  1.6335
 3209SOL    HW221090   2.904   4.144   9.280  2.4175  1.2335  1.0772
 3210SOL     OW21091   4.656   3.306   1.692  0.5471 -0.6215 -0.4600
 3210SOL    HW121092   4.698   3.220   1.704  0.9683 -0.7883 -3.0248
 3210SOL    HW221093   4.574   3.300   1.740  0.5813 -0.6682 -0.4076
 3211SOL     OW21094   2.145   2.223   4.680 -0.0635 -0.2673 -0.4172
 3211SOL    HW121095   2.128   2.198   4.589  0.9229 -2.9136  0.1314
 3211SOL    HW221096   2.239   2.238   4.674 -0.4030  2.6456  1.3475
 3212SOL     OW21097   0.536   4.235   3.306  0.2726  0.0650 -0.7666
 3212SOL    HW121098   0.524   4.172   3.234  1.8586 -0.4288 -0.5918
 3212SOL    HW221099   0.467   4.293   3.276  0.1640  0.9221  1.1859
 3213SOL     OW21100   4.147   4.292   4.629 -0.4331 -0.0613  0.1730
 3213SOL    HW121101   4.058   4.297   4.662  0.1325 -0.1576  1.7216
 3213SOL    HW221102   4.200   4.269   4.706  0.0258  0.1910 -0.0668
 3214SOL     OW21103   2.212   1.575   0.911 -0.2064 -0.2048  0.1034
 3214SOL    HW121104   2.121   1.554   0.932  0.3803 -2.1902  0.7008
 3214SOL    HW221105   2.244   1.490   0.880  3.4227  0.6095  1.5713
 3215SOL     OW21106   4.021   0.443   8.980  0.0424 -0.0794 -0.0134
 3215SOL    HW121107   4.075   0.513   8.942 -0.5903  1.4586  1.9397
 3215SOL    HW221108   4.080   0.422   9.053 -2.8707 -1.2086  1.9911
 3216SOL     OW21109   3.478   0.679  10.267 -0.3181 -0.0988  0.6261
 3216SOL    HW121110   3.424   0.685  10.346 -2.0580 -0.5123 -0.5181
 3216SOL    HW221111   3.443   0.609  10.211 -0.6156 -0.6791  1.5254
 3217SOL     OW21112   4.020   1.671   8.968 -0.1487 -0.2174  0.1903
 3217SOL    HW121113   4.102   1.671   8.920 -0.1189  2.2954  0.2447
 3217SOL    HW221114   3.969   1.732   8.915 -0.4747 -0.9251 -0.2992
 3218SOL     OW21115   0.451   4.567  15.611  0.4672  0.0394 -0.5117
 3218SOL    HW121116   0.485   4.656  15.623  0.4499 -0.0557  0.2505
 3218SOL    HW221117   0.466   4.553  15.518  0.2535  2.2277 -0.8808
 3219SOL     OW21118   0.178   1.088   0.984 -0.3267  0.1554  0.0606
 3219SOL    HW121119   0.272   1.094   1.003  0.0998  3.0078 -2.9520
 3219SOL    HW221120   0.167   1.165   0.927 -0.1843 -0.2505 -0.5128
 3220SOL     OW21121   2.089   1.562   5.561  0.6149  0.1651  0.0442
 3220SOL    HW121122   2.165   1.619   5.546  2.6791 -2.6327 -0.1756
 3220SOL    HW221123   2.137   1.490   5.603  2.2251  1.3136  0.1936
 3221SOL     OW21124   3.506   2.546   3.455  0.2126 -0.3529  0.3260
 3221SOL    HW121125   3.475   2.634   3.475  1.9964  0.5829 -1.0556
 3221SOL    HW221126   3.420   2.503   3.452 -0.5316  1.1934 -0.1805
 3222SOL     OW21127   4.042   2.098  11.343  0.2370  0.1482 -0.3754
 3222SOL    HW121128   4.005   2.063  11.262  0.3327 -3.5076  1.1605
 3222SOL    HW221129   3.965   2.142  11.379 -0.4447 -1.1742 -0.2084
 3223SOL     OW21130   0.243   1.447   3.435 -0.4814  0.1171  0.0410
 3223SOL    HW121131   0.212   1.358   3.456 -1.4077  0.2725 -0.6191
 3223SOL    HW221132   0.262   1.431   3.342 -0.0301  1.4106 -0.0793
 3224SOL     OW21133   0.058   1.838   6.739  0.3426 -0.3150  0.2014
 3224SOL    HW121134   0.092   1.927   6.737 -2.0634  0.5227 -2.1201
 3224SOL    HW221135   4.722   1.845   6.814 -0.8411 -0.5431 -0.7188
 3225SOL     OW21136   3.581   0.600   8.955 -0.0875  0.6145 -0.3774
 3225SOL    HW121137   3.548   0.584   9.044 -1.2389  0.2601 -0.8704
 3225SOL    HW221138   3.645   0.528   8.958 -1.2816 -0.4791 -1.0585
 3226SOL     OW21139   1.276   1.247   7.305 -0.1369 -0.0999  0.1865
 3226SOL    HW121140   1.310   1.165   7.269  0.4629 -0.0509  0.6399
 3226SOL    HW221141   1.276   1.227   7.399 -1.9610  1.1590  0.4521
 3227SOL     OW21142   0.845   1.974   5.395 -0.1901 -0.0516  0.3040
 3227SOL    HW121143   0.919   2.028   5.369  3.3195 -4.3072  1.4206
 3227SOL    HW221144   0.845   1.980   5.491 -0.4202  1.3835  0.2152
 3228SOL     OW21145   2.532   4.611   7.605 -0.1512  0.3562  0.0393
 3228SOL    HW121146   2.502   4.554   7.676  0.3809 -0.4421 -0.3820
 3228SOL    HW221147   2.458   4.612   7.544  0.1593  0.6995 -0.3332
 3229SOL     OW21148   2.660   3.846   3.562 -0.1469 -0.0572  0.4890
 3229SOL    HW121149   2.603   3.890   3.626  1.4688 -1.5882  2.9891
 3229SOL    HW221150   2.733   3.816   3.616  0.9633  0.2736 -0.8219
 3230SOL     OW21151   0.581   0.265  10.874  0.3118  0.0716  0.0817
 3230SOL    HW121152   0.627   0.289  10.955 -0.2060  0.8206  0.1555
 3230SOL    HW221153   0.618   0.332  10.817 -2.1046  0.0888 -1.4608
 3231SOL     OW21154   2.992   0.849   4.875  0.2620 -0.0934 -0.3461
 3231SOL    HW121155   2.967   0.764   4.913  2.6424 -0.0682  1.3648
 3231SOL    HW221156   2.959   0.836   4.787 -2.4891  4.7945  0.0092
 3232SOL     OW21157   1.711   0.935   4.888 -0.1231  0.3849  0.2385
 3232SOL    HW121158   1.785   0.874   4.888  0.4578  1.1038  0.3483
 3232SOL    HW221159   1.715   0.970   4.799 -0.7409 -0.5538 -0.1651
 3233SOL     OW21160   1.372   4.341  11.230  0.6521  0.3953 -0.3058
 3233SOL    HW121161   1.279   4.343  11.207  0.3737 -1.1265  0.6851
 3233SOL    HW221162   1.357   4.308  11.318  2.2334  3.5579  1.1341
 3234SOL     OW21163   4.257   4.388   0.684 -0.1174  0.0224 -0.8352
 3234SOL    HW121164   4.324   4.456   0.695  0.6627 -0.7956 -0.5736
 3234SOL    HW221165   4.227   4.374   0.773 -0.3954 -1.5509 -1.1845
 3235SOL     OW21166   0.792   0.798   0.460 -0.3847  0.3690 -0.7897
 3235SOL    HW121167   0.760   0.719   0.502 -1.5928  0.7235 -1.0468
 3235SOL    HW221168   0.852   0.832   0.527  0.6605 -0.2363 -1.4109
 3236SOL     OW21169   2.592   2.221   4.875 -0.1084  0.4797  0.4706
 3236SOL    HW121170   2.628   2.175   4.799 -1.9154  1.5170 -0.9980
 3236SOL    HW221171   2.660   2.284   4.897 -1.4247  1.7595  0.8600
 3237SOL     OW21172   1.124   1.320   7.643  0.0080 -0.2211  0.1175
 3237SOL    HW121173   1.051   1.374   7.674  0.9656  1.0976  0.1132
 3237SOL    HW221174   1.082   1.236   7.627 -0.7968 -0.0960  1.5493
 3238SOL     OW21175   0.764   0.468   7.890  0.0227  0.6461 -0.0341
 3238SOL    HW121176   0.712   0.454   7.811  2.2384 -0.0791 -1.3641
 3238SOL    HW221177   0.849   0.430   7.867 -0.9726 -1.9616  0.6167
 3239SOL     OW21178   0.082   1.736  14.482 -0.1868 -0.5173 -0.0438
 3239SOL    HW121179   0.061   1.782  14.401  0.5706  0.0015  0.0585
 3239SOL    HW221180   0.128   1.663  14.440  0.0213  0.3184 -1.2303
 3240SOL     OW21181   0.944   0.187  17.471  0.6010 -0.0218  0.0514
 3240SOL    HW121182   0.868   0.184  17.414  0.0351  1.2758  0.7337
 3240SOL    HW221183   1.000   0.131  17.418 -0.2030 -0.3597 -0.4411
 3241SOL     OW21184   2.467   1.690  12.843 -0.1970 -0.0665  0.1610
 3241SOL    HW121185   2.478   1.782  12.868  0.1545 -0.1998  0.4939
 3241SOL    HW221186   2.515   1.640  12.909 -1.5947  1.2063  2.1354
 3242SOL     OW21187   4.286   4.510   1.211 -0.1071  0.1010  0.2033
 3242SOL    HW121188   4.320   4.576   1.272  0.0398  2.0826 -2.0558
 3242SOL    HW221189   4.223   4.566   1.167 -0.4909 -0.8338 -0.4456
 3243SOL     OW21190   1.964   1.155   3.438  0.2515  0.3909  0.1445
 3243SOL    HW121191   1.925   1.113   3.361 -0.9653  1.1045  0.3661
 3243SOL    HW221192   1.926   1.097   3.504  0.1894 -1.4538 -1.4781
 3244SOL     OW21193   2.216   4.135  15.353 -0.4246 -0.6332 -0.0234
 3244SOL    HW121194   2.174   4.218  15.378 -1.4385 -1.1082 -0.1411
 3244SOL    HW221195   2.168   4.096  15.280  0.5816  0.4697 -1.2793
 3245SOL     OW21196   3.359   3.403  17.394 -0.2798  0.2878  0.4599
 3245SOL    HW121197   3.435   3.348  17.414  0.8872  0.9986 -2.0513
 3245SOL    HW221198   3.390   3.493  17.404  0.7742  0.1848 -1.9048
 3246SOL     OW21199   0.444   2.324   6.932 -0.2607 -0.0927  0.1673
 3246SOL    HW121200   0.464   2.376   7.010  1.3181 -2.5906  1.4518
 3246SOL    HW221201   0.525   2.342   6.886  0.0310 -3.8231 -0.8018
 3247SOL     OW21202   2.292   1.363  13.732 -0.6756  0.4919 -0.4182
 3247SOL    HW121203   2.312   1.457  13.725 -2.9165  0.8367 -2.3107
 3247SOL    HW221204   2.364   1.336  13.675 -1.7812 -1.4557 -0.9013
 3248SOL     OW21205   3.683   4.059   8.722  1.1425  0.4151 -0.0887
 3248SOL    HW121206   3.767   4.037   8.762  1.4569  2.4600  0.3941
 3248SOL    HW221207   3.633   4.056   8.804 -1.6408 -2.9282 -1.9404
 3249SOL     OW21208   2.738   0.260   8.088  0.6600 -0.1336 -0.2000
 3249SOL    HW121209   2.795   0.235   8.161 -0.5154  0.4386  0.9052
 3249SOL    HW221210   2.806   0.254   8.021  0.0077 -0.0694 -0.8625
 3250SOL     OW21211   0.915   0.066  14.210  0.2791  0.1920  0.3006
 3250SOL    HW121212   1.001   0.099  14.237  0.7526 -0.0250 -0.9215
 3250SOL    HW221213   0.857   0.138  14.235  1.3725  0.9627  0.6734
 3251SOL     OW21214   4.529   1.522  11.616  0.1136  0.0492 -0.3700
 3251SOL    HW121215   4.481   1.440  11.607 -2.2620  1.5694 -1.4431
 3251SOL    HW221216   4.604   1.512  11.558 -0.8471  1.2164 -1.7951
 3252SOL     OW21217   3.857   4.414  11.745  0.7150 -0.4838 -0.1243
 3252SOL    HW121218   3.786   4.473  11.720  0.4966 -1.9582 -3.0349
 3252SOL    HW221219   3.821   4.383  11.828  1.8842 -0.6488  0.3182
 3253SOL     OW21220   4.462   3.253  12.662 -0.4648  0.1365  0.3622
 3253SOL    HW121221   4.388   3.197  12.638 -0.1685 -0.6862  1.3939
 3253SOL    HW221222   4.418   3.330  12.699 -0.5319 -0.7244  2.0912
 3254SOL     OW21223   1.602   2.392   1.827 -0.1178  0.3055  0.0576
 3254SOL    HW121224   1.624   2.311   1.873 -2.1677 -0.7532 -0.7849
 3254SOL    HW221225   1.679   2.443   1.848  0.3902  0.3288 -1.8992
 3255SOL     OW21226   0.551   0.493   2.911 -0.1650  0.1373  0.6464
 3255SOL    HW121227   0.525   0.505   2.819 -0.6502  5.7902  1.5152
 3255SOL    HW221228   0.591   0.580   2.920  0.6945 -0.1653 -0.2411
 3256SOL     OW21229   4.394   0.713   3.870  0.4650 -0.8689  0.3953
 3256SOL    HW121230   4.377   0.792   3.818 -0.9492 -0.7454  1.0424
 3256SOL    HW221231   4.321   0.712   3.931 -1.1233  1.8221 -1.4828
 3257SOL     OW21232   1.806   4.087  14.463 -0.2831 -0.1926 -0.1964
 3257SOL    HW121233   1.742   4.039  14.410 -1.2604 -0.0223  0.8327
 3257SOL    HW221234   1.751   4.158  14.496 -0.3043  0.0719 -0.8048
 3258SOL     OW21235   1.280   4.720   1.554 -0.9062 -0.3947 -0.0942
 3258SOL    HW121236   1.282   0.014   1.649 -0.2045  0.4816 -0.2619
 3258SOL    HW221237   1.262   0.085   1.522  2.2151 -0.2998 -1.6061
 3259SOL     OW21238   3.310   2.275   0.295  0.3241 -0.2621 -0.0997
 3259SOL    HW121239   3.397   2.297   0.327  0.5933 -2.0286  0.4095
 3259SOL    HW221240   3.294   2.189   0.335 -1.1453 -0.5348 -1.2875
 3260SOL     OW21241   3.086   3.774   7.908  0.0375  0.3281  0.3510
 3260SOL    HW121242   2.992   3.756   7.895  0.4237 -1.3506 -0.1266
 3260SOL    HW221243   3.124   3.788   7.822 -0.6660  1.0957  0.1629
 3261SOL     OW21244   3.173   0.229   3.574 -0.6567  0.0055  0.1476
 3261SOL    HW121245   3.113   0.180   3.631 -0.4305  0.7320  1.0287
 3261SOL    HW221246   3.216   0.153   3.536 -1.0033  1.9099 -3.9543
 3262SOL     OW21247   3.912   0.730   2.577  0.0465 -0.0033 -0.0940
 3262SOL    HW121248   3.841   0.764   2.523 -1.2052 -2.4966  0.0227
 3262SOL    HW221249   3.913   0.798   2.645  0.7287  0.2346 -0.3373
 3263SOL     OW21250   3.183   1.146   3.577  0.0945 -0.3350  0.3709
 3263SOL    HW121251   3.186   1.057   3.612  0.1268 -1.2072 -1.8708
 3263SOL    HW221252   3.181   1.119   3.485  3.1952  1.9571 -0.3744
 3264SOL     OW21253   2.724   3.046   3.835 -0.1713  0.1207  0.3509
 3264SOL    HW121254   2.667   2.992   3.780 -0.3747  1.8893 -1.1606
 3264SOL    HW221255   2.665   3.115   3.864 -0.3152  0.9719 -2.0061
 3265SOL     OW21256   1.060   0.850   8.358  0.1303 -0.3422  0.9875
 3265SOL    HW121257   1.128   0.915   8.376 -1.0000  0.6159  1.8245
 3265SOL    HW221258   1.010   0.911   8.304 -0.6992 -0.0312  2.0945
 3266SOL     OW21259   3.227   1.592   9.801  0.6727 -0.5229  0.0538
 3266SOL    HW121260   3.195   1.550   9.881 -2.4226 -0.3732 -1.1045
 3266SOL    HW221261   3.316   1.558   9.807  0.2387 -1.6296  0.3043
 3267SOL     OW21262   3.496   1.171   6.170  0.0182  0.3620 -0.1645
 3267SOL    HW121263   3.558   1.101   6.147 -0.4745 -0.1394  0.0404
 3267SOL    HW221264   3.425   1.129   6.121  0.9045 -1.0701 -0.2425
 3268SOL     OW21265   0.030   1.906   4.830  0.2193 -0.2863 -0.2378
 3268SOL    HW121266   0.018   1.993   4.793  0.0428 -0.5127 -0.7163
 3268SOL    HW221267   0.088   1.923   4.905 -0.1196  0.1589 -0.0815
 3269SOL     OW21268   2.784   3.753   7.843 -0.0355 -0.0042 -0.5501
 3269SOL    HW121269   2.776   3.830   7.787 -2.0807  1.2479  1.5104
 3269SOL    HW221270   2.742   3.793   7.919  2.0701 -0.3583  0.8269
 3270SOL     OW21271   2.686   1.202  14.359 -0.3295  0.1575  0.5066
 3270SOL    HW121272   2.633   1.262  14.307  0.3960  1.4327  1.2243
 3270SOL    HW221273   2.702   1.271  14.423  4.0724 -0.2260 -0.1705
 3271SOL     OW21274   2.550   0.657   4.378  0.1284  0.1535 -0.6635
 3271SOL    HW121275   2.626   0.612   4.340 -0.6569 -1.4900 -0.2857
 3271SOL    HW221276   2.478   0.623   4.325 -0.7775  1.8153 -0.4807
 3272SOL     OW21277   1.855   3.364   7.444 -0.3743 -0.1878  0.1927
 3272SOL    HW121278   1.794   3.311   7.393  0.5196  0.8132 -1.8850
 3272SOL    HW221279   1.934   3.373   7.391  1.5722 -2.3886  2.6862
 3273SOL     OW21280   3.584   0.691   4.942 -0.0135  0.2110  0.1966
 3273SOL    HW121281   3.653   0.708   5.006 -0.2072 -0.8306  0.6941
 3273SOL    HW221282   3.547   0.779   4.938 -1.6880 -0.5203 -0.3424
 3274SOL     OW21283   1.962   3.666   5.124  0.3170 -0.1268 -0.3994
 3274SOL    HW121284   2.009   3.628   5.198 -0.2484 -0.9312 -0.4471
 3274SOL    HW221285   1.871   3.639   5.138  0.6486 -2.7625 -3.2943
 3275SOL     OW21286   2.146   1.307  16.453  0.8139  0.0629  0.1000
 3275SOL    HW121287   2.075   1.274  16.507 -0.0370  0.3524 -0.8320
 3275SOL    HW221288   2.095   1.305  16.372  0.0818 -1.5472  0.6161
 3276SOL     OW21289   1.417   4.402  13.499  0.1303 -0.0339  0.3224
 3276SOL    HW121290   1.368   4.457  13.560 -1.3809  0.6469 -1.4932
 3276SOL    HW221291   1.409   4.321  13.549 -0.1675  0.5428  1.2306
 3277SOL     OW21292   2.237   3.679   7.405  0.1983  0.3440  0.1673
 3277SOL    HW121293   2.208   3.616   7.471 -3.3514 -0.5721 -2.2698
 3277SOL    HW221294   2.155   3.705   7.363  0.1213 -0.0650  0.0594
 3278SOL     OW21295   0.589   3.144  17.326  0.1406  0.3705  0.0388
 3278SOL    HW121296   0.657   3.086  17.291 -1.5595 -1.4746 -0.1598
 3278SOL    HW221297   0.596   3.219  17.265 -1.0004  0.5598  0.1524
 3279SOL     OW21298   2.576   3.521   4.271  0.3582  0.1462  0.5103
 3279SOL    HW121299   2.647   3.478   4.225 -0.8586 -0.9797 -0.3220
 3279SOL    HW221300   2.622   3.592   4.316 -0.5048  0.9461  0.1457
 3280SOL     OW21301   0.907   3.675   3.069 -0.7368  0.4231  0.4516
 3280SOL    HW121302   0.905   3.760   3.114 -0.0198  0.1530  0.9962
 3280SOL    HW221303   0.816   3.660   3.041 -0.2645 -2.9845  0.7906
 3281SOL     OW21304   0.040   2.489   5.706  0.4544 -0.1576 -0.2901
 3281SOL    HW121305   4.668   2.481   5.711  0.3663  1.7523  1.1304
 3281SOL    HW221306   0.053   2.444   5.622 -0.2333  0.4254 -0.7085
 3282SOL     OW21307   0.695   2.400  16.060 -0.3286 -0.1458  0.4590
 3282SOL    HW121308   0.648   2.466  16.112 -0.5521  1.5335 -1.8699
 3282SOL    HW221309   0.734   2.453  15.989 -1.1305  3.8623  2.9769
 3283SOL     OW21310   0.785   2.761   4.260  0.2068  0.1350  0.6533
 3283SOL    HW121311   0.836   2.839   4.239 -0.3442 -0.4048 -2.7443
 3283SOL    HW221312   0.707   2.790   4.307  1.0388 -2.2328  3.4696
 3284SOL     OW21313   0.490   3.397   1.664  0.2090 -0.0540 -0.0152
 3284SOL    HW121314   0.432   3.434   1.597 -0.3552 -1.3303 -0.2191
 3284SOL    HW221315   0.458   3.307   1.663  0.8698 -0.2869  0.2104
 3285SOL     OW21316   2.750   1.532   7.772  0.0991 -0.8548  0.5894
 3285SOL    HW121317   2.677   1.512   7.714 -0.5371 -1.7470  1.6776
 3285SOL    HW221318   2.743   1.625   7.794  3.0367 -0.9057  1.6811
 3286SOL     OW21319   2.263   1.580  10.266 -0.2786 -0.3487 -0.0661
 3286SOL    HW121320   2.194   1.629  10.221  1.2270  0.7272 -1.2212
 3286SOL    HW221321   2.275   1.507  10.205 -2.7113  0.8887 -2.0638
 3287SOL     OW21322   0.149   4.037   5.486  0.0210  0.2486 -0.3971
 3287SOL    HW121323   0.156   3.995   5.400  0.5374 -1.3368  0.4253
 3287SOL    HW221324   0.240   4.028   5.511 -0.9692 -1.5233  2.4942
 3288SOL     OW21325   3.429   1.288   8.248 -0.3787 -0.4874 -0.0423
 3288SOL    HW121326   3.406   1.305   8.339  0.3795 -3.8801  0.7803
 3288SOL    HW221327   3.482   1.367   8.236  1.7790 -1.6527  1.7768
 3289SOL     OW21328   2.665   2.098  14.942  0.5244 -0.0084 -0.0203
 3289SOL    HW121329   2.669   2.172  15.003  0.2910  0.0691 -0.0966
 3289SOL    HW221330   2.665   2.145  14.858  0.0806  0.9973  0.5400
 3290SOL     OW21331   3.223   0.436   8.567 -0.3728 -0.2488  0.2993
 3290SOL    HW121332   3.245   0.427   8.660 -1.2184 -3.0764  0.2461
 3290SOL    HW221333   3.193   0.526   8.562  0.7422  0.1563  0.8950
 3291SOL     OW21334   4.079   3.427   3.966 -0.5482 -0.2244 -0.0546
 3291SOL    HW121335   4.146   3.366   3.934 -1.0542 -1.6342  1.5931
 3291SOL    HW221336   4.118   3.441   4.052 -0.8262 -1.8343  0.3393
 3292SOL     OW21337   1.342   3.896   6.690 -0.7919 -0.2793  0.2042
 3292SOL    HW121338   1.380   3.945   6.618 -0.6414 -1.3537 -0.4514
 3292SOL    HW221339   1.261   3.858   6.657  0.0892 -0.0046 -2.2277
 3293SOL     OW21340   0.756   1.604   7.828  0.3068  0.3810 -0.4132
 3293SOL    HW121341   0.688   1.670   7.837  0.6712  0.7343 -0.2814
 3293SOL    HW221342   0.715   1.522   7.801 -0.1139  0.1724  0.8517
 3294SOL     OW21343   4.084   2.989  14.202 -0.3986  0.1083  0.1527
 3294SOL    HW121344   4.090   3.006  14.296  0.2434  1.5928 -0.1595
 3294SOL    HW221345   4.176   2.971  14.186 -0.1919  0.4982  0.9122
 3295SOL     OW21346   2.026   2.066  10.484  0.8905  0.3963 -0.7665
 3295SOL    HW121347   2.000   2.014  10.560 -0.3349  0.9265 -0.8250
 3295SOL    HW221348   2.082   2.132  10.526 -0.3817  0.9854  0.0079
 3296SOL     OW21349   4.175   2.848   0.151  0.3686 -0.2107 -0.2352
 3296SOL    HW121350   4.209   2.867   0.064  0.3797  0.7473 -0.0254
 3296SOL    HW221351   4.094   2.800   0.133 -0.4355  0.8714  0.4332
 3297SOL     OW21352   2.255   2.115   0.921  0.3416  0.0549 -0.3646
 3297SOL    HW121353   2.285   2.037   0.968 -0.5379  0.0583  0.1981
 3297SOL    HW221354   2.273   2.096   0.829 -0.2084 -0.1956 -0.4231
 3298SOL     OW21355   2.681   0.652  14.026 -0.1582  0.1733  0.5695
 3298SOL    HW121356   2.728   0.674  14.106 -3.3623  0.9131  2.2226
 3298SOL    HW221357   2.724   0.570  14.002  1.1660  0.6175  1.4558
 3299SOL     OW21358   2.154   0.905  16.514 -0.2289  0.4379  0.2902
 3299SOL    HW121359   2.219   0.916  16.583  1.8315  0.6911 -1.6931
 3299SOL    HW221360   2.092   0.977  16.527  0.9715  1.0937  2.3566
 3300SOL     OW21361   0.901   2.859   0.048 -0.2316  0.3199  0.3089
 3300SOL    HW121362   0.909   2.831  17.649 -1.8744  0.3668  0.1388
 3300SOL    HW221363   0.934   2.782   0.094  0.1380 -0.0585 -0.5836
 3301SOL     OW21364   0.132   1.263  16.929 -0.2375 -0.3447  0.0285
 3301SOL    HW121365   0.091   1.301  17.007 -1.5459  0.0484 -0.8532
 3301SOL    HW221366   0.218   1.290  16.961 -2.5176  3.2863  3.0536
 3302SOL     OW21367   2.912   2.497  13.456 -0.0316 -0.5462 -0.1944
 3302SOL    HW121368   2.856   2.419  13.453 -0.1658 -0.5625  3.0887
 3302SOL    HW221369   2.875   2.553  13.387 -0.6698 -1.1720 -0.3586
 3303SOL     OW21370   3.070   3.850   6.598  0.0916  0.7437 -0.2031
 3303SOL    HW121371   3.048   3.758   6.614  1.5562  0.5555  0.7656
 3303SOL    HW221372   2.983   3.889   6.597 -0.7612 -1.1063  1.7256
 3304SOL     OW21373   0.876   4.566   7.058 -0.8108 -0.3849 -0.6199
 3304SOL    HW121374   0.917   4.566   6.972  1.2913  0.4315  0.3634
 3304SOL    HW221375   0.888   4.473   7.077  0.6599 -0.3198 -1.2002
 3305SOL     OW21376   4.161   0.876   3.248 -0.1244  0.5914 -0.0702
 3305SOL    HW121377   4.112   0.833   3.178  0.2272  1.3147 -0.7563
 3305SOL    HW221378   4.101   0.941   3.288 -0.7411 -0.4464  0.6971
 3306SOL     OW21379   4.059   3.076   3.444 -0.1708 -0.7320  0.3010
 3306SOL    HW121380   4.073   3.115   3.530  2.8637  1.3556 -1.1179
 3306SOL    HW221381   3.969   3.051   3.460  0.2353 -0.9321  2.2630
 3307SOL     OW21382   4.043   1.678   3.030 -0.8595 -0.1103 -0.0434
 3307SOL    HW121383   4.057   1.770   3.054  1.5274 -0.3327 -0.6205
 3307SOL    HW221384   4.011   1.691   2.941 -0.3388 -0.7246 -0.3178
 3308SOL     OW21385   3.885   0.098   3.311  0.4377 -0.2713  0.3761
 3308SOL    HW121386   3.941   0.172   3.335 -1.2772  0.6921  1.3545
 3308SOL    HW221387   3.861   0.065   3.398 -0.5297  1.9006  0.9144
 3309SOL     OW21388   3.846   0.993   7.458 -0.1163 -0.0837 -0.4178
 3309SOL    HW121389   3.798   1.007   7.540 -0.2887  0.7477 -0.6529
 3309SOL    HW221390   3.841   1.077   7.412 -0.8347  1.0655  1.7448
 3310SOL     OW21391   2.671   4.601   6.065  0.0524  0.1843 -0.1987
 3310SOL    HW121392   2.682   4.685   6.110 -1.0808  0.4918 -0.4874
 3310SOL    HW221393   2.763   4.576   6.051  1.1347  1.5398  4.4155
 3311SOL     OW21394   1.860   4.393   8.697  0.3281 -0.1407  0.5486
 3311SOL    HW121395   1.813   4.355   8.771 -3.6986  2.3543 -0.7136
 3311SOL    HW221396   1.878   4.480   8.731 -0.3265 -0.0221  0.5789
 3312SOL     OW21397   3.403   2.351   2.124  0.2035  0.0046 -0.0499
 3312SOL    HW121398   3.446   2.295   2.188  1.1937  0.0298 -0.6895
 3312SOL    HW221399   3.446   2.435   2.144 -0.9665  0.7242 -0.5783
 3313SOL     OW21400   4.048   0.054  10.803 -0.2956  0.0560 -0.1837
 3313SOL    HW121401   4.134   0.013  10.809 -0.5512 -0.6699 -1.4734
 3313SOL    HW221402   4.007   4.712  10.745  1.6766 -0.5258 -0.9391
 3314SOL     OW21403   0.351   3.468  17.644 -0.3569  0.3383 -0.2370
 3314SOL    HW121404   0.419   3.418  17.599 -0.1273  0.8736 -0.4898
 3314SOL    HW221405   0.388   3.490   0.037 -0.2593 -1.9011  0.2872
 3315SOL     OW21406   1.135   2.206   6.108  0.5009  1.0412  0.4201
 3315SOL    HW121407   1.082   2.276   6.146 -0.6863  0.4390 -0.1467
 3315SOL    HW221408   1.198   2.187   6.177  1.0996  1.3700 -0.0282
 3316SOL     OW21409   2.698   3.901  15.071 -0.1282  0.5714  0.4383
 3316SOL    HW121410   2.751   3.900  14.991 -0.5110 -1.9176  0.2188
 3316SOL    HW221411   2.631   3.844  15.034  1.3326 -0.4791 -0.5679
 3317SOL     OW21412   4.682   1.931   8.687 -0.7737 -0.2314  0.0132
 3317SOL    HW121413   4.599   1.977   8.703  1.1207  2.8627  0.8947
 3317SOL    HW221414   0.000   1.978   8.615 -0.8400  0.7055  0.5912
 3318SOL     OW21415   1.150   2.431   1.157 -0.0478 -0.0904  0.9799
 3318SOL    HW121416   1.177   2.470   1.074 -3.8090  1.8636  0.6616
 3318SOL    HW221417   1.118   2.345   1.130 -1.1515  0.0994  1.6694
 3319SOL     OW21418   0.759   0.055   6.935 -0.5704  0.4357 -0.7028
 3319SOL    HW121419   0.762   0.134   6.988 -1.8547  0.2129 -0.2947
 3319SOL    HW221420   0.804   4.710   6.984 -0.2106 -0.0910 -1.7560
 3320SOL     OW21421   3.315   0.791   5.979  0.0574 -0.6055  0.2923
 3320SOL    HW121422   3.335   0.883   5.997  1.6393 -0.6617 -1.1960
 3320SOL    HW221423   3.362   0.748   6.051 -1.4305 -1.8683  0.5078
 3321SOL     OW21424   1.843   4.356  11.746  0.3975  0.4715 -0.3087
 3321SOL    HW121425   1.780   4.428  11.739  2.0874  1.8659 -1.0156
 3321SOL    HW221426   1.790   4.287  11.784  1.4169  0.7922  1.7241
 3322SOL     OW21427   3.431   0.130   3.092  0.0449  0.6772  0.2133
 3322SOL    HW121428   3.448   0.201   3.030  1.3549  0.1802  0.0083
 3322SOL    HW221429   3.370   0.177   3.148 -1.0622  1.2747 -1.4990
 3323SOL     OW21430   0.443   0.058  10.954  0.5167 -0.3387  0.0219
 3323SOL    HW121431   0.471   4.720  10.886  0.8844 -1.9372  1.6135
 3323SOL    HW221432   0.488   0.139  10.928 -0.2264  0.1806  0.3427
 3324SOL     OW21433   3.203   1.013   1.640  0.1402  0.8648  0.2347
 3324SOL    HW121434   3.198   0.918   1.645 -2.5219  1.0302  0.7896
 3324SOL    HW221435   3.262   1.022   1.565 -1.0230 -0.7502 -0.8883
 3325SOL     OW21436   1.162   1.872   1.920 -0.5402 -0.2343  0.2205
 3325SOL    HW121437   1.152   1.823   2.002 -2.1871  2.4801  1.6410
 3325SOL    HW221438   1.072   1.904   1.907 -0.3690 -0.5584 -1.7435
 3326SOL     OW21439   0.260   2.781   7.216 -0.1541 -0.3296  0.1154
 3326SOL    HW121440   0.298   2.795   7.302  0.2194 -2.8974  0.3519
 3326SOL    HW221441   0.182   2.726   7.220 -0.0349 -0.5406 -0.4526
 3327SOL     OW21442   3.195   1.868   4.091 -0.3395 -0.0080  0.8460
 3327SOL    HW121443   3.253   1.942   4.073 -0.3866  0.6322  3.2346
 3327SOL    HW221444   3.256   1.795   4.097 -1.3029 -0.9516 -0.8566
 3328SOL     OW21445   0.495   0.399   7.024 -0.4878 -0.4891  0.6520
 3328SOL    HW121446   0.513   0.373   6.934 -0.1012  1.2887  0.2106
 3328SOL    HW221447   0.471   0.316   7.065 -1.2986 -0.4088  0.3199
 3329SOL     OW21448   0.093   1.268   5.672 -0.0014 -0.7616 -0.0344
 3329SOL    HW121449   0.032   1.225   5.612  1.2567 -0.0479 -1.7939
 3329SOL    HW221450   0.160   1.202   5.688  0.5934 -0.4918 -1.4499
 3330SOL     OW21451   1.623   0.856   7.332  0.1758  0.4606  0.3766
 3330SOL    HW121452   1.648   0.881   7.243  0.7229  0.4394  0.5270
 3330SOL    HW221453   1.542   0.906   7.321  0.6493  1.3415  0.8486
 3331SOL     OW21454   1.976   4.326   3.774  0.2957  0.7303 -0.1632
 3331SOL    HW121455   1.962   4.400   3.715  0.0784  1.0871  0.3377
 3331SOL    HW221456   2.058   4.353   3.814  0.2592 -0.3937  0.6542
 3332SOL     OW21457   1.913   4.088   4.055 -0.2798  1.1121  0.2220
 3332SOL    HW121458   1.885   4.176   4.031 -1.2961  0.3448 -1.3684
 3332SOL    HW221459   1.981   4.122   4.114  1.8782 -2.5731 -0.1505
 3333SOL     OW21460   0.142   3.383   3.273  0.3997 -0.1915 -0.5641
 3333SOL    HW121461   0.136   3.469   3.314  0.1590 -0.7252  0.5058
 3333SOL    HW221462   0.235   3.361   3.269  0.5272  0.2421  0.1793
 3334SOL     OW21463   0.098   3.613  11.728  0.4108 -0.3270 -0.2865
 3334SOL    HW121464   0.181   3.570  11.747  0.9607  0.3882 -1.0789
 3334SOL    HW221465   0.056   3.575  11.806  1.2453  1.3883  0.9758
 3335SOL     OW21466   1.314   3.274   2.257 -0.5280 -0.1520  0.0636
 3335SOL    HW121467   1.335   3.319   2.175 -0.0452 -0.8696 -0.2088
 3335SOL    HW221468   1.220   3.257   2.253 -0.8031  1.3126  0.1641
 3336SOL     OW21469   3.226   1.995  16.098  0.0446 -0.1461  0.0310
 3336SOL    HW121470   3.239   2.087  16.075  0.2460 -0.4346 -1.0386
 3336SOL    HW221471   3.145   1.976  16.052 -0.1120  0.5631  0.0054
 3337SOL     OW21472   3.919   2.767  15.053 -0.2352 -0.0144 -0.3218
 3337SOL    HW121473   3.908   2.691  15.111  0.4618 -0.6457 -1.0114
 3337SOL    HW221474   4.014   2.779  15.051 -0.2607  0.4352  0.8095
 3338SOL     OW21475   1.633   2.294   7.861 -0.6665 -0.0680 -0.3114
 3338SOL    HW121476   1.624   2.341   7.943 -0.9901 -0.8847  0.1133
 3338SOL    HW221477   1.618   2.357   7.790  0.3241  1.3996  0.7823
 3339SOL     OW21478   3.178   1.139  12.673  0.0057 -0.0778 -0.4336
 3339SOL    HW121479   3.121   1.077  12.718  0.3711  0.9187  1.4020
 3339SOL    HW221480   3.265   1.100  12.688  0.7365  2.3582  1.5978
 3340SOL     OW21481   0.877   0.994   5.639 -0.6741 -0.4267 -0.3289
 3340SOL    HW121482   0.943   1.026   5.700 -1.2562  0.7585 -0.3169
 3340SOL    HW221483   0.826   1.075   5.633 -0.4328 -0.1915  0.8792
 3341SOL     OW21484   1.078   2.622   4.643 -0.3125 -0.0833 -0.4923
 3341SOL    HW121485   1.055   2.583   4.558 -0.8346  1.0730 -0.8832
 3341SOL    HW221486   1.172   2.608   4.651  0.2361  2.5669 -2.2368
 3342SOL     OW21487   1.602   2.751  10.593  0.5802  0.0452  0.2504
 3342SOL    HW121488   1.528   2.811  10.602  1.5388  1.2060  0.3392
 3342SOL    HW221489   1.540   2.680  10.576 -1.1396  1.6943 -0.2831
 3343SOL     OW21490   1.513   4.347   3.140 -0.6135  0.3467 -0.0987
 3343SOL    HW121491   1.555   4.264   3.162 -2.6862 -0.7026 -0.0852
 3343SOL    HW221492   1.526   4.363   3.047 -0.6306 -0.1070 -0.1772
 3344SOL     OW21493   4.013   2.869  12.991 -0.4606 -0.3601  0.6602
 3344SOL    HW121494   4.079   2.799  12.995 -2.0348 -1.8537  0.2146
 3344SOL    HW221495   4.002   2.888  13.084 -0.9816 -0.7320  0.6770
 3345SOL     OW21496   3.623   3.920   6.629 -0.1974 -0.3866  0.0245
 3345SOL    HW121497   3.650   3.940   6.539  0.8474  0.8323  0.6254
 3345SOL    HW221498   3.709   3.914   6.670 -0.0923 -0.5594 -0.2200
 3346SOL     OW21499   0.174   0.036   6.776  0.1795 -0.0054  0.4374
 3346SOL    HW121500   0.109   0.060   6.841  0.6768  0.8676  0.6139
 3346SOL    HW221501   0.159   4.664   6.777  0.7235 -0.0631  3.4470
 3347SOL     OW21502   2.294   4.691   5.659 -0.1032  0.0344 -0.2687
 3347SOL    HW121503   2.358   4.684   5.730  2.1365 -0.3257 -2.3018
 3347SOL    HW221504   2.220   4.666   5.713  1.4712 -1.8857  1.0316
 3348SOL     OW21505   3.673   2.700  17.298 -0.6247  0.6666  0.5936
 3348SOL    HW121506   3.701   2.776  17.350  0.2536 -0.8438  2.3728
 3348SOL    HW221507   3.748   2.684  17.241 -0.7123 -0.1184  0.7001
 3349SOL     OW21508   1.697   1.581   4.978 -0.0925  0.4183 -0.1066
 3349SOL    HW121509   1.693   1.488   5.000  2.1912  0.3042 -0.1737
 3349SOL    HW221510   1.790   1.597   4.962 -0.0656 -0.1759 -0.5636
 3350SOL     OW21511   3.565   1.007   3.791 -1.2493 -0.2398  0.6759
 3350SOL    HW121512   3.518   1.082   3.754 -0.6135 -0.6281 -0.9083
 3350SOL    HW221513   3.591   0.961   3.712  0.2601  0.3077  0.8482
 3351SOL     OW21514   1.401   0.306   7.555 -0.7907 -0.1877 -0.0635
 3351SOL    HW121515   1.383   0.215   7.578  0.4786 -1.1832 -3.1405
 3351SOL    HW221516   1.348   0.305   7.476  1.1107 -0.9399 -1.3162
 3352SOL     OW21517   4.123   3.115   8.580 -0.1532 -0.2596 -0.9220
 3352SOL    HW121518   4.177   3.180   8.535 -0.6528  0.0676 -1.0493
 3352SOL    HW221519   4.088   3.166   8.653 -0.8968  0.9764 -2.1500
 3353SOL     OW21520   1.407   3.694   3.064 -0.3045  0.1948 -0.0027
 3353SOL    HW121521   1.370   3.735   2.985 -2.2706 -0.6624  0.4793
 3353SOL    HW221522   1.456   3.619   3.031 -2.7904 -0.5004 -2.0947
 3354SOL     OW21523   4.462   3.739   7.142  0.1274  0.1958 -0.5606
 3354SOL    HW121524   4.372   3.748   7.174  0.8444  0.7664  1.2739
 3354SOL    HW221525   4.465   3.805   7.073  1.4751  0.2076 -0.4778
 3355SOL     OW21526   3.343   2.797  10.740  0.0331  0.3491  0.1318
 3355SOL    HW121527   3.276   2.804  10.808 -2.1287  0.2499 -1.9736
 3355SOL    HW221528   3.295   2.830  10.663 -0.6029  0.1306  0.4336
 3356SOL     OW21529   3.412   1.339  12.835  0.4681 -0.1474 -0.1427
 3356SOL    HW121530   3.480   1.308  12.775  1.0046  0.5753  0.0927
 3356SOL    HW221531   3.422   1.280  12.910 -1.3125  1.1525  1.1071
 3357SOL     OW21532   2.814   2.673   1.544  0.4876 -0.0109 -0.2485
 3357SOL    HW121533   2.825   2.613   1.471  0.0113  1.1384 -1.2553
 3357SOL    HW221534   2.858   2.748   1.505 -1.3814  1.3029  0.1176
 3358SOL     OW21535   3.566   4.456   0.731 -0.2488 -0.4630  0.0828
 3358SOL    HW121536   3.599   4.383   0.783  0.7631  1.1730  1.7744
 3358SOL    HW221537   3.472   4.461   0.745 -0.1638  0.2887  0.3751
 3359SOL     OW21538   3.026   2.346   5.144 -0.2608 -0.1998  0.4533
 3359SOL    HW121539   3.100   2.406   5.133  0.3276 -0.7141  1.6153
 3359SOL    HW221540   2.971   2.400   5.201  0.4267  3.6010 -2.4621
 3360SOL     OW21541   3.823   3.689  13.160  0.1134 -0.6722 -0.1619
 3360SOL    HW121542   3.811   3.772  13.207 -2.7563 -2.5449  2.3709
 3360SOL    HW221543   3.845   3.623  13.225  0.6886 -2.4825 -2.1934
 3361SOL     OW21544   0.610   0.185  16.064  0.3200 -0.6779  0.1682
 3361SOL    HW121545   0.535   0.243  16.054 -0.0807 -1.2772 -0.3196
 3361SOL    HW221546   0.673   0.229  16.006 -0.1018  1.4291  1.3354
 3362SOL     OW21547   4.497   0.818   5.267  0.5636  0.0443 -0.0613
 3362SOL    HW121548   4.506   0.735   5.219 -1.5050 -1.4196  2.0142
 3362SOL    HW221549   4.580   0.822   5.314  0.6814 -0.9412 -0.1787
 3363SOL     OW21550   2.598   3.931  12.565 -0.1645 -0.4255 -0.2486
 3363SOL    HW121551   2.588   3.837  12.554 -0.7912 -0.9126  4.3546
 3363SOL    HW221552   2.526   3.938  12.628  1.5993  0.1450  1.6978
 3364SOL     OW21553   2.925   4.670   0.654 -0.8145  0.2194  0.1525
 3364SOL    HW121554   2.887   0.020   0.704 -1.0841  0.9145 -1.0548
 3364SOL    HW221555   2.963   4.715   0.578 -1.0253  1.3585  0.7160
 3365SOL     OW21556   0.443   3.369   5.094  0.2733 -0.2870 -0.0383
 3365SOL    HW121557   0.539   3.361   5.099  0.4600  3.2987  2.2513
 3365SOL    HW221558   0.428   3.284   5.053  2.8181 -0.9757  0.4452
 3366SOL     OW21559   1.704   4.009  17.121 -0.2183  0.2268  0.1530
 3366SOL    HW121560   1.685   4.009  17.215 -0.6743  1.9744  0.0521
 3366SOL    HW221561   1.770   4.078  17.116  0.2997 -0.5275 -2.9711
 3367SOL     OW21562   0.093   2.381   3.732 -0.0463  0.1956  0.3691
 3367SOL    HW121563   0.114   2.418   3.818 -1.0865  0.6280  0.4325
 3367SOL    HW221564   0.034   2.311   3.760  0.3645  0.3687  1.6788
 3368SOL     OW21565   2.787   0.648   4.865  0.4722  0.1328  0.4105
 3368SOL    HW121566   2.700   0.681   4.886 -0.2810 -0.6276 -1.5182
 3368SOL    HW221567   2.781   0.613   4.776  1.1814 -0.7435  0.7133
 3369SOL     OW21568   1.521   2.209   2.501 -0.1371 -0.0677  0.4814
 3369SOL    HW121569   1.432   2.219   2.465  0.9282  1.0029 -1.8465
 3369SOL    HW221570   1.509   2.126   2.547 -0.3143 -0.3672 -0.1034
 3370SOL     OW21571   3.219   2.741  14.451 -0.3662 -0.0770  0.4494
 3370SOL    HW121572   3.267   2.700  14.523 -2.0898 -2.3377  0.3102
 3370SOL    HW221573   3.254   2.708  14.368  1.0356  1.3854  0.4622
 3371SOL     OW21574   4.546   0.647   3.240 -0.1705  0.3431  0.0410
 3371SOL    HW121575   4.638   0.670   3.226 -0.5727  0.8728 -1.8363
 3371SOL    HW221576   4.551   0.611   3.328  0.7650  2.0158  0.6842
 3372SOL     OW21577   4.361   4.691   3.016  0.0163 -0.3472  0.5038
 3372SOL    HW121578   4.298   0.000   3.080  1.7290  0.9223  1.5379
 3372SOL    HW221579   4.437   4.685   3.074 -0.5257  1.6348  1.3983
 3373SOL     OW21580   2.590   1.053   3.585  0.6751 -0.3002 -0.0731
 3373SOL    HW121581   2.615   0.966   3.552 -0.3628 -0.2161 -1.0528
 3373SOL    HW221582   2.623   1.106   3.513 -2.2137 -0.2224 -1.2968
 3374SOL     OW21583   3.647   1.960  17.156  0.1617  0.3139  0.4579
 3374SOL    HW121584   3.559   1.944  17.191 -0.0982  1.8779  0.4889
 3374SOL    HW221585   3.623   2.014  17.081  3.4654  2.3808  0.9151
 3375SOL     OW21586   1.195   3.829   4.543 -0.0482  0.6946  0.0661
 3375SOL    HW121587   1.230   3.775   4.614  0.4387 -1.5090 -1.8712
 3375SOL    HW221588   1.260   3.805   4.478 -1.2786 -0.2474 -0.8190
 3376SOL     OW21589   3.878   3.658  14.105  0.0916  0.2210  0.3632
 3376SOL    HW121590   3.812   3.644  14.173 -0.4852  0.6787 -0.1070
 3376SOL    HW221591   3.835   3.730  14.059  0.1019 -0.0913 -0.1387
 3377SOL     OW21592   3.178   1.592   6.974 -1.2779  0.3836 -0.7246
 3377SOL    HW121593   3.216   1.665   7.024 -1.8468 -0.3098  0.7210
 3377SOL    HW221594   3.126   1.546   7.040  0.9042  1.0632  1.4630
 3378SOL     OW21595   1.057   2.383   5.426 -1.1096 -0.0151  0.4136
 3378SOL    HW121596   1.002   2.422   5.358 -1.0386 -0.0001  0.3638
 3378SOL    HW221597   1.087   2.301   5.388 -1.2810 -0.3093  0.9259
 3379SOL     OW21598   2.243   3.486  13.816  0.1751  0.2530 -0.0679
 3379SOL    HW121599   2.238   3.496  13.912 -2.0998 -0.3449 -0.1165
 3379SOL    HW221600   2.201   3.402  13.802  0.3633 -0.3639  2.9736
 3380SOL     OW21601   3.756   1.408   9.916  0.4538  0.0922  0.2134
 3380SOL    HW121602   3.756   1.351   9.992 -0.1379  0.6707  0.6495
 3380SOL    HW221603   3.725   1.484   9.965  0.1207  1.0344 -1.4527
 3381SOL     OW21604   2.653   3.840   8.071  0.2953 -0.2659 -0.4384
 3381SOL    HW121605   2.581   3.901   8.084  0.5439 -0.0652  0.0115
 3381SOL    HW221606   2.708   3.872   8.143  0.0824  1.5368 -1.0891
 3382SOL     OW21607   3.071   0.492  14.221 -0.2796  0.3626 -0.2085
 3382SOL    HW121608   3.040   0.452  14.303  0.4138  0.7075  0.2277
 3382SOL    HW221609   3.098   0.575  14.260  2.0952  0.1323 -1.3846
 3383SOL     OW21610   2.915   4.270   7.233  0.3729 -0.1692  0.5669
 3383SOL    HW121611   2.961   4.310   7.307 -0.8834  0.6822  0.8750
 3383SOL    HW221612   2.845   4.330   7.206 -1.1346 -1.9668  0.5275
 3384SOL     OW21613   2.676   4.684  12.751  0.1404  0.4181 -0.2214
 3384SOL    HW121614   2.596   4.639  12.724  0.2577 -1.2490  2.2361
 3384SOL    HW221615   2.730   4.672  12.673  0.5171 -0.4347  0.1635
 3385SOL     OW21616   2.057   3.616   6.980  0.3718  0.0355 -0.4272
 3385SOL    HW121617   2.062   3.570   6.896 -2.1160 -1.2462  0.1278
 3385SOL    HW221618   1.962   3.608   6.989  0.4124  0.4628  0.3889
 3386SOL     OW21619   0.338   3.319  11.144  0.2464  0.5317  0.3926
 3386SOL    HW121620   0.253   3.351  11.113 -0.3310 -3.0644 -1.7035
 3386SOL    HW221621   0.388   3.400  11.148  2.0019 -0.5010 -0.9451
 3387SOL     OW21622   2.863   2.548   1.071  0.1640  0.5859 -0.0306
 3387SOL    HW121623   2.855   2.530   1.165 -1.2996  1.4694  0.0164
 3387SOL    HW221624   2.797   2.490   1.035 -0.8660  1.7261  0.0013
 3388SOL     OW21625   1.651   3.822  14.036  0.1864 -0.1068  0.7716
 3388SOL    HW121626   1.618   3.864  13.957  0.4973  1.0261  1.2503
 3388SOL    HW221627   1.742   3.819  14.006 -0.4410 -0.9989 -1.0715
 3389SOL     OW21628   2.609   3.824   4.638  0.5915  0.1329 -0.2321
 3389SOL    HW121629   2.570   3.903   4.677  0.8813 -1.9430  4.2560
 3389SOL    HW221630   2.531   3.768   4.637 -0.4728  1.5827  0.5267
 3390SOL     OW21631   1.331   1.746   6.052  0.9396  0.9660 -0.3064
 3390SOL    HW121632   1.315   1.815   6.116  0.3380 -1.2132  1.9073
 3390SOL    HW221633   1.254   1.758   5.996  0.1893 -0.9236  0.2882
 3391SOL     OW21634   4.197   2.046  11.583  0.0939 -0.2776 -0.5660
 3391SOL    HW121635   4.136   2.059  11.510  0.1021  0.5644 -0.4256
 3391SOL    HW221636   4.141   2.047  11.661 -0.2959  0.8294 -0.8452
 3392SOL     OW21637   4.020   4.496   1.479  0.3394 -0.0167  0.3585
 3392SOL    HW121638   4.060   4.540   1.403 -0.8949 -2.2784 -1.6069
 3392SOL    HW221639   3.986   4.417   1.436  1.9396 -0.7226  0.4198
 3393SOL     OW21640   4.579   3.518   6.559  0.3159  0.1273 -0.4937
 3393SOL    HW121641   4.529   3.441   6.531 -1.2760  0.7945  0.5589
 3393SOL    HW221642   4.570   3.519   6.654 -1.5328  0.3951 -0.6696
 3394SOL     OW21643   3.917   3.137   0.294 -0.5918  0.1859 -0.3696
 3394SOL    HW121644   3.891   3.226   0.318 -3.1192 -0.9071  0.9214
 3394SOL    HW221645   3.908   3.093   0.379  0.4616 -0.9485 -0.8410
 3395SOL     OW21646   0.885   2.287  16.250  0.1784  0.2529  0.1991
 3395SOL    HW121647   0.839   2.310  16.169  2.9153  4.0364 -0.3176
 3395SOL    HW221648   0.822   2.318  16.315  1.5428 -0.4587  1.8667
 3396SOL     OW21649   4.193   1.459   2.541  0.5715  0.7541  0.1432
 3396SOL    HW121650   4.110   1.502   2.517 -0.3730 -1.9795 -1.4367
 3396SOL    HW221651   4.251   1.531   2.564  2.0555 -0.7820  1.1912
 3397SOL     OW21652   0.135   1.248   9.742  0.4509 -0.3958  0.1779
 3397SOL    HW121653   0.080   1.327   9.747 -0.6581 -1.1055 -1.0406
 3397SOL    HW221654   0.076   1.189   9.695  2.0706 -0.6416 -1.5570
 3398SOL     OW21655   3.158   1.788  15.784 -0.0196  0.1821 -0.2789
 3398SOL    HW121656   3.167   1.772  15.690 -0.2515 -0.1914 -0.2362
 3398SOL    HW221657   3.155   1.883  15.798  1.5221  0.3251 -0.9182
 3399SOL     OW21658   1.256   3.680   6.233 -0.2625 -0.0321  0.1670
 3399SOL    HW121659   1.260   3.647   6.323  1.0592 -0.5697 -0.0981
 3399SOL    HW221660   1.345   3.665   6.204  0.0679 -0.5769  1.4828
 3400SOL     OW21661   1.255   2.741   5.463 -0.2363 -0.4109  0.5790
 3400SOL    HW121662   1.269   2.748   5.369 -0.2421  0.4485  0.6368
 3400SOL    HW221663   1.347   2.743   5.489 -0.0063 -1.1465 -0.1950
 3401SOL     OW21664   2.068   2.818   4.732  0.0725  0.4198  0.4076
 3401SOL    HW121665   2.153   2.775   4.724 -0.0954 -0.2763  2.5836
 3401SOL    HW221666   2.032   2.812   4.643  1.9734 -0.1480 -0.3167
 3402SOL     OW21667   2.564   4.704   4.614  0.6394 -0.2368 -0.1461
 3402SOL    HW121668   2.617   4.636   4.571 -0.5055 -2.0856  1.3950
 3402SOL    HW221669   2.549   0.045   4.545  0.1540 -2.2416 -1.9070
 3403SOL     OW21670   3.117   0.102  12.295 -0.6517  0.1995  0.5767
 3403SOL    HW121671   3.072   0.147  12.367 -2.9611 -1.8497  0.3936
 3403SOL    HW221672   3.206   0.126  12.321 -0.7384  1.9683 -0.8118
 3404SOL     OW21673   4.273   4.667  11.614 -0.3291 -0.3752  0.1347
 3404SOL    HW121674   4.366   4.692  11.614  0.0678 -1.8341 -1.0385
 3404SOL    HW221675   4.273   4.586  11.562  0.9597 -0.5232  0.3556
 3405SOL     OW21676   3.675   1.653   2.665  0.1637 -0.4318  0.1364
 3405SOL    HW121677   3.582   1.665   2.644 -0.0386  1.3533  1.9819
 3405SOL    HW221678   3.703   1.745   2.663 -0.3894 -0.2800 -0.7244
 3406SOL     OW21679   4.423   0.851   1.054  0.5055  0.0450  0.0582
 3406SOL    HW121680   4.407   0.832   1.146  0.6212 -1.3654 -0.2131
 3406SOL    HW221681   4.380   0.771   1.023 -0.1722  0.0259  1.0616
 3407SOL     OW21682   3.261   0.356  11.345 -0.1525 -0.2076 -0.0849
 3407SOL    HW121683   3.324   0.411  11.299  0.3357 -2.0611 -1.6135
 3407SOL    HW221684   3.206   0.316  11.278  0.2580  0.5307 -0.8636
 3408SOL     OW21685   2.310   4.611  14.624  0.1474 -0.3418 -0.1033
 3408SOL    HW121686   2.331   4.704  14.630 -0.9995 -0.2186  2.0341
 3408SOL    HW221687   2.344   4.599  14.535  1.4782  3.2908 -0.0955
 3409SOL     OW21688   3.322   0.336   2.213 -0.3670  0.4377  0.4585
 3409SOL    HW121689   3.300   0.246   2.187  0.3457  0.5994 -0.7156
 3409SOL    HW221690   3.400   0.314   2.263  0.4211  0.8953 -0.5650
 3410SOL     OW21691   0.390   3.123   5.005 -0.5539 -0.0407 -0.2906
 3410SOL    HW121692   0.438   3.086   5.079 -0.3525  0.0399 -0.3815
 3410SOL    HW221693   0.407   3.059   4.936  0.1332 -1.1158  0.8657
 3411SOL     OW21694   3.571   2.059   6.172  0.0045 -0.4049  0.3001
 3411SOL    HW121695   3.644   2.077   6.232 -0.8217  0.4161  1.0430
 3411SOL    HW221696   3.493   2.052   6.226  1.2546 -2.1033  1.9111
 3412SOL     OW21697   2.968   4.675   8.803 -0.2326  0.7071  0.0711
 3412SOL    HW121698   3.061   4.651   8.803 -1.3874 -3.7538  0.7766
 3412SOL    HW221699   2.965   0.011   8.727 -0.5304 -0.6095 -0.9289
 3413SOL     OW21700   0.787   4.486  11.866 -0.0110  0.7295 -0.5272
 3413SOL    HW121701   0.714   4.438  11.905  1.7375 -2.2885 -0.9298
 3413SOL    HW221702   0.836   4.407  11.841 -0.8303 -0.2697  0.9835
 3414SOL     OW21703   1.502   0.723   0.378 -0.4649  0.1133  0.1127
 3414SOL    HW121704   1.421   0.691   0.418 -0.4210 -1.2580 -0.9147
 3414SOL    HW221705   1.568   0.664   0.414 -0.0046  0.4590 -0.1491
 3415SOL     OW21706   1.026   1.444   6.811 -0.0933  0.0634  0.1663
 3415SOL    HW121707   0.940   1.451   6.852  1.2469  0.3646  2.9225
 3415SOL    HW221708   1.032   1.517   6.749 -0.9823  0.4670  0.5604
 3416SOL     OW21709   1.187   0.391   6.845  0.6642 -0.4054 -0.6611
 3416SOL    HW121710   1.189   0.305   6.802  0.5177 -0.6124 -0.2602
 3416SOL    HW221711   1.167   0.360   6.933  2.7952 -2.1095 -0.7831
 3417SOL     OW21712   3.075   3.124   2.474  0.2603  0.1393 -0.3515
 3417SOL    HW121713   3.167   3.152   2.475  0.1421  0.4458  1.7625
 3417SOL    HW221714   3.073   3.056   2.407 -1.8114 -0.6002  0.4925
 3418SOL     OW21715   4.202   3.286   6.787  0.0183 -0.0311  0.4559
 3418SOL    HW121716   4.190   3.251   6.876  0.5849 -1.0698  0.1341
 3418SOL    HW221717   4.266   3.357   6.798  0.5973 -0.7092  1.5738
 3419SOL     OW21718   2.043   1.828   1.518  0.2900 -0.1231  0.2614
 3419SOL    HW121719   2.010   1.741   1.539  0.1987 -0.8270 -2.8247
 3419SOL    HW221720   1.966   1.857   1.469  0.7919 -0.0477 -0.4906
 3420SOL     OW21721   2.905   4.372   7.936 -0.1815  0.4968  0.1564
 3420SOL    HW121722   2.980   4.389   7.993  0.5515  2.6916 -1.4329
 3420SOL    HW221723   2.852   4.354   8.013 -1.7877  1.0776 -0.8235
 3421SOL     OW21724   2.000   2.453   4.755  0.5534 -0.5420 -0.0353
 3421SOL    HW121725   1.991   2.476   4.848 -1.5559  0.0246 -0.3957
 3421SOL    HW221726   2.088   2.415   4.755  0.1602 -1.4791  1.2464
 3422SOL     OW21727   2.417   1.703   7.979 -0.4416 -0.0308  0.4249
 3422SOL    HW121728   2.415   1.657   8.063  0.6902  0.2262  0.5857
 3422SOL    HW221729   2.354   1.651   7.929  0.8970 -1.1744 -0.0628
 3423SOL     OW21730   3.030   4.063   8.319  0.3086  0.0604  0.1438
 3423SOL    HW121731   3.105   4.004   8.308 -0.3220 -0.2012 -2.8447
 3423SOL    HW221732   3.067   4.097   8.400  2.3488 -2.7371  0.3698
 3424SOL     OW21733   2.082   1.247  15.710  0.2065 -0.2424  0.6565
 3424SOL    HW121734   2.057   1.197  15.631  0.7106  0.6066 -0.0345
 3424SOL    HW221735   2.047   1.194  15.781  1.7516 -0.8500  0.9693
 3425SOL     OW21736   2.110   2.828   0.968  0.0131 -0.1270 -0.2458
 3425SOL    HW121737   2.156   2.892   0.914 -0.9829  0.1206 -0.8088
 3425SOL    HW221738   2.108   2.871   1.054  3.7964  2.4502 -1.4640
 3426SOL     OW21739   2.156   3.616   5.320 -0.0332  0.2902 -0.0504
 3426SOL    HW121740   2.241   3.650   5.347 -0.6772 -0.6497  3.0644
 3426SOL    HW221741   2.104   3.628   5.399 -0.5529  0.6454 -0.4472
 3427SOL     OW21742   2.940   3.047   8.421 -0.0991 -0.2802 -0.1954
 3427SOL    HW121743   2.938   3.120   8.484 -1.7526  1.5927 -2.4343
 3427SOL    HW221744   3.026   3.010   8.440  0.6311  0.1129 -2.6986
 3428SOL     OW21745   1.582   2.705   5.137 -0.1456  0.0109 -0.1461
 3428SOL    HW121746   1.610   2.619   5.169 -0.0947  1.5601  4.0346
 3428SOL    HW221747   1.514   2.672   5.078  1.1114  1.7776 -2.5395
 3429SOL     OW21748   3.864   0.755   7.787 -0.5215  0.1221  0.2854
 3429SOL    HW121749   3.949   0.718   7.764 -1.6309 -0.7223 -2.5648
 3429SOL    HW221750   3.815   0.673   7.795 -1.4858  0.7369  0.7363
 3430SOL     OW21751   0.965   1.056   0.221  0.3282 -0.1124  0.0773
 3430SOL    HW121752   0.915   1.102   0.153 -0.3529 -2.2746 -0.8822
 3430SOL    HW221753   1.055   1.084   0.206  0.3670 -0.8516 -1.0343
 3431SOL     OW21754   3.821   2.171  14.989 -0.1319 -0.3347  0.0635
 3431SOL    HW121755   3.822   2.162  14.894 -0.5968  0.2735  0.0006
 3431SOL    HW221756   3.895   2.226  15.015 -1.5058  1.5721 -0.0659
 3432SOL     OW21757   1.914   0.341   6.035  0.6309 -0.0330  0.1364
 3432SOL    HW121758   1.978   0.325   5.966  1.8725  1.5748  0.9129
 3432SOL    HW221759   1.929   0.429   6.068  0.4371  0.2325 -0.4874
 3433SOL     OW21760   1.201   0.797   4.946 -0.2361  0.1808 -0.0799
 3433SOL    HW121761   1.205   0.843   4.863  1.2219  0.1171 -0.0408
 3433SOL    HW221762   1.111   0.821   4.968  0.4660  2.7974 -0.0510
 3434SOL     OW21763   1.169   3.761  16.731  1.0087 -0.4302  0.3830
 3434SOL    HW121764   1.248   3.786  16.684  0.0970 -1.8337 -1.9047
 3434SOL    HW221765   1.187   3.668  16.743 -0.4780 -0.7491  0.1818
 3435SOL     OW21766   3.817   0.024   6.416  0.0874 -0.6642 -0.4068
 3435SOL    HW121767   3.875   0.064   6.481 -0.8948  1.6699 -0.9641
 3435SOL    HW221768   3.755   4.709   6.478  1.5084 -1.9647  0.2335
 3436SOL     OW21769   2.004   1.444  11.472 -0.1727  0.1856 -0.4947
 3436SOL    HW121770   2.067   1.473  11.406 -1.1821  2.0733 -0.6365
 3436SOL    HW221771   1.954   1.525  11.472 -0.0272  0.2730  0.2962
 3437SOL     OW21772   1.401   1.841   5.726 -0.3639 -0.0907  0.0295
 3437SOL    HW121773   1.316   1.835   5.682  1.1769  2.7162 -3.2774
 3437SOL    HW221774   1.458   1.871   5.656  0.4779 -2.3599 -0.2604
 3438SOL     OW21775   4.253   0.955   4.252  0.3463 -0.1279 -0.7198
 3438SOL    HW121776   4.266   0.924   4.342  0.0871 -0.7764 -0.9062
 3438SOL    HW221777   4.159   0.935   4.248  0.4522 -0.9907  1.3828
 3439SOL     OW21778   3.956   3.140   0.030  0.5441 -0.1955 -0.6399
 3439SOL    HW121779   3.940   3.135   0.124  0.1220  1.0941 -0.6461
 3439SOL    HW221780   3.925   3.058  17.685 -0.2190 -0.1471 -0.1176
 3440SOL     OW21781   0.308   1.080  12.284  0.1798 -0.2663 -0.6261
 3440SOL    HW121782   0.305   1.020  12.359  0.1485 -0.2345 -0.6024
 3440SOL    HW221783   0.395   1.119  12.287  0.6486 -1.2573 -1.1467
 3441SOL     OW21784   2.067   2.722  16.220 -0.2098  0.7622 -0.5947
 3441SOL    HW121785   2.077   2.797  16.279  1.6149  0.8508 -1.0205
 3441SOL    HW221786   2.153   2.685  16.240 -0.4509  0.2136 -0.5727
 3442SOL     OW21787   2.600   0.330   6.026 -0.1466 -0.3544 -0.3492
 3442SOL    HW121788   2.523   0.298   5.979 -0.0212  0.2273 -0.9462
 3442SOL    HW221789   2.579   0.406   6.080 -2.2978  0.4802 -2.3816
 3443SOL     OW21790   1.546   1.181   1.410  0.1100 -0.4553  0.4944
 3443SOL    HW121791   1.529   1.272   1.385 -1.1389 -1.5122 -2.5863
 3443SOL    HW221792   1.486   1.138   1.349  1.9822  2.2575 -3.2698
 3444SOL     OW21793   0.454   3.410   3.781 -1.1434 -0.3368  0.6526
 3444SOL    HW121794   0.396   3.380   3.851 -0.9253  0.3194  1.1120
 3444SOL    HW221795   0.434   3.504   3.773  0.3861 -0.0660 -0.1158
 3445SOL     OW21796   0.063   4.262   5.408 -0.0053  0.1123  0.0261
 3445SOL    HW121797   0.050   4.187   5.466  0.4033 -2.4281 -3.1369
 3445SOL    HW221798   0.129   4.229   5.346 -1.1662 -0.3130 -0.9751
 3446SOL     OW21799   4.083   4.601  10.381 -0.4363  0.4209  0.8589
 3446SOL    HW121800   4.095   4.630  10.471  1.5155 -0.6639  0.9516
 3446SOL    HW221801   4.061   4.685  10.341  0.6343 -0.0596 -0.7321
 3447SOL     OW21802   0.411   4.603   6.433  0.5196  0.0675 -0.4239
 3447SOL    HW121803   0.350   4.547   6.384  2.1093 -2.2994  0.3120
 3447SOL    HW221804   0.354   4.679   6.449  0.3654 -0.0503 -0.4116
 3448SOL     OW21805   1.007   4.619   8.685  0.3660 -0.0364  0.5332
 3448SOL    HW121806   1.021   4.526   8.670  1.4594  0.3249 -0.6713
 3448SOL    HW221807   0.978   4.632   8.595 -0.2959 -0.5972  0.6622
 3449SOL     OW21808   2.953   2.609   8.917  0.1878 -0.0214 -0.8280
 3449SOL    HW121809   2.996   2.526   8.938 -0.2355  0.3623  1.4757
 3449SOL    HW221810   2.922   2.592   8.827 -2.1224 -2.0056  0.3367
 3450SOL     OW21811   3.078   1.850   1.724 -0.1009 -0.9551  0.4824
 3450SOL    HW121812   3.020   1.925   1.727  0.3274 -0.6387  0.8611
 3450SOL    HW221813   3.139   1.889   1.660 -1.2461 -1.2179 -0.7709
 3451SOL     OW21814   0.469   1.672  11.611 -0.2399 -0.7608  0.6101
 3451SOL    HW121815   0.495   1.699  11.699  0.3332 -0.2599  0.2866
 3451SOL    HW221816   0.541   1.711  11.562 -1.4370  1.1563  0.3412
 3452SOL     OW21817   3.363   0.491  10.111  0.2222  0.2174  0.2757
 3452SOL    HW121818   3.418   0.413  10.107  0.7017  0.6095 -1.0584
 3452SOL    HW221819   3.303   0.467  10.040 -0.3799  2.4654  0.0100
 3453SOL     OW21820   2.399   1.740  16.075  0.7262 -0.3746 -0.0079
 3453SOL    HW121821   2.399   1.749  16.171  3.0361  1.5445 -0.2228
 3453SOL    HW221822   2.464   1.672  16.058 -1.2510 -3.0759  3.0712
 3454SOL     OW21823   2.666   0.655  13.698  0.0451 -0.0534  0.1967
 3454SOL    HW121824   2.672   0.702  13.781 -0.2850 -1.7325  1.1511
 3454SOL    HW221825   2.708   0.717  13.638 -0.4616  0.9276  0.8575
 3455SOL     OW21826   1.330   2.431   8.136 -0.2667 -0.1897 -0.4126
 3455SOL    HW121827   1.392   2.359   8.151  1.7712  1.7502  0.4267
 3455SOL    HW221828   1.321   2.404   8.045 -1.2745 -0.7409 -0.1512
 3456SOL     OW21829   1.025   3.461   3.264  0.3139 -0.4822  0.5574
 3456SOL    HW121830   1.007   3.543   3.219  0.9224 -1.2088 -1.0099
 3456SOL    HW221831   0.967   3.395   3.226  0.1498 -0.6880  1.1658
 3457SOL     OW21832   1.569   4.654  14.890  0.1606  0.1795 -0.3826
 3457SOL    HW121833   1.507   4.656  14.817  2.2129  1.1666 -2.1017
 3457SOL    HW221834   1.531   0.009  14.932  1.2666  0.8191 -0.5642
 3458SOL     OW21835   0.603   2.926  14.961 -0.3182 -0.5590 -0.2283
 3458SOL    HW121836   0.670   2.876  15.007 -0.6869  2.9201  4.0029
 3458SOL    HW221837   0.577   2.991  15.026 -0.7747 -1.4427  0.4724
 3459SOL     OW21838   4.578   0.433   1.182 -0.4308  0.0791 -0.0162
 3459SOL    HW121839   4.500   0.487   1.200  2.0963  3.1492  1.7348
 3459SOL    HW221840   4.644   0.501   1.194 -0.3848 -0.0038  0.2096
 3460SOL     OW21841   1.410   2.159   1.484 -0.0609  0.4305 -0.0603
 3460SOL    HW121842   1.374   2.224   1.425 -0.2667  0.8330  0.5122
 3460SOL    HW221843   1.343   2.148   1.552 -0.2601  1.0987 -0.1513
 3461SOL     OW21844   3.564   4.708   5.765  0.1588  0.0367  0.2801
 3461SOL    HW121845   3.517   4.722   5.847 -1.2823  0.9621 -0.6981
 3461SOL    HW221846   3.647   4.669   5.792 -1.1738 -2.6969  0.4348
 3462SOL     OW21847   3.282   3.470   6.770 -0.1966  0.0207 -0.2460
 3462SOL    HW121848   3.248   3.439   6.854 -1.4104 -4.1346 -2.2625
 3462SOL    HW221849   3.375   3.482   6.792 -0.2973  0.8398 -0.2458
 3463SOL     OW21850   1.184   3.370  15.871 -0.0720 -0.5251  0.3184
 3463SOL    HW121851   1.249   3.409  15.929  0.6775 -0.5335 -0.5281
 3463SOL    HW221852   1.236   3.357  15.792  1.1584 -0.7817  1.1792
 3464SOL     OW21853   4.451   3.759   0.528  0.0880  0.0173  0.4966
 3464SOL    HW121854   4.456   3.771   0.433 -0.1672  1.4265  0.6759
 3464SOL    HW221855   4.517   3.690   0.536 -0.9720 -0.8597  1.7182
 3465SOL     OW21856   1.772   0.595   6.913  0.0486 -0.6956 -0.3257
 3465SOL    HW121857   1.706   0.588   6.845  0.1380 -0.5103 -0.4317
 3465SOL    HW221858   1.767   0.690   6.928 -1.4643 -0.6054 -1.3963
 3466SOL     OW21859   0.492   3.728   8.726  0.2600  0.2344  0.2453
 3466SOL    HW121860   0.458   3.664   8.787 -0.5404  0.1948 -0.2423
 3466SOL    HW221861   0.417   3.782   8.699 -2.5885 -2.5276  2.6758
 3467SOL     OW21862   1.279   2.071   7.782  0.6647 -0.4618  0.1707
 3467SOL    HW121863   1.332   2.110   7.713 -0.1911  0.7220  0.1680
 3467SOL    HW221864   1.196   2.073   7.734  0.7860  0.2475 -0.0030
 3468SOL     OW21865   4.710   2.236   4.199 -0.4601  0.2817 -0.3170
 3468SOL    HW121866   4.652   2.168   4.165  2.6157 -3.5094  1.9985
 3468SOL    HW221867   0.042   2.199   4.268  0.8434  0.4998 -1.2419
 3469SOL     OW21868   1.734   1.739   7.274  0.3939 -0.6080 -0.3966
 3469SOL    HW121869   1.792   1.706   7.206 -1.2045 -0.0559 -2.0079
 3469SOL    HW221870   1.794   1.774   7.340  0.5043 -1.0333 -0.2702
 3470SOL     OW21871   4.416   0.452   4.963  0.1061  0.3461  0.0270
 3470SOL    HW121872   4.441   0.396   4.889 -0.2382 -1.8198  1.5279
 3470SOL    HW221873   4.331   0.482   4.931 -0.2754 -1.4602 -0.6679
 3471SOL     OW21874   2.225   1.777  11.314  0.0466  0.0481 -0.3532
 3471SOL    HW121875   2.196   1.850  11.367 -0.2930 -0.0456 -0.4107
 3471SOL    HW221876   2.289   1.822  11.259  0.1388 -0.5844 -0.7636
 3472SOL     OW21877   1.131   4.152   7.077  0.1026  0.0743  0.5324
 3472SOL    HW121878   1.220   4.142   7.112  0.9975  2.6855 -0.9204
 3472SOL    HW221879   1.165   4.189   6.996 -0.7113  1.9883  1.0617
 3473SOL     OW21880   4.170   4.566   7.205 -0.0274 -0.1358 -0.1059
 3473SOL    HW121881   4.223   4.643   7.224 -1.7582  0.8864  0.5502
 3473SOL    HW221882   4.101   4.563   7.272 -0.2507  1.2453 -0.2919
 3474SOL     OW21883   1.180   0.658   2.422  0.1681  0.3498  0.0954
 3474SOL    HW121884   1.207   0.603   2.495  0.3680 -1.2112 -1.1619
 3474SOL    HW221885   1.258   0.711   2.405  0.4695 -0.0079  0.3789
 3475SOL     OW21886   3.982   3.470   5.069 -0.2948  0.3892  0.1360
 3475SOL    HW121887   4.068   3.464   5.026 -0.0812  1.1374  0.4525
 3475SOL    HW221888   4.014   3.503   5.153 -1.7624 -1.4133  1.4036
 3476SOL     OW21889   3.603   1.796   1.265  0.1003 -0.3687  0.3573
 3476SOL    HW121890   3.615   1.799   1.170 -0.5355 -0.6876  0.2694
 3476SOL    HW221891   3.572   1.708   1.287  1.8742 -1.2505 -0.6205
 3477SOL     OW21892   0.832   0.706   1.888 -0.5888 -0.5598  0.3734
 3477SOL    HW121893   0.905   0.699   1.950 -0.3793  1.4306  0.3518
 3477SOL    HW221894   0.843   0.795   1.857  0.7512 -0.1735  1.9250
 3478SOL     OW21895   4.514   1.919   4.440  0.2065  0.0996  0.1501
 3478SOL    HW121896   4.480   1.914   4.350  0.8934  0.0096 -0.1007
 3478SOL    HW221897   4.434   1.934   4.491  0.2428  1.4377 -0.1898
 3479SOL     OW21898   3.463   3.180   9.099  0.1511  0.4769  0.0816
 3479SOL    HW121899   3.409   3.208   9.024  0.9616  2.9777  0.4501
 3479SOL    HW221900   3.413   3.209   9.175  0.0868 -0.4362  0.3878
 3480SOL     OW21901   3.702   4.430   1.925 -0.2451 -0.1776  0.5215
 3480SOL    HW121902   3.795   4.441   1.906  0.2966 -3.3657  1.2278
 3480SOL    HW221903   3.648   4.478   1.863 -0.1370 -0.7360 -0.0066
 3481SOL     OW21904   4.662   3.510   2.691 -0.1728 -0.3599 -0.3915
 3481SOL    HW121905   4.699   3.425   2.712  1.6490  0.3891 -0.5519
 3481SOL    HW221906   4.571   3.498   2.715 -0.4075  1.3370 -0.3808
 3482SOL     OW21907   1.285   4.339   2.513  0.1870 -0.2785  0.5415
 3482SOL    HW121908   1.232   4.301   2.583  1.7000 -0.3991  1.6167
 3482SOL    HW221909   1.332   4.268   2.470 -1.0096 -1.8275  1.7925
 3483SOL     OW21910   4.714   2.181   7.154  0.2088  0.3998 -0.0343
 3483SOL    HW121911   0.082   2.191   7.125  0.6592 -1.4666  0.7388
 3483SOL    HW221912   4.682   2.116   7.091  2.4584  0.4067 -1.1810
 3484SOL     OW21913   3.036   2.572   6.127  0.4119  0.0537  0.4885
 3484SOL    HW121914   2.943   2.571   6.104  1.0419 -0.9897 -1.9906
 3484SOL    HW221915   3.038   2.642   6.192  2.7313 -0.4543  0.9580
 3485SOL     OW21916   3.016   2.780   4.479  0.5287 -0.2052 -0.1324
 3485SOL    HW121917   2.934   2.798   4.434 -0.7723 -0.9230  1.9032
 3485SOL    HW221918   3.088   2.808   4.422  1.4221 -1.6841  0.2376
 3486SOL     OW21919   0.885   0.098   6.133 -0.0600 -0.1102 -0.8732
 3486SOL    HW121920   0.942   0.031   6.171  0.0277  0.0403 -0.7392
 3486SOL    HW221921   0.940   0.135   6.064 -0.4637  2.7875  0.3498
 3487SOL     OW21922   4.500   3.324   7.069  0.2908  0.5529  0.2951
 3487SOL    HW121923   4.471   3.255   7.128  0.6127 -0.4698 -0.7386
 3487SOL    HW221924   4.414   3.364   7.054 -0.0300 -0.5215 -0.6948
 3488SOL     OW21925   4.281   1.809  13.381 -0.0481  0.1863 -0.0647
 3488SOL    HW121926   4.296   1.752  13.456 -0.5881  0.0545 -0.0558
 3488SOL    HW221927   4.329   1.883  13.416  1.5208  0.0665 -1.9003
 3489SOL     OW21928   2.261   3.368   5.243 -0.1891 -0.4207  0.6793
 3489SOL    HW121929   2.267   3.390   5.150 -1.7974  1.4213  1.0120
 3489SOL    HW221930   2.225   3.444   5.289  1.7557  0.5402  0.5876
 3490SOL     OW21931   0.718   0.863   2.103 -0.2865  0.3375  0.8783
 3490SOL    HW121932   0.759   0.949   2.093 -0.2988  0.2829  0.3506
 3490SOL    HW221933   0.746   0.824   2.020  0.9709  2.0719  0.4828
 3491SOL     OW21934   0.328   3.697   3.607  0.4122 -0.9179 -0.2885
 3491SOL    HW121935   0.408   3.685   3.555  0.1385 -0.2780 -0.8517
 3491SOL    HW221936   0.299   3.787   3.596  2.2993 -0.4856 -1.8690
 3492SOL     OW21937   0.293   2.024   1.714 -0.2596 -0.3104 -0.2721
 3492SOL    HW121938   0.346   2.094   1.675 -1.3909  1.5195  1.4282
 3492SOL    HW221939   0.208   2.065   1.731  0.7248  1.2520  0.9418
 3493SOL     OW21940   3.243   2.970  13.563  0.6744  0.1815 -0.2342
 3493SOL    HW121941   3.247   2.946  13.471 -2.5511 -0.8551 -0.0885
 3493SOL    HW221942   3.236   3.065  13.550 -2.2337 -0.2987 -2.1720
 3494SOL     OW21943   3.401   3.430   6.526 -0.5131 -0.1167 -0.1000
 3494SOL    HW121944   3.343   3.430   6.603  0.1531 -0.3015  0.4066
 3494SOL    HW221945   3.423   3.523   6.529 -0.4526 -0.1046 -1.1569
 3495SOL     OW21946   0.214   1.536   4.850  0.4322  0.7610 -0.0299
 3495SOL    HW121947   0.275   1.465   4.829  0.1409 -0.0894  2.0264
 3495SOL    HW221948   0.275   1.609   4.841 -0.8176  1.8954  0.6867
 3496SOL     OW21949   0.455   0.082   5.054  0.3084  0.1716  0.0420
 3496SOL    HW121950   0.503   0.153   5.012 -1.7723  2.8999  2.2621
 3496SOL    HW221951   0.509   0.007   5.030 -0.5375 -0.7530  1.0035
 3497SOL     OW21952   4.128   2.433   2.005  0.5390  1.1009  0.2769
 3497SOL    HW121953   4.216   2.395   2.004 -0.3690 -1.1081  3.5002
 3497SOL    HW221954   4.117   2.449   2.099  1.9023 -0.4183  0.6879
 3498SOL     OW21955   0.480   1.399   5.224  0.0747 -0.5633 -0.2563
 3498SOL    HW121956   0.465   1.465   5.292 -1.7791  0.0810 -1.2925
 3498SOL    HW221957   0.495   1.459   5.151  1.5641  1.2596  1.5667
 3499SOL     OW21958   1.890   3.892   8.766  0.1066  0.0854 -0.5911
 3499SOL    HW121959   1.840   3.969   8.738  1.0526  0.0667 -2.3358
 3499SOL    HW221960   1.919   3.928   8.850 -1.8134 -0.8809  0.4641
 3500SOL     OW21961   1.518   3.778  14.567  0.0565  0.2248  0.0082
 3500SOL    HW121962   1.534   3.754  14.658 -0.7347 -0.1209  0.0598
 3500SOL    HW221963   1.594   3.738  14.525  0.6298  0.0412  1.2353
 3501SOL     OW21964   3.738   3.569   2.734  0.3266 -0.3997 -0.2187
 3501SOL    HW121965   3.643   3.569   2.721  0.2101 -2.1234  0.6790
 3501SOL    HW221966   3.755   3.663   2.740 -0.8805 -0.4023  3.3795
 3502SOL     OW21967   1.710   2.332  14.564 -0.0660 -0.7416 -0.5864
 3502SOL    HW121968   1.652   2.281  14.508 -0.4232 -1.3311  0.3250
 3502SOL    HW221969   1.756   2.275  14.626  1.0628  1.9985  1.1325
 3503SOL     OW21970   2.025   0.251  16.068 -0.6019 -0.1593 -0.5628
 3503SOL    HW121971   1.964   0.247  15.995 -0.9860 -1.5543 -0.1641
 3503SOL    HW221972   2.031   0.158  16.092  2.0800  0.5043  1.4402
 3504SOL     OW21973   3.607   1.325   5.557 -0.1773  0.2684 -0.3223
 3504SOL    HW121974   3.658   1.250   5.590 -0.3051  0.7480  0.9714
 3504SOL    HW221975   3.533   1.322   5.618  0.7041  0.7147  0.7729
 3505SOL     OW21976   4.403   3.731   8.398  0.8145 -0.0401  0.0451
 3505SOL    HW121977   4.323   3.783   8.400  1.5839  1.0737  1.7217
 3505SOL    HW221978   4.371   3.644   8.420 -0.6341  0.8699  1.5161
 3506SOL     OW21979   3.172   1.970   5.230 -0.0450  0.0938 -0.1981
 3506SOL    HW121980   3.242   2.020   5.273  0.8039 -1.5317  0.3011
 3506SOL    HW221981   3.154   1.900   5.292 -0.7149 -2.1663 -2.9031
 3507SOL     OW21982   4.417   3.673   5.382  0.1089 -0.4151  0.4694
 3507SOL    HW121983   4.354   3.710   5.319  1.0074 -0.5258 -0.4921
 3507SOL    HW221984   4.462   3.755   5.404 -1.9673  0.7752  0.3309
 3508SOL     OW21985   3.294   2.613   3.192  0.0565  0.0949 -0.1035
 3508SOL    HW121986   3.323   2.649   3.276 -0.2224  2.1239 -0.8966
 3508SOL    HW221987   3.234   2.543   3.219 -0.7076  0.5464 -0.6529
 3509SOL     OW21988   3.859   2.954   0.479 -0.0346 -0.4127  0.1524
 3509SOL    HW121989   3.948   2.926   0.458  0.5298  0.5174  1.2553
 3509SOL    HW221990   3.804   2.885   0.442 -1.2418 -0.1190  1.3787
 3510SOL     OW21991   0.705   2.274   5.097 -0.0249  0.5725  0.3046
 3510SOL    HW121992   0.780   2.296   5.042 -1.5398 -2.6917 -3.0571
 3510SOL    HW221993   0.640   2.332   5.057 -0.9039 -0.3686  0.3955
 3511SOL     OW21994   0.809   0.797  12.781 -0.1791  0.5646 -0.3172
 3511SOL    HW121995   0.846   0.719  12.738 -0.0590  0.5037 -0.1048
 3511SOL    HW221996   0.718   0.789  12.754 -0.3317 -0.9459  0.6123
 3512SOL     OW21997   2.944   4.247  10.357 -0.8127  0.3269 -0.2660
 3512SOL    HW121998   2.947   4.153  10.340 -1.0643  0.2544  0.0830
 3512SOL    HW221999   2.971   4.247  10.449 -3.2156  1.1990  0.4486
 3513SOL     OW22000   2.341   2.581  16.750  0.1346 -0.3826 -0.3663
 3513SOL    HW122001   2.390   2.634  16.686  0.1950 -0.3467 -0.2899
 3513SOL    HW222002   2.262   2.571  16.696  0.9410 -1.9571 -1.2371
 3514SOL     OW22003   0.704   0.175  14.347  0.0308  0.1301 -0.1121
 3514SOL    HW122004   0.777   0.232  14.371 -0.4043  1.5052 -2.1410
 3514SOL    HW222005   0.672   0.146  14.433  2.8761 -0.1915  0.8579
 3515SOL     OW22006   3.643   1.406   4.117 -0.6365 -0.0496  0.0390
 3515SOL    HW122007   3.587   1.333   4.092 -0.5377 -0.7752  1.9715
 3515SOL    HW222008   3.638   1.467   4.043 -1.1686  0.2382  0.3147
 3516SOL     OW22009   4.407   4.272   1.967  0.5737 -0.3001 -0.0479
 3516SOL    HW122010   4.411   4.305   1.878 -0.2991  0.2876  0.1282
 3516SOL    HW222011   4.440   4.343   2.024  0.4047  0.4953 -0.9513
 3517SOL     OW22012   4.218   1.591   6.950 -0.8295  0.3102  0.2567
 3517SOL    HW122013   4.225   1.652   7.023  0.0891  0.1604  0.2948
 3517SOL    HW222014   4.160   1.524   6.986  0.8714 -0.1719  2.0722
 3518SOL     OW22015   3.062   3.802  13.701 -0.0461 -0.3509  0.1474
 3518SOL    HW122016   3.015   3.880  13.671 -0.1131 -0.8037 -0.9169
 3518SOL    HW222017   3.075   3.831  13.791  0.6149 -0.8852  0.2228
 3519SOL     OW22018   1.809   2.535   3.091 -0.0165 -0.0012  0.4456
 3519SOL    HW122019   1.842   2.623   3.109 -2.2309  0.9855 -0.3014
 3519SOL    HW222020   1.754   2.512   3.166 -0.5325 -0.9477 -0.2184
 3520SOL     OW22021   2.844   1.232  12.948 -0.6331  0.4636  0.8458
 3520SOL    HW122022   2.903   1.214  13.021  0.1411 -2.1224 -0.4067
 3520SOL    HW222023   2.784   1.158  12.952 -1.3889  0.9324 -2.2108
 3521SOL     OW22024   0.446   0.717   5.584  0.0717  0.0371  0.0297
 3521SOL    HW122025   0.452   0.781   5.655 -1.0252 -0.1271  0.2792
 3521SOL    HW222026   0.352   0.696   5.582  0.6144 -2.3197 -0.2481
 3522SOL     OW22027   0.500   2.441   4.998 -0.3622 -0.1854 -0.2560
 3522SOL    HW122028   0.469   2.426   4.909 -0.2886  2.3160 -0.6931
 3522SOL    HW222029   0.553   2.521   4.988  2.2500 -1.6052  2.0255
 3523SOL     OW22030   3.857   1.996   3.509  0.3001 -0.0242 -0.2430
 3523SOL    HW122031   3.804   2.019   3.433 -1.1276 -3.1219 -0.1963
 3523SOL    HW222032   3.892   2.077   3.547 -0.5590  0.9155 -1.4594
 3524SOL     OW22033   3.451   1.264   3.729 -0.1459 -0.3216  0.0962
 3524SOL    HW122034   3.492   1.325   3.667 -1.2818 -1.5772 -1.8921
 3524SOL    HW222035   3.366   1.251   3.686 -0.2428  0.5448  0.0270
 3525SOL     OW22036   3.961   0.242   7.127  0.2871 -0.2469  0.4197
 3525SOL    HW122037   3.911   0.309   7.173  1.4045 -0.8409  2.5253
 3525SOL    HW222038   4.030   0.301   7.098 -0.2890  0.6635  0.9063
 3526SOL     OW22039   2.967   3.329   6.522 -0.0067 -0.7105  1.0960
 3526SOL    HW122040   2.876   3.348   6.543  0.2559 -0.3347  1.9249
 3526SOL    HW222041   2.979   3.242   6.560 -0.1860 -1.0137  0.4560
 3527SOL     OW22042   3.608   2.740  11.438 -0.2533 -0.2561 -0.3567
 3527SOL    HW122043   3.633   2.732  11.346 -0.1530  1.7009 -0.4970
 3527SOL    HW222044   3.562   2.656  11.448  1.9441 -1.2079  1.9200
 3528SOL     OW22045   4.717   2.353   0.696 -0.0185  0.3417  0.2102
 3528SOL    HW122046   0.084   2.326   0.717 -0.2887 -2.3719 -2.1527
 3528SOL    HW222047   0.015   2.388   0.609  2.4356 -0.1058  0.5986
 3529SOL     OW22048   4.017   3.294  13.738 -0.1564 -0.3746  0.0187
 3529SOL    HW122049   3.977   3.374  13.772 -1.6961 -1.4682  0.7957
 3529SOL    HW222050   4.004   3.228  13.806 -0.0800 -0.1638  0.2385
 3530SOL     OW22051   2.204   4.085   1.399 -0.3975 -0.7803  0.3603
 3530SOL    HW122052   2.280   4.033   1.372 -0.5941 -2.0628  2.3300
 3530SOL    HW222053   2.236   4.174   1.385  0.5736 -1.2391 -0.3755
 3531SOL     OW22054   2.388   2.036   9.775  0.3539  0.5866  0.0407
 3531SOL    HW122055   2.340   2.019   9.856 -0.0693 -1.0343 -0.5431
 3531SOL    HW222056   2.476   2.001   9.793 -0.4481 -1.9575 -1.0360
 3532SOL     OW22057   4.522   4.357  11.639 -0.1240 -0.0514 -0.2463
 3532SOL    HW122058   4.564   4.431  11.681  0.3412  1.2161 -2.9386
 3532SOL    HW222059   4.495   4.399  11.557  1.4325 -1.5729 -1.5463
 3533SOL     OW22060   3.756   3.900  16.676 -0.3722  0.3711 -0.5542
 3533SOL    HW122061   3.683   3.846  16.707  0.3488 -0.6137 -0.5567
 3533SOL    HW222062   3.721   3.987  16.661  0.3312  0.9769  1.2912
 3534SOL     OW22063   2.033   2.491   8.912 -0.4924  0.3978 -0.1558
 3534SOL    HW122064   1.941   2.516   8.905 -0.4951 -0.0638 -1.5734
 3534SOL    HW222065   2.056   2.574   8.955  2.3885 -1.0928  1.2021
 3535SOL     OW22066   2.979   2.928   7.816 -0.0821  0.1651  0.1798
 3535SOL    HW122067   2.967   3.020   7.841 -1.6517 -0.2541  0.9039
 3535SOL    HW222068   2.893   2.888   7.830  0.3143 -0.4139  0.9159
 3536SOL     OW22069   1.246   3.488  13.408 -0.5192  0.3010  0.1256
 3536SOL    HW122070   1.223   3.563  13.462  0.2832  0.4654  0.2345
 3536SOL    HW222071   1.289   3.540  13.340 -0.2482  0.7891  0.6781
 3537SOL     OW22072   4.239   0.066  10.040 -0.1759 -0.2040  0.1964
 3537SOL    HW122073   4.159   0.021  10.066  1.8497 -3.0187  1.5738
 3537SOL    HW222074   4.244   0.063   9.945 -0.0689 -0.6878  0.2183
 3538SOL     OW22075   1.640   1.102  15.104 -0.5695 -0.5308 -0.4429
 3538SOL    HW122076   1.563   1.158  15.100  1.4635  2.4193  2.1229
 3538SOL    HW222077   1.643   1.089  15.199 -0.5699 -0.5270 -0.4424
 3539SOL     OW22078   2.053   2.306   8.698 -0.4444 -0.5922  0.2972
 3539SOL    HW122079   2.084   2.316   8.788  1.3540 -0.9745 -0.2863
 3539SOL    HW222080   2.013   2.391   8.678  2.4766  0.3835 -1.4378
 3540SOL     OW22081   1.185   1.430  17.064 -0.0405 -0.0208 -0.0106
 3540SOL    HW122082   1.248   1.379  17.014 -0.9189  0.3905 -1.5174
 3540SOL    HW222083   1.238   1.465  17.136 -0.5971 -1.8292  1.2798
 3541SOL     OW22084   1.146   0.237   5.743  0.0181  0.4020  0.2022
 3541SOL    HW122085   1.192   0.320   5.748  1.9540 -0.6013 -0.9916
 3541SOL    HW222086   1.193   0.181   5.681 -1.9766 -0.5899 -0.4195
 3542SOL     OW22087   4.630   2.223   8.646 -0.0012 -0.1466 -0.3366
 3542SOL    HW122088   4.570   2.288   8.682  2.1996  2.1873 -0.8400
 3542SOL    HW222089   4.691   2.275   8.592 -1.8034  0.7852 -1.4755
 3543SOL     OW22090   4.650   4.435  14.577 -0.1707 -1.1503 -0.3153
 3543SOL    HW122091   4.644   4.520  14.621  0.4149 -0.3043 -1.8569
 3543SOL    HW222092   4.656   4.457  14.484 -0.0800  1.1032  0.2273
 3544SOL     OW22093   1.275   2.562   3.419  0.4798 -0.2343 -0.7330
 3544SOL    HW122094   1.192   2.583   3.376  0.2130 -0.1857 -0.1915
 3544SOL    HW222095   1.261   2.486   3.476  0.9944 -0.3057 -0.6983
 3545SOL     OW22096   2.294   3.715  13.970  0.5990  0.9175 -0.4446
 3545SOL    HW122097   2.202   3.697  13.987  0.6955  1.3636  0.5439
 3545SOL    HW222098   2.312   3.800  14.011 -3.5383  1.4074  0.3230
 3546SOL     OW22099   0.768   4.511   6.615  0.3037 -0.0314  0.6739
 3546SOL    HW122100   0.805   4.513   6.704  0.9178 -1.9394  0.4487
 3546SOL    HW222101   0.727   4.597   6.600  0.0630  0.2194  2.7711
 3547SOL     OW22102   0.072   1.088   6.828 -0.5917  0.3000 -0.2948
 3547SOL    HW122103   0.078   1.008   6.881 -0.7926  0.5430  0.0893
 3547SOL    HW222104   0.148   1.059   6.776 -0.0752  0.0683  0.5843
 3548SOL     OW22105   2.908   0.346  13.166 -0.1075  0.1297 -0.1450
 3548SOL    HW122106   2.917   0.371  13.258 -0.7410  0.4070 -0.1593
 3548SOL    HW222107   2.954   0.262  13.159 -0.0929  0.1049  0.2403
 3549SOL     OW22108   2.009   3.562   3.187  0.2222  0.8830  0.2839
 3549SOL    HW122109   2.044   3.597   3.104 -1.0729 -0.8075 -0.9769
 3549SOL    HW222110   1.922   3.599   3.191 -0.0026  0.4358 -0.3791
 3550SOL     OW22111   0.002   3.460   7.149 -0.2251 -0.0887  0.6337
 3550SOL    HW122112   0.038   3.515   7.079  2.8088 -1.2086  1.3252
 3550SOL    HW222113   4.633   3.460   7.124 -0.2013 -2.1756  0.6063
 3551SOL     OW22114   3.118   2.387   8.852 -0.3922  0.8745 -0.4438
 3551SOL    HW122115   3.174   2.367   8.927 -0.1705  0.9215 -0.5964
 3551SOL    HW222116   3.097   2.299   8.822  1.2840 -0.4940  2.4069
 3552SOL     OW22117   0.078   2.497   0.461  0.4509 -0.0460  0.4913
 3552SOL    HW122118   0.017   2.551   0.411  0.7464  0.9260  1.1809
 3552SOL    HW222119   0.148   2.560   0.478  1.1481 -0.8427  0.5570
 3553SOL     OW22120   2.078   1.926   8.853 -0.3731 -0.3264 -0.3922
 3553SOL    HW122121   2.159   1.973   8.831  1.0538 -1.6494  1.9793
 3553SOL    HW222122   2.017   1.992   8.886 -0.2950  0.6139 -2.1070
 3554SOL     OW22123   2.335   3.486   1.817 -0.6694  0.1981 -0.0878
 3554SOL    HW122124   2.313   3.486   1.724 -0.5769 -1.0624 -0.1044
 3554SOL    HW222125   2.408   3.424   1.812 -0.2927  0.6286  0.0281
 3555SOL     OW22126   2.908   2.838   0.465 -0.1027 -0.3620 -0.1143
 3555SOL    HW122127   2.953   2.895   0.527 -0.0406 -1.1731  0.5925
 3555SOL    HW222128   2.975   2.845   0.398  0.6761 -0.0797  0.6941
 3556SOL     OW22129   3.679   2.752   7.518  0.0824 -0.2829  0.0867
 3556SOL    HW122130   3.746   2.815   7.543  2.4287 -2.3122 -1.0182
 3556SOL    HW222131   3.689   2.689   7.589 -1.9042 -1.7243 -0.9059
 3557SOL     OW22132   1.749   0.271   5.165 -0.4312  0.0652 -0.0820
 3557SOL    HW122133   1.716   0.219   5.091  2.9522 -1.1125 -0.7995
 3557SOL    HW222134   1.666   0.295   5.205  0.3709  0.3302  1.4221
 3558SOL     OW22135   1.783   2.216   8.628 -0.0561  0.3269  0.5398
 3558SOL    HW122136   1.878   2.223   8.644  0.3901 -0.9725 -1.5340
 3558SOL    HW222137   1.751   2.304   8.644 -0.5551  0.2487 -0.0592
 3559SOL     OW22138   3.461   2.629   6.704 -0.0246 -0.4746  0.1515
 3559SOL    HW122139   3.429   2.686   6.774  1.1446 -0.0006  0.3031
 3559SOL    HW222140   3.480   2.545   6.746 -0.3980 -0.4118  0.4451
 3560SOL     OW22141   3.474   0.268   7.069 -0.2765  0.0601 -0.0492
 3560SOL    HW122142   3.492   0.175   7.061 -0.8267 -0.2398  2.2388
 3560SOL    HW222143   3.551   0.309   7.109 -2.7347  1.6478  3.0665
 3561SOL     OW22144   0.678   3.566   1.617 -0.0913  0.0278  0.1261
 3561SOL    HW122145   0.700   3.580   1.709  0.1000  0.3135  0.0359
 3561SOL    HW222146   0.618   3.494   1.638 -0.0443 -0.0441  0.0089
 3562SOL     OW22147   3.293   2.039   0.418  0.3866 -0.2202  0.5553
 3562SOL    HW122148   3.327   2.080   0.497  1.4794 -0.7807  0.3742
 3562SOL    HW222149   3.300   1.950   0.453 -1.3934 -1.3535 -1.9313
 3563SOL     OW22150   3.351   1.199   9.291  0.4986  0.1770 -0.0018
 3563SOL    HW122151   3.417   1.227   9.354 -0.2958  1.6854  0.1740
 3563SOL    HW222152   3.284   1.166   9.350 -1.4780  1.1107 -1.6784
 3564SOL     OW22153   4.601   0.348  15.774 -0.1572  0.0407  0.4963
 3564SOL    HW122154   4.518   0.396  15.781 -0.7533 -0.6984 -1.4792
 3564SOL    HW222155   4.613   0.315  15.863 -2.4052  1.6571  1.4091
 3565SOL     OW22156   2.406   3.083   1.223 -0.0430 -0.5046 -0.1879
 3565SOL    HW122157   2.432   3.134   1.146 -0.8290 -0.5956 -0.5124
 3565SOL    HW222158   2.487   3.048   1.261  1.2764  2.6844 -0.1256
 3566SOL     OW22159   4.350   4.004   9.999  0.5038  0.2170 -0.5122
 3566SOL    HW122160   4.334   3.953  10.078  0.5480 -2.0431 -1.9419
 3566SOL    HW222161   4.431   3.956   9.978 -0.0985  0.0162 -2.4218
 3567SOL     OW22162   2.505   3.029   6.239 -0.7625  0.2172  0.4571
 3567SOL    HW122163   2.540   3.048   6.152  0.4538 -2.3148  0.4115
 3567SOL    HW222164   2.416   3.006   6.212 -2.0378  3.6721  1.7003
 3568SOL     OW22165   2.861   3.534   3.871  0.2381  0.3289 -0.5481
 3568SOL    HW122166   2.858   3.458   3.813  0.3611 -1.2874  1.5872
 3568SOL    HW222167   2.946   3.528   3.914  0.5353  2.4127 -0.8296
 3569SOL     OW22168   0.916   1.577   4.566  0.2915 -1.1623 -0.1557
 3569SOL    HW122169   0.848   1.639   4.540 -0.2583 -3.0206 -3.1144
 3569SOL    HW222170   0.961   1.565   4.482 -0.3923  0.2802 -0.7361
 3570SOL     OW22171   0.035   1.441   1.774 -0.4144 -0.1772  0.4688
 3570SOL    HW122172   4.714   1.433   1.859  0.4635  0.9143  1.0225
 3570SOL    HW222173   0.125   1.420   1.800  0.2639  0.8705 -1.0399
 3571SOL     OW22174   1.628   4.306   6.144 -0.3849  0.0311 -0.0198
 3571SOL    HW122175   1.631   4.366   6.218  2.4098 -2.4474  1.8565
 3571SOL    HW222176   1.677   4.229   6.174 -1.1374 -0.4723 -0.0815
 3572SOL     OW22177   1.719   2.203   2.021  0.2573  0.0255  0.5408
 3572SOL    HW122178   1.639   2.190   2.072  1.6284  0.9297  2.9235
 3572SOL    HW222179   1.738   2.120   1.977 -3.2737 -0.2715 -0.4432
 3573SOL     OW22180   4.151   2.282  14.431  0.1520  0.7777 -0.0076
 3573SOL    HW122181   4.230   2.315  14.472 -0.0358 -1.0610  1.8231
 3573SOL    HW222182   4.093   2.258  14.503 -0.4709  1.7690 -0.1684
 3574SOL     OW22183   2.021   4.390   4.978 -0.0263  0.3161  0.1376
 3574SOL    HW122184   2.043   4.465   4.922 -2.1570  0.7609 -0.1035
 3574SOL    HW222185   2.055   4.322   4.919 -0.8674 -1.4555  1.6904
 3575SOL     OW22186   0.094   3.657  14.842 -0.1758 -0.0703 -0.0088
 3575SOL    HW122187   0.051   3.572  14.840  0.2200 -0.3094  1.4902
 3575SOL    HW222188   0.120   3.648  14.750  0.4256  1.7213 -0.0217
 3576SOL     OW22189   0.009   0.164  11.414  0.0027 -0.0230  0.5323
 3576SOL    HW122190   4.638   0.170  11.433 -0.1762 -0.1491 -0.2891
 3576SOL    HW222191   0.019   0.069  11.412  0.2777  0.0415 -1.1387
 3577SOL     OW22192   2.837   2.994   7.492  0.2239  0.0500  0.0835
 3577SOL    HW122193   2.926   3.026   7.501 -0.3534  2.4800 -2.6698
 3577SOL    HW222194   2.820   3.030   7.405 -0.0798 -0.5487 -0.1069
 3578SOL     OW22195   2.192   2.076  11.732  0.3075  0.1679 -0.4894
 3578SOL    HW122196   2.225   2.157  11.770 -0.2284 -0.9802  2.4402
 3578SOL    HW222197   2.269   2.020  11.726 -0.1012 -0.3562 -0.8744
 3579SOL     OW22198   1.272   0.756   6.318  0.3057 -0.3935  0.2660
 3579SOL    HW122199   1.329   0.812   6.371 -0.8850  1.3096 -0.2334
 3579SOL    HW222200   1.271   0.675   6.369 -0.4569 -2.0274 -2.3820
 3580SOL     OW22201   3.377   0.724   0.998 -0.0006  0.3586 -0.2604
 3580SOL    HW122202   3.471   0.731   0.980  0.2305 -1.1883  0.3342
 3580SOL    HW222203   3.337   0.711   0.913 -0.2854 -2.3419  0.2693
 3581SOL     OW22204   0.006   4.233   8.348  0.3053 -0.3229  0.3741
 3581SOL    HW122205   0.055   4.186   8.416  0.1875 -0.5259  0.3190
 3581SOL    HW222206   0.065   4.234   8.273  0.5837  1.5983  0.6412
 3582SOL     OW22207   4.322   0.293   9.217 -0.0855 -0.4961  0.0577
 3582SOL    HW122208   4.395   0.304   9.278 -0.0418  1.2026 -0.3047
 3582SOL    HW222209   4.249   0.312   9.277 -0.4835  0.7690 -0.8314
 3583SOL     OW22210   0.889   0.818   4.221  0.7873  0.1488  0.7353
 3583SOL    HW122211   0.857   0.796   4.309 -1.3013 -0.9684 -0.3144
 3583SOL    HW222212   0.840   0.894   4.192  1.8042  0.3364 -0.4982
 3584SOL     OW22213   1.143   1.448   1.943 -0.2350 -0.3127 -0.2662
 3584SOL    HW122214   1.101   1.375   1.989  0.7002 -0.2657  0.6717
 3584SOL    HW222215   1.140   1.512   2.015 -0.5411  0.1594 -0.6958
 3585SOL     OW22216   0.664   1.955   3.028  0.2632  0.3573  0.0342
 3585SOL    HW122217   0.571   1.931   3.030  1.0053 -2.6878 -1.3066
 3585SOL    HW222218   0.690   1.943   3.120 -2.4837 -0.3675  0.7129
 3586SOL     OW22219   3.001   2.679   9.784  0.4695 -0.5510  0.3728
 3586SOL    HW122220   3.014   2.752   9.844  0.8236 -1.2586  1.1707
 3586SOL    HW222221   3.009   2.722   9.699 -0.2904 -0.4190  0.3663
 3587SOL     OW22222   1.089   1.376   8.372 -0.4101  0.5292  0.1515
 3587SOL    HW122223   1.149   1.440   8.411  1.7332 -0.9596 -0.6879
 3587SOL    HW222224   1.028   1.438   8.333 -2.0064 -0.5551  0.9354
 3588SOL     OW22225   3.340   3.265   2.178  0.6844 -0.2496 -0.7352
 3588SOL    HW122226   3.272   3.227   2.122 -0.4321  0.9498 -0.2167
 3588SOL    HW222227   3.366   3.338   2.122 -0.2000 -0.2342 -1.1351
 3589SOL     OW22228   4.357   2.553  11.877  0.1040 -0.4222  0.1892
 3589SOL    HW122229   4.448   2.574  11.899  0.6314 -1.0262 -1.3656
 3589SOL    HW222230   4.357   2.523  11.786 -1.4026 -0.2867  0.1529
 3590SOL     OW22231   1.522   3.305   8.518  0.0207  0.3428  0.2248
 3590SOL    HW122232   1.474   3.385   8.537 -1.1641  0.1262 -1.7884
 3590SOL    HW222233   1.599   3.355   8.492  1.4889 -0.5264  2.9513
 3591SOL     OW22234   1.796   4.475   5.124 -0.6951 -0.0269 -0.1995
 3591SOL    HW122235   1.856   4.457   5.052  0.7505  1.7983  0.5530
 3591SOL    HW222236   1.777   4.383   5.142 -0.1663 -0.3051 -1.0865
 3592SOL     OW22237   3.066   3.585   6.631  0.0683  0.6123  0.7845
 3592SOL    HW122238   3.148   3.539   6.647 -0.2410  0.8048  2.9572
 3592SOL    HW222239   3.015   3.525   6.577  1.7993 -0.1524 -0.0101
 3593SOL     OW22240   0.450   0.636   2.683  0.3375 -0.2957  0.0820
 3593SOL    HW122241   0.537   0.636   2.644  0.7327 -1.3671  0.9831
 3593SOL    HW222242   0.440   0.728   2.706 -0.4096 -0.4115  0.2346
 3594SOL     OW22243   0.675   1.605   9.554 -0.3514  0.4795  0.3624
 3594SOL    HW122244   0.665   1.686   9.604  1.3924  0.3696  0.8719
 3594SOL    HW222245   0.714   1.644   9.476  1.2560 -0.9259  0.4598
 3595SOL     OW22246   3.496   0.458  14.217  0.8193  0.0217  0.1879
 3595SOL    HW122247   3.513   0.550  14.236 -2.4743  0.7864 -0.6259
 3595SOL    HW222248   3.586   0.431  14.196 -0.0395 -0.9574 -2.1458
 3596SOL     OW22249   1.972   3.167   2.300  0.0057  0.7705 -0.2701
 3596SOL    HW122250   1.962   3.107   2.226  0.9805  0.6793 -0.3194
 3596SOL    HW222251   2.067   3.176   2.296  0.0644  1.0237  1.7337
 3597SOL     OW22252   3.962   1.023  17.177 -0.5176 -1.2805  0.1669
 3597SOL    HW122253   3.935   1.007  17.268 -0.6816  1.9295  0.6945
 3597SOL    HW222254   3.934   1.113  17.162  0.0048 -1.0929  0.3233
 3598SOL     OW22255   1.475   0.420   7.882 -0.3651 -0.1667  0.0230
 3598SOL    HW122256   1.450   0.486   7.947 -1.4639 -0.6395  0.0657
 3598SOL    HW222257   1.386   0.407   7.849 -0.8069  0.8493  0.8017
 3599SOL     OW22258   4.047   4.282   2.869  0.1543 -0.3943 -0.1688
 3599SOL    HW122259   4.114   4.326   2.816  0.4376 -0.8851 -0.2139
 3599SOL    HW222260   3.975   4.344   2.862  2.3573  1.9855 -1.7991
 3600SOL     OW22261   1.177   4.338   5.096 -0.0853  0.3996 -0.4895
 3600SOL    HW122262   1.131   4.405   5.146  0.3924  0.2015  0.2281
 3600SOL    HW222263   1.176   4.373   5.007  1.2887 -1.3031 -1.1878
 3601SOL     OW22264   3.132   3.236   2.012 -0.5641 -0.1543  0.0956
 3601SOL    HW122265   3.122   3.253   1.918  0.0609 -2.0783 -0.3092
 3601SOL    HW222266   3.055   3.189   2.045 -0.9306  2.3123  2.8071
 3602SOL     OW22267   3.196   3.211  17.500 -0.0204  0.3325  0.1855
 3602SOL    HW122268   3.237   3.185  17.582 -1.2146  0.9551  0.9829
 3602SOL    HW222269   3.262   3.257  17.449  1.4662 -2.2460 -0.1955
 3603SOL     OW22270   3.195   1.757   3.182 -0.1054  0.2106  0.2567
 3603SOL    HW122271   3.145   1.799   3.112  1.7048  3.2865  0.7915
 3603SOL    HW222272   3.279   1.802   3.177  0.4005 -0.7481  0.1006
 3604SOL     OW22273   0.995   4.582   6.818  0.0340  0.1160  0.0902
 3604SOL    HW122274   1.036   4.655   6.865 -1.3811  1.3170 -0.5409
 3604SOL    HW222275   1.056   4.571   6.744 -0.4628  2.3708 -0.6470
 3605SOL     OW22276   4.453   4.435   2.586  0.3537  0.0578 -0.4881
 3605SOL    HW122277   4.361   4.416   2.601  0.0585  2.1224  0.2689
 3605SOL    HW222278   4.455   4.418   2.492 -1.7662  1.6054 -0.8016
 3606SOL     OW22279   2.583   0.812   3.293 -0.5837  0.0806 -0.1288
 3606SOL    HW122280   2.583   0.722   3.260  0.3989 -0.6689  1.9090
 3606SOL    HW222281   2.488   0.818   3.283 -0.5358  2.0982  0.6432
 3607SOL     OW22282   2.910   1.611   5.807 -0.4558  0.6252 -0.2591
 3607SOL    HW122283   2.954   1.685   5.766  1.1805 -0.2150 -0.0432
 3607SOL    HW222284   2.985   1.551   5.800 -2.3056 -1.7367  0.1367
 3608SOL     OW22285   0.668   1.920  13.319 -1.0090 -0.4073 -0.3608
 3608SOL    HW122286   0.624   1.971  13.250  1.2200 -0.4125 -1.8045
 3608SOL    HW222287   0.634   1.836  13.289 -2.5603  0.6798 -1.7142
 3609SOL     OW22288   2.427   4.619   1.724 -0.4678  0.0168 -0.1026
 3609SOL    HW122289   2.516   4.586   1.731 -0.8694 -1.0168  0.1270
 3609SOL    HW222290   2.434   4.706   1.684 -3.4583  0.4155  0.2220
 3610SOL     OW22291   1.912   2.392  10.518  0.0250  0.1696 -0.8437
 3610SOL    HW122292   1.902   2.468  10.460 -0.3227  1.4714  0.9432
 3610SOL    HW222293   2.007   2.377  10.518  0.2148  1.4646  2.2901
 3611SOL     OW22294   3.985   0.794   4.513 -0.4536  0.0607 -0.1069
 3611SOL    HW122295   4.054   0.848   4.553  0.1689 -2.5263  2.3079
 3611SOL    HW222296   3.910   0.806   4.572  0.2558  2.5291  0.2959
 3612SOL     OW22297   2.037   0.976  14.032  0.2701  0.0152 -0.2157
 3612SOL    HW122298   2.000   0.940  14.113  0.6766  2.6305  1.0991
 3612SOL    HW222299   1.984   1.054  14.016  2.8554  1.7819 -0.0484
 3613SOL     OW22300   2.790   1.236   2.182 -0.6952  0.6923 -0.3701
 3613SOL    HW122301   2.806   1.211   2.091  1.1301  0.7683 -0.0523
 3613SOL    HW222302   2.877   1.230   2.219  0.1105  1.6535 -2.1209
 3614SOL     OW22303   1.577   1.670  12.872  0.9179 -0.2994 -0.5226
 3614SOL    HW122304   1.624   1.742  12.913  0.0104  0.5378 -0.9614
 3614SOL    HW222305   1.648   1.647  12.811 -1.9975 -1.4657 -3.4641
 3615SOL     OW22306   2.389   2.415   1.059  0.4850 -0.1169  0.1350
 3615SOL    HW122307   2.347   2.487   1.013 -0.1916 -0.8817 -0.4581
 3615SOL    HW222308   2.346   2.345   1.009 -1.5374  0.1622  1.4688
 3616SOL     OW22309   1.963   0.817  11.804 -0.1978 -0.1707  0.3391
 3616SOL    HW122310   1.994   0.902  11.836 -1.0047  0.3561 -0.3007
 3616SOL    HW222311   2.026   0.761  11.850  1.1927  1.9110  0.9955
 3617SOL     OW22312   0.729   3.805   0.873 -0.9101 -0.0984 -0.1172
 3617SOL    HW122313   0.647   3.787   0.828 -1.0543 -1.8332  0.8722
 3617SOL    HW222314   0.723   3.900   0.880 -0.2752 -0.0532 -0.1100
 3618SOL     OW22315   1.506   4.647   7.976  0.4380 -0.5860  0.0309
 3618SOL    HW122316   1.420   4.654   8.017  0.2298 -1.5323 -0.2447
 3618SOL    HW222317   1.526   0.018   7.964 -2.2680 -0.2353 -1.9284
 3619SOL     OW22318   0.121   4.049   9.902 -0.4184 -0.2282 -0.0235
 3619SOL    HW122319   0.135   3.968   9.951  4.9646  0.3489 -0.5852
 3619SOL    HW222320   0.206   4.061   9.859 -0.2681  1.1308  0.6649
 3620SOL     OW22321   2.034   2.457   8.096  0.0220 -0.1115  0.1354
 3620SOL    HW122322   2.028   2.371   8.137  0.7206 -0.4314 -0.4439
 3620SOL    HW222323   2.011   2.449   8.004 -0.4883  0.8063  0.1857
 3621SOL     OW22324   2.336   1.530   6.560 -0.4131  0.1317 -0.1588
 3621SOL    HW122325   2.258   1.563   6.604  0.4906  0.8775  0.9140
 3621SOL    HW222326   2.384   1.503   6.638 -1.8267  1.7122  1.2475
 3622SOL     OW22327   4.280   0.565   4.295  0.0508 -0.0684 -0.2018
 3622SOL    HW122328   4.189   0.576   4.322  0.0208  0.9073 -0.6985
 3622SOL    HW222329   4.260   0.559   4.201  0.8146 -1.0856 -0.3042
 3623SOL     OW22330   4.201   1.815   6.770 -0.2362  0.4986  0.3170
 3623SOL    HW122331   4.226   1.740   6.823 -1.1867  0.1686  0.2985
 3623SOL    HW222332   4.252   1.813   6.690  0.9630 -2.0283  1.1687
 3624SOL     OW22333   3.868   1.571   4.959 -0.2697  0.6304  0.2444
 3624SOL    HW122334   3.922   1.649   4.959 -1.8612  1.7333 -0.2766
 3624SOL    HW222335   3.837   1.583   5.050  1.2099  1.0362  0.6854
 3625SOL     OW22336   3.679   4.445   6.522 -0.1440 -0.6963 -0.4287
 3625SOL    HW122337   3.737   4.463   6.595  1.2070  0.2653 -1.7474
 3625SOL    HW222338   3.734   4.381   6.477  1.4616  0.1052  0.3916
 3626SOL     OW22339   0.144   0.152  14.792 -0.3376  0.0684 -0.3092
 3626SOL    HW122340   0.215   0.198  14.748 -2.1818  2.7761 -0.4814
 3626SOL    HW222341   0.089   0.228  14.813 -0.3828  0.0103 -0.2159
 3627SOL     OW22342   3.223   1.763  15.500 -0.8378 -0.5939  0.1267
 3627SOL    HW122343   3.299   1.706  15.511 -0.8679 -0.5758  0.4274
 3627SOL    HW222344   3.200   1.726  15.415 -1.4288 -1.5339  0.6892
 3628SOL     OW22345   0.454   1.250  17.008  0.2128  0.2550 -0.1261
 3628SOL    HW122346   0.481   1.167  16.968  0.3576 -0.4980  1.5365
 3628SOL    HW222347   0.471   1.231  17.101  0.1193  1.5094  0.1456
 3629SOL     OW22348   1.050   0.088   7.996  0.3310 -0.1181 -0.0643
 3629SOL    HW122349   0.969   0.070   8.044  0.5978 -1.5337 -0.1565
 3629SOL    HW222350   1.102   0.128   8.066  1.8566 -2.2972  0.0576
 3630SOL     OW22351   4.416   4.372  10.073  0.2225  0.9599 -0.8345
 3630SOL    HW122352   4.408   4.339  10.162 -0.3124  0.2658 -1.1308
 3630SOL    HW222353   4.405   4.464  10.097 -0.3473  1.0474 -1.4070
 3631SOL     OW22354   0.022   4.178   5.040  0.2307 -0.8897 -0.1626
 3631SOL    HW122355   0.081   4.252   5.029 -0.3311 -0.1607  1.7685
 3631SOL    HW222356   0.079   4.101   5.032  0.7853 -0.5852  0.9308
 3632SOL     OW22357   2.905   0.552  10.023  0.0628  0.3458  0.2130
 3632SOL    HW122358   2.871   0.585   9.939 -1.1589 -0.6720  0.3020
 3632SOL    HW222359   2.995   0.530  10.001 -0.1309 -0.0471 -0.2039
 3633SOL     OW22360   4.568   4.451   6.774  0.2531 -0.5387 -0.6829
 3633SOL    HW122361   4.537   4.538   6.799 -0.5693 -1.1785  0.5212
 3633SOL    HW222362   4.527   4.443   6.688 -1.8486 -0.2324  0.3069
 3634SOL     OW22363   3.216   1.946   8.750  0.6403  0.3545 -0.9359
 3634SOL    HW122364   3.240   1.865   8.793 -3.6283 -0.8380 -0.8011
 3634SOL    HW222365   3.122   1.947   8.732  0.5344  1.1729 -0.3151
 3635SOL     OW22366   0.799   0.646   3.588 -0.7155 -0.1444  0.1517
 3635SOL    HW122367   0.872   0.703   3.610 -0.9356  0.2962 -0.2308
 3635SOL    HW222368   0.827   0.622   3.500 -1.6258 -0.5795 -0.0283
 3636SOL     OW22369   2.579   1.705   5.625 -0.6623  0.0642 -0.0116
 3636SOL    HW122370   2.572   1.799   5.639  2.4882  0.2722  0.1422
 3636SOL    HW222371   2.497   1.688   5.578 -0.9004  0.0269  0.4087
 3637SOL     OW22372   4.487   0.376   1.953 -0.7110  0.8388  0.0077
 3637SOL    HW122373   4.461   0.462   1.920  0.3226  0.8348 -0.8134
 3637SOL    HW222374   4.401   0.334   1.963  1.1863 -3.5044 -1.9946
 3638SOL     OW22375   2.892   2.133   0.325 -0.1637  0.3761  0.4225
 3638SOL    HW122376   2.834   2.064   0.295  0.0301  0.3382  0.1354
 3638SOL    HW222377   2.973   2.096   0.290  1.2044  2.0016  1.8294
 3639SOL     OW22378   3.233   4.413   3.085 -0.4255 -0.2538  0.2440
 3639SOL    HW122379   3.222   4.492   3.138  1.5969 -1.7282  2.8939
 3639SOL    HW222380   3.298   4.444   3.022 -0.2239 -0.2911  0.4371
 3640SOL     OW22381   3.269   3.850  14.607  0.1869  0.0048 -0.8670
 3640SOL    HW122382   3.247   3.944  14.610 -0.5696 -0.1957 -0.2162
 3640SOL    HW222383   3.325   3.833  14.683  0.2664 -2.1844 -1.4453
 3641SOL     OW22384   0.640   3.131   1.470  0.0254  0.2002  0.2587
 3641SOL    HW122385   0.634   3.074   1.394  0.5321  2.0707 -1.1928
 3641SOL    HW222386   0.734   3.145   1.479  0.2919 -1.6457  0.3653
 3642SOL     OW22387   2.050   4.254  10.870 -0.0858 -0.7523 -0.3887
 3642SOL    HW122388   2.064   4.320  10.939  0.3763 -1.5240  0.2563
 3642SOL    HW222389   2.061   4.313  10.796  0.6969 -1.4667 -0.8364
 3643SOL     OW22390   2.788   2.312  15.408 -0.2713  0.5969 -0.5504
 3643SOL    HW122391   2.777   2.369  15.331  0.0932  0.8640 -0.4019
 3643SOL    HW222392   2.764   2.233  15.360  0.3884 -0.1546  0.3731
 3644SOL     OW22393   1.116   4.079  16.860 -0.1674  0.0685 -0.3213
 3644SOL    HW122394   1.033   4.068  16.905  0.7506 -0.3360  1.2920
 3644SOL    HW222395   1.109   4.030  16.778  1.2657  1.7964 -1.4781
 3645SOL     OW22396   2.266   4.635   4.258  0.3444  0.0238  0.3478
 3645SOL    HW122397   2.220   4.719   4.261 -0.1110 -0.3309  3.3834
 3645SOL    HW222398   2.284   4.619   4.166 -0.0642 -1.4172  0.5218
 3646SOL     OW22399   3.554   3.128   5.111  0.3193  0.5316  0.4027
 3646SOL    HW122400   3.590   3.191   5.048 -0.1318  0.2223 -0.1592
 3646SOL    HW222401   3.471   3.113   5.066 -0.4299  0.5620  1.7934
 3647SOL     OW22402   3.159   3.183  10.975  0.3480 -0.8727 -0.4675
 3647SOL    HW122403   3.191   3.219  10.892  0.6074 -0.5352 -0.2269
 3647SOL    HW222404   3.073   3.226  10.974  1.0423  0.5287 -0.9588
 3648SOL     OW22405   0.889   2.552   9.917  0.4208  0.1455  0.4483
 3648SOL    HW122406   0.950   2.482   9.940  2.1290  1.5928  0.3424
 3648SOL    HW222407   0.808   2.524   9.959 -0.2400 -1.0552 -1.5860
 3649SOL     OW22408   3.418   3.803   2.694  0.5356 -0.1854 -0.0470
 3649SOL    HW122409   3.373   3.808   2.609 -1.1424  0.0089  0.8557
 3649SOL    HW222410   3.479   3.874   2.679 -0.2834  0.6075  0.3471
 3650SOL     OW22411   2.711   4.264   4.695  0.2171 -0.0266  0.4112
 3650SOL    HW122412   2.662   4.346   4.693  0.8883  0.3588 -0.3828
 3650SOL    HW222413   2.646   4.208   4.737  0.7815  0.2614  1.6543
 3651SOL     OW22414   0.938   3.913   5.856  0.1418 -0.1450 -0.4011
 3651SOL    HW122415   0.974   3.875   5.937 -0.4673 -0.8643 -0.4709
 3651SOL    HW222416   0.846   3.888   5.863  0.0188 -0.1118 -2.0014
 3652SOL     OW22417   0.315   4.129   2.770  0.3902 -0.6003  0.4737
 3652SOL    HW122418   0.310   4.064   2.701  1.5473  0.2919 -0.4464
 3652SOL    HW222419   0.359   4.075   2.836  0.5894  0.1480  0.9588
 3653SOL     OW22420   1.620   0.930   2.438 -0.1116 -0.2519  0.0763
 3653SOL    HW122421   1.680   0.963   2.371  0.6335  0.6367  1.1770
 3653SOL    HW222422   1.686   0.890   2.495 -0.3366 -1.5894 -0.6109
 3654SOL     OW22423   1.144   4.211  16.322  0.3156 -0.3147 -0.5587
 3654SOL    HW122424   1.085   4.248  16.256  1.4829 -0.2734 -1.5829
 3654SOL    HW222425   1.184   4.291  16.355  0.8660 -1.4051  1.4586
 3655SOL     OW22426   1.401   4.519  17.499 -0.5816 -0.4760  0.9345
 3655SOL    HW122427   1.425   4.571  17.575 -0.3607  1.6139 -0.5574
 3655SOL    HW222428   1.331   4.459  17.522 -0.3654 -1.3293 -0.6091
 3656SOL     OW22429   2.893   3.581  10.283 -0.6597 -0.0500  0.3593
 3656SOL    HW122430   2.877   3.498  10.326  0.6723 -1.5190 -1.9577
 3656SOL    HW222431   2.982   3.590  10.317 -0.9960 -1.2095  1.5035
 3657SOL     OW22432   0.534   4.637   5.838 -0.1631  0.3543 -0.0854
 3657SOL    HW122433   0.615   4.636   5.889 -0.5393 -1.7877  0.4780
 3657SOL    HW222434   0.519   0.009   5.842 -1.6043  0.0076  3.0347
 3658SOL     OW22435   1.374   1.512  12.709  0.1285 -0.1924  0.1512
 3658SOL    HW122436   1.396   1.593  12.662  0.2327 -1.1613 -1.4775
 3658SOL    HW222437   1.364   1.450  12.636 -0.9234  0.1113  0.0306
 3659SOL     OW22438   4.689   1.308   8.244  0.4391 -0.2635  0.2623
 3659SOL    HW122439   4.717   1.270   8.160  0.5230 -1.2527  0.7305
 3659SOL    HW222440   4.596   1.330   8.237  0.4409 -0.1668  0.5578
 3660SOL     OW22441   1.059   0.311   7.103 -0.1456  0.2532 -0.7307
 3660SOL    HW122442   1.080   0.384   7.160 -1.3571 -1.4896  1.9698
 3660SOL    HW222443   0.965   0.328   7.092  0.4822  2.7248 -2.1393
 3661SOL     OW22444   3.286   2.944   3.983  0.1122  0.2051  0.0278
 3661SOL    HW122445   3.337   2.874   4.025 -1.5822 -0.7816  0.4340
 3661SOL    HW222446   3.335   2.968   3.904 -2.0002  1.7192 -0.8053
 3662SOL     OW22447   0.028   1.951   3.396 -0.3118  0.7160 -0.5524
 3662SOL    HW122448   0.101   2.008   3.421 -0.3194  0.8771 -0.8938
 3662SOL    HW222449   0.062   1.862   3.410 -1.0829  0.7662  1.5808
 3663SOL     OW22450   1.762   2.814   8.077  0.2801  0.1858 -0.6176
 3663SOL    HW122451   1.785   2.884   8.139  0.3998 -0.8284  0.4729
 3663SOL    HW222452   1.770   2.739   8.136 -2.4707  0.9052  0.6868
 3664SOL     OW22453   2.636   3.850   2.260 -0.3137  0.4630 -0.0533
 3664SOL    HW122454   2.725   3.848   2.294 -0.2254  2.2760 -0.1437
 3664SOL    HW222455   2.586   3.839   2.341  0.0382 -1.1802 -0.0641
 3665SOL     OW22456   4.698   0.816   1.493  0.2203 -0.0448  0.2284
 3665SOL    HW122457   0.042   0.870   1.535 -0.5605 -0.5871  2.1845
 3665SOL    HW222458   4.668   0.869   1.420 -0.2192  0.0020  0.4399
 3666SOL     OW22459   0.095   3.694   4.816  0.4305 -0.1075 -0.1473
 3666SOL    HW122460   0.164   3.660   4.872  1.5797 -0.0055 -1.4970
 3666SOL    HW222461   0.130   3.780   4.796  0.3313  0.1309  0.7075
 3667SOL     OW22462   0.720   1.685  15.387 -0.1144  0.8117 -0.0736
 3667SOL    HW122463   0.807   1.644  15.389 -0.7179 -0.3493  2.7628
 3667SOL    HW222464   0.711   1.703  15.480 -0.1658 -0.6773  0.2173
 3668SOL     OW22465   2.292   3.142  12.770  0.5126  0.0294 -0.2320
 3668SOL    HW122466   2.386   3.154  12.759  0.2698  1.6607 -0.5823
 3668SOL    HW222467   2.288   3.047  12.782  0.8517  0.2314  1.5731
 3669SOL     OW22468   4.299   1.985   4.599 -0.2568 -0.1508  0.7918
 3669SOL    HW122469   4.315   1.898   4.637  0.6100 -0.3835 -0.1248
 3669SOL    HW222470   4.205   1.993   4.619  0.4900  2.3318  3.2711
 3670SOL     OW22471   2.361   2.809   6.414 -0.4490 -0.3624 -0.3964
 3670SOL    HW122472   2.387   2.879   6.473  0.5665 -1.4797  0.4879
 3670SOL    HW222473   2.311   2.848   6.343 -0.7015 -0.9761 -0.5594
 3671SOL     OW22474   0.859   0.763  16.309  0.2768  0.5109 -0.0831
 3671SOL    HW122475   0.946   0.727  16.323  0.0371  0.3123  0.8588
 3671SOL    HW222476   0.868   0.846  16.357 -1.2188 -0.1907  1.3827
 3672SOL     OW22477   3.640   2.942   9.061 -0.1607  0.2749 -0.1609
 3672SOL    HW122478   3.575   3.004   9.094  0.4630  0.4956  0.6619
 3672SOL    HW222479   3.655   2.886   9.138  1.4386  2.2201  0.9517
 3673SOL     OW22480   3.086   0.732   0.675  0.6358 -0.2517  0.1810
 3673SOL    HW122481   3.031   0.723   0.752  2.2113 -0.7521  1.2581
 3673SOL    HW222482   3.063   0.820   0.645 -2.0267 -0.6342  1.1322
 3674SOL     OW22483   4.009   3.203   8.813 -0.2053 -0.2330  0.3470
 3674SOL    HW122484   4.082   3.229   8.869 -0.3834  1.4301 -0.1893
 3674SOL    HW222485   3.966   3.283   8.784  1.0100 -0.1460 -1.2418
 3675SOL     OW22486   3.437   0.141   3.859 -0.1580  0.1075  0.0915
 3675SOL    HW122487   3.378   0.070   3.834 -0.6159 -0.1562  1.9848
 3675SOL    HW222488   3.520   0.095   3.842  1.0293  2.2761  0.0146
 3676SOL     OW22489   0.586   4.068   5.046 -0.0262 -0.4663 -0.5706
 3676SOL    HW122490   0.681   4.061   5.055 -0.0898 -2.5765 -1.6839
 3676SOL    HW222491   0.582   4.155   5.005  2.8204  0.2880  0.8245
 3677SOL     OW22492   3.185   3.600   6.246  0.8881 -0.3643 -0.3562
 3677SOL    HW122493   3.171   3.691   6.271 -1.5721 -0.9482  0.3537
 3677SOL    HW222494   3.264   3.591   6.300 -0.1336 -1.3360  0.9759
 3678SOL     OW22495   4.642   1.359   4.991 -0.8543 -0.1826  0.1307
 3678SOL    HW122496   4.625   1.335   5.082 -2.1924 -0.6252 -0.2315
 3678SOL    HW222497   4.715   1.302   4.966 -1.5738 -0.8820 -0.3838
 3679SOL     OW22498   0.782   2.930  14.357  0.0422  0.4711  0.0867
 3679SOL    HW122499   0.747   2.843  14.377  0.0895  0.4806  0.2074
 3679SOL    HW222500   0.793   2.940  14.262  0.1175  1.4273  0.1968
 3680SOL     OW22501   2.229   3.284   8.081 -0.6789  0.1404  0.4315
 3680SOL    HW122502   2.185   3.202   8.104  0.2273 -0.7658 -1.0203
 3680SOL    HW222503   2.242   3.267   7.988 -3.9960 -1.6898  0.2982
 3681SOL     OW22504   1.002   1.649  11.857  0.1194 -0.6039 -0.5034
 3681SOL    HW122505   0.976   1.721  11.915  1.6378  1.0243 -1.8214
 3681SOL    HW222506   1.088   1.673  11.821 -0.2944  1.6734 -0.0255
 3682SOL     OW22507   4.713   0.092   4.084  0.7236  0.3099  0.5143
 3682SOL    HW122508   4.692   0.090   3.990  0.3376 -2.1973  0.6679
 3682SOL    HW222509   0.000   4.722   4.104  0.7345  0.0990 -0.4725
 3683SOL     OW22510   1.551   1.513   7.345  0.3292 -0.0315 -0.0498
 3683SOL    HW122511   1.590   1.491   7.430 -2.5822 -1.2638  0.9608
 3683SOL    HW222512   1.622   1.567   7.309  2.4475 -1.8067  1.4651
 3684SOL     OW22513   2.977   2.477   9.236  1.0527  0.0601 -0.3400
 3684SOL    HW122514   2.920   2.406   9.207 -2.7105  2.7372  0.4301
 3684SOL    HW222515   3.055   2.434   9.201  0.9374 -0.6210  0.2423
 3685SOL     OW22516   3.518   2.396   3.210 -0.1378 -0.2590 -0.2507
 3685SOL    HW122517   3.501   2.484   3.243  0.5161 -0.4148  0.4971
 3685SOL    HW222518   3.564   2.345   3.276 -0.8141  0.8629  1.0910
 3686SOL     OW22519   2.251   1.681   3.171 -0.2987 -0.5463  0.1548
 3686SOL    HW122520   2.225   1.707   3.083  1.8178 -1.6780 -0.7859
 3686SOL    HW222521   2.335   1.638   3.157  0.5931  1.5855 -1.0459
 3687SOL     OW22522   3.526   1.787   5.900  0.1194  0.1601  0.3042
 3687SOL    HW122523   3.608   1.819   5.938  1.3186 -0.5151 -1.7182
 3687SOL    HW222524   3.492   1.732   5.971  1.3685 -1.4259 -0.3409
 3688SOL     OW22525   1.826   1.597  17.128 -0.3890  0.0482 -0.2566
 3688SOL    HW122526   1.759   1.561  17.069 -0.8255  2.2406 -1.1151
 3688SOL    HW222527   1.842   1.516  17.176  1.0041  0.2945 -0.3134
 3689SOL     OW22528   0.972   1.295   2.860  0.1459  0.4871 -0.1664
 3689SOL    HW122529   1.005   1.383   2.840 -0.4168  0.3031 -1.9353
 3689SOL    HW222530   1.049   1.240   2.873 -0.5475  0.2015  2.7875
 3690SOL     OW22531   0.164   1.959   1.999 -0.5012 -0.0350 -0.2480
 3690SOL    HW122532   0.142   2.020   2.070 -0.2877  1.6266 -1.6118
 3690SOL    HW222533   0.152   1.877   2.047  1.7300 -0.5704 -0.5984
 3691SOL     OW22534   2.266   2.269  13.752  0.2441 -0.2015  0.0757
 3691SOL    HW122535   2.207   2.311  13.814 -2.4390 -1.3737 -1.6964
 3691SOL    HW222536   2.210   2.235  13.682 -0.4173 -3.2633  2.0506
 3692SOL     OW22537   1.356   4.103   0.529  0.2520  0.0346  0.4550
 3692SOL    HW122538   1.315   4.048   0.462 -0.3704  1.9889 -0.7938
 3692SOL    HW222539   1.434   4.050   0.542 -0.3772 -0.9237  0.2695
 3693SOL     OW22540   0.274   0.247   1.453 -0.0374 -0.7650  1.0540
 3693SOL    HW122541   0.344   0.252   1.518  0.5580 -1.1802  0.4481
 3693SOL    HW222542   0.320   0.198   1.385  2.2409 -0.1469  2.1511
 3694SOL     OW22543   3.151   1.410  11.672 -0.0135 -0.2810 -0.3305
 3694SOL    HW122544   3.058   1.401  11.693 -0.1563  0.9172 -0.4516
 3694SOL    HW222545   3.180   1.465  11.745  2.4299 -0.3956 -1.2132
 3695SOL     OW22546   2.908   0.166   3.728 -0.3912  0.0540  0.7548
 3695SOL    HW122547   2.896   0.140   3.819  0.8034 -1.0895  0.5841
 3695SOL    HW222548   2.912   0.081   3.685 -1.1848  0.1331  0.5253
 3696SOL     OW22549   2.674   2.703   7.230 -0.1558  0.6456 -0.3417
 3696SOL    HW122550   2.673   2.690   7.325 -0.6340  1.8271 -0.1886
 3696SOL    HW222551   2.646   2.617   7.198 -3.2180  0.6287  2.4330
 3697SOL     OW22552   4.253   3.306   8.428  0.7516  0.1792  0.0892
 3697SOL    HW122553   4.183   3.349   8.378 -0.7627 -3.1265 -0.6082
 3697SOL    HW222554   4.262   3.370   8.499 -0.6621  0.4291  0.0509
 3698SOL     OW22555   0.533   1.467   4.571 -0.7478  0.1170 -0.2224
 3698SOL    HW122556   0.613   1.509   4.540 -0.9278  0.3902 -0.3144
 3698SOL    HW222557   0.475   1.447   4.497  0.5805  0.0331 -1.2431
 3699SOL     OW22558   1.347   3.622   6.500  0.3364  0.0722 -0.1563
 3699SOL    HW122559   1.330   3.530   6.478  0.5494  0.1560 -0.6806
 3699SOL    HW222560   1.279   3.639   6.566 -0.8930 -0.8855 -1.1643
 3700SOL     OW22561   0.508   1.631   1.993  0.1613 -0.7438 -0.2198
 3700SOL    HW122562   0.494   1.723   1.971 -0.0984 -0.4167  1.3698
 3700SOL    HW222563   0.414   1.613   2.002  0.4128 -1.6925  0.5278
 3701SOL     OW22564   4.150   1.384   0.508  0.2486 -0.1502  0.5468
 3701SOL    HW122565   4.198   1.397   0.426  1.9992 -0.0568  1.5917
 3701SOL    HW222566   4.224   1.391   0.569  2.2293  4.1399 -2.3421
 3702SOL     OW22567   1.267   2.685   2.162 -0.1486  0.4869 -0.0246
 3702SOL    HW122568   1.327   2.746   2.206 -1.0364  0.2906  1.4605
 3702SOL    HW222569   1.321   2.636   2.100 -1.2101  2.6888 -2.6677
 3703SOL     OW22570   2.972   2.690   5.483  0.3408  0.3125  0.2179
 3703SOL    HW122571   3.024   2.720   5.409 -1.6072 -1.7725 -1.9820
 3703SOL    HW222572   3.030   2.711   5.556 -2.3011 -0.0906  2.4419
 3704SOL     OW22573   2.517   3.725   5.073 -0.2499  0.3192  0.4158
 3704SOL    HW122574   2.433   3.687   5.046  0.2186 -0.9643  0.8032
 3704SOL    HW222575   2.517   3.794   5.006 -0.8522 -0.3574 -0.2816
 3705SOL     OW22576   2.407   0.396   3.678 -0.2589 -0.1011 -0.0399
 3705SOL    HW122577   2.340   0.440   3.731 -0.7793  0.3126 -1.0559
 3705SOL    HW222578   2.359   0.316   3.656  2.8872 -1.9106 -0.3437
 3706SOL     OW22579   1.319   1.586  10.417 -0.1828  0.1399 -0.1881
 3706SOL    HW122580   1.280   1.561  10.333  1.7549  2.4820 -1.7996
 3706SOL    HW222581   1.371   1.662  10.388  2.7695 -0.8964  2.3612
 3707SOL     OW22582   3.949   1.500   3.901 -0.0109 -0.2127 -0.0293
 3707SOL    HW122583   3.947   1.405   3.906 -0.3987 -0.2545 -1.0114
 3707SOL    HW222584   4.036   1.516   3.938  0.4434  0.0506 -1.2141
 3708SOL     OW22585   4.202   4.031   4.362 -0.2117 -0.0558  0.1389
 3708SOL    HW122586   4.109   4.055   4.362 -0.4963 -1.1003 -1.7248
 3708SOL    HW222587   4.238   4.081   4.288  0.0826 -0.1953  0.1874
 3709SOL     OW22588   4.298   4.076  12.069  0.0155  0.1304  0.4861
 3709SOL    HW122589   4.230   4.125  12.114 -2.0903 -0.8166 -1.6186
 3709SOL    HW222590   4.270   3.986  12.084  0.6262 -0.7704 -3.6490
 3710SOL     OW22591   3.838   1.737   4.430  0.4402 -0.4896  0.1286
 3710SOL    HW122592   3.770   1.697   4.376  0.7024  2.2024 -2.2097
 3710SOL    HW222593   3.797   1.713   4.513  2.1712 -0.7299  0.9196
 3711SOL     OW22594   0.132   3.953   8.129 -0.4031 -0.0233  0.3131
 3711SOL    HW122595   0.141   3.863   8.100  1.1446 -0.1335  1.1486
 3711SOL    HW222596   0.036   3.957   8.131 -0.4871 -1.5373 -1.4644
 3712SOL     OW22597   3.329   0.643   2.776 -0.4906  0.5836 -0.4762
 3712SOL    HW122598   3.407   0.600   2.811 -1.1952 -1.5492 -1.4832
 3712SOL    HW222599   3.325   0.726   2.823  0.6943  0.0630  0.5560
 3713SOL     OW22600   2.271   0.570   1.017 -0.0172 -0.2007 -0.1254
 3713SOL    HW122601   2.219   0.650   1.020  1.9734  1.0854 -0.0288
 3713SOL    HW222602   2.360   0.603   1.031  0.2386 -0.7617 -0.4492
 3714SOL     OW22603   1.886   1.007   1.904 -0.1168 -0.3189 -0.1410
 3714SOL    HW122604   1.792   1.020   1.894 -0.0002 -0.2841 -1.1681
 3714SOL    HW222605   1.904   1.098   1.925  1.5151 -1.0727  1.7773
 3715SOL     OW22606   4.165   3.806   4.191  0.5915  0.1067  0.3362
 3715SOL    HW122607   4.239   3.792   4.133 -0.0509  1.9155 -0.9052
 3715SOL    HW222608   4.187   3.883   4.244  1.3671 -1.1843  1.8975
 3716SOL     OW22609   0.708   3.306   3.861 -0.0307  0.2279  0.5370
 3716SOL    HW122610   0.635   3.320   3.801 -0.5838  0.0254  1.1616
 3716SOL    HW222611   0.685   3.374   3.925 -1.7210 -1.0902  1.3186
 3717SOL     OW22612   3.783   3.301   5.900  0.5100  0.2060  0.4443
 3717SOL    HW122613   3.862   3.287   5.952  2.9281  1.0946 -2.9975
 3717SOL    HW222614   3.813   3.284   5.811 -0.1023 -0.5981  0.3926
 3718SOL     OW22615   4.013   1.690   2.762  0.1563  0.5924  0.6117
 3718SOL    HW122616   4.105   1.689   2.734 -0.3064  0.8774 -0.9010
 3718SOL    HW222617   3.963   1.715   2.685  1.5352  0.6512 -0.2708
 3719SOL     OW22618   4.400   4.174   6.689  0.1660 -0.2312  0.4934
 3719SOL    HW122619   4.398   4.181   6.594  1.9958 -0.8488  0.4189
 3719SOL    HW222620   4.458   4.099   6.700  1.1880  0.4265 -0.4156
 3720SOL     OW22621   1.677   1.786   3.027  0.0646  0.5701 -0.0769
 3720SOL    HW122622   1.742   1.773   2.958 -0.7165  0.6040 -0.8201
 3720SOL    HW222623   1.629   1.862   2.995 -1.5225 -0.5659 -0.4259
 3721SOL     OW22624   2.802   0.487   4.350  0.1862  0.9771  1.0616
 3721SOL    HW122625   2.717   0.443   4.339  1.0825 -0.7013  0.8741
 3721SOL    HW222626   2.850   0.404   4.349  1.1616  1.5083  3.6909
 3722SOL     OW22627   0.185   3.072   8.699 -0.4442  0.0254 -0.4859
 3722SOL    HW122628   0.236   2.994   8.722 -0.6073  0.2452  0.5807
 3722SOL    HW222629   0.193   3.124   8.779 -0.9299 -0.3936 -0.1656
 3723SOL     OW22630   2.632   1.833  12.441  0.0852 -0.1071  0.1497
 3723SOL    HW122631   2.571   1.885  12.493 -1.6850 -1.7981 -0.2270
 3723SOL    HW222632   2.692   1.803  12.510  0.9727 -0.8126 -0.9394
 3724SOL     OW22633   0.926   1.407   0.387 -0.5207 -0.2524 -1.0402
 3724SOL    HW122634   0.891   1.332   0.338 -1.3807 -2.0907  2.3725
 3724SOL    HW222635   0.921   1.473   0.318  1.5300 -1.4538 -2.3483
 3725SOL     OW22636   1.412   0.005   9.271  0.4245 -0.0216  0.1996
 3725SOL    HW122637   1.485   4.682   9.229 -0.2149 -1.6323  0.8083
 3725SOL    HW222638   1.358   0.031   9.197 -2.3442 -0.3584  2.0922
 3726SOL     OW22639   0.009   1.855  10.706  0.4808 -0.2625  0.3744
 3726SOL    HW122640   0.085   1.804  10.678 -0.0514 -1.6624  1.4413
 3726SOL    HW222641   4.663   1.789  10.703  1.5342 -1.2951 -0.9815
 3727SOL     OW22642   3.745   2.845   9.302 -0.4760  0.3440  0.2516
 3727SOL    HW122643   3.769   2.933   9.275  1.1043 -0.4546 -0.9321
 3727SOL    HW222644   3.789   2.844   9.387  2.9969  1.4597 -1.5507
 3728SOL     OW22645   0.380   3.318   5.395  0.2298 -0.1214 -0.6449
 3728SOL    HW122646   0.432   3.386   5.439 -0.7264  1.6564 -2.2484
 3728SOL    HW222647   0.413   3.322   5.305 -1.5260  0.9665 -1.2468
 3729SOL     OW22648   2.962   1.372   4.642  0.1731  1.1211 -0.8124
 3729SOL    HW122649   2.975   1.324   4.724 -0.6868 -1.8306 -2.3721
 3729SOL    HW222650   3.051   1.373   4.607 -0.1760  0.1433 -1.7411
 3730SOL     OW22651   3.998   3.243   1.783  0.2435  0.0819  0.5018
 3730SOL    HW122652   4.089   3.270   1.797 -0.6042  3.5779 -0.5280
 3730SOL    HW222653   3.962   3.318   1.735  0.3934  0.9205  1.6977
 3731SOL     OW22654   1.230   3.936   4.830  0.1723 -0.2945  0.1402
 3731SOL    HW122655   1.274   3.856   4.802 -0.2099 -0.2492 -0.5727
 3731SOL    HW222656   1.218   3.896   4.917 -3.2439 -0.1744 -0.2951
 3732SOL     OW22657   2.697   1.956  11.561  0.1223  0.0072  0.0176
 3732SOL    HW122658   2.746   1.971  11.641  2.7531 -1.6150 -1.2992
 3732SOL    HW222659   2.712   2.034  11.507 -1.7920 -0.2411 -0.8928
 3733SOL     OW22660   0.245   3.779  13.920  0.3810  0.0918  0.1461
 3733SOL    HW122661   0.269   3.828  13.842  1.0057 -0.5697 -0.0794
 3733SOL    HW222662   0.323   3.723  13.925  0.9988  0.9157 -0.2404
 3734SOL     OW22663   1.732   1.675   1.486  0.0813 -0.4979  0.1899
 3734SOL    HW122664   1.752   1.713   1.400 -1.5214  0.7477  0.3721
 3734SOL    HW222665   1.711   1.753   1.538  2.3993  1.0150 -1.1419
 3735SOL     OW22666   1.269   3.119   9.158  0.3019  0.7123 -0.4506
 3735SOL    HW122667   1.188   3.140   9.112  0.0006 -0.4143 -0.4303
 3735SOL    HW222668   1.311   3.081   9.081 -0.6911 -2.7122  0.6815
 3736SOL     OW22669   1.423   3.982  14.397  0.2868  0.0692 -0.4303
 3736SOL    HW122670   1.476   3.931  14.460  0.4034 -0.0939 -0.6602
 3736SOL    HW222671   1.483   4.017  14.331  1.6623  2.5292  2.1113
 3737SOL     OW22672   2.138   2.758   1.972 -0.1375  0.4541 -0.3937
 3737SOL    HW122673   2.213   2.704   1.997  0.3992  0.9375 -0.9290
 3737SOL    HW222674   2.166   2.799   1.889  1.3064  0.1941 -0.0402
 3738SOL     OW22675   3.728   4.658  11.051 -0.1989 -0.0661 -0.6218
 3738SOL    HW122676   3.635   4.676  11.061 -0.0105  1.2116 -1.1469
 3738SOL    HW222677   3.745   4.645  11.144  2.6814  0.0654 -1.1106
 3739SOL     OW22678   3.826   0.415   0.696 -1.1673  0.1975 -0.5006
 3739SOL    HW122679   3.904   0.415   0.751 -1.6361  0.6100  0.1576
 3739SOL    HW222680   3.829   0.322   0.672 -2.6360 -0.3033  1.2537
 3740SOL     OW22681   4.203   2.532   7.975 -0.4822  0.1012 -0.4773
 3740SOL    HW122682   4.195   2.570   8.062  0.8234 -0.3110 -0.1785
 3740SOL    HW222683   4.281   2.479   7.991 -0.5418  0.2488  0.2913
 3741SOL     OW22684   3.801   0.057   9.186  0.3291 -0.1977  0.2699
 3741SOL    HW122685   3.708   0.076   9.181  0.2422 -0.6852  0.0439
 3741SOL    HW222686   3.829   0.149   9.187 -3.7062  0.9650  2.0889
 3742SOL     OW22687   4.454   1.135  13.928  0.1204 -0.0446  1.1772
 3742SOL    HW122688   4.366   1.173  13.929  0.3353  0.5670 -3.8662
 3742SOL    HW222689   4.510   1.212  13.940  1.3729 -0.8300  0.3405
 3743SOL     OW22690   1.630   3.573   3.891  0.2697 -0.6348 -0.0760
 3743SOL    HW122691   1.548   3.614   3.865  0.2222 -0.3256  0.5749
 3743SOL    HW222692   1.610   3.479   3.888 -0.0993 -0.6123  1.7226
 3744SOL     OW22693   2.263   1.349  16.068 -0.3792 -0.4443 -0.1747
 3744SOL    HW122694   2.210   1.347  15.988 -0.7372  1.1286  0.0307
 3744SOL    HW222695   2.211   1.395  16.135 -1.6229  0.7676 -1.9803
 3745SOL     OW22696   3.968   3.684  16.971 -1.2523 -0.7080  0.7281
 3745SOL    HW122697   4.042   3.682  17.031  1.4689 -0.1498 -2.5479
 3745SOL    HW222698   3.896   3.708  17.029 -0.3350 -1.1040  2.0225
 3746SOL     OW22699   4.224   4.052  16.352 -0.5570 -0.5617  0.5421
 3746SOL    HW122700   4.195   3.976  16.403  1.2515 -1.9197 -0.4424
 3746SOL    HW222701   4.217   4.128  16.410 -0.0846 -0.9941  1.1712
 3747SOL     OW22702   3.532   0.930  13.928  0.0876  0.4383 -0.7638
 3747SOL    HW122703   3.566   0.841  13.931  1.7522  1.1060  0.3607
 3747SOL    HW222704   3.450   0.922  13.977  0.3097  1.4627 -0.2048
 3748SOL     OW22705   2.463   2.087   4.362 -0.1371 -0.0940  0.2323
 3748SOL    HW122706   2.538   2.054   4.313 -1.4887  0.2413 -2.0573
 3748SOL    HW222707   2.481   2.181   4.352  1.3672 -0.5465 -1.3874
 3749SOL     OW22708   0.899   0.028   2.721 -0.4251 -0.0944 -0.3726
 3749SOL    HW122709   0.835   4.700   2.671  1.2002 -0.5584 -2.0035
 3749SOL    HW222710   0.919   0.091   2.652 -0.4298 -1.5426 -1.6886
 3750SOL     OW22711   1.800   3.321   0.397  0.1323  0.4256 -0.4300
 3750SOL    HW122712   1.847   3.388   0.446 -0.6395  1.4640 -1.0887
 3750SOL    HW222713   1.730   3.295   0.457 -0.1358  0.5756 -0.6741
 3751SOL     OW22714   2.995   1.115   8.833  0.2626  0.2931 -0.0284
 3751SOL    HW122715   2.978   1.057   8.759  1.2170 -0.1823  0.1174
 3751SOL    HW222716   2.902   1.112   8.853  0.3500 -0.8966  0.2163
 3752SOL     OW22717   2.435   2.683  11.200 -0.3145 -0.5418 -0.5597
 3752SOL    HW122718   2.506   2.625  11.172 -1.4586 -0.7611 -2.9719
 3752SOL    HW222719   2.407   2.715  11.114 -0.0462  2.5457  0.4815
 3753SOL     OW22720   2.874   2.380   5.894 -0.1596 -0.6008  0.5059
 3753SOL    HW122721   2.954   2.405   5.847 -2.4673 -0.6140 -3.4407
 3753SOL    HW222722   2.912   2.325   5.962 -1.6818 -1.7800  0.4106
 3754SOL     OW22723   3.117   1.825   6.175 -0.2085  0.1010 -0.5498
 3754SOL    HW122724   3.161   1.855   6.254  0.2067  1.1248 -1.1718
 3754SOL    HW222725   3.034   1.808   6.220  0.0032 -0.0449 -0.2165
 3755SOL     OW22726   1.760   1.498   7.031  0.1149 -0.1568  0.7348
 3755SOL    HW122727   1.830   1.563   7.039  1.2339 -1.1618 -0.8610
 3755SOL    HW222728   1.752   1.480   7.125 -0.2152  0.0160  0.7397
 3756SOL     OW22729   0.896   2.005  13.403  0.6678 -0.4258  0.0954
 3756SOL    HW122730   0.817   1.966  13.366  0.5630 -1.3687  1.3318
 3756SOL    HW222731   0.873   2.098  13.397 -0.3914 -0.6788  0.2300
 3757SOL     OW22732   3.999   0.434   8.328 -0.6692  0.3322  0.0220
 3757SOL    HW122733   4.079   0.430   8.381 -1.9266  0.0763  1.9129
 3757SOL    HW222734   3.933   0.472   8.386 -0.8592 -0.2713  0.2053
 3758SOL     OW22735   3.476   2.273   4.290 -0.9195 -0.3686 -0.0590
 3758SOL    HW122736   3.450   2.364   4.278  2.0283  0.3310 -1.1355
 3758SOL    HW222737   3.486   2.268   4.385 -1.1485  0.6554  0.0190
 3759SOL     OW22738   2.945   3.154  11.762 -0.5658 -0.2762  0.5500
 3759SOL    HW122739   2.864   3.204  11.777 -0.9350 -0.5471 -0.5177
 3759SOL    HW222740   2.976   3.208  11.688 -1.8083  0.7067  0.7405
 3760SOL     OW22741   4.497   1.398   4.740 -0.7061  0.6590  0.0954
 3760SOL    HW122742   4.537   1.362   4.819 -1.7390  1.0935  0.8158
 3760SOL    HW222743   4.511   1.333   4.671 -0.4100 -1.0754  1.8161
 3761SOL     OW22744   0.061   4.026   8.634  0.3058  0.1932 -0.1504
 3761SOL    HW122745   4.714   3.970   8.669 -0.9370  2.5624  1.1679
 3761SOL    HW222746   0.007   4.104   8.631 -2.3904 -1.6437  0.3768
 3762SOL     OW22747   2.202   1.454  17.206 -0.4462 -0.0113 -0.4392
 3762SOL    HW122748   2.285   1.441  17.162 -0.0545 -0.2578  0.3658
 3762SOL    HW222749   2.228   1.449  17.298  2.9104  1.2178 -1.3347
 3763SOL     OW22750   3.960   3.843   1.701 -0.1201 -0.1146 -0.2365
 3763SOL    HW122751   4.018   3.768   1.686 -0.9810 -0.7340 -0.4577
 3763SOL    HW222752   3.995   3.897   1.629 -1.8858  1.1638 -0.1386
 3764SOL     OW22753   0.272   2.125   6.247  0.3556  0.5390 -0.3569
 3764SOL    HW122754   0.323   2.201   6.216 -1.0133  1.6601  0.1614
 3764SOL    HW222755   0.331   2.103   6.319  0.0948 -2.6420 -1.1343
 3765SOL     OW22756   1.339   0.064   5.560  0.4731 -0.4026  0.3100
 3765SOL    HW122757   1.333   4.719   5.627 -1.0675 -0.8076 -0.2360
 3765SOL    HW222758   1.419   0.111   5.583  0.3310  0.2272 -0.4920
 3766SOL     OW22759   3.194   0.221  15.969  0.3961 -0.2773  0.1598
 3766SOL    HW122760   3.199   0.135  15.929 -0.1572  0.0008 -0.5141
 3766SOL    HW222761   3.111   0.252  15.934  0.9753  1.8142  0.6226
 3767SOL     OW22762   2.545   2.968   3.665 -0.7620 -0.0004  0.3238
 3767SOL    HW122763   2.585   3.000   3.585 -0.0727 -0.6600  0.4144
 3767SOL    HW222764   2.464   2.929   3.633  0.2137 -1.2876 -0.5450
 3768SOL     OW22765   3.129   3.353   6.952 -0.1850  0.1777  0.1234
 3768SOL    HW122766   3.036   3.371   6.940  0.6144  3.0870 -1.4660
 3768SOL    HW222767   3.120   3.333   7.046 -1.3122 -1.9476 -0.4265
 3769SOL     OW22768   3.434   4.342   6.702 -0.0137  0.4921 -0.5079
 3769SOL    HW122769   3.500   4.319   6.768  0.4547  2.6702 -0.2209
 3769SOL    HW222770   3.361   4.292   6.740 -0.1877  0.3496 -1.0303
 3770SOL     OW22771   0.277   1.420  11.702 -0.0154 -0.1379  0.3738
 3770SOL    HW122772   0.335   1.492  11.679  0.1741 -0.7672 -1.1242
 3770SOL    HW222773   0.194   1.467  11.691 -1.0669 -1.9365  0.6204
 3771SOL     OW22774   0.847   1.245   2.424 -0.1567  0.3724 -0.0525
 3771SOL    HW122775   0.896   1.169   2.393  1.8513  0.9063  1.8702
 3771SOL    HW222776   0.915   1.312   2.414  0.3438 -0.2137 -0.5840
 3772SOL     OW22777   3.868   3.952   4.841  0.2552  0.3853 -0.1403
 3772SOL    HW122778   3.830   4.038   4.858  1.0899  0.7401 -0.0753
 3772SOL    HW222779   3.922   3.964   4.762 -0.7950  1.2345 -0.7371
 3773SOL     OW22780   2.960   3.181   8.699  0.1075  0.7184 -0.2306
 3773SOL    HW122781   2.905   3.228   8.761 -0.1132 -1.3299  1.1273
 3773SOL    HW222782   2.950   3.092   8.732  1.1583  0.1396 -1.4710
 3774SOL     OW22783   1.103   0.810   5.291 -0.1725  0.1573 -0.1193
 3774SOL    HW122784   1.096   0.879   5.225  1.0599  0.6648  0.2850
 3774SOL    HW222785   1.041   0.838   5.359 -0.3573  0.6790 -0.5023
 3775SOL     OW22786   1.227   4.223   7.782 -0.5137  0.3033 -0.3403
 3775SOL    HW122787   1.266   4.310   7.778 -0.9206  0.4213 -1.8192
 3775SOL    HW222788   1.174   4.233   7.861  2.8461  1.3992  1.7735
 3776SOL     OW22789   1.946   2.557   3.758  0.7236  0.3325 -0.3645
 3776SOL    HW122790   1.853   2.565   3.779  0.6277 -1.1509 -0.2199
 3776SOL    HW222791   1.954   2.587   3.667  1.3498 -0.3297 -0.5298
 3777SOL     OW22792   3.997   1.680  16.599 -0.8972  0.3386  0.3272
 3777SOL    HW122793   4.026   1.700  16.510 -2.1001  0.2821 -0.0743
 3777SOL    HW222794   3.920   1.629  16.571 -0.9810  0.4882  0.2843
 3778SOL     OW22795   3.281   2.488   4.142  0.0295 -0.3194 -0.2815
 3778SOL    HW122796   3.330   2.532   4.211  0.4432 -0.5685 -0.4207
 3778SOL    HW222797   3.305   2.546   4.069  1.8332  0.0561  0.6145
 3779SOL     OW22798   1.699   2.874   5.348  0.5816  0.2715 -0.2628
 3779SOL    HW122799   1.662   2.813   5.284 -1.4068  2.5492 -1.2836
 3779SOL    HW222800   1.781   2.905   5.309  0.9122 -3.3262 -2.3951
 3780SOL     OW22801   0.896   2.244   5.655  0.4882  0.1274  0.1016
 3780SOL    HW122802   0.934   2.289   5.580  3.2937 -0.2245  1.3352
 3780SOL    HW222803   0.944   2.162   5.654 -0.5520 -0.4855 -0.3465
 3781SOL     OW22804   1.012   1.413  10.722 -0.4918  0.4378  0.4020
 3781SOL    HW122805   0.984   1.438  10.810 -0.0481  0.8270  0.4254
 3781SOL    HW222806   1.036   1.320  10.720 -1.2800  0.2680 -1.3515
 3782SOL     OW22807   2.510   2.258   5.831  0.2553  0.1320  0.2902
 3782SOL    HW122808   2.567   2.325   5.794  1.4936 -1.0670  0.0359
 3782SOL    HW222809   2.543   2.237   5.919 -0.2238  1.0170  0.6898
 3783SOL     OW22810   2.703   4.482   4.493 -0.4259 -0.0703  0.1294
 3783SOL    HW122811   2.685   4.488   4.400 -0.6859 -0.0490  0.1818
 3783SOL    HW222812   2.798   4.493   4.505 -0.1940 -1.1878 -0.7223
 3784SOL     OW22813   3.817   2.329   6.965  0.7429  0.4017  0.3007
 3784SOL    HW122814   3.788   2.253   6.915  1.3152 -0.6456  1.5716
 3784SOL    HW222815   3.811   2.286   7.050 -1.7532 -0.5350 -0.3318
 3785SOL     OW22816   2.154   4.151  12.929 -0.0772 -0.5096  0.5860
 3785SOL    HW122817   2.243   4.125  12.954  1.1396  0.9256 -2.3640
 3785SOL    HW222818   2.124   4.064  12.904 -1.5080  0.2899 -0.4355
 3786SOL     OW22819   4.060   1.388   4.502  0.3993  0.4025  0.1182
 3786SOL    HW122820   3.971   1.380   4.468 -0.2020 -0.6998  1.9418
 3786SOL    HW222821   4.101   1.328   4.440  0.8474 -1.6837  2.4099
 3787SOL     OW22822   1.253   2.366  13.365 -0.4490  0.2285  0.0478
 3787SOL    HW122823   1.165   2.374  13.402 -0.2883 -0.6504  0.6005
 3787SOL    HW222824   1.278   2.458  13.369 -0.6470  0.3057 -0.4510
 3788SOL     OW22825   1.286   3.301  15.165  0.1856  0.3704  0.5926
 3788SOL    HW122826   1.314   3.326  15.076 -2.3885  2.2167  0.3160
 3788SOL    HW222827   1.357   3.236  15.169 -1.6914 -1.7102  0.1294
 3789SOL     OW22828   4.173   1.025  17.536 -0.3172  0.3972 -0.4168
 3789SOL    HW122829   4.268   1.029  17.523  0.1317 -1.5112  2.4861
 3789SOL    HW222830   4.160   1.113  17.572 -0.0512 -0.5857  2.0864
 3790SOL     OW22831   0.999   3.196   8.972 -0.2732  0.2755  0.5599
 3790SOL    HW122832   0.992   3.117   8.918 -4.6650  0.7196  0.5395
 3790SOL    HW222833   0.914   3.195   9.016  0.6153  1.3366  2.2832
 3791SOL     OW22834   2.190   1.878  14.773 -0.7214 -0.2957 -0.5249
 3791SOL    HW122835   2.254   1.946  14.796 -1.3014 -0.9924  3.0496
 3791SOL    HW222836   2.108   1.922  14.792 -1.3542 -1.0585 -1.5140
 3792SOL     OW22837   1.183   3.648   7.337 -0.0160 -0.2943  0.4982
 3792SOL    HW122838   1.204   3.573   7.281  1.4914  0.8455 -0.4636
 3792SOL    HW222839   1.175   3.730   7.288 -0.5637  0.5555  2.0177
 3793SOL     OW22840   3.065   2.051   6.350  0.4332  0.5233 -0.2765
 3793SOL    HW122841   3.009   2.059   6.272  0.5386  0.5131 -0.3524
 3793SOL    HW222842   3.031   2.125   6.401  0.3106  0.2205  0.0801
 3794SOL     OW22843   4.229   1.789   7.199 -0.8065  0.1130 -0.3964
 3794SOL    HW122844   4.237   1.696   7.220 -2.2103 -0.4805 -2.4719
 3794SOL    HW222845   4.296   1.830   7.254 -0.6465 -0.5049 -0.1280
 3795SOL     OW22846   3.998   0.422   4.880 -0.0221  0.1773 -0.2344
 3795SOL    HW122847   3.964   0.485   4.944  0.7182  0.2804  0.0521
 3795SOL    HW222848   4.072   0.470   4.844 -0.6961  1.9169  0.7236
 3796SOL     OW22849   2.342   2.585   8.391 -0.0464 -0.5388 -0.0919
 3796SOL    HW122850   2.263   2.566   8.441 -0.5040  0.4491 -0.4217
 3796SOL    HW222851   2.378   2.499   8.372 -0.2081 -0.7304  0.4649
 3797SOL     OW22852   1.227   0.779  11.124 -0.2062  0.0543 -0.3772
 3797SOL    HW122853   1.276   0.698  11.111 -0.4453  0.0011 -0.9053
 3797SOL    HW222854   1.152   0.760  11.068 -1.2176  0.1249  0.9530
 3798SOL     OW22855   2.398   2.302   4.675 -0.1763 -0.6127 -0.4261
 3798SOL    HW122856   2.354   2.350   4.744  1.8688  0.9819 -0.2292
 3798SOL    HW222857   2.459   2.265   4.739 -1.2333 -0.2916  0.7671
 3799SOL     OW22858   2.565   2.055   1.564  0.0229 -0.1170  0.0425
 3799SOL    HW122859   2.610   2.071   1.481 -0.6157  3.1675  0.3051
 3799SOL    HW222860   2.616   1.988   1.608 -0.6391 -0.7617 -0.1663
 3800SOL     OW22861   0.424   2.722   7.881 -0.0760 -0.3548 -0.5278
 3800SOL    HW122862   0.352   2.691   7.936  0.6086  1.9363  1.6718
 3800SOL    HW222863   0.399   2.712   7.789  2.7894  0.6775 -1.4131
 3801SOL     OW22864   2.545   1.493   0.991  0.1877 -0.3743  0.2898
 3801SOL    HW122865   2.640   1.483   0.990  0.4477  2.1216 -0.1439
 3801SOL    HW222866   2.531   1.567   0.932 -1.1410  0.2927  1.4210
 3802SOL     OW22867   0.475   2.240   2.962  0.3561 -0.1306 -0.0013
 3802SOL    HW122868   0.413   2.274   2.897 -1.0109  1.1297  1.9857
 3802SOL    HW222869   0.415   2.178   3.005 -0.5983  0.8257  0.0476
 3803SOL     OW22870   0.778   0.751   4.474 -0.5912  0.0755  0.4174
 3803SOL    HW122871   0.692   0.793   4.476 -1.3733 -1.6198  2.2008
 3803SOL    HW222872   0.753   0.667   4.512 -0.3553  0.0739  0.5670
 3804SOL     OW22873   2.339   3.746   4.705  0.0860  0.1033 -0.0083
 3804SOL    HW122874   2.322   3.742   4.799  0.0841 -0.7374 -0.0419
 3804SOL    HW222875   2.249   3.774   4.691  0.6783  1.2203 -1.5873
 3805SOL     OW22876   3.985   4.181  12.193 -0.1328  0.0730 -0.6462
 3805SOL    HW122877   4.065   4.234  12.189 -0.3725  0.5975  1.9936
 3805SOL    HW222878   3.931   4.226  12.128  0.7565  0.4424 -1.1408
 3806SOL     OW22879   3.645   0.510   0.409  0.0158  0.1846 -0.8275
 3806SOL    HW122880   3.642   0.442   0.342 -1.4799 -0.9497  0.3888
 3806SOL    HW222881   3.553   0.507   0.436  0.1650  0.1089 -0.3432
 3807SOL     OW22882   3.450   2.867   2.297 -0.5601  0.0202  0.3562
 3807SOL    HW122883   3.361   2.902   2.285 -0.7404 -0.3218  0.7076
 3807SOL    HW222884   3.503   2.919   2.236  0.8624 -1.9210 -0.0482
 3808SOL     OW22885   0.292   0.594   8.269  0.3302  0.0942  0.7696
 3808SOL    HW122886   0.257   0.630   8.351 -0.8325 -0.0343  0.3389
 3808SOL    HW222887   0.210   0.551   8.246 -1.4134  2.9833  1.5153
 3809SOL     OW22888   4.709   0.576   2.706 -0.1090 -0.4745 -0.3935
 3809SOL    HW122889   4.693   0.658   2.658  0.3954 -0.8285 -1.1749
 3809SOL    HW222890   0.072   0.554   2.669  0.2706  1.6969 -0.8651
 3810SOL     OW22891   4.465   1.590   5.234 -0.1803 -0.2448 -0.1907
 3810SOL    HW122892   4.410   1.596   5.312  0.7548 -2.2383  0.6230
 3810SOL    HW222893   4.450   1.499   5.208  1.7670 -0.8498  0.7559
 3811SOL     OW22894   0.974   4.296   2.963 -0.3132 -0.3670 -0.2536
 3811SOL    HW122895   0.937   4.382   2.942  0.0870 -0.2123 -0.3162
 3811SOL    HW222896   1.063   4.316   2.992  0.1781 -1.4356 -1.0310
 3812SOL     OW22897   2.814   3.605   9.223  0.2081 -0.7340 -0.6139
 3812SOL    HW122898   2.872   3.656   9.280  2.9048 -1.8879 -2.3231
 3812SOL    HW222899   2.740   3.579   9.278  0.7396  1.5684  1.1397
 3813SOL     OW22900   2.697   0.081  12.992 -0.2614 -0.4866 -0.1585
 3813SOL    HW122901   2.713   0.041  12.907 -1.8261  0.2828 -0.8143
 3813SOL    HW222902   2.765   0.148  12.977 -2.1765  0.9026 -2.6967
 3814SOL     OW22903   3.314   0.049  10.423  0.7055  0.2686  0.0579
 3814SOL    HW122904   3.337   0.139  10.448  1.4828 -0.4088  1.6987
 3814SOL    HW222905   3.229   0.042  10.467  0.2531 -1.2349 -1.0438
 3815SOL     OW22906   3.586   3.291   5.529  0.4026 -0.5443 -0.1636
 3815SOL    HW122907   3.603   3.367   5.584  0.0102 -0.5386 -0.0467
 3815SOL    HW222908   3.575   3.328   5.441  0.2414  0.9041  0.4718
 3816SOL     OW22909   2.338   4.187   6.772 -0.8032  0.0578 -0.3518
 3816SOL    HW122910   2.356   4.095   6.752  1.3281  0.6395 -1.0936
 3816SOL    HW222911   2.356   4.184   6.866 -1.7895  0.4584 -0.1426
 3817SOL     OW22912   4.174   0.118   4.859 -0.1009 -0.2639  0.2558
 3817SOL    HW122913   4.105   0.175   4.892 -0.1550  0.4010 -0.9990
 3817SOL    HW222914   4.129   0.039   4.830 -0.4993 -0.4012  1.2437
 3818SOL     OW22915   3.008   1.436  15.744  0.6785 -0.0274  0.1067
 3818SOL    HW122916   2.973   1.482  15.668 -2.2590 -2.7391 -0.1780
 3818SOL    HW222917   3.087   1.407  15.698  0.3298 -0.5610 -0.1476
 3819SOL     OW22918   0.265   2.764  11.990 -0.4857 -0.2019  0.1991
 3819SOL    HW122919   0.230   2.807  11.911  1.1061  0.7113  0.0037
 3819SOL    HW222920   0.182   2.746  12.035 -1.4459 -0.1966 -1.5518
 3820SOL     OW22921   4.658   1.709   4.686  0.6104 -0.3728 -0.0449
 3820SOL    HW122922   4.637   1.755   4.605  0.4362 -1.4182 -0.6035
 3820SOL    HW222923   4.685   1.780   4.744 -0.3066  0.8829 -1.1793
 3821SOL     OW22924   3.138   1.716   9.173 -0.5543  0.0226  0.3998
 3821SOL    HW122925   3.115   1.640   9.226  1.0002 -0.6975  0.0453
 3821SOL    HW222926   3.177   1.761   9.248  1.6050  2.5836 -2.2780
 3822SOL     OW22927   1.756   2.917   4.050 -0.3411 -0.1497  0.2122
 3822SOL    HW122928   1.696   2.875   4.111  0.2243 -0.1386  0.7817
 3822SOL    HW222929   1.810   2.845   4.018 -0.4880 -0.1762  0.0268
 3823SOL     OW22930   2.388   0.074  13.446 -0.0286 -0.3582 -0.0847
 3823SOL    HW122931   2.330   0.033  13.511 -0.7340  0.7188 -0.0470
 3823SOL    HW222932   2.418   4.716  13.403  1.5043  0.6047 -0.8154
 3824SOL     OW22933   4.411   1.736   8.473  0.7128 -0.2602 -0.1576
 3824SOL    HW122934   4.344   1.789   8.430  0.9788  0.0487 -0.1883
 3824SOL    HW222935   4.484   1.750   8.414  1.8265 -3.1140  0.5651
 3825SOL     OW22936   2.045   0.330   1.369 -0.0342  0.3520  0.3080
 3825SOL    HW122937   2.100   0.252   1.366 -0.3083  0.1480  0.5404
 3825SOL    HW222938   2.114   0.393   1.394  0.7344 -0.8149  1.1169
 3826SOL     OW22939   1.425   3.728   2.426  0.2828 -0.3753 -0.8642
 3826SOL    HW122940   1.383   3.652   2.467 -2.9479  1.4968 -0.7047
 3826SOL    HW222941   1.358   3.775   2.377  0.4530  0.7173 -0.0641
 3827SOL     OW22942   0.550   3.476   6.403 -0.4573 -0.3789  0.3805
 3827SOL    HW122943   0.528   3.558   6.358  0.8027 -0.5067 -0.4818
 3827SOL    HW222944   0.483   3.419   6.366 -0.9876  0.6095 -0.1993
 3828SOL     OW22945   4.333   3.357  10.514  0.5025 -0.3050 -0.6260
 3828SOL    HW122946   4.337   3.406  10.433 -1.6172  1.4460  0.3246
 3828SOL    HW222947   4.415   3.374  10.561 -1.1624  1.4635  1.6615
 3829SOL     OW22948   0.223   4.425  14.540  0.5212  0.4097 -0.6427
 3829SOL    HW122949   0.241   4.333  14.524  2.3767  0.6700  0.0101
 3829SOL    HW222950   0.130   4.424  14.562  0.5580 -0.6694 -0.5533
 3830SOL     OW22951   2.180   2.177   8.489  0.3260 -0.1097 -0.4694
 3830SOL    HW122952   2.268   2.212   8.506 -1.1954  2.8855  1.2441
 3830SOL    HW222953   2.131   2.204   8.567  1.0945 -0.4378  0.1299
 3831SOL     OW22954   3.965   1.173   4.680 -0.0942 -0.2764 -0.1585
 3831SOL    HW122955   3.920   1.248   4.642 -0.2866 -0.0951  0.4460
 3831SOL    HW222956   3.892   1.125   4.718 -0.2885  0.9078  0.9663
 3832SOL     OW22957   3.861   4.703   6.144  0.3990 -0.4245 -0.4284
 3832SOL    HW122958   3.808   0.046   6.097  0.5106 -0.0464 -0.0311
 3832SOL    HW222959   3.851   0.014   6.233 -0.7578 -1.2500 -0.2372
 3833SOL     OW22960   2.770   1.425   2.577 -0.6685 -0.2147 -0.1053
 3833SOL    HW122961   2.679   1.452   2.576 -0.3339  0.9143  0.2194
 3833SOL    HW222962   2.811   1.479   2.509  1.1083 -1.8382 -0.3451
 3834SOL     OW22963   2.966   4.045  13.617  0.1412  0.4973 -0.3738
 3834SOL    HW122964   2.950   4.027  13.524 -2.1059 -0.3448  0.1650
 3834SOL    HW222965   3.027   4.118  13.620  1.5007 -0.7202  1.3179
 3835SOL     OW22966   2.132   3.197   5.675  0.0014  0.2622  0.0030
 3835SOL    HW122967   2.140   3.291   5.688 -3.7801  0.7071 -0.8536
 3835SOL    HW222968   2.078   3.183   5.753  0.3402 -1.9195 -0.1620
 3836SOL     OW22969   1.090   0.081   6.957  0.5595  0.5835  0.0747
 3836SOL    HW122970   1.053   0.158   7.002  0.2495  0.9291 -0.7661
 3836SOL    HW222971   1.139   0.053   7.034  2.2173  1.8362 -0.5331
 3837SOL     OW22972   1.518   1.956   6.462  0.1468  0.1354  0.1730
 3837SOL    HW122973   1.562   1.977   6.544  2.8357  1.0559 -1.4735
 3837SOL    HW222974   1.556   2.020   6.402 -2.6757 -0.5240 -2.2910
 3838SOL     OW22975   0.434   4.531  12.067  0.4600  0.6763 -0.0899
 3838SOL    HW122976   0.485   4.456  12.035  0.0143  0.6671 -0.7779
 3838SOL    HW222977   0.443   4.598  11.999  0.9410 -1.9260 -2.5804
 3839SOL     OW22978   3.121   3.415  13.523  0.3656 -0.3665  0.2620
 3839SOL    HW122979   3.073   3.480  13.472 -0.0380 -1.9118 -1.2990
 3839SOL    HW222980   3.107   3.337  13.470  0.2554 -0.3048  0.1983
 3840SOL     OW22981   0.935   2.172   3.188 -0.9083 -0.2620  0.1857
 3840SOL    HW122982   0.965   2.087   3.157 -0.7003 -0.1572  0.1009
 3840SOL    HW222983   0.861   2.190   3.130  0.0600 -1.3644 -1.3905
 3841SOL     OW22984   4.096   1.111   1.255  0.6964  0.5218 -0.2991
 3841SOL    HW122985   4.039   1.078   1.324 -0.1473  0.4131 -1.0424
 3841SOL    HW222986   4.036   1.141   1.187  0.7288  0.9095 -0.1523
 3842SOL     OW22987   3.131   3.624   2.245  0.4115  0.2146  0.2800
 3842SOL    HW122988   3.119   3.712   2.209 -2.6462  1.1548  3.5223
 3842SOL    HW222989   3.093   3.575   2.173  0.9263 -1.9024  1.4512
 3843SOL     OW22990   1.406   0.907   0.960  0.5653 -0.4595 -0.3518
 3843SOL    HW122991   1.500   0.922   0.963  0.4364  0.3759 -0.6183
 3843SOL    HW222992   1.370   0.975   0.905 -0.7164 -3.1088 -2.7961
 3844SOL     OW22993   2.154   0.092   1.407 -0.5838  0.2026  0.5112
 3844SOL    HW122994   2.085   0.029   1.385 -0.1936 -0.1308  0.2440
 3844SOL    HW222995   2.213   0.032   1.451 -2.1712 -0.4638  1.7155
 3845SOL     OW22996   3.134   1.736  12.534  0.2297 -0.5395 -0.4504
 3845SOL    HW122997   3.202   1.802  12.518  0.3167 -0.8438 -1.3545
 3845SOL    HW222998   3.187   1.657  12.523  0.8329 -0.3868  1.3278
 3846SOL     OW22999   0.976   0.993  12.221  0.1699 -0.6886 -0.0275
 3846SOL    HW123000   1.032   0.916  12.220 -0.4128 -1.1427  2.4468
 3846SOL    HW223001   1.005   1.023  12.135 -1.9639 -1.4714 -1.0349
 3847SOL     OW23002   0.732   3.122   8.035 -0.3158  0.2197  0.4258
 3847SOL    HW123003   0.712   3.034   8.066 -1.7965 -0.1378 -1.4846
 3847SOL    HW223004   0.679   3.181   8.089  1.6261  1.0710  1.3791
 3848SOL     OW23005   1.309   3.363   2.015  0.1708 -0.0761  0.0591
 3848SOL    HW123006   1.256   3.344   1.938  1.4733 -0.3088 -0.7807
 3848SOL    HW223007   1.394   3.322   1.998  1.3446  1.4847  2.1164
 3849SOL     OW23008   3.830   4.226   5.244  0.6732 -0.6603 -0.0022
 3849SOL    HW123009   3.810   4.135   5.265 -1.2770  0.3970  2.6973
 3849SOL    HW223010   3.813   4.268   5.328  0.6475  0.6560 -0.6653
 3850SOL     OW23011   4.267   0.085  11.058 -0.0868  0.0370  0.5759
 3850SOL    HW123012   4.273   0.059  10.966 -1.1143 -1.2985  0.8800
 3850SOL    HW223013   4.177   0.058  11.076  0.0179 -1.9129 -1.6931
 3851SOL     OW23014   1.457   2.909   7.934 -0.2303 -0.2294 -0.6071
 3851SOL    HW123015   1.374   2.957   7.940  1.3860  2.4245  0.2203
 3851SOL    HW223016   1.456   2.874   8.023 -0.8457  1.9404  0.2455
 3852SOL     OW23017   3.861   4.253   7.381 -0.5268 -0.5241 -0.1003
 3852SOL    HW123018   3.803   4.179   7.364 -1.7071  1.0374 -3.0215
 3852SOL    HW223019   3.831   4.314   7.313 -0.5134 -0.7721 -0.3268
 3853SOL     OW23020   2.678   3.319   1.230 -0.1194  0.4791 -0.0531
 3853SOL    HW123021   2.647   3.246   1.175  1.0429  0.7685 -1.0830
 3853SOL    HW223022   2.604   3.330   1.290  2.0362  2.2220  2.2229
 3854SOL     OW23023   2.448   4.393  15.982  0.4548 -0.2942 -0.0269
 3854SOL    HW123024   2.381   4.452  15.950 -0.4928 -1.7961 -0.7917
 3854SOL    HW223025   2.411   4.369  16.067 -0.8500  2.8533  0.3024
 3855SOL     OW23026   3.338   3.667  16.564 -0.1180  0.4376 -0.3275
 3855SOL    HW123027   3.293   3.609  16.502  0.6602 -0.8951  0.3597
 3855SOL    HW223028   3.390   3.721  16.504 -1.0702 -0.1092 -1.6427
 3856SOL     OW23029   4.308   4.669  10.828  0.1976 -0.1656  0.0893
 3856SOL    HW123030   4.333   4.583  10.796 -0.9207 -0.3884 -0.1933
 3856SOL    HW223031   4.394   4.710  10.821 -0.2553  0.6749 -0.4525
 3857SOL     OW23032   3.892   0.709   7.430 -0.7291  0.2077 -0.8246
 3857SOL    HW123033   3.900   0.799   7.460 -0.6168  0.8061 -2.6355
 3857SOL    HW223034   3.869   0.665   7.512 -1.1294  1.5053 -0.2354
 3858SOL     OW23035   3.330   0.326   7.732 -0.3610 -0.1668  0.3202
 3858SOL    HW123036   3.376   0.366   7.658 -0.2896  3.2250  2.2193
 3858SOL    HW223037   3.395   0.302   7.798  0.0253  0.0875  0.0367
 3859SOL     OW23038   3.381   3.089  16.014 -0.2159 -0.1930  0.2813
 3859SOL    HW123039   3.442   3.161  15.996 -1.3045  0.2445 -1.6648
 3859SOL    HW223040   3.443   3.019  16.033 -0.2724 -0.6087 -1.0799
 3860SOL     OW23041   2.502   4.421   7.820 -0.4771 -0.3732  0.2848
 3860SOL    HW123042   2.497   4.461   7.907 -0.7339  1.7393 -0.6959
 3860SOL    HW223043   2.594   4.406   7.801 -0.2492  1.3926 -0.0068
 3861SOL     OW23044   0.802   1.557   2.677 -0.1529  0.1347 -0.4659
 3861SOL    HW123045   0.764   1.539   2.762  0.5927  1.6684  0.2045
 3861SOL    HW223046   0.894   1.577   2.695 -0.6349  0.9908  1.0213
 3862SOL     OW23047   1.291   2.512   7.686  0.4142 -0.1059  0.6206
 3862SOL    HW123048   1.327   2.598   7.707  4.3680 -1.7640  0.5307
 3862SOL    HW223049   1.274   2.470   7.771 -3.5989 -2.4675 -1.3535
 3863SOL     OW23050   2.933   4.056   3.750  0.2899 -1.3023 -0.2996
 3863SOL    HW123051   2.930   4.088   3.659 -0.3657  0.6709  0.4260
 3863SOL    HW223052   3.020   4.083   3.782  0.1883  0.2544 -1.3223
 3864SOL     OW23053   0.318   4.512   8.604 -0.2899  0.3656  0.2356
 3864SOL    HW123054   0.332   4.606   8.589  2.3069 -0.0510  0.1225
 3864SOL    HW223055   0.359   4.489   8.687 -2.0107 -2.6117  0.2583
 3865SOL     OW23056   0.714   1.469  14.127 -0.0130 -0.0596  0.6406
 3865SOL    HW123057   0.622   1.459  14.104  0.4384  0.3456 -1.3133
 3865SOL    HW223058   0.750   1.543  14.078  0.6683  0.1474  1.4447
 3866SOL     OW23059   4.648   4.710  14.483  0.1118  0.0136  0.6217
 3866SOL    HW123060   4.689   4.644  14.427 -0.4018 -0.4224  0.7584
 3866SOL    HW223061   4.695   0.068  14.458 -2.0383  1.8999  2.6791
 3867SOL     OW23062   0.049   2.966   1.222 -0.3489  0.0754 -0.3427
 3867SOL    HW123063   0.081   3.040   1.170  0.1798  0.8266  1.0612
 3867SOL    HW223064   0.072   2.987   1.312  0.4089  0.5863 -0.6607
 3868SOL     OW23065   3.726   2.045  17.640  0.2285 -0.3874 -0.2214
 3868SOL    HW123066   3.816   2.042  17.673  0.7367  1.2495 -1.4402
 3868SOL    HW223067   3.736   2.023  17.547  0.6669  0.7014 -0.4347
 3869SOL     OW23068   2.695   3.103   4.597  1.0143 -0.4072 -0.6970
 3869SOL    HW123069   2.703   3.184   4.547 -0.8876  0.8931  1.1634
 3869SOL    HW223070   2.628   3.052   4.551  0.0026  0.1351  0.1882
 3870SOL     OW23071   2.034   2.505   5.040  0.2116 -0.4124  0.4264
 3870SOL    HW123072   2.070   2.426   5.081 -0.2760 -0.4710  0.7374
 3870SOL    HW223073   2.039   2.583   5.096 -1.4453 -0.1031  0.1391
 3871SOL     OW23074   0.418   1.446   7.681  0.2116  0.1078  0.1708
 3871SOL    HW123075   0.491   1.507   7.669  1.8691 -2.1408 -1.1931
 3871SOL    HW223076   0.354   1.511   7.710 -1.8995 -0.3053 -3.5154
 3872SOL     OW23077   2.755   3.522   5.626  0.1686  0.1581 -0.3039
 3872SOL    HW123078   2.772   3.604   5.580  0.8936  0.7579  1.0207
 3872SOL    HW223079   2.668   3.494   5.596 -1.3637  2.1212  2.3088
 3873SOL     OW23080   1.368   1.916   2.523 -0.2333 -0.2247  0.0497
 3873SOL    HW123081   1.432   1.883   2.586  0.4293  0.7285 -0.1297
 3873SOL    HW223082   1.299   1.958   2.575  0.4552  1.4188 -0.3593
 3874SOL     OW23083   2.932   4.262   3.198 -0.1334 -0.1797  0.3918
 3874SOL    HW123084   2.984   4.185   3.221  0.9483  0.3880 -0.1670
 3874SOL    HW223085   2.847   4.242   3.236  0.1535 -0.7341  0.7490
 3875SOL     OW23086   3.782   3.127   7.496 -0.0322  0.9707 -0.3686
 3875SOL    HW123087   3.810   3.071   7.568  0.7634  0.5086 -1.0310
 3875SOL    HW223088   3.842   3.091   7.430 -0.1955  0.1792 -0.0835
 3876SOL     OW23089   1.765   2.950   1.189 -0.4769 -0.3859  0.1076
 3876SOL    HW123090   1.690   2.999   1.154  1.8633  2.4126 -0.8996
 3876SOL    HW223091   1.825   3.023   1.201  0.2402 -0.4442 -3.2000
 3877SOL     OW23092   3.404   0.589   7.280  0.0629  0.0225  0.7880
 3877SOL    HW123093   3.384   0.528   7.351 -1.4228 -2.3932 -1.7172
 3877SOL    HW223094   3.496   0.569   7.265  0.8971  2.8418  2.1204
 3878SOL     OW23095   0.761   2.980   9.410 -0.5118  0.5846 -0.4005
 3878SOL    HW123096   0.736   3.070   9.387  2.9528  1.5637 -0.3083
 3878SOL    HW223097   0.674   2.942   9.399 -0.4053  0.3706 -0.4969
 3879SOL     OW23098   3.325   1.754  16.993 -0.0066 -0.2110  0.4647
 3879SOL    HW123099   3.341   1.816  17.064  2.0950 -1.1849  0.8492
 3879SOL    HW223100   3.381   1.679  17.014  1.6860  0.9847  0.2426
 3880SOL     OW23101   1.033   3.171   2.935  0.0804  0.0211 -0.4855
 3880SOL    HW123102   1.059   3.262   2.947 -1.2799  0.2955  0.4047
 3880SOL    HW223103   0.999   3.174   2.845  1.9475  2.5669 -1.1043
 3881SOL     OW23104   1.013   0.147   3.207 -0.3842  0.5804  0.3445
 3881SOL    HW123105   1.044   0.139   3.116  2.0886 -1.8519  1.3922
 3881SOL    HW223106   0.918   0.150   3.202 -0.2793 -0.1084 -2.3400
 3882SOL     OW23107   2.645   3.425  12.773 -0.4705  0.1929  0.2869
 3882SOL    HW123108   2.699   3.488  12.725  0.1559  0.3492  1.1874
 3882SOL    HW223109   2.603   3.490  12.829 -1.0433  0.8152 -0.8927
 3883SOL     OW23110   3.128   2.057   3.168 -0.0702 -0.1022 -0.2546
 3883SOL    HW123111   3.189   2.108   3.114 -1.0548 -0.0379 -1.2931
 3883SOL    HW223112   3.186   2.045   3.243  0.9701 -1.8237 -1.3284
 3884SOL     OW23113   4.396   3.549   6.794  0.0885  0.3859  0.0157
 3884SOL    HW123114   4.372   3.528   6.885 -1.3504 -0.9909 -0.6790
 3884SOL    HW223115   4.310   3.578   6.763 -0.9905 -2.4411  0.3294
 3885SOL     OW23116   4.237   4.666   3.551  0.5174 -0.2205  0.9116
 3885SOL    HW123117   4.201   0.027   3.581  1.2117 -0.1277  1.4812
 3885SOL    HW223118   4.331   4.684   3.549  0.3837  0.2828 -0.4643
 3886SOL     OW23119   3.531   3.586  12.650  0.1743 -0.4149  0.0144
 3886SOL    HW123120   3.582   3.508  12.671  2.5030  0.5496 -1.8872
 3886SOL    HW223121   3.555   3.577  12.558 -0.1237  0.4795 -0.1543
 3887SOL     OW23122   1.321   0.787   4.403  0.1989  0.0160  0.7355
 3887SOL    HW123123   1.310   0.875   4.439  0.6308  0.2737  0.2374
 3887SOL    HW223124   1.417   0.792   4.407  0.2970  0.5787 -2.6306
 3888SOL     OW23125   1.291   2.595   3.060 -0.3611 -0.1706 -0.3191
 3888SOL    HW123126   1.232   2.641   3.000 -0.7414  1.5193  1.3518
 3888SOL    HW223127   1.237   2.517   3.074 -0.0994 -0.0180  1.5411
 3889SOL     OW23128   0.349   1.277   4.216  0.9011 -0.3548 -0.3218
 3889SOL    HW123129   0.348   1.371   4.232 -2.4508 -0.4298 -0.1846
 3889SOL    HW223130   0.270   1.249   4.263  0.6047  0.6944 -0.2042
 3890SOL     OW23131   0.111   4.621   3.409  0.2802  0.3761  0.3061
 3890SOL    HW123132   0.137   4.662   3.326  1.5368 -0.2607  0.3985
 3890SOL    HW223133   0.148   4.676   3.478  2.1863 -0.4106 -0.0881
 3891SOL     OW23134   0.470   3.302   4.169 -0.3529 -0.1251 -0.3903
 3891SOL    HW123135   0.524   3.356   4.111  2.2946 -1.2620  0.9946
 3891SOL    HW223136   0.447   3.366   4.236  1.7178 -1.7460  1.8977
 3892SOL     OW23137   0.453   0.658   3.525 -0.4901 -0.4964  0.1339
 3892SOL    HW123138   0.445   0.581   3.470 -2.7232  0.7664 -1.3064
 3892SOL    HW223139   0.504   0.724   3.478 -1.5616  0.4373  0.2917
 3893SOL     OW23140   1.237   3.927   0.387 -0.1828  0.1559 -0.4303
 3893SOL    HW123141   1.178   3.919   0.462  0.7826 -1.4347  0.1805
 3893SOL    HW223142   1.180   3.940   0.312 -0.5261 -1.7095 -0.4974
 3894SOL     OW23143   1.515   2.695  16.538  0.1539  0.5507 -0.1992
 3894SOL    HW123144   1.496   2.679  16.631  2.0873  4.8176  0.9141
 3894SOL    HW223145   1.526   2.607  16.502  0.0190  1.9852 -3.6796
 3895SOL     OW23146   4.165   2.129   1.497 -0.3945 -0.1731 -0.1587
 3895SOL    HW123147   4.167   2.224   1.507 -1.0848 -0.4493  2.5649
 3895SOL    HW223148   4.077   2.119   1.461  0.5821  0.2456 -2.7006
 3896SOL     OW23149   2.305   2.585   3.113  0.0120 -0.0041 -0.4139
 3896SOL    HW123150   2.377   2.644   3.134 -1.2141  0.5909  2.0237
 3896SOL    HW223151   2.251   2.632   3.049 -0.9149 -0.6299 -0.0987
 3897SOL     OW23152   3.462   1.631   8.957 -1.0373  0.5048  0.4555
 3897SOL    HW123153   3.402   1.557   8.946  0.8384 -1.0180  0.3781
 3897SOL    HW223154   3.494   1.620   9.046  2.1060 -1.2094 -0.8882
 3898SOL     OW23155   0.443   0.447   5.738 -0.3554 -0.2115 -0.6610
 3898SOL    HW123156   0.460   0.522   5.796  1.7491 -1.6970  0.6098
 3898SOL    HW223157   0.433   0.488   5.652  0.3512  1.3985  0.0215
 3899SOL     OW23158   1.012   2.736   1.544 -0.4331  0.5988  0.5628
 3899SOL    HW123159   0.933   2.731   1.490  0.9442  0.7729 -1.4997
 3899SOL    HW223160   0.983   2.682   1.617 -0.7712 -1.3476 -1.0052
 3900SOL     OW23161   3.850   2.645   2.585 -0.1722  0.4478 -0.4054
 3900SOL    HW123162   3.838   2.715   2.650 -2.6821  1.3133 -1.8351
 3900SOL    HW223163   3.935   2.616   2.619 -1.3239 -1.8833  0.4308
 3901SOL     OW23164   0.712   3.279   2.414 -0.2415  0.1990 -0.2781
 3901SOL    HW123165   0.733   3.306   2.325 -2.0760  0.5792 -0.5893
 3901SOL    HW223166   0.656   3.202   2.403  0.1966 -0.2671  0.6846
 3902SOL     OW23167   3.391   1.613   5.491 -0.4304 -0.4913 -0.4504
 3902SOL    HW123168   3.405   1.707   5.478  0.1063 -0.5018  0.0524
 3902SOL    HW223169   3.444   1.600   5.570 -2.0865 -3.5418  0.1568
 3903SOL     OW23170   4.405   1.169   4.976 -0.3899  0.0222 -0.0253
 3903SOL    HW123171   4.480   1.136   4.927  0.9484  2.5319  0.3708
 3903SOL    HW223172   4.436   1.171   5.066 -2.3185 -0.1283  0.6507
 3904SOL     OW23173   0.380   2.550   5.647 -0.0351 -0.2629 -0.4133
 3904SOL    HW123174   0.379   2.454   5.644  1.2291 -0.2623 -0.6441
 3904SOL    HW223175   0.288   2.573   5.659 -0.0419 -1.0403  1.0638
 3905SOL     OW23176   2.137   0.175   6.667  0.5220 -0.4777 -0.8147
 3905SOL    HW123177   2.147   0.090   6.625 -0.7854 -0.5093 -1.0749
 3905SOL    HW223178   2.158   0.160   6.760  3.0546  1.8915 -1.0295
 3906SOL     OW23179   3.468   2.303  17.499 -0.2122 -0.0158 -0.3374
 3906SOL    HW123180   3.410   2.275  17.570 -1.1948  0.4986 -0.9414
 3906SOL    HW223181   3.459   2.235  17.433 -1.2157  0.5843 -0.8106
 3907SOL     OW23182   0.581   4.489   7.606  0.3381 -0.3645  0.0902
 3907SOL    HW123183   0.495   4.484   7.647 -0.3875  2.4802 -1.0631
 3907SOL    HW223184   0.621   4.548   7.670 -1.5853 -0.7107  1.6382
 3908SOL     OW23185   2.225   3.651   2.209 -0.3629  0.0859  0.0557
 3908SOL    HW123186   2.148   3.601   2.235 -1.1220  1.1247 -0.1950
 3908SOL    HW223187   2.216   3.736   2.253  1.0555  0.3383 -0.1273
 3909SOL     OW23188   2.055   3.363   7.270 -0.0268  0.1803 -0.0079
 3909SOL    HW123189   2.133   3.310   7.253  0.7406  0.9731  1.0603
 3909SOL    HW223190   2.014   3.357   7.184  0.9590  0.2670 -0.4867
 3910SOL     OW23191   4.139   1.899   4.230  0.1516 -0.0089  0.4878
 3910SOL    HW123192   4.079   1.911   4.156  0.3002  2.2984  0.7583
 3910SOL    HW223193   4.097   1.947   4.301 -0.4908  1.4306 -0.8609
 3911SOL     OW23194   2.690   1.864  15.615 -0.0747 -0.1357  0.6477
 3911SOL    HW123195   2.700   1.769  15.623  2.2165 -0.0550 -1.2780
 3911SOL    HW223196   2.712   1.897  15.702  0.9125  1.2207 -0.1193
 3912SOL     OW23197   2.228   3.022   7.167  0.2856 -0.4431  0.2274
 3912SOL    HW123198   2.272   3.103   7.142  1.8951 -0.4455  3.0764
 3912SOL    HW223199   2.298   2.958   7.175  0.4095 -0.5055 -1.2802
 3913SOL     OW23200   2.238   1.574   4.115 -0.2700  0.0253  0.5264
 3913SOL    HW123201   2.263   1.512   4.047  1.6555  1.1184  0.2364
 3913SOL    HW223202   2.158   1.534   4.147 -0.3735  0.0170  0.2518
 3914SOL     OW23203   3.470   1.522  17.016  0.0776  0.1361  0.0420
 3914SOL    HW123204   3.532   1.530  16.944 -0.9001 -0.7095 -0.8907
 3914SOL    HW223205   3.514   1.457  17.071  1.2813 -1.0058 -2.2720
 3915SOL     OW23206   3.396   4.694  10.168  0.0317  0.4586  0.0454
 3915SOL    HW123207   3.361   4.605  10.168 -0.3679  0.6209 -2.7525
 3915SOL    HW223208   3.369   4.707  10.259  0.3223 -0.4283  0.2623
 3916SOL     OW23209   2.352   4.232  15.073 -0.4899 -0.3469 -0.1284
 3916SOL    HW123210   2.396   4.237  15.158 -2.8020  1.0631  0.9838
 3916SOL    HW223211   2.339   4.138  15.064 -1.1823 -0.3578  1.0918
 3917SOL     OW23212   1.607   3.091   8.133  0.3310 -0.2252  0.3526
 3917SOL    HW123213   1.676   3.157   8.134  0.1454  0.0116 -2.5338
 3917SOL    HW223214   1.583   3.096   8.041 -1.0561  1.1266  0.7933
 3918SOL     OW23215   1.237   0.904   4.693 -0.2965  0.1637  0.6734
 3918SOL    HW123216   1.199   0.829   4.647 -1.9741  0.7135  1.1744
 3918SOL    HW223217   1.210   0.964   4.625 -1.1441 -2.1617 -1.0513
 3919SOL     OW23218   4.076   2.569   9.401  0.0755  0.3419  0.1545
 3919SOL    HW123219   4.157   2.614   9.425 -0.8824  2.9538 -1.5762
 3919SOL    HW223220   4.087   2.486   9.448  3.4132  1.4107  1.2224
 3920SOL     OW23221   3.192   4.596   5.689  0.3268 -0.3481  0.1364
 3920SOL    HW123222   3.167   4.512   5.649 -0.8428 -0.5279  1.2235
 3920SOL    HW223223   3.202   4.649   5.611 -1.7169  0.0218  0.1175
 3921SOL     OW23224   2.716   3.532   6.380 -0.4836 -0.7527 -0.1151
 3921SOL    HW123225   2.622   3.553   6.373 -1.0109 -3.2258 -0.3556
 3921SOL    HW223226   2.717   3.448   6.426 -0.6001 -0.2109  0.8969
 3922SOL     OW23227   0.676   3.598  17.047 -0.1202  0.3844  0.9936
 3922SOL    HW123228   0.732   3.626  16.974 -0.0356 -2.6129 -0.0779
 3922SOL    HW223229   0.593   3.642  17.028  0.3404  1.1172  0.6658
 3923SOL     OW23230   1.269   2.147   5.438 -0.1483 -0.2355 -0.2512
 3923SOL    HW123231   1.254   2.054   5.455 -0.3943  0.4078  3.0300
 3923SOL    HW223232   1.209   2.187   5.501 -1.1672 -1.9542 -0.1127
 3924SOL     OW23233   4.627   1.432   7.199 -0.0463 -0.0615 -0.2513
 3924SOL    HW123234   4.607   1.345   7.164  0.9686 -0.0251 -0.9077
 3924SOL    HW223235   4.624   1.477   7.115 -0.4268  1.6578  0.6872
 3925SOL     OW23236   1.350   4.045   3.218 -0.0661 -0.2228 -0.4250
 3925SOL    HW123237   1.430   4.022   3.170 -0.3403  0.5225 -1.2408
 3925SOL    HW223238   1.282   4.031   3.152  0.7800  1.6528 -1.6923
 3926SOL     OW23239   0.261   4.530   7.022 -0.6758 -0.2207  0.0214
 3926SOL    HW123240   0.192   4.498   7.080 -1.7749  0.3833 -0.9476
 3926SOL    HW223241   0.331   4.540   7.086  2.1015  1.1207 -3.2255
 3927SOL     OW23242   0.954   0.079   4.345  0.2146  0.4851  0.1970
 3927SOL    HW123243   0.983   0.103   4.433 -2.2301  2.4232  0.4802
 3927SOL    HW223244   1.014   0.007   4.327 -2.3201 -1.3386 -0.9962
 3928SOL     OW23245   3.563   1.732  11.208 -0.7976 -0.3520  0.1068
 3928SOL    HW123246   3.620   1.655  11.214  1.7313  1.6196  1.5060
 3928SOL    HW223247   3.503   1.706  11.138 -1.2444  0.2417  0.2645
 3929SOL     OW23248   1.299   3.144   8.827  0.5119 -0.5912 -0.2840
 3929SOL    HW123249   1.256   3.080   8.769  1.2811 -0.2797 -1.1917
 3929SOL    HW223250   1.295   3.224   8.774 -1.2587  0.6135  1.6905
 3930SOL     OW23251   4.199   0.995   1.740  0.2998  0.2934 -0.1471
 3930SOL    HW123252   4.133   1.025   1.802 -0.7764 -1.4338 -0.4673
 3930SOL    HW223253   4.280   1.001   1.790 -1.2474  0.8486  2.2982
 3931SOL     OW23254   1.411   1.765   3.380  0.1891 -0.2652 -0.3506
 3931SOL    HW123255   1.330   1.813   3.365  0.5818  0.5198  0.0558
 3931SOL    HW223256   1.421   1.782   3.474  0.5309 -0.6238 -0.3228
 3932SOL     OW23257   2.898   1.437   7.037 -0.0269  0.5025 -0.0056
 3932SOL    HW123258   2.890   1.345   7.011 -0.1020  1.1867 -2.4000
 3932SOL    HW223259   2.813   1.477   7.015  0.1637  0.6726 -0.4276
 3933SOL     OW23260   1.292   0.490   3.825  0.3799 -0.1089  0.3641
 3933SOL    HW123261   1.215   0.487   3.768  1.2244  0.1982 -0.8141
 3933SOL    HW223262   1.299   0.395   3.837 -0.9440 -0.7880 -3.8670
 3934SOL     OW23263   0.305   0.292  10.742  0.1384  0.1556 -0.5498
 3934SOL    HW123264   0.372   0.324  10.681  1.7438  0.9741  1.6231
 3934SOL    HW223265   0.348   0.283  10.827 -0.0577  1.9819 -0.2532
 3935SOL     OW23266   4.304   3.068   4.354  0.3443 -0.2015 -0.9453
 3935SOL    HW123267   4.330   3.084   4.445  0.5683  1.9581 -1.3870
 3935SOL    HW223268   4.229   3.010   4.363  1.2201 -0.8661  2.1505
 3936SOL     OW23269   2.290   4.260   3.793 -0.4605 -0.0151 -0.0945
 3936SOL    HW123270   2.259   4.327   3.854 -0.8870 -0.5360  0.2645
 3936SOL    HW223271   2.384   4.271   3.808 -0.7540  0.5746  1.3588
 3937SOL     OW23272   1.739   3.567   9.929  0.9491  0.2867  0.3930
 3937SOL    HW123273   1.700   3.541  10.013  1.5352 -1.4259  0.1248
 3937SOL    HW223274   1.717   3.488   9.881  1.2313  0.3235  0.2067
 3938SOL     OW23275   4.696   2.145   3.843 -0.1905 -0.7081  0.2848
 3938SOL    HW123276   0.022   2.087   3.902  0.6807 -2.5675 -2.2703
 3938SOL    HW223277   4.614   2.095   3.837 -0.1907 -0.8078  1.1108
 3939SOL     OW23278   1.993   0.765   2.211 -0.1984  0.5906  0.0644
 3939SOL    HW123279   2.022   0.853   2.189 -0.3771  0.8325  0.7941
 3939SOL    HW223280   1.977   0.772   2.305  1.3242 -0.6899  0.4102
 3940SOL     OW23281   0.620   1.841  15.178  0.5004 -0.3177  0.0838
 3940SOL    HW123282   0.631   1.783  15.254 -3.8939 -1.1888  0.0342
 3940SOL    HW223283   0.683   1.908  15.203  0.6908 -0.7923  0.8838
 3941SOL     OW23284   2.569   1.918   2.761 -0.4166  0.0040 -0.3734
 3941SOL    HW123285   2.624   1.871   2.697  0.7385  3.2167 -1.7511
 3941SOL    HW223286   2.578   2.005   2.723 -0.1231  0.1846  0.1117
 3942SOL     OW23287   2.471   3.482   7.371  0.2587 -0.5717  0.5377
 3942SOL    HW123288   2.404   3.539   7.409  0.1791  1.1564 -2.1972
 3942SOL    HW223289   2.552   3.529   7.388 -0.7562  1.0918  0.7476
 3943SOL     OW23290   3.455   0.887   1.894 -0.1046  0.8916 -0.2496
 3943SOL    HW123291   3.389   0.954   1.911 -1.0358 -0.6353  2.1100
 3943SOL    HW223292   3.477   0.913   1.804 -2.2504  0.7724 -0.8113
 3944SOL     OW23293   1.638   3.655   0.703 -0.7945  0.3456  0.0291
 3944SOL    HW123294   1.669   3.676   0.614 -1.3917  0.3967 -0.1717
 3944SOL    HW223295   1.702   3.707   0.752  0.0578 -1.0728  0.4224
 3945SOL     OW23296   2.842   0.568   4.602  0.3161 -0.4138  0.0383
 3945SOL    HW123297   2.860   0.480   4.636  0.4947 -0.7039 -0.8132
 3945SOL    HW223298   2.824   0.545   4.511 -0.9099 -0.2960  0.2509
 3946SOL     OW23299   1.170   0.061   4.859 -0.3190  0.0743 -0.1722
 3946SOL    HW123300   1.099   0.017   4.906  0.2205  0.0813  0.6300
 3946SOL    HW223301   1.219   0.105   4.928 -2.1844 -2.7648  2.9429
 3947SOL     OW23302   2.689   0.705  16.830 -0.1028 -0.2114 -0.0371
 3947SOL    HW123303   2.620   0.762  16.795 -0.1929  1.0641  2.2094
 3947SOL    HW223304   2.761   0.763  16.805 -1.5323  0.9853 -1.4153
 3948SOL     OW23305   2.270   1.395   8.775  0.3069 -0.1433 -0.1218
 3948SOL    HW123306   2.268   1.462   8.843  0.7963  0.9652 -1.1865
 3948SOL    HW223307   2.256   1.454   8.700  1.5463  2.6208  1.8137
 3949SOL     OW23308   1.242   1.281   6.764  0.5243 -0.3344  0.4412
 3949SOL    HW123309   1.255   1.337   6.688 -1.0246 -2.0536 -1.0948
 3949SOL    HW223310   1.167   1.324   6.803 -0.4661 -1.5117 -0.1511
 3950SOL     OW23311   3.682   3.399   7.527 -0.3447  0.1836 -0.2886
 3950SOL    HW123312   3.718   3.312   7.545 -1.5500 -0.5633 -1.5290
 3950SOL    HW223313   3.727   3.453   7.593  1.8088  2.1650 -3.3944
 3951SOL     OW23314   4.238   4.508   4.911 -0.4783 -0.0128  0.1735
 3951SOL    HW123315   4.228   4.417   4.940 -2.0005  0.1345  0.1247
 3951SOL    HW223316   4.146   4.533   4.904 -0.5765  0.0499  1.7962
 3952SOL     OW23317   1.630   4.704   7.691 -0.8699 -0.2742 -0.0833
 3952SOL    HW123318   1.612   0.064   7.736  2.1796  0.5877 -0.4373
 3952SOL    HW223319   1.639   0.005   7.599 -0.2391  1.8576  0.5150
 3953SOL     OW23320   4.499   4.618   7.113 -0.9414 -0.1209 -0.4151
 3953SOL    HW123321   4.449   4.631   7.033  0.3843 -1.7779 -1.5102
 3953SOL    HW223322   4.493   4.523   7.121 -1.1913 -0.2436 -2.0433
 3954SOL     OW23323   4.636   2.686   9.906  0.4697  0.0941 -0.1254
 3954SOL    HW123324   4.614   2.768   9.950  2.0170  0.1685  0.5207
 3954SOL    HW223325   4.653   2.631   9.983 -0.3812 -0.8238 -0.5868
 3955SOL     OW23326   2.691   2.710   5.058  0.3973  0.1757  0.4424
 3955SOL    HW123327   2.628   2.775   5.091  1.3530  0.9496  0.7453
 3955SOL    HW223328   2.632   2.674   4.991  0.4686  1.9841 -0.6209
 3956SOL     OW23329   1.084   1.246   8.738  0.4104  0.4701 -0.5499
 3956SOL    HW123330   1.037   1.198   8.806  2.7163 -0.8805  0.0717
 3956SOL    HW223331   1.029   1.324   8.735 -0.6796 -0.2848 -0.2589
 3957SOL     OW23332   0.074   4.187   6.987 -0.0341 -0.0811  0.1035
 3957SOL    HW123333   0.084   4.229   7.072 -0.4317  1.7499 -0.7550
 3957SOL    HW223334   4.701   4.178   6.988 -0.0935  1.1169  2.7867
 3958SOL     OW23335   0.241   1.802  11.509 -0.6670  0.4625  0.3905
 3958SOL    HW123336   0.315   1.756  11.548  1.3897  2.6219 -0.9213
 3958SOL    HW223337   0.291   1.852  11.444  0.3514 -1.9722 -0.7079
 3959SOL     OW23338   4.134   1.009   3.864  0.0470  0.3621 -0.2760
 3959SOL    HW123339   4.145   0.936   3.925 -0.6619 -1.0807 -1.8871
 3959SOL    HW223340   4.203   1.000   3.798 -0.3357  3.2742 -1.1070
 3960SOL     OW23341   3.504   3.087   9.893 -0.7434  0.0252  0.7247
 3960SOL    HW123342   3.494   3.016   9.958  1.7627 -1.2674 -0.2929
 3960SOL    HW223343   3.461   3.052   9.815 -0.6289  0.7986  0.3239
 3961SOL     OW23344   0.639   4.293   6.789  0.4144  0.0738 -0.0006
 3961SOL    HW123345   0.674   4.263   6.873  0.1295 -0.5743 -0.1162
 3961SOL    HW223346   0.589   4.371   6.811 -0.4943 -0.6549  0.4774
 3962SOL     OW23347   3.015   0.891   5.970 -0.0335 -0.3829 -0.5505
 3962SOL    HW123348   2.954   0.951   6.013 -0.8983 -0.4564 -1.6728
 3962SOL    HW223349   3.095   0.941   5.956  0.0353  0.3715  2.5418
 3963SOL     OW23350   1.429   3.640   0.908 -0.1791  0.2891 -0.7234
 3963SOL    HW123351   1.495   3.650   0.840 -1.4092 -0.4936 -2.0423
 3963SOL    HW223352   1.471   3.699   0.970 -1.5393  0.1969  0.2878
 3964SOL     OW23353   2.765   4.667   5.679  0.6908 -0.1609 -0.4654
 3964SOL    HW123354   2.767   0.039   5.664 -2.2444 -0.2977 -1.5946
 3964SOL    HW223355   2.834   4.665   5.746  0.5439 -0.0676 -0.3101
 3965SOL     OW23356   3.376   0.253   5.503  0.0032  0.0392 -0.0062
 3965SOL    HW123357   3.351   0.342   5.530  0.9555  0.6180 -1.0175
 3965SOL    HW223358   3.420   0.267   5.419  0.0458  1.5198  0.2539
 3966SOL     OW23359   3.202   2.016   7.385  0.1193 -0.0822  0.2886
 3966SOL    HW123360   3.249   1.934   7.395  0.8477  0.3332  0.3209
 3966SOL    HW223361   3.177   2.037   7.475 -1.0257 -0.6348  0.1021
 3967SOL     OW23362   1.175   3.998  15.491  0.2605  0.4494  0.2637
 3967SOL    HW123363   1.080   3.993  15.497  0.3142  0.1717  0.8938
 3967SOL    HW223364   1.189   3.926  15.428  3.1040  0.6684  0.6218
 3968SOL     OW23365   4.220   2.815  14.436  0.0183 -0.0594 -0.1482
 3968SOL    HW123366   4.129   2.787  14.423  0.2996 -1.3040  0.5023
 3968SOL    HW223367   4.217   2.883  14.503 -0.5021  0.3259 -0.5614
 3969SOL     OW23368   2.468   3.170  11.772 -0.2698 -0.2198  0.4358
 3969SOL    HW123369   2.389   3.222  11.762 -1.1283 -1.6626 -0.2042
 3969SOL    HW223370   2.443   3.120  11.849 -1.1904  0.7773  0.7806
 3970SOL     OW23371   2.985   3.421   2.797 -0.3472  0.6184 -0.0072
 3970SOL    HW123372   2.994   3.335   2.755 -0.1184  0.3578  0.5753
 3970SOL    HW223373   2.890   3.434   2.801 -0.5965 -0.3964 -2.3718
 3971SOL     OW23374   0.588   4.321   2.211 -0.2378 -0.3848 -0.0044
 3971SOL    HW123375   0.545   4.279   2.137 -1.3023 -0.6670  0.7803
 3971SOL    HW223376   0.678   4.319   2.179 -0.9883 -2.4970 -1.9594
 3972SOL     OW23377   0.524   0.154  15.588 -0.1422 -0.0799  0.1960
 3972SOL    HW123378   0.525   0.244  15.555 -2.3996 -0.1843 -0.1616
 3972SOL    HW223379   0.604   0.162  15.641 -1.6590  3.2632  1.9758
 3973SOL     OW23380   0.571   0.064   3.253  0.3821  0.7989  0.0895
 3973SOL    HW123381   0.644   0.069   3.193  0.3191  0.3739 -0.0205
 3973SOL    HW223382   0.598   4.713   3.307  1.6100  0.5731 -0.8529
 3974SOL     OW23383   1.159   4.226   3.310  1.0063 -0.1148  0.2637
 3974SOL    HW123384   1.219   4.162   3.272  2.6319  1.1461  0.7346
 3974SOL    HW223385   1.219   4.299   3.316  0.8887  0.0017  0.0127
 3975SOL     OW23386   2.060   1.256   6.076  0.3395  0.1943  1.0737
 3975SOL    HW123387   2.121   1.204   6.024 -0.6363  1.8821 -1.7799
 3975SOL    HW223388   2.042   1.331   6.020  1.6673 -0.9487 -0.8682
 3976SOL     OW23389   2.569   3.217  10.135  0.1975 -0.5926 -0.0736
 3976SOL    HW123390   2.584   3.124  10.151  2.5208  0.1999  2.5616
 3976SOL    HW223391   2.486   3.240  10.179  0.7268 -0.8687  1.0798
 3977SOL     OW23392   1.734   0.871   3.803  0.5351  0.1558 -0.3672
 3977SOL    HW123393   1.806   0.850   3.862  0.2210 -0.4566 -0.2122
 3977SOL    HW223394   1.703   0.783   3.783  0.7259 -0.2354  1.0741
 3978SOL     OW23395   4.718   0.768   6.586  0.2869  0.1126  0.1128
 3978SOL    HW123396   4.712   0.795   6.494  0.4309 -0.3850 -0.0424
 3978SOL    HW223397   0.090   0.757   6.594 -0.0519 -0.6014  2.8270
 3979SOL     OW23398   4.409   4.716   6.858 -0.6695 -0.4355 -0.0043
 3979SOL    HW123399   4.370   0.075   6.886  0.1556 -0.2513  0.6138
 3979SOL    HW223400   4.474   0.035   6.801  0.1169  0.0291  1.2333
 3980SOL     OW23401   2.664   2.588   0.660 -0.0665 -0.1092 -0.1007
 3980SOL    HW123402   2.730   2.617   0.723 -0.5147  0.9385 -0.1280
 3980SOL    HW223403   2.632   2.674   0.635  0.2382  0.6150  1.9604
 3981SOL     OW23404   3.877   2.136   8.213 -0.1142 -0.1759  0.4532
 3981SOL    HW123405   3.848   2.046   8.203 -0.1721 -0.0637 -0.3748
 3981SOL    HW223406   3.845   2.154   8.302 -3.4317 -0.4687 -0.6816
 3982SOL     OW23407   2.685   1.512  13.679  0.2287 -0.3023 -0.2114
 3982SOL    HW123408   2.772   1.541  13.653  0.2346 -2.3326 -2.4250
 3982SOL    HW223409   2.676   1.557  13.763 -0.6920  2.3532 -1.7590
 3983SOL     OW23410   1.604   4.319  16.071 -0.2808  0.4285  0.5459
 3983SOL    HW123411   1.521   4.272  16.079  0.9199 -1.9470 -0.9798
 3983SOL    HW223412   1.674   4.259  16.048  0.3232  1.0427  0.7747
 3984SOL     OW23413   4.703   2.193   4.760  0.3425  0.4514 -0.3708
 3984SOL    HW123414   4.610   2.211   4.750  0.6310  1.5298 -1.0968
 3984SOL    HW223415   0.026   2.273   4.787  1.4848  0.4543 -2.3213
 3985SOL     OW23416   1.278   2.024   9.531 -0.0753 -0.3178 -0.1919
 3985SOL    HW123417   1.221   2.020   9.454  1.5492 -0.7374 -1.3775
 3985SOL    HW223418   1.217   2.021   9.604 -2.3016  1.2181 -1.9586
 3986SOL     OW23419   2.282   2.419   2.761  0.1458  0.5418  0.2191
 3986SOL    HW123420   2.307   2.401   2.852  2.0205 -2.1460 -0.8031
 3986SOL    HW223421   2.199   2.372   2.759 -0.5200  1.7530 -0.3532
 3987SOL     OW23422   3.918   3.458  16.580  0.0945 -1.0229 -0.0694
 3987SOL    HW123423   3.827   3.457  16.611 -0.7909  1.5619 -2.5768
 3987SOL    HW223424   3.969   3.424  16.653  1.5051  2.7907  0.6998
 3988SOL     OW23425   2.193   3.921   8.613  0.8600 -0.1528 -0.1681
 3988SOL    HW123426   2.234   3.987   8.557  2.1466 -1.1282 -0.3719
 3988SOL    HW223427   2.110   3.913   8.568 -0.2769 -0.2518  1.9351
 3989SOL     OW23428   3.214   1.851   5.924  0.7333  0.3753 -0.2429
 3989SOL    HW123429   3.201   1.842   6.018  1.7890 -1.1189 -0.2477
 3989SOL    HW223430   3.298   1.895   5.909 -0.1509  1.6405 -1.5543
 3990SOL     OW23431   2.474   3.971   6.112  0.0639  0.2328  0.0099
 3990SOL    HW123432   2.397   3.975   6.055 -1.7169 -2.1996  2.2557
 3990SOL    HW223433   2.495   4.061   6.135 -1.0599  0.2658  0.9204
 3991SOL     OW23434   1.805   0.569   7.728 -0.1233 -0.2910 -0.3535
 3991SOL    HW123435   1.861   0.580   7.651 -1.4417  1.5657 -1.0558
 3991SOL    HW223436   1.742   0.638   7.706  1.1279  0.2372 -2.3078
 3992SOL     OW23437   3.684   2.129   6.825  0.0199 -0.2607 -0.0054
 3992SOL    HW123438   3.599   2.170   6.811  0.4498  0.7188  0.2222
 3992SOL    HW223439   3.701   2.106   6.734  0.8538  0.3220  0.0047
 3993SOL     OW23440   3.161   3.098  15.685 -0.0172 -0.3982 -0.2235
 3993SOL    HW123441   3.104   3.027  15.654 -0.8090  0.4823 -0.8142
 3993SOL    HW223442   3.155   3.164  15.615  0.3746  1.1909  1.2330
 3994SOL     OW23443   0.664   4.450   0.336  0.4714  0.0490 -0.1470
 3994SOL    HW123444   0.584   4.453   0.282 -1.4720 -0.7287  2.6758
 3994SOL    HW223445   0.711   4.521   0.293  3.1666 -0.7147  1.5673
 3995SOL     OW23446   4.646   2.126   6.486 -0.3331 -0.3841  0.0786
 3995SOL    HW123447   4.686   2.170   6.561  0.4389  2.7814 -2.1902
 3995SOL    HW223448   4.677   2.187   6.418  1.3135 -1.1572  0.1433
 3996SOL     OW23449   3.713   3.182   9.566  0.2256  0.5097  0.2357
 3996SOL    HW123450   3.749   3.104   9.607 -0.0986  0.3049  0.1296
 3996SOL    HW223451   3.757   3.184   9.481 -0.5199 -3.2826 -0.2539
 3997SOL     OW23452   0.091   1.370   3.062 -0.4818  0.0603 -0.0183
 3997SOL    HW123453   0.147   1.441   3.094  0.5180  0.3399 -2.3933
 3997SOL    HW223454   0.076   1.394   2.971 -0.3845 -1.0679 -0.3257
 3998SOL     OW23455   1.906   1.402  11.990 -0.4405 -0.4955  0.3759
 3998SOL    HW123456   1.878   1.381  12.079  0.0780  0.8099  0.8429
 3998SOL    HW223457   1.949   1.487  11.996 -0.4693 -0.4034 -0.6858
 3999SOL     OW23458   2.526   1.280   0.057  0.4881 -0.5003 -0.0142
 3999SOL    HW123459   2.446   1.310   0.101  0.8808  1.1602 -0.4138
 3999SOL    HW223460   2.483   1.224  17.685  0.5295 -0.9486  0.3541
 4000SOL     OW23461   4.320   3.960  11.749  0.6122 -0.0913  0.3855
 4000SOL    HW123462   4.243   3.939  11.803 -0.8596 -0.3018 -1.7705
 4000SOL    HW223463   4.326   3.873  11.710  1.6318 -0.1365  0.6398
 4001SOL     OW23464   1.286   1.261   5.160  0.0837  0.1418  0.1192
 4001SOL    HW123465   1.352   1.232   5.223 -1.3431  0.6575  1.8144
 4001SOL    HW223466   1.334   1.236   5.080 -1.6544 -0.3807 -0.7608
 4002SOL     OW23467   1.133   0.849   1.342  0.2256 -0.0922 -0.5313
 4002SOL    HW123468   1.089   0.821   1.262 -0.3740  0.0094 -0.2351
 4002SOL    HW223469   1.148   0.944   1.337  0.3108 -0.0315  0.8041
 4003SOL     OW23470   2.787   3.652  12.192  0.8137 -0.3460 -0.3015
 4003SOL    HW123471   2.767   3.690  12.107 -1.1382  1.4797  0.9674
 4003SOL    HW223472   2.762   3.726  12.248  2.1376 -1.2013  1.4339
 4004SOL     OW23473   2.331   2.626  14.332 -0.3057 -0.1126  0.3780
 4004SOL    HW123474   2.288   2.583  14.406 -1.1249 -1.3736 -0.8306
 4004SOL    HW223475   2.332   2.547  14.279 -0.7907 -1.3226  2.1879
 4005SOL     OW23476   2.704   4.501   5.030  1.2328  0.1241 -0.3046
 4005SOL    HW123477   2.694   4.586   4.986  0.3847  0.3544  0.3550
 4005SOL    HW223478   2.679   4.524   5.119  0.9292 -1.1029 -0.0719
 4006SOL     OW23479   4.427   2.561   3.661  0.1766  0.0618 -0.3453
 4006SOL    HW123480   4.422   2.639   3.717  0.1146 -0.6347  0.6267
 4006SOL    HW223481   4.512   2.563   3.617 -0.2915  0.5359 -1.2242
 4007SOL     OW23482   4.710   2.227   0.112 -0.1483  0.9007 -0.4428
 4007SOL    HW123483   4.687   2.320   0.123  4.1494  2.1602 -2.0236
 4007SOL    HW223484   4.675   2.217   0.024 -1.5856 -1.4321  0.3858
 4008SOL     OW23485   1.056   2.523   8.178 -0.2886  0.3874  0.2375
 4008SOL    HW123486   0.982   2.558   8.128 -0.9222 -1.2120  0.0624
 4008SOL    HW223487   1.123   2.512   8.110  0.4062  0.1672  0.9606
 4009SOL     OW23488   3.608   2.505   0.792 -0.1604 -0.4819  0.4329
 4009SOL    HW123489   3.660   2.578   0.824  3.1697 -1.5735 -2.5022
 4009SOL    HW223490   3.669   2.432   0.801  1.6148  1.1141  1.2297
 4010SOL     OW23491   1.113   2.862   4.810 -0.0243  0.3100  0.2853
 4010SOL    HW123492   1.113   2.932   4.744 -2.5994 -0.5385 -0.6180
 4010SOL    HW223493   1.124   2.788   4.750  0.7240  0.8854 -0.2852
 4011SOL     OW23494   2.969   3.906   7.278 -0.0652  0.5000 -0.3692
 4011SOL    HW123495   2.962   3.961   7.356 -3.1213 -0.3901  0.0004
 4011SOL    HW223496   2.952   3.821   7.320  1.5839 -0.5896 -1.8948
 4012SOL     OW23497   3.243   2.268  15.559  0.7054 -0.3625 -0.0151
 4012SOL    HW123498   3.186   2.343  15.542  1.8386 -0.0534 -2.4109
 4012SOL    HW223499   3.178   2.202  15.582 -0.3103  1.0162  1.1256
 4013SOL     OW23500   3.154   1.415   1.655 -0.3017 -0.0809 -0.4563
 4013SOL    HW123501   3.192   1.350   1.596 -3.2085 -0.7901 -1.5631
 4013SOL    HW223502   3.081   1.438   1.597 -0.1950 -3.0646 -1.7988
 4014SOL     OW23503   0.477   0.115  10.051 -0.8003 -0.0014  0.3671
 4014SOL    HW123504   0.438   0.031  10.075  1.0957 -0.9999 -0.0380
 4014SOL    HW223505   0.457   0.115   9.957  0.3208 -0.9284  0.1224
 4015SOL     OW23506   0.468   4.019  16.225 -0.2861  0.2944 -0.7932
 4015SOL    HW123507   0.479   3.987  16.135 -0.9160  1.1585 -1.1721
 4015SOL    HW223508   0.538   4.082  16.244 -0.9772  1.0683 -0.8309
 4016SOL     OW23509   2.940   3.558   2.033 -0.2415 -0.2662  0.1654
 4016SOL    HW123510   2.874   3.553   2.101  1.4154 -0.5313  1.7616
 4016SOL    HW223511   2.893   3.571   1.951 -1.1057  2.6220  1.1249
 4017SOL     OW23512   3.193   4.113   3.828 -0.2985  0.0042 -0.6225
 4017SOL    HW123513   3.260   4.126   3.895 -4.8596  0.8228  3.7630
 4017SOL    HW223514   3.237   4.034   3.796 -3.5419 -1.8658 -0.5064
 4018SOL     OW23515   2.396   0.548  13.832  0.4614 -0.7171  0.0523
 4018SOL    HW123516   2.433   0.619  13.779 -1.3346  0.3720  0.2584
 4018SOL    HW223517   2.462   0.481  13.814  2.6137  0.8176  2.3203
 4019SOL     OW23518   1.003   2.355  15.125  0.2935 -0.2525  0.3601
 4019SOL    HW123519   1.068   2.407  15.078  0.4700 -1.1796 -0.4241
 4019SOL    HW223520   0.931   2.345  15.063  1.4562  1.9819 -1.3517
 4020SOL     OW23521   0.103   3.773   9.730 -0.1087 -0.3215  0.4338
 4020SOL    HW123522   0.147   3.744   9.810 -0.8832 -0.8815  0.6609
 4020SOL    HW223523   0.032   3.708   9.722 -1.0586  0.7817 -0.0982
 4021SOL     OW23524   1.411   3.744  12.863 -0.5680 -0.0738  0.0467
 4021SOL    HW123525   1.398   3.677  12.796 -0.1623 -0.7522  0.6440
 4021SOL    HW223526   1.481   3.701  12.912 -1.3099 -1.6801 -0.3168
 4022SOL     OW23527   3.304   1.441   9.096 -0.8485  0.1997 -0.3833
 4022SOL    HW123528   3.306   1.348   9.118  0.8368  0.7708  1.7841
 4022SOL    HW223529   3.212   1.465   9.106  0.3117  4.4462 -0.0143
 4023SOL     OW23530   3.788   1.481  16.598 -0.0202  0.1232 -0.2105
 4023SOL    HW123531   3.712   1.480  16.540 -1.0371 -1.0795  1.1356
 4023SOL    HW223532   3.820   1.391  16.591  1.9211  0.8576 -0.6371
 4024SOL     OW23533   1.468   2.544   4.078  0.6194  0.8057  0.3546
 4024SOL    HW123534   1.536   2.477   4.084  2.0447  2.2388  0.2325
 4024SOL    HW223535   1.390   2.491   4.063  0.9356  0.7159 -0.9325
 4025SOL     OW23536   3.768   1.244  10.148 -0.3628 -0.2333  0.7149
 4025SOL    HW123537   3.828   1.178  10.183  0.9658  0.5086 -0.1489
 4025SOL    HW223538   3.783   1.308  10.217 -1.9907 -1.0738  1.8412
 4026SOL     OW23539   2.811   4.320   6.762 -0.0772  0.3449  0.2990
 4026SOL    HW123540   2.722   4.286   6.765 -0.5070  1.4193 -0.2589
 4026SOL    HW223541   2.853   4.241   6.797  1.5033  0.4894 -1.3063
 4027SOL     OW23542   1.786   3.289   8.184  0.4212 -0.4284 -0.7532
 4027SOL    HW123543   1.805   3.245   8.267 -1.1216 -2.6494 -1.5868
 4027SOL    HW223544   1.866   3.342   8.183  0.7699 -0.9351  0.4568
 4028SOL     OW23545   3.137   0.390   0.092 -0.4029 -1.0051 -0.5214
 4028SOL    HW123546   3.230   0.388   0.071  0.0111 -1.0625  1.3226
 4028SOL    HW223547   3.103   0.361   0.008 -0.9804 -0.2095 -0.5627
 4029SOL     OW23548   1.045   3.965  11.712  0.0621  0.1127 -0.3541
 4029SOL    HW123549   1.053   4.031  11.643 -0.0422  0.5431  0.0407
 4029SOL    HW223550   1.135   3.935  11.703  0.0815  0.3058 -0.7689
 4030SOL     OW23551   2.323   0.833   7.990  0.2470  0.3693  0.1302
 4030SOL    HW123552   2.363   0.823   8.077 -0.7397  1.5245  0.7195
 4030SOL    HW223553   2.356   0.753   7.951 -0.0232  0.6501 -0.6816
 4031SOL     OW23554   1.772   2.908   6.433 -0.5094  0.4614 -0.0937
 4031SOL    HW123555   1.760   2.991   6.478  0.9647  0.7334 -0.2108
 4031SOL    HW223556   1.867   2.899   6.426 -0.3722  0.8410  1.4032
 4032SOL     OW23557   1.932   3.167   1.219 -0.1730 -0.7471 -0.5292
 4032SOL    HW123558   1.983   3.233   1.172  0.9512  0.8091  2.9405
 4032SOL    HW223559   1.904   3.211   1.299  1.5216 -1.1125  0.2488
 4033SOL     OW23560   4.179   3.535   6.439 -0.0202  0.4526 -0.4903
 4033SOL    HW123561   4.172   3.536   6.534 -0.0391  2.7505 -0.5061
 4033SOL    HW223562   4.126   3.613   6.421  0.5200  0.8542 -0.3533
 4034SOL     OW23563   3.919   2.063   6.093  0.1645 -0.8276  0.1325
 4034SOL    HW123564   3.909   2.149   6.051 -2.6653 -1.4033 -0.4077
 4034SOL    HW223565   3.990   2.081   6.155  0.2035  2.1214 -0.7273
 4035SOL     OW23566   1.742   1.182   7.103 -0.0982  0.5404 -0.0024
 4035SOL    HW123567   1.682   1.251   7.130 -0.9543 -0.3748  0.4236
 4035SOL    HW223568   1.747   1.192   7.008 -0.7901 -0.3266 -0.1249
 4036SOL     OW23569   3.107   2.146  17.575  0.4637  0.5773 -0.0954
 4036SOL    HW123570   3.177   2.138  17.639 -2.1057  0.4077  2.7043
 4036SOL    HW223571   3.110   2.242  17.576  2.1371  0.5298 -1.1664
 4037SOL     OW23572   1.247   2.674   6.881 -0.5175 -0.3677 -0.5381
 4037SOL    HW123573   1.252   2.645   6.790  0.0147  3.0503 -1.5657
 4037SOL    HW223574   1.207   2.597   6.923  0.2400  0.6917  2.1181
 4038SOL     OW23575   0.979   1.738  15.518 -0.1157 -0.4844 -0.1667
 4038SOL    HW123576   0.988   1.645  15.497 -0.7578 -0.6171  0.1319
 4038SOL    HW223577   1.042   1.739  15.590  0.4498 -1.8821 -0.6215
 4039SOL     OW23578   3.199   1.416   4.503  0.3819  0.4698 -0.1062
 4039SOL    HW123579   3.242   1.340   4.464  0.2779 -0.8243  2.3138
 4039SOL    HW223580   3.195   1.473   4.426 -1.8898 -1.1401 -1.1804
 4040SOL     OW23581   2.911   1.180  10.310  0.2491  0.0899  0.1203
 4040SOL    HW123582   2.938   1.202  10.399  2.3644 -0.4055 -0.4111
 4040SOL    HW223583   2.832   1.132  10.336  0.2276  0.2610  0.3658
 4041SOL     OW23584   3.650   4.207   3.405  0.2085 -0.0719  0.0526
 4041SOL    HW123585   3.678   4.176   3.319 -0.1384 -1.6302  0.5023
 4041SOL    HW223586   3.692   4.143   3.462 -0.4214 -0.9333 -0.4363
 4042SOL     OW23587   0.042   2.597   4.823  0.1503 -0.1031 -0.2147
 4042SOL    HW123588   4.721   2.629   4.902  0.2165  0.6738 -0.4918
 4042SOL    HW223589   4.697   2.536   4.794 -0.0613 -0.1419  0.3630
 4043SOL     OW23590   2.328   3.526   6.524 -0.1644 -0.4558  0.0159
 4043SOL    HW123591   2.320   3.476   6.442  1.6038 -1.0153  0.1950
 4043SOL    HW223592   2.249   3.580   6.524 -0.0690 -0.3216  0.3279
 4044SOL     OW23593   3.690   1.117   7.622 -0.2037  0.2091  0.3585
 4044SOL    HW123594   3.650   1.058   7.686 -0.3012  1.8441  1.8152
 4044SOL    HW223595   3.648   1.198   7.652 -0.3651  0.4979 -0.6574
 4045SOL     OW23596   2.410   4.087   7.389  0.0765  0.4024 -0.2974
 4045SOL    HW123597   2.462   4.102   7.310  1.9397 -1.5122  0.5674
 4045SOL    HW223598   2.427   3.994   7.401 -0.1415  0.1818 -1.7902
 4046SOL     OW23599   4.404   3.336   8.923 -0.2477  0.3820 -0.2218
 4046SOL    HW123600   4.499   3.326   8.928 -0.4426 -0.0723  2.4274
 4046SOL    HW223601   4.404   3.429   8.900  0.3485  0.8033  1.4630
 4047SOL     OW23602   3.354   3.164   5.715 -0.2852 -0.7263  0.5294
 4047SOL    HW123603   3.406   3.123   5.784 -2.7956  0.4315  3.1354
 4047SOL    HW223604   3.412   3.150   5.640 -0.0354  0.2736  0.5295
 4048SOL     OW23605   2.375   1.162   4.335 -0.1301 -0.4552  0.0326
 4048SOL    HW123606   2.412   1.241   4.375 -0.6616 -2.1862  3.9421
 4048SOL    HW223607   2.382   1.102   4.410  2.0661  0.9602  0.9837
 4049SOL     OW23608   1.845   0.509  11.716  0.0809 -0.2780  0.2739
 4049SOL    HW123609   1.755   0.491  11.743  0.1924  0.1151  0.8904
 4049SOL    HW223610   1.892   0.455  11.779 -0.8939 -0.8810  0.4742
 4050SOL     OW23611   1.253   2.988  14.417  0.6815  0.3400 -0.1938
 4050SOL    HW123612   1.334   3.032  14.392  0.1935  1.7933  0.8168
 4050SOL    HW223613   1.204   3.052  14.468 -1.1102 -1.8775  0.9005
 4051SOL     OW23614   3.217   0.425   8.202  0.3662 -0.0395 -0.1936
 4051SOL    HW123615   3.268   0.399   8.278  0.9808 -3.0876 -1.6587
 4051SOL    HW223616   3.263   0.401   8.122 -0.6467 -1.0313 -0.4716
 4052SOL     OW23617   3.419   3.631  10.418 -0.4214  0.0142 -0.3403
 4052SOL    HW123618   3.455   3.690  10.485 -2.2531 -0.0505  0.6991
 4052SOL    HW223619   3.492   3.571  10.400 -0.3401 -0.0460  0.1708
 4053SOL     OW23620   2.864   1.856   5.515  0.1515 -0.2621 -0.4814
 4053SOL    HW123621   2.931   1.863   5.584  1.2331 -0.9518 -1.4587
 4053SOL    HW223622   2.809   1.933   5.522  0.2236 -0.1047 -1.7766
 4054SOL     OW23623   4.329   2.220  14.699 -0.2123  0.1938  0.0903
 4054SOL    HW123624   4.397   2.152  14.696 -0.6034 -0.1213 -1.8874
 4054SOL    HW223625   4.370   2.284  14.640  0.0070 -0.1432 -0.1221
 4055SOL     OW23626   3.362   1.189  10.401  0.2011  0.4891 -0.2900
 4055SOL    HW123627   3.309   1.122  10.358  2.0084 -1.1617  0.0864
 4055SOL    HW223628   3.293   1.218  10.462  0.5530  0.4033  0.1530
 4056SOL     OW23629   2.894   2.557   0.454 -0.0003 -0.0713  0.5799
 4056SOL    HW123630   2.854   2.629   0.405  0.1085 -0.9946 -0.8584
 4056SOL    HW223631   2.959   2.604   0.505  1.0375 -2.5701  1.5567
 4057SOL     OW23632   3.812   3.127   5.214  0.1103 -0.4210 -0.2918
 4057SOL    HW123633   3.717   3.114   5.211  0.0475  0.2896 -1.4014
 4057SOL    HW223634   3.829   3.203   5.159 -0.4830  0.4601  0.7359
 4058SOL     OW23635   1.009   0.703   3.730 -0.3736  0.9236 -0.6090
 4058SOL    HW123636   1.027   0.610   3.714  0.3637  0.9953 -0.1741
 4058SOL    HW223637   1.026   0.709   3.824 -2.2506  0.1157 -0.2202
 4059SOL     OW23638   3.562   1.897   3.978 -0.2102 -0.6141 -0.0490
 4059SOL    HW123639   3.577   1.954   4.054  0.4111 -1.0689  0.1692
 4059SOL    HW223640   3.615   1.821   4.002  2.5819  1.5260  0.5353
 4060SOL     OW23641   2.439   0.652   8.877  0.1691  0.0972  0.3919
 4060SOL    HW123642   2.372   0.660   8.809  0.6265 -0.8544 -0.1781
 4060SOL    HW223643   2.423   0.744   8.896 -1.1310 -0.2320  0.8668
 4061SOL     OW23644   1.691   4.700   8.684 -0.1823 -0.5976  0.2393
 4061SOL    HW123645   1.730   4.634   8.742  1.7551  0.7720  0.4830
 4061SOL    HW223646   1.663   0.043   8.748 -0.8513 -1.1095  0.4766
 4062SOL     OW23647   3.689   3.241   0.678  0.1982 -0.1979 -0.5685
 4062SOL    HW123648   3.785   3.239   0.684  0.2629  1.1126 -1.1707
 4062SOL    HW223649   3.681   3.326   0.721 -0.6418 -1.2862  1.4020
 4063SOL     OW23650   0.509   1.602   5.387  0.0840  0.7375  0.2043
 4063SOL    HW123651   0.538   1.687   5.354 -0.4286  1.1185  0.7216
 4063SOL    HW223652   0.466   1.625   5.470  0.7658  2.1160  0.1756
 4064SOL     OW23653   3.298   1.554  15.311  0.8367  0.0445 -0.7564
 4064SOL    HW123654   3.335   1.600  15.235  1.8450 -0.9829 -0.8910
 4064SOL    HW223655   3.369   1.493  15.331 -0.2196  1.0355  5.7834
 4065SOL     OW23656   3.649   0.950   7.152 -0.3801  0.0009 -0.0766
 4065SOL    HW123657   3.594   1.025   7.175 -0.9671 -0.1381 -1.0149
 4065SOL    HW223658   3.589   0.875   7.155 -0.1263 -0.0709  3.2217
 4066SOL     OW23659   1.273   4.715   1.920  0.1075 -0.5503 -0.3083
 4066SOL    HW123660   1.189   4.670   1.910  0.5941 -1.0943 -2.0104
 4066SOL    HW223661   1.272   0.067   1.860 -1.3140  0.4202  0.9261
 4067SOL     OW23662   4.289   1.626  16.586 -0.2817 -0.5861  0.2887
 4067SOL    HW123663   4.193   1.620  16.579 -0.3046  0.5778 -0.3259
 4067SOL    HW223664   4.296   1.707  16.536 -0.6281  1.0856  2.9730
 4068SOL     OW23665   2.671   4.043   7.863 -0.0513 -0.1320  0.2069
 4068SOL    HW123666   2.754   4.033   7.909 -0.7210  1.3846  1.7446
 4068SOL    HW223667   2.625   4.113   7.909  0.3807 -1.2714  2.3721
 4069SOL     OW23668   1.351   0.543   2.617 -0.1401  0.7458 -0.1930
 4069SOL    HW123669   1.346   0.506   2.705  0.8211 -2.0141 -1.2710
 4069SOL    HW223670   1.354   0.466   2.559  1.2949  1.4754 -1.0987
 4070SOL     OW23671   3.611   3.245   4.862  0.0093 -0.0176 -0.3157
 4070SOL    HW123672   3.670   3.237   4.787 -0.5763  2.4145 -1.0467
 4070SOL    HW223673   3.526   3.274   4.828  0.5803  0.6627 -1.1737
 4071SOL     OW23674   4.345   3.754   7.578 -0.5362  0.5026  0.3823
 4071SOL    HW123675   4.286   3.711   7.640  0.4951  0.8562  1.6071
 4071SOL    HW223676   4.343   3.686   7.511  1.3464  0.8088  0.0157
 4072SOL     OW23677   0.514   1.743  10.199 -0.4755  0.9159 -0.0494
 4072SOL    HW123678   0.577   1.718  10.267  1.6561  2.9377 -1.2940
 4072SOL    HW223679   0.445   1.677  10.208  0.0341  0.5926  1.4864
 4073SOL     OW23680   4.258   2.204   1.139 -0.4630 -0.0923  0.2641
 4073SOL    HW123681   4.340   2.194   1.188  0.3090 -1.5307 -1.2945
 4073SOL    HW223682   4.202   2.256   1.196  1.8038  0.7255  1.7268
 4074SOL     OW23683   3.517   4.441   5.179 -0.3282  0.4590  0.4827
 4074SOL    HW123684   3.597   4.494   5.175  0.3481 -0.7286 -1.9270
 4074SOL    HW223685   3.478   4.481   5.256 -1.8478 -0.6630  0.2931
 4075SOL     OW23686   2.867   2.105   3.231  0.5088 -0.7731  0.0345
 4075SOL    HW123687   2.825   2.052   3.164 -1.3227  0.1850  0.4343
 4075SOL    HW223688   2.961   2.092   3.221  0.5417 -0.7469  0.3154
 4076SOL     OW23689   4.037   3.006   5.053  0.6804  0.1823  0.1406
 4076SOL    HW123690   4.021   2.999   4.959 -0.4338 -2.8188  0.5705
 4076SOL    HW223691   3.952   3.016   5.095  1.1986 -0.3414  1.3087
 4077SOL     OW23692   0.038   1.073   2.086  0.2896 -0.2412 -0.5417
 4077SOL    HW123693   0.005   1.047   2.001  0.8133  0.4783 -0.9619
 4077SOL    HW223694   0.132   1.091   2.075  0.5022  0.2595  2.0100
 4078SOL     OW23695   4.314   2.021  15.162  1.0069 -0.3449  0.2142
 4078SOL    HW123696   4.233   1.982  15.130 -0.9308  2.7076  1.4211
 4078SOL    HW223697   4.287   2.112  15.152 -1.0666 -1.0875 -0.8610
 4079SOL     OW23698   1.000   0.592   4.214  0.1265  0.2265  0.1059
 4079SOL    HW123699   0.943   0.669   4.209 -1.7389 -1.1851 -0.5250
 4079SOL    HW223700   1.081   0.634   4.186 -2.0993  3.6442 -1.1138
 4080SOL     OW23701   0.948   1.069   3.958 -0.1982  0.3354  0.7293
 4080SOL    HW123702   0.909   1.051   3.873 -0.8547 -1.8619  1.4964
 4080SOL    HW223703   0.988   0.984   3.975 -0.1672  0.5168  1.5503
 4081SOL     OW23704   3.571   1.991   8.197  0.0803  0.6811  0.5466
 4081SOL    HW123705   3.544   2.081   8.213 -0.3198  0.6342  0.1442
 4081SOL    HW223706   3.525   1.943   8.266 -1.8619  1.0364 -0.4955
 4082SOL     OW23707   4.172   3.194   7.035  0.0764 -0.2274 -0.5843
 4082SOL    HW123708   4.097   3.135   7.033 -0.0760  0.0422 -2.2112
 4082SOL    HW223709   4.188   3.209   7.129  0.8596  1.5701 -1.0065
 4083SOL     OW23710   0.264   1.794   8.275  0.0537 -0.0907  0.8146
 4083SOL    HW123711   0.308   1.712   8.251  3.3890  1.2016  2.4779
 4083SOL    HW223712   0.173   1.770   8.291  0.3072 -0.8215  1.1782
 4084SOL     OW23713   0.184   0.773  11.682 -0.7142 -0.2069  0.1170
 4084SOL    HW123714   0.183   0.792  11.776  1.1490  2.2083 -0.3384
 4084SOL    HW223715   0.094   0.744  11.667 -0.3431 -0.5835 -1.4068
 4085SOL     OW23716   3.279   4.270  15.962  0.0372  0.1717 -0.3658
 4085SOL    HW123717   3.187   4.245  15.972 -0.3560  1.5297 -0.5175
 4085SOL    HW223718   3.324   4.187  15.949  1.9305  1.2536 -0.6928
 4086SOL     OW23719   0.730   0.861   2.768  0.1203  0.0171 -0.4954
 4086SOL    HW123720   0.741   0.945   2.813 -1.4821  0.4883 -0.9804
 4086SOL    HW223721   0.669   0.885   2.699 -0.4945  1.5008  0.5713
 4087SOL     OW23722   0.138   3.302   7.942  0.1673 -0.3861 -0.6755
 4087SOL    HW123723   0.151   3.219   7.988  0.4655  1.0565  1.9019
 4087SOL    HW223724   0.106   3.357   8.014  3.4003 -0.6626  0.9855
 4088SOL     OW23725   0.909   4.563   9.323 -0.1909  0.1255  0.2677
 4088SOL    HW123726   0.920   4.577   9.229 -3.6728  1.5006  0.0814
 4088SOL    HW223727   0.817   4.586   9.335  0.0044  0.7420  0.5242
 4089SOL     OW23728   0.399   3.213   7.723  0.2167  0.1487  0.2674
 4089SOL    HW123729   0.358   3.132   7.753  1.0100  0.4725  2.2270
 4089SOL    HW223730   0.475   3.219   7.781 -0.2279  3.4377  0.4974
 4090SOL     OW23731   3.469   1.312   1.738  0.3043  0.2809  0.4425
 4090SOL    HW123732   3.448   1.397   1.777  0.7828  1.2435 -1.3802
 4090SOL    HW223733   3.478   1.340   1.647  1.1515  1.6117  0.9253
 4091SOL     OW23734   0.414   2.516   3.089  0.1479 -0.6079 -0.0989
 4091SOL    HW123735   0.425   2.421   3.085 -0.8349 -0.6274 -2.3194
 4091SOL    HW223736   0.461   2.537   3.008 -0.1285  0.3626 -0.0116
 4092SOL     OW23737   2.524   2.738  13.579 -0.2589  0.4505  0.6071
 4092SOL    HW123738   2.448   2.737  13.520  0.5832 -0.4644 -0.4669
 4092SOL    HW223739   2.548   2.830  13.566  3.3206 -0.1497  2.8098
 4093SOL     OW23740   3.841   2.247   3.640  0.2971  0.0125  0.0239
 4093SOL    HW123741   3.809   2.231   3.729 -1.3095 -1.1953 -0.7918
 4093SOL    HW223742   3.803   2.334   3.630  0.0066 -0.2980 -1.4772
 4094SOL     OW23743   0.432   2.704  15.550 -0.2388 -0.2136 -0.5254
 4094SOL    HW123744   0.436   2.791  15.510  1.8216  0.0119  0.1612
 4094SOL    HW223745   0.383   2.652  15.486 -0.4483  0.0174 -0.5537
 4095SOL     OW23746   0.731   1.782  16.532 -0.4127  0.1034 -0.3690
 4095SOL    HW123747   0.649   1.772  16.485 -0.7893 -0.6675  0.4511
 4095SOL    HW223748   0.712   1.740  16.616 -0.4553  1.3726  0.2571
 4096SOL     OW23749   3.559   2.033   0.865  0.1000 -0.0665 -0.4039
 4096SOL    HW123750   3.600   1.949   0.847  0.7401  0.1804 -0.1068
 4096SOL    HW223751   3.515   2.010   0.946  0.4304 -1.5587 -0.6589
 4097SOL     OW23752   2.224   0.777  14.054 -0.4216  0.1433  0.4361
 4097SOL    HW123753   2.269   0.735  13.981  1.8092  2.7717  0.2867
 4097SOL    HW223754   2.170   0.848  14.019 -0.8579 -1.2922 -1.7573
 4098SOL     OW23755   0.023   4.649  14.760 -0.5898  0.2138  0.0647
 4098SOL    HW123756   0.034   4.603  14.843 -1.3585 -0.0835  0.0051
 4098SOL    HW223757   0.074   0.006  14.776  0.3931 -0.2378 -0.8312
 4099SOL     OW23758   0.012   4.472   2.071  0.5886 -0.3233  0.0704
 4099SOL    HW123759   4.716   4.399   2.130  0.3473 -0.3838 -0.0828
 4099SOL    HW223760   0.104   4.455   2.051 -0.4824 -5.3496 -0.4232
 4100SOL     OW23761   2.675   4.383   7.186  0.0048 -0.0004  0.0364
 4100SOL    HW123762   2.688   4.430   7.103 -1.7527 -0.6685 -0.6082
 4100SOL    HW223763   2.691   4.451   7.252  0.9789  0.8922 -1.1134
 4101SOL     OW23764   4.032   2.323  10.381  0.2050  0.3339  0.5230
 4101SOL    HW123765   4.040   2.386  10.452  2.0222  1.0622 -0.3383
 4101SOL    HW223766   3.982   2.374  10.318  0.9631  0.1837 -0.1954
 4102SOL     OW23767   2.436   1.597   5.257 -0.0928  0.3278 -0.5519
 4102SOL    HW123768   2.456   1.679   5.211 -0.3097 -0.7511 -2.5575
 4102SOL    HW223769   2.522   1.555   5.244  0.0487  0.8182 -1.1646
 4103SOL     OW23770   4.333   0.472   0.975 -0.1084 -0.4893  0.3931
 4103SOL    HW123771   4.420   0.508   0.960 -1.1403  1.8732  0.1985
 4103SOL    HW223772   4.328   0.492   1.069 -0.0329 -1.0108  0.5100
 4104SOL     OW23773   2.753   0.589   8.965  0.5318 -0.8322 -0.0282
 4104SOL    HW123774   2.783   0.675   8.996  1.5437 -1.4107  0.5683
 4104SOL    HW223775   2.660   0.590   8.986  0.8667 -0.5881  1.4502
 4105SOL     OW23776   2.387   1.966   7.440 -0.0234 -0.2165 -0.1955
 4105SOL    HW123777   2.317   1.901   7.440  0.5499 -0.8382  0.2527
 4105SOL    HW223778   2.460   1.907   7.423  1.1467  1.4299 -0.8611
 4106SOL     OW23779   1.364   0.845   2.350  0.0080 -0.1314 -0.2346
 4106SOL    HW123780   1.443   0.887   2.384 -1.0941 -0.4434  2.6438
 4106SOL    HW223781   1.347   0.909   2.280  0.7335  0.8509  0.4851
 4107SOL     OW23782   2.605   4.428   3.532 -0.2767  0.3205 -0.3978
 4107SOL    HW123783   2.603   4.468   3.618  0.9060 -0.3024 -0.0654
 4107SOL    HW223784   2.559   4.347   3.557  1.5614 -0.6531 -0.1401
 4108SOL     OW23785   1.220   1.722   0.842  0.1581  0.1180 -0.6581
 4108SOL    HW123786   1.159   1.671   0.788 -1.7041  0.8988  0.7230
 4108SOL    HW223787   1.207   1.681   0.927 -0.1911  0.2229 -0.6629
 4109SOL     OW23788   3.215   3.116  11.241 -0.4709  0.2433 -0.0919
 4109SOL    HW123789   3.177   3.144  11.158 -1.6684  1.3921  0.8447
 4109SOL    HW223790   3.136   3.133  11.292 -0.3276  1.7765 -0.3752
 4110SOL     OW23791   1.204   4.439   4.810  0.4463 -0.4283 -0.1469
 4110SOL    HW123792   1.196   4.352   4.771 -3.6374  0.3350 -1.0245
 4110SOL    HW223793   1.131   4.483   4.767  2.1300  1.5044 -0.9964
 4111SOL     OW23794   3.074   3.864   7.006 -0.0175  0.0657 -0.2900
 4111SOL    HW123795   3.025   3.800   6.954 -0.0266 -0.5146  0.4237
 4111SOL    HW223796   3.022   3.877   7.085  0.3226 -0.9208  0.1035
 4112SOL     OW23797   2.819   1.490  14.933 -0.5902 -0.3274 -0.2748
 4112SOL    HW123798   2.893   1.432  14.915 -0.8543 -1.0792  1.0431
 4112SOL    HW223799   2.850   1.539  15.010 -1.0421  1.5850 -1.3076
 4113SOL     OW23800   1.905   3.526  14.974  0.2245  0.5872 -0.0944
 4113SOL    HW123801   1.959   3.449  14.963  0.1984  0.6952 -1.0218
 4113SOL    HW223802   1.897   3.541  15.068 -4.2388  0.0402 -0.3683
 4114SOL     OW23803   3.005   1.928   3.737 -0.4762 -0.1818 -0.1328
 4114SOL    HW123804   2.961   1.975   3.809  0.8108  0.3325  0.3296
 4114SOL    HW223805   3.025   2.004   3.682 -1.1784  0.2646  0.2266
 4115SOL     OW23806   3.082   4.477   2.126 -0.4095 -0.1662 -0.2290
 4115SOL    HW123807   3.041   4.542   2.068  2.8525  0.9544 -1.2462
 4115SOL    HW223808   3.164   4.457   2.082  0.2768  1.0563  0.4857
 4116SOL     OW23809   3.286   2.328   6.355 -0.6058 -0.6924  0.1236
 4116SOL    HW123810   3.326   2.406   6.316  1.3588 -1.8807 -0.2107
 4116SOL    HW223811   3.220   2.358   6.417 -2.4816 -1.2948 -1.5656
 4117SOL     OW23812   0.137   2.456   3.142 -0.0063  0.2825 -0.2175
 4117SOL    HW123813   0.212   2.509   3.117 -0.3173  1.0463  0.4460
 4117SOL    HW223814   0.141   2.459   3.238 -1.5937  0.8180 -0.1612
 4118SOL     OW23815   4.115   0.698   7.731  0.6926 -0.3727 -0.1592
 4118SOL    HW123816   4.188   0.752   7.761  0.5954 -1.0758  1.3613
 4118SOL    HW223817   4.125   0.625   7.793  0.1705  0.9624  1.5184
 4119SOL     OW23818   2.409   1.918  11.731 -0.4707  0.6249  0.1738
 4119SOL    HW123819   2.371   1.843  11.778  0.4660  0.5681  0.8376
 4119SOL    HW223820   2.503   1.921  11.747 -0.4884  1.0154  0.1925
 4120SOL     OW23821   0.893   3.555   0.550 -0.7737 -0.0155 -0.6238
 4120SOL    HW123822   0.834   3.629   0.533 -0.5517  0.3771  0.3311
 4120SOL    HW223823   0.935   3.587   0.630 -2.0854  1.1383 -0.4072
 4121SOL     OW23824   2.822   0.269   5.127 -0.1507  0.7400  0.1719
 4121SOL    HW123825   2.842   0.362   5.119 -0.5942  0.7865 -0.4143
 4121SOL    HW223826   2.785   0.250   5.041  1.8076  1.1098 -0.7500
 4122SOL     OW23827   2.414   2.259   8.638 -0.1028  0.6451 -0.0574
 4122SOL    HW123828   2.506   2.242   8.659 -0.2498 -2.0908 -1.6848
 4122SOL    HW223829   2.365   2.193   8.687 -2.4867  1.3907 -1.4252
 4123SOL     OW23830   3.347   2.627   8.712 -0.3839 -0.0006 -0.2523
 4123SOL    HW123831   3.270   2.677   8.739  0.0778  0.4557  0.2257
 4123SOL    HW223832   3.348   2.641   8.617  1.7455  1.7904  0.0295
 4124SOL     OW23833   0.474   1.095   8.483 -0.2436  0.1385 -0.1481
 4124SOL    HW123834   0.475   1.074   8.577  3.4570  0.3744 -0.1302
 4124SOL    HW223835   0.567   1.083   8.464 -0.8328 -0.4306 -2.6411
 4125SOL     OW23836   3.462   1.866  15.377  0.0288  0.4562  0.1708
 4125SOL    HW123837   3.487   1.955  15.400  3.4678 -0.9672  1.9416
 4125SOL    HW223838   3.407   1.844  15.452 -0.5564 -0.4505 -0.5231
 4126SOL     OW23839   0.740   0.727   8.231  0.2516  0.3798 -0.3309
 4126SOL    HW123840   0.716   0.778   8.309 -0.3749  2.6949 -2.0605
 4126SOL    HW223841   0.701   0.775   8.159 -1.7960 -0.1674  0.4298
 4127SOL     OW23842   1.679   3.429  14.280  0.0462 -0.0685  0.5372
 4127SOL    HW123843   1.593   3.469  14.284 -0.9933 -1.9976 -2.8817
 4127SOL    HW223844   1.672   3.350  14.333  0.4583 -0.4728 -0.0049
 4128SOL     OW23845   2.611   0.110   7.896 -0.1395 -0.2536 -0.1030
 4128SOL    HW123846   2.560   0.062   7.962 -3.9119  1.2478 -1.9110
 4128SOL    HW223847   2.663   0.167   7.953 -0.6199 -0.2229  0.3024
 4129SOL     OW23848   0.892   4.340   6.004 -0.3806  0.7077  0.7646
 4129SOL    HW123849   0.871   4.271   6.067  1.0030  0.2505  0.7263
 4129SOL    HW223850   0.837   4.415   6.029 -0.6622  1.4422 -2.0877
 4130SOL     OW23851   1.947   4.440   2.552 -0.1802 -0.2446  0.4313
 4130SOL    HW123852   1.999   4.502   2.502 -2.9497  0.5656 -1.4520
 4130SOL    HW223853   1.892   4.505   2.595  0.8915  1.8097 -1.3093
 4131SOL     OW23854   2.031   4.324  13.164  0.4566  0.5919 -0.1123
 4131SOL    HW123855   2.002   4.249  13.216  1.8609 -0.3288 -0.6617
 4131SOL    HW223856   2.039   4.390  13.232  1.2470  1.6796 -1.2594
 4132SOL     OW23857   0.800   4.187  11.369  0.4860 -0.2442  0.0516
 4132SOL    HW123858   0.865   4.157  11.432 -0.5335 -0.2518  1.0994
 4132SOL    HW223859   0.835   4.130  11.300  0.3908  1.2672 -1.2345
 4133SOL     OW23860   1.837   4.092   3.727  0.0257  0.2483  0.1816
 4133SOL    HW123861   1.902   4.028   3.695  0.8642  0.6832  1.0191
 4133SOL    HW223862   1.890   4.172   3.726  1.1270 -0.5453 -3.7668
 4134SOL     OW23863   4.173   1.361   8.626  0.1347 -0.1187 -0.3224
 4134SOL    HW123864   4.099   1.421   8.613  0.1069 -0.0394  0.2065
 4134SOL    HW223865   4.241   1.390   8.565 -1.9725 -0.4803 -2.8476
 4135SOL     OW23866   2.452   4.096   5.221 -0.0509 -0.1897 -0.7464
 4135SOL    HW123867   2.513   4.103   5.294 -1.1483  1.4201  0.0304
 4135SOL    HW223868   2.487   4.171   5.173  0.1632  0.1895 -0.0040
 4136SOL     OW23869   2.419   3.663   7.878  0.4670  0.0811  0.0880
 4136SOL    HW123870   2.418   3.747   7.832 -0.4156  0.0226  0.0117
 4136SOL    HW223871   2.394   3.697   7.964 -1.3428  0.1091 -0.4499
 4137SOL     OW23872   2.616   4.251   8.070 -0.0251 -0.0532  0.4776
 4137SOL    HW123873   2.696   4.227   8.116  0.4521  0.8883  0.1243
 4137SOL    HW223874   2.625   4.346   8.076 -0.4645  0.0899 -1.0460
 4138SOL     OW23875   2.197   3.676  13.581 -0.3155  0.3441 -0.1416
 4138SOL    HW123876   2.165   3.766  13.574 -0.7974  0.4848  3.6133
 4138SOL    HW223877   2.185   3.646  13.671 -2.3433  1.0429 -0.1835
 4139SOL     OW23878   0.375   3.276   3.267 -0.1366 -0.2890  0.1680
 4139SOL    HW123879   0.438   3.260   3.196 -0.5901 -1.4761  0.0226
 4139SOL    HW223880   0.396   3.201   3.323  1.6443 -1.1718 -1.6458
 4140SOL     OW23881   1.628   1.048  14.696 -0.2112 -0.0104 -0.0487
 4140SOL    HW123882   1.537   1.045  14.666 -0.3042 -0.4769  0.2926
 4140SOL    HW223883   1.661   1.132  14.663 -1.3960  0.6694  0.5185
 4141SOL     OW23884   2.812   0.772   3.410  0.2393 -0.1766 -0.0408
 4141SOL    HW123885   2.722   0.779   3.379  1.0249  2.1030 -1.8210
 4141SOL    HW223886   2.845   0.848   3.362 -0.6244  0.2658  0.0552
 4142SOL     OW23887   3.265   2.827   1.867 -0.5229 -0.5084 -0.1722
 4142SOL    HW123888   3.326   2.798   1.799 -1.1460  2.3443 -1.9401
 4142SOL    HW223889   3.217   2.893   1.817  0.1133  1.8193  2.3083
 4143SOL     OW23890   2.770   3.926   8.290  0.0922 -0.5499 -0.2839
 4143SOL    HW123891   2.847   3.983   8.292 -0.8780  0.8099 -1.5238
 4143SOL    HW223892   2.813   3.851   8.330  1.6740  1.5858  2.0643
 4144SOL     OW23893   4.422   2.205   4.753  0.0066 -0.3835  0.2616
 4144SOL    HW123894   4.399   2.131   4.698  1.7651  1.0151 -2.3996
 4144SOL    HW223895   4.359   2.194   4.823  0.4100 -0.2204  0.6527
 4145SOL     OW23896   0.147   1.283  16.632 -0.4811 -0.0196 -0.6018
 4145SOL    HW123897   0.070   1.228  16.618  0.1045 -1.4307  1.8482
 4145SOL    HW223898   0.153   1.290  16.727  1.2959  0.3408 -0.7329
 4146SOL     OW23899   4.328   3.306   5.239  1.1851  0.5254  0.2193
 4146SOL    HW123900   4.421   3.323   5.225  1.4634 -1.0391  0.1769
 4146SOL    HW223901   4.309   3.371   5.307 -0.2556  0.7474 -0.3979
 4147SOL     OW23902   0.476   2.836   2.778  0.0552  0.2835 -0.5230
 4147SOL    HW123903   0.474   2.923   2.738 -0.5429 -0.1038 -1.3384
 4147SOL    HW223904   0.496   2.859   2.868 -0.6380 -2.3309  0.2840
 4148SOL     OW23905   2.645   1.548   7.104 -0.2096  0.5941 -0.5041
 4148SOL    HW123906   2.604   1.547   7.190  2.2282  2.2423  0.6934
 4148SOL    HW223907   2.586   1.605   7.055 -0.6867  1.4702  1.1093
 4149SOL     OW23908   3.252   4.254   2.340 -0.3032 -0.3648 -0.0054
 4149SOL    HW123909   3.238   4.270   2.247  1.8833  1.1238 -0.0907
 4149SOL    HW223910   3.169   4.214   2.367 -0.7247  0.0806 -0.6684
 4150SOL     OW23911   2.788   0.139  15.170  0.6807  0.4283 -0.1277
 4150SOL    HW123912   2.752   0.121  15.257 -0.5543  3.4735 -0.0166
 4150SOL    HW223913   2.866   0.084  15.172  1.7653  1.9322 -0.8273
 4151SOL     OW23914   3.656   0.382   5.146 -0.7157 -0.1301 -0.0724
 4151SOL    HW123915   3.645   0.471   5.113 -2.0602 -0.3434 -0.2082
 4151SOL    HW223916   3.627   0.323   5.076 -0.5347  1.9815 -1.9397
 4152SOL     OW23917   4.459   2.056   5.018  0.0457 -0.1177  0.8448
 4152SOL    HW123918   4.548   2.021   5.024 -0.3651 -1.0760  1.4472
 4152SOL    HW223919   4.409   1.975   5.023 -0.1047 -0.1507 -1.1649
 4153SOL     OW23920   1.414   1.289   9.056 -0.6779  0.2912 -0.0904
 4153SOL    HW123921   1.426   1.284   8.961 -0.4025 -1.1491  0.0085
 4153SOL    HW223922   1.324   1.257   9.053 -1.1091  1.5857 -0.9839
 4154SOL     OW23923   3.127   1.472   5.765 -0.6677 -0.6764 -0.7075
 4154SOL    HW123924   3.222   1.462   5.757 -0.7114 -2.1397  0.6352
 4154SOL    HW223925   3.099   1.476   5.673  1.2271  3.0241 -1.1088
 4155SOL     OW23926   1.739   3.929   3.962  0.6320  0.3630 -0.5993
 4155SOL    HW123927   1.805   3.996   3.981 -0.1616  2.0881 -3.8629
 4155SOL    HW223928   1.718   3.957   3.872 -2.0298  2.5054  0.7112
 4156SOL     OW23929   3.049   0.708  17.108  0.7713 -0.7180 -0.1701
 4156SOL    HW123930   2.980   0.730  17.171  1.2088  0.6128 -0.1468
 4156SOL    HW223931   3.078   0.796  17.083 -1.1087  0.4594  1.8058
 4157SOL     OW23932   3.288   4.652   8.804  0.1028 -0.9515  0.1203
 4157SOL    HW123933   3.314   4.658   8.896  0.9858 -2.2463 -0.0418
 4157SOL    HW223934   3.354   4.700   8.755  0.0199  1.4340  2.3297
 4158SOL     OW23935   3.769   2.711   5.137  0.3807  0.1986  0.3915
 4158SOL    HW123936   3.775   2.741   5.228 -0.1255 -2.0238  1.1408
 4158SOL    HW223937   3.676   2.713   5.116  0.7064 -2.0543 -1.2463
 4159SOL     OW23938   3.952   3.479   7.359  0.5400  0.9264 -0.0101
 4159SOL    HW123939   3.923   3.525   7.438 -0.3522 -0.4198  0.4405
 4159SOL    HW223940   3.879   3.509   7.304 -1.8062 -2.5174  1.1882
 4160SOL     OW23941   4.115   0.327  12.565 -0.4620 -0.7809 -0.0139
 4160SOL    HW123942   4.028   0.336  12.527  0.2410 -1.2003 -1.6938
 4160SOL    HW223943   4.094   0.244  12.608 -0.9522 -0.9405 -0.5659
 4161SOL     OW23944   3.982   4.641   2.002 -0.2658 -0.4417 -0.1780
 4161SOL    HW123945   4.036   4.563   1.986  2.0735  1.4371 -1.5966
 4161SOL    HW223946   3.998   4.700   1.928  0.4320 -0.0397  0.2879
 4162SOL     OW23947   1.639   0.989  12.001  0.1020  0.2819 -0.1789
 4162SOL    HW123948   1.652   0.902  11.964 -0.7849  0.0960 -0.0493
 4162SOL    HW223949   1.725   1.029  11.990 -0.6318  1.0365 -3.4054
 4163SOL     OW23950   4.243   1.463   3.964  0.1855 -0.2691  0.0938
 4163SOL    HW123951   4.294   1.386   3.991 -0.5178 -0.4681  0.8479
 4163SOL    HW223952   4.293   1.492   3.888 -0.0434  0.8116  0.3635
 4164SOL     OW23953   4.132   0.586   3.101  0.3108 -0.4200 -0.7145
 4164SOL    HW123954   4.157   0.644   3.030  3.0842 -2.1638 -1.1757
 4164SOL    HW223955   4.204   0.522   3.099 -0.1123 -0.8701 -1.6443
 4165SOL     OW23956   0.232   2.843   5.613  0.0431 -0.2554 -0.1117
 4165SOL    HW123957   0.296   2.858   5.684  1.1323 -2.9046 -0.5433
 4165SOL    HW223958   0.253   2.911   5.549 -1.1590  1.1435  0.9630
 4166SOL     OW23959   0.829   4.119   6.159 -0.4320 -0.7690 -0.1869
 4166SOL    HW123960   0.910   4.131   6.208 -0.3821  0.2041 -0.4963
 4166SOL    HW223961   0.766   4.112   6.231 -1.3035  1.9202 -0.6710
 4167SOL     OW23962   3.488   2.114  13.328  0.3383  0.1091 -0.1461
 4167SOL    HW123963   3.561   2.055  13.347  0.4056  0.2396 -0.0039
 4167SOL    HW223964   3.422   2.065  13.376  1.5905 -0.4471  0.9943
 4168SOL     OW23965   0.636   0.992   1.456 -0.7571 -0.4612 -0.3572
 4168SOL    HW123966   0.588   1.009   1.538 -0.1590 -0.4418 -0.0087
 4168SOL    HW223967   0.716   0.943   1.477  0.4629  0.7670 -2.2264
 4169SOL     OW23968   3.278   3.678   2.467  0.1038 -0.7208 -0.4397
 4169SOL    HW123969   3.365   3.696   2.429  0.2377  0.5751  0.4988
 4169SOL    HW223970   3.223   3.655   2.392  0.4337  0.6394 -1.0909
 4170SOL     OW23971   1.397   3.860  16.611 -0.3812  0.4354 -0.0539
 4170SOL    HW123972   1.450   3.893  16.684 -0.7966  1.3102 -0.1473
 4170SOL    HW223973   1.463   3.848  16.543  1.0860 -1.0170  1.6142
 4171SOL     OW23974   1.292   1.135   4.318 -0.3796  0.1483 -0.5900
 4171SOL    HW123975   1.262   1.219   4.285 -1.7053  1.1316  3.2499
 4171SOL    HW223976   1.386   1.155   4.314 -0.3411  0.1316  0.4688
 4172SOL     OW23977   2.325   0.619  16.122 -0.6811  0.0175  0.1513
 4172SOL    HW123978   2.325   0.678  16.198 -2.0209 -0.6464  0.6805
 4172SOL    HW223979   2.413   0.642  16.092  0.2598 -0.7213  2.3419
 4173SOL     OW23980   3.113   3.192   1.451  0.0593  0.2780  0.3285
 4173SOL    HW123981   3.083   3.125   1.390  2.3281  0.4939 -1.0624
 4173SOL    HW223982   3.055   3.267   1.435  1.0652  0.7426 -1.2000
 4174SOL     OW23983   4.369   2.810   2.359 -0.3983 -0.1277 -0.1725
 4174SOL    HW123984   4.418   2.893   2.361 -1.1506  0.2722  2.7181
 4174SOL    HW223985   4.289   2.846   2.398  0.5812  1.5147  0.3422
 4175SOL     OW23986   1.932   2.009  10.144 -0.3149  0.9557  0.0833
 4175SOL    HW123987   1.875   2.081  10.173  0.4501  2.4056 -2.0460
 4175SOL    HW223988   1.948   2.037  10.054 -1.2062  0.2063 -0.3100
 4176SOL     OW23989   1.076   0.606   9.134  0.0895 -0.2959 -0.2231
 4176SOL    HW123990   1.004   0.608   9.197  0.3302  1.4785 -0.0006
 4176SOL    HW223991   1.049   0.527   9.086  0.9356  0.7137 -2.3692
 4177SOL     OW23992   2.805   2.145   9.486 -0.7475 -0.3345 -0.2119
 4177SOL    HW123993   2.837   2.232   9.462 -2.0872 -0.4659 -2.4813
 4177SOL    HW223994   2.856   2.136   9.566 -0.4944 -0.1421 -0.3518
 4178SOL     OW23995   0.285   0.335   1.957 -0.1617 -0.2569  0.4831
 4178SOL    HW123996   0.328   0.317   1.874 -0.1328 -3.1352  1.1364
 4178SOL    HW223997   0.201   0.292   1.942 -0.1839 -0.0434  0.0143
 4179SOL     OW23998   3.516   4.715   4.916 -0.8800  0.5278 -0.0118
 4179SOL    HW123999   3.563   4.645   4.961  0.1806 -0.8429 -3.1881
 4179SOL    HW224000   3.455   0.019   4.984 -0.0319  0.7872  0.6431
 4180SOL     OW24001   4.408   2.917   8.155  0.3751 -0.3741 -0.0305
 4180SOL    HW124002   4.329   2.965   8.179  0.4113 -0.5552  0.4563
 4180SOL    HW224003   4.391   2.906   8.062 -0.0993 -0.1074  0.0241
 4181SOL     OW24004   1.588   2.248   3.448 -0.2410  0.4438 -0.2246
 4181SOL    HW124005   1.519   2.215   3.505 -1.4551 -1.7534 -2.9170
 4181SOL    HW224006   1.613   2.172   3.395  1.4217  1.5390 -1.0127
 4182SOL     OW24007   2.023   0.546   5.732  0.0278  0.0974  0.0918
 4182SOL    HW124008   1.968   0.586   5.800  0.8343  0.9350  0.2556
 4182SOL    HW224009   1.949   0.534   5.672  0.9238 -2.3175 -0.5343
 4183SOL     OW24010   1.863   3.912   5.529 -0.3577  0.2916  0.4253
 4183SOL    HW124011   1.819   3.977   5.585 -0.1441 -0.4309  1.4229
 4183SOL    HW224012   1.801   3.909   5.456  0.0694  0.3557  0.0647
 4184SOL     OW24013   1.999   1.821   4.530  0.0707 -0.1310 -0.7570
 4184SOL    HW124014   2.037   1.733   4.525  0.8941  0.0283  3.0797
 4184SOL    HW224015   1.907   1.795   4.527 -0.3183  1.0924  0.8660
 4185SOL     OW24016   2.588   2.306   0.720 -0.2672  0.7952 -0.0061
 4185SOL    HW124017   2.602   2.328   0.812 -0.0487 -0.3117  0.2246
 4185SOL    HW224018   2.588   2.392   0.677 -0.9235  0.0639 -1.4617
 4186SOL     OW24019   1.108   2.447   6.946 -0.6184 -0.1866  0.1283
 4186SOL    HW124020   1.129   2.358   6.975  0.2704  0.9563  3.0138
 4186SOL    HW224021   1.016   2.453   6.970 -0.8479  0.1866 -0.8728
 4187SOL     OW24022   4.417   2.522   2.763  0.1486 -0.3326 -0.1688
 4187SOL    HW124023   4.338   2.551   2.808  1.2981  2.7255 -0.0961
 4187SOL    HW224024   4.431   2.604   2.716 -0.5896 -1.4433 -2.3394
 4188SOL     OW24025   1.348   0.967   5.430  0.1543 -0.1867  0.2724
 4188SOL    HW124026   1.260   1.004   5.432 -0.1817 -1.0107  0.7893
 4188SOL    HW224027   1.385   1.028   5.494  1.5019 -0.3893 -0.3173
 4189SOL     OW24028   0.385   3.877   6.710  0.3941 -0.1831  0.2046
 4189SOL    HW124029   0.441   3.953   6.692 -0.2657 -0.3758 -2.7276
 4189SOL    HW224030   0.353   3.857   6.622  1.8363 -0.1463 -0.3446
 4190SOL     OW24031   3.309   0.463  10.829 -0.5936  0.4632  0.1792
 4190SOL    HW124032   3.339   0.410  10.755  0.1569 -0.6869  1.2999
 4190SOL    HW224033   3.286   0.395  10.892 -0.2217 -2.0740 -2.4032
 4191SOL     OW24034   4.106   4.183   5.168 -0.2846  0.0782  0.2755
 4191SOL    HW124035   4.098   4.109   5.228  0.7573 -1.8034 -1.9341
 4191SOL    HW224036   4.027   4.226   5.202 -0.0967  2.5906 -2.4774
 4192SOL     OW24037   2.014   1.173   7.149 -0.5544  0.7518  0.6039
 4192SOL    HW124038   1.918   1.176   7.151 -0.4815  3.7117 -0.0582
 4192SOL    HW224039   2.026   1.116   7.073 -0.8119  0.8467  0.4916
 4193SOL     OW24040   1.604   1.103   3.814 -0.9489 -0.3532  0.0141
 4193SOL    HW124041   1.534   1.083   3.751  0.3896 -0.5270 -1.4208
 4193SOL    HW224042   1.663   1.027   3.810 -0.7402 -0.1738 -0.3181
 4194SOL     OW24043   3.679   0.830   3.636 -0.4135  0.2671 -0.8307
 4194SOL    HW124044   3.761   0.812   3.590 -0.0976 -1.0345  0.2671
 4194SOL    HW224045   3.655   0.770   3.706 -0.4416  1.4648  0.1953
 4195SOL     OW24046   1.929   3.301   8.782 -0.1969 -0.0382  0.0502
 4195SOL    HW124047   1.951   3.346   8.701  2.1696 -0.5158  0.4052
 4195SOL    HW224048   1.989   3.345   8.843 -1.0249 -0.7496  1.3781
 4196SOL     OW24049   0.760   2.473   4.607 -0.5650 -0.1535  0.1669
 4196SOL    HW124050   0.822   2.525   4.555 -1.2314  0.8676  0.4094
 4196SOL    HW224051   0.709   2.543   4.647 -0.0578 -0.5089  1.4095
 4197SOL     OW24052   0.050   3.505   5.090 -0.6355  0.4825 -0.0995
 4197SOL    HW124053   0.090   3.592   5.085 -2.4492  1.2537 -1.1157
 4197SOL    HW224054   0.120   3.469   5.036 -1.5617  1.3794 -1.9173
 4198SOL     OW24055   2.931   1.634  11.969  0.3210  0.7174  0.0117
 4198SOL    HW124056   2.940   1.571  11.898  1.6145  0.5106  0.3482
 4198SOL    HW224057   2.872   1.592  12.031  0.3299 -0.0993 -0.5351
 4199SOL     OW24058   4.613   3.646  14.132  0.2319 -0.0356 -0.2198
 4199SOL    HW124059   4.523   3.674  14.149  0.1511  0.1728 -0.9813
 4199SOL    HW224060   4.628   3.676  14.042 -1.2174 -1.7362 -1.0125
 4200SOL     OW24061   4.653   3.468   1.458 -0.3073  0.5024  0.3381
 4200SOL    HW124062   4.646   3.433   1.547 -0.6422  2.0046  0.9055
 4200SOL    HW224063   0.009   3.421   1.431 -0.9049 -0.1831 -0.1984
 4201SOL     OW24064   1.928   0.872   6.835  0.6117 -0.2329  0.0902
 4201SOL    HW124065   1.956   0.964   6.840 -0.2034 -0.0641  1.7308
 4201SOL    HW224066   1.978   0.839   6.909  1.3450  0.7654  0.0465
 4202SOL     OW24067   0.543   2.859   8.961 -0.0311  0.0243 -0.5000
 4202SOL    HW124068   0.522   2.878   8.869  2.6982 -1.6382 -1.4844
 4202SOL    HW224069   0.623   2.907   8.980 -1.0571  1.2059  0.8361
 4203SOL     OW24070   2.971   2.429   3.040 -0.0942  0.3541 -0.2364
 4203SOL    HW124071   3.054   2.468   3.012 -1.3392  2.6284 -0.7821
 4203SOL    HW224072   2.954   2.363   2.973  1.7116  0.1960 -0.5440
 4204SOL     OW24073   0.444   1.559   0.025  0.0829  0.2757 -0.0676
 4204SOL    HW124074   0.476   1.505   0.097 -0.0882  0.9374  0.5044
 4204SOL    HW224075   0.495   1.640   0.025 -2.3350  1.7870  2.3293
 4205SOL     OW24076   4.184   2.685   9.145  0.3014 -0.0683 -1.0726
 4205SOL    HW124077   4.104   2.643   9.178  0.0757  2.3854  1.4911
 4205SOL    HW224078   4.174   2.775   9.175  1.2831 -0.5289  0.6609
 4206SOL     OW24079   0.031   2.535   6.643 -0.5284 -1.2607 -0.4689
 4206SOL    HW124080   4.700   2.546   6.564  1.5101  0.9163 -1.5707
 4206SOL    HW224081   0.117   2.563   6.610  0.0729 -0.5164  1.7883
 4207SOL     OW24082   0.535   0.503   8.328  0.3242 -0.4028 -0.1577
 4207SOL    HW124083   0.592   0.574   8.299  1.0650 -0.3168  1.4920
 4207SOL    HW224084   0.449   0.536   8.300  0.0346 -0.4911  0.6363
 4208SOL     OW24085   0.144   0.088   5.084 -0.1858  0.6131 -0.8769
 4208SOL    HW124086   0.235   0.063   5.069 -0.2905  0.5664 -1.4331
 4208SOL    HW224087   0.103   0.033   5.017 -0.4623 -0.6697  0.3317
 4209SOL     OW24088   1.302   2.333   9.161  0.0670 -0.1518  0.0853
 4209SOL    HW124089   1.214   2.346   9.197  0.2079  0.1936  0.3051
 4209SOL    HW224090   1.293   2.406   9.100  1.5153 -0.5134 -0.5696
 4210SOL     OW24091   2.674   1.841   5.884 -0.6211  0.5156  0.6817
 4210SOL    HW124092   2.627   1.885   5.814  1.2938  1.9905  0.3163
 4210SOL    HW224093   2.738   1.791   5.832  0.9623  2.7802  0.4169
 4211SOL     OW24094   3.551   4.259   7.801 -0.2790  0.7298  0.1527
 4211SOL    HW124095   3.520   4.205   7.873  0.7762 -0.3818 -0.2311
 4211SOL    HW224096   3.533   4.204   7.725 -0.7325 -0.0976  0.8546
 4212SOL     OW24097   3.314   0.453  15.955  0.0151  0.2527 -0.5413
 4212SOL    HW124098   3.410   0.458  15.963 -0.0342  2.0969 -0.9975
 4212SOL    HW224099   3.296   0.362  15.974  0.9826 -0.0481 -1.0439
 4213SOL     OW24100   2.435   4.239   1.078 -0.0794 -0.7748 -0.2959
 4213SOL    HW124101   2.464   4.149   1.062 -0.4587 -1.2124  1.4885
 4213SOL    HW224102   2.422   4.263   0.986 -1.7074 -1.3650 -0.2164
 4214SOL     OW24103   2.108   3.138   5.359  0.2316  0.1752  0.1430
 4214SOL    HW124104   2.123   3.168   5.449  0.5395  0.3422  0.0372
 4214SOL    HW224105   2.165   3.201   5.315 -0.2863  1.7946  1.7884
 4215SOL     OW24106   1.649   2.455   8.637  0.1630 -0.1066 -0.4436
 4215SOL    HW124107   1.609   2.497   8.561 -1.2235 -1.0311 -0.2424
 4215SOL    HW224108   1.574   2.414   8.682  1.4069  0.0488  1.7657
 4216SOL     OW24109   3.263   0.279  10.646  0.0198 -0.6205 -0.0908
 4216SOL    HW124110   3.168   0.268  10.649  0.0972 -1.4484 -0.9392
 4216SOL    HW224111   3.289   0.296  10.555 -1.6295  0.7373 -0.3044
 4217SOL     OW24112   0.986   4.123   8.898 -0.5757 -0.2232 -0.3720
 4217SOL    HW124113   1.041   4.132   8.820 -3.0265 -3.3071 -2.4619
 4217SOL    HW224114   0.996   4.028   8.905  2.1552  0.0034 -1.0521
 4218SOL     OW24115   0.645   1.420   2.884  0.7159 -0.3503 -0.1329
 4218SOL    HW124116   0.577   1.471   2.928 -0.5272 -2.5137  0.4450
 4218SOL    HW224117   0.594   1.379   2.815  1.2880 -1.4097  0.0690
 4219SOL     OW24118   2.097   0.550  11.890 -0.2023 -0.3010  0.2505
 4219SOL    HW124119   2.085   0.536  11.984  1.7801 -0.0554  0.5372
 4219SOL    HW224120   2.060   0.465  11.865 -0.3675 -0.2254  0.2345
 4220SOL     OW24121   2.309   4.331   9.443  0.0768 -0.3424 -0.4972
 4220SOL    HW124122   2.307   4.327   9.539 -1.4138  2.0831 -0.4296
 4220SOL    HW224123   2.384   4.274   9.424  0.6384 -0.6327  2.5310
 4221SOL     OW24124   0.248   4.627   5.488 -0.4166  0.3356  0.1429
 4221SOL    HW124125   0.191   4.557   5.519  0.6243 -0.4968  0.1984
 4221SOL    HW224126   0.180   4.684   5.452 -1.5978 -2.2976 -1.7942
 4222SOL     OW24127   0.385   2.303   5.868 -0.8099  0.4039  0.1890
 4222SOL    HW124128   0.346   2.278   5.784  0.2459 -0.1218 -0.1403
 4222SOL    HW224129   0.474   2.277   5.846 -1.5083 -1.4154 -0.4971
 4223SOL     OW24130   3.287   2.712   3.500 -0.2917  0.1461 -0.4284
 4223SOL    HW124131   3.295   2.713   3.596 -0.2691  0.8391 -0.4350
 4223SOL    HW224132   3.199   2.746   3.480 -0.0915  0.2429 -1.1209
 4224SOL     OW24133   4.545   4.053   3.891 -0.2974 -0.0080  0.1114
 4224SOL    HW124134   4.577   3.964   3.896  1.8480  0.8254  0.9221
 4224SOL    HW224135   4.571   4.077   3.802 -0.4865 -0.4224 -0.0540
 4225SOL     OW24136   4.609   2.197   3.454 -0.1588  0.1793  0.0316
 4225SOL    HW124137   4.661   2.255   3.398 -0.3012  1.8735  1.6829
 4225SOL    HW224138   4.669   2.122   3.461 -0.7893 -0.1519  1.8016
 4226SOL     OW24139   0.139   4.427  14.918  0.0140 -0.2925 -0.4753
 4226SOL    HW124140   0.093   4.343  14.929  1.4812 -1.1573 -0.9543
 4226SOL    HW224141   0.223   4.383  14.905 -0.1233 -0.4751 -0.7401
 4227SOL     OW24142   0.457   3.259   9.649  0.0151  0.0635 -0.1945
 4227SOL    HW124143   0.545   3.296   9.654 -0.2944  0.8721 -0.7328
 4227SOL    HW224144   0.473   3.168   9.675 -0.2223 -0.2803 -1.2761
 4228SOL     OW24145   1.778   0.789  10.573 -0.0334 -0.2417  0.3921
 4228SOL    HW124146   1.791   0.695  10.588  1.5572  0.2184  1.9196
 4228SOL    HW224147   1.799   0.824  10.659 -0.5229  0.3113  0.2865
 4229SOL     OW24148   3.500   1.586   7.478 -0.6515 -0.0185 -0.3012
 4229SOL    HW124149   3.463   1.669   7.508 -2.8218 -0.4035 -1.9219
 4229SOL    HW224150   3.427   1.524   7.473 -1.2622  0.5262  1.6144
 4230SOL     OW24151   3.471   1.814  16.786  0.5342 -0.2357  0.2451
 4230SOL    HW124152   3.462   1.737  16.730  0.4932 -1.7936  2.3698
 4230SOL    HW224153   3.411   1.788  16.856 -1.3972 -0.6707 -1.5789
 4231SOL     OW24154   2.682   1.636   4.137 -0.2678  0.9795  0.3084
 4231SOL    HW124155   2.701   1.695   4.063  0.1693  0.7311  0.2199
 4231SOL    HW224156   2.619   1.690   4.184 -0.6079  2.0296 -1.3664
 4232SOL     OW24157   1.116   1.724   5.881  0.1963  0.4715 -0.6349
 4232SOL    HW124158   1.044   1.670   5.847  1.1139 -1.2343  0.1669
 4232SOL    HW224159   1.074   1.808   5.897 -1.9107 -0.5990 -0.4963
 4233SOL     OW24160   2.384   2.531   4.524  0.1905  0.7729  0.0886
 4233SOL    HW124161   2.374   2.450   4.575  0.4804 -0.3110 -1.5929
 4233SOL    HW224162   2.463   2.520   4.472 -0.7110 -0.2922 -1.0583
 4234SOL     OW24163   0.656   1.236   4.284 -0.4029  0.5653  0.5806
 4234SOL    HW124164   0.563   1.221   4.300 -0.8705  1.8702 -0.9203
 4234SOL    HW224165   0.665   1.219   4.190  1.1486  0.4330  0.7533
 4235SOL     OW24166   1.007   0.118   7.611  0.2068 -0.0007  0.6140
 4235SOL    HW124167   0.912   0.127   7.626  0.1139  1.9605 -1.0290
 4235SOL    HW224168   1.027   0.025   7.621 -2.6528 -0.5487  1.3062
 4236SOL     OW24169   0.923   1.599   7.406  0.2576  0.0746 -0.0340
 4236SOL    HW124170   0.943   1.621   7.497  2.8611 -0.4003 -0.4979
 4236SOL    HW224171   1.006   1.610   7.359 -0.2726 -0.7728 -1.1681
 4237SOL     OW24172   4.116   0.608   3.393  0.1196 -0.2780 -0.0617
 4237SOL    HW124173   4.140   0.595   3.301 -0.5672  0.2331 -0.3134
 4237SOL    HW224174   4.203   0.621   3.431 -0.7903  1.4237  1.4385
 4238SOL     OW24175   2.871   3.923   3.086 -0.0302  0.8259 -0.2824
 4238SOL    HW124176   2.788   3.958   3.053 -0.4598 -0.6669 -0.7978
 4238SOL    HW224177   2.930   3.973   3.030  1.8749  0.8411  1.7493
 4239SOL     OW24178   4.437   3.833  16.331  0.4453 -0.3220 -0.2950
 4239SOL    HW124179   4.479   3.912  16.298  0.6357 -0.1590  0.3398
 4239SOL    HW224180   4.433   3.844  16.426 -2.9362  0.0689 -0.4588
 4240SOL     OW24181   0.964   1.197   4.874  0.1530 -0.0968 -0.4520
 4240SOL    HW124182   0.882   1.147   4.876  0.3921 -0.5053 -0.8086
 4240SOL    HW224183   0.940   1.269   4.933  0.2396  1.7780 -2.7180
 4241SOL     OW24184   3.203   0.959   6.670 -0.2860  0.1720  0.4852
 4241SOL    HW124185   3.238   0.925   6.588  0.0733  1.0692  0.2691
 4241SOL    HW224186   3.280   0.999   6.709  1.1724 -0.6267 -1.5819
 4242SOL     OW24187   2.761   2.259  11.406 -0.3064 -0.2395 -0.5755
 4242SOL    HW124188   2.770   2.181  11.351 -0.6156 -0.4155 -0.3779
 4242SOL    HW224189   2.775   2.331  11.345  0.7448 -1.3185 -1.5859
 4243SOL     OW24190   3.027   2.511   1.969  0.3054 -0.1494  0.3386
 4243SOL    HW124191   3.032   2.435   1.911  1.2464  0.7970 -0.8219
 4243SOL    HW224192   3.015   2.574   1.898 -1.1002  0.4350  1.1087
 4244SOL     OW24193   2.918   3.085  16.073 -0.1948  0.1748  0.1063
 4244SOL    HW124194   2.899   3.011  16.016 -2.3919  1.3709 -0.6949
 4244SOL    HW224195   2.997   3.104  16.022  0.8440  2.3748  2.5432
 4245SOL     OW24196   0.865   4.317   2.120 -0.3803  0.1167 -0.2539
 4245SOL    HW124197   0.949   4.292   2.158  0.4579 -0.2254 -2.2865
 4245SOL    HW224198   0.896   4.352   2.036  0.9037 -0.8263 -0.1814
 4246SOL     OW24199   4.713   3.234   2.736 -0.2056  0.5884 -0.3806
 4246SOL    HW124200   4.707   3.181   2.657 -0.2330 -0.5876  0.4147
 4246SOL    HW224201   4.634   3.207   2.783  2.8576  0.0023  4.4920
 4247SOL     OW24202   3.253   3.470  15.048  0.0856  0.1935 -0.0759
 4247SOL    HW124203   3.308   3.457  15.125  0.0559 -0.1044 -0.1040
 4247SOL    HW224204   3.164   3.464  15.084  0.8155 -2.8558  1.2435
 4248SOL     OW24205   3.948   4.176   0.755  0.5512 -0.5120  0.1666
 4248SOL    HW124206   4.030   4.150   0.796  0.6776 -1.3042 -0.5715
 4248SOL    HW224207   3.914   4.091   0.726 -1.0034  1.2233 -3.2129
 4249SOL     OW24208   1.450   0.396   4.363 -0.0712  0.2872  0.1955
 4249SOL    HW124209   1.359   0.393   4.393 -0.2090 -1.6894 -0.4587
 4249SOL    HW224210   1.476   0.469   4.420 -0.8225  0.9598 -0.3174
 4250SOL     OW24211   4.332   0.065   7.272  0.1797 -0.3129  0.3595
 4250SOL    HW124212   4.377   0.059   7.187 -1.3511 -0.6734 -0.4222
 4250SOL    HW224213   4.402   0.056   7.337 -1.2141  0.0716  1.9020
 4251SOL     OW24214   2.205   1.117   5.292 -0.4590 -0.0098 -0.2001
 4251SOL    HW124215   2.258   1.191   5.262  1.0763  0.0027  2.5149
 4251SOL    HW224216   2.269   1.071   5.347  0.1693 -0.3808 -1.2401
 4252SOL     OW24217   3.283   0.110  11.867  0.1272  0.2323 -0.1292
 4252SOL    HW124218   3.212   0.165  11.834  0.3426  0.2961 -0.4924
 4252SOL    HW224219   3.322   0.169  11.931  2.0406 -0.8232 -0.3257
 4253SOL     OW24220   1.026   2.350   9.228  0.4236  0.3201  0.0323
 4253SOL    HW124221   0.952   2.291   9.244  1.3902 -0.9782 -0.2519
 4253SOL    HW224222   0.982   2.431   9.253 -0.7650 -1.1572  2.7686
 4254SOL     OW24223   0.876   2.339   5.947  0.1198 -0.4087 -0.6444
 4254SOL    HW124224   0.825   2.264   5.975 -0.8023 -0.1362 -1.5949
 4254SOL    HW224225   0.932   2.311   5.874  0.0528 -2.0181 -0.0606
 4255SOL     OW24226   4.605   3.063   3.815  0.3730 -0.0103 -0.4413
 4255SOL    HW124227   4.681   3.116   3.793  0.1335  0.9366  1.0319
 4255SOL    HW224228   4.539   3.090   3.751  1.5898  2.4953 -0.6437
 4256SOL     OW24229   0.422   1.827  17.598  0.1757 -0.3516  0.2592
 4256SOL    HW124230   0.378   1.900  17.642 -0.4632 -0.5049 -0.1388
 4256SOL    HW224231   0.490   1.820  17.666 -0.0291 -0.5200  0.4471
 4257SOL     OW24232   2.012   2.041   8.327  0.2861  0.0220  0.8475
 4257SOL    HW124233   2.087   2.023   8.272 -0.3251 -1.8593  0.6324
 4257SOL    HW224234   2.054   2.083   8.402 -0.2202 -2.5886  2.6296
 4258SOL     OW24235   4.312   2.299  14.955  0.6551 -0.4664 -0.4800
 4258SOL    HW124236   4.334   2.266  14.868 -1.2833 -0.8425 -0.8422
 4258SOL    HW224237   4.392   2.337  14.990  0.0442 -0.8587  1.3416
 4259SOL     OW24238   2.600   4.218   6.109 -0.5148 -0.1572 -0.9941
 4259SOL    HW124239   2.678   4.252   6.155 -0.7904 -0.1043 -0.5659
 4259SOL    HW224240   2.650   4.182   6.036 -0.5616  0.4625 -1.3338
 4260SOL     OW24241   2.090   4.328  11.663  0.1360 -0.0935 -0.6643
 4260SOL    HW124242   2.086   4.423  11.650  0.4213  0.1175  0.7638
 4260SOL    HW224243   2.009   4.314  11.712  1.8272  0.4596  2.2665
 4261SOL     OW24244   2.219   0.875  11.630 -0.1925  0.2853 -0.5044
 4261SOL    HW124245   2.202   0.964  11.601 -1.4417 -0.1270 -1.0192
 4261SOL    HW224246   2.230   0.891  11.724 -0.3102 -1.9222 -0.1219
 4262SOL     OW24247   1.070   2.593   2.393 -0.1715  0.1694  0.5020
 4262SOL    HW124248   1.063   2.577   2.299  0.8281 -1.2999  0.6736
 4262SOL    HW224249   1.082   2.688   2.385 -1.3033  0.1712 -1.0537
 4263SOL     OW24250   1.819   3.534   1.714  0.5268 -0.5925  0.1346
 4263SOL    HW124251   1.791   3.508   1.801 -1.6488 -1.0997 -0.7293
 4263SOL    HW224252   1.758   3.606   1.702  1.4303  0.0841 -0.3674
 4264SOL     OW24253   3.684   0.513   7.573  0.2422 -0.3223 -0.3708
 4264SOL    HW124254   3.662   0.597   7.533  0.3482 -1.0878 -2.0613
 4264SOL    HW224255   3.662   0.523   7.665  1.2768 -1.8652  0.0542
 4265SOL     OW24256   2.688   0.781   2.983 -0.0542 -0.1046  0.6085
 4265SOL    HW124257   2.607   0.763   2.934 -0.1420  1.4310  0.1788
 4265SOL    HW224258   2.702   0.859   2.929  1.8069 -1.5282 -0.9430
 4266SOL     OW24259   0.356   3.179   8.502 -0.6195  0.0597  0.2956
 4266SOL    HW124260   0.418   3.124   8.454 -2.5011  0.2090 -2.3205
 4266SOL    HW224261   0.305   3.120   8.558 -0.4798 -0.4795 -0.1553
 4267SOL     OW24262   1.349   3.392   1.574  0.2139 -0.7057 -0.7000
 4267SOL    HW124263   1.354   3.306   1.617 -1.7367 -0.4818 -0.0403
 4267SOL    HW224264   1.374   3.356   1.489 -1.4906  0.9171 -1.8837
 4268SOL     OW24265   2.678   4.186  15.015 -0.5134  0.5146  0.0768
 4268SOL    HW124266   2.721   4.102  15.003  0.7842  1.2327 -0.2569
 4268SOL    HW224267   2.679   4.215  14.924  0.5585  0.3474  0.0426
 4269SOL     OW24268   3.967   3.673   4.477 -0.3887 -0.7232  0.2403
 4269SOL    HW124269   3.897   3.726   4.437 -0.1539 -0.2243  0.4940
 4269SOL    HW224270   3.926   3.587   4.483 -0.1257 -0.8893 -0.3040
 4270SOL     OW24271   3.862   1.267  17.219 -0.4584 -1.0757 -0.1250
 4270SOL    HW124272   3.821   1.341  17.176  0.6966 -1.0932 -1.2467
 4270SOL    HW224273   3.800   1.257  17.291  1.0594  2.3419  1.6513
 4271SOL     OW24274   4.013   2.613   3.289 -0.0637 -0.3214  0.0866
 4271SOL    HW124275   3.928   2.614   3.334  1.4371 -1.7709  2.9689
 4271SOL    HW224276   4.073   2.628   3.362  0.1478 -0.1406 -0.1260
 4272SOL     OW24277   0.833   2.811   7.314 -0.4379  0.2141  0.0525
 4272SOL    HW124278   0.909   2.757   7.335  0.9328  2.5867  1.2084
 4272SOL    HW224279   0.869   2.895   7.288  1.3706 -0.0006  1.8613
 4273SOL     OW24280   4.131   0.399   3.653 -0.4938 -0.3249 -0.0756
 4273SOL    HW124281   4.211   0.436   3.616 -0.2541  0.3067  1.0717
 4273SOL    HW224282   4.061   0.465   3.652 -0.4431 -0.3091 -2.4040
 4274SOL     OW24283   3.023   0.748   2.570 -0.7161 -0.4727  0.0333
 4274SOL    HW124284   2.928   0.745   2.559 -0.7593 -2.6164  0.9298
 4274SOL    HW224285   3.050   0.816   2.508  0.2570 -0.2615  0.6950
 4275SOL     OW24286   2.929   1.547   8.926  0.4984 -1.2349 -0.0363
 4275SOL    HW124287   2.999   1.497   8.968  1.3910 -0.3802 -0.5256
 4275SOL    HW224288   2.972   1.582   8.849 -1.3670 -0.3716 -0.6857
 4276SOL     OW24289   3.893   1.071   3.110  0.4200 -0.1020 -0.4604
 4276SOL    HW124290   3.890   1.121   3.192  0.1679 -0.6651 -0.1305
 4276SOL    HW224291   3.903   1.140   3.044  0.3234 -0.2797 -0.6571
 4277SOL     OW24292   3.460   2.604  12.335  0.3483 -0.5672 -0.3480
 4277SOL    HW124293   3.441   2.516  12.305 -0.3151 -1.1372  1.7301
 4277SOL    HW224294   3.529   2.578  12.396 -0.5654 -0.9711  0.4968
 4278SOL     OW24295   4.578   4.124   7.358  0.0527 -0.1610  0.1025
 4278SOL    HW124296   4.522   4.124   7.436  1.2353  0.0624  0.9536
 4278SOL    HW224297   4.568   4.031   7.341  1.5332 -1.1310  4.4575
 4279SOL     OW24298   2.207   3.549   5.912  0.6096  0.7280 -0.3551
 4279SOL    HW124299   2.213   3.603   5.833 -1.0819 -0.2948 -1.1782
 4279SOL    HW224300   2.113   3.529   5.907  0.8236 -0.5237  0.5586
 4280SOL     OW24301   2.711   2.365   3.977 -0.3015  0.1236  0.1709
 4280SOL    HW124302   2.646   2.363   3.907  1.3077  4.4718 -1.4307
 4280SOL    HW224303   2.667   2.419   4.043 -1.3886 -0.1062 -0.3680
 4281SOL     OW24304   1.738   3.155   3.358  0.4345 -0.3338  0.2292
 4281SOL    HW124305   1.802   3.210   3.313  0.4942 -0.7137 -0.1464
 4281SOL    HW224306   1.702   3.215   3.424  0.4344 -0.5551  0.4308
 4282SOL     OW24307   4.620   3.097  14.027 -0.3768  0.0444 -0.2473
 4282SOL    HW124308   4.712   3.085  14.004 -0.1514 -1.3539  1.4142
 4282SOL    HW224309   4.599   3.188  14.005 -0.8759  0.0939  0.4148
 4283SOL     OW24310   3.664   2.980   2.140 -0.1710 -0.0838 -0.6267
 4283SOL    HW124311   3.712   2.897   2.148  0.8709  0.5017 -0.8430
 4283SOL    HW224312   3.730   3.049   2.135  0.4029 -0.7071 -1.5173
 4284SOL     OW24313   0.698   1.005  14.608 -0.7774  0.3424  0.1924
 4284SOL    HW124314   0.772   0.970  14.559 -0.3782  0.6209  0.5946
 4284SOL    HW224315   0.726   1.095  14.594 -2.7925  1.1004  1.0675
 4285SOL     OW24316   1.792   4.226   2.549 -0.3055 -0.0392 -0.1123
 4285SOL    HW124317   1.849   4.152   2.569  0.2510  0.3038 -0.4293
 4285SOL    HW224318   1.851   4.301   2.551  0.9089 -0.9611 -1.0446
 4286SOL     OW24319   3.423   1.343   4.665  0.7509 -0.1546  0.7227
 4286SOL    HW124320   3.355   1.390   4.617  1.2525 -0.1772  0.0023
 4286SOL    HW224321   3.467   1.303   4.591  2.0680 -1.3006  2.1318
 4287SOL     OW24322   3.383   4.593   5.368 -0.3852 -0.2588 -0.6998
 4287SOL    HW124323   3.343   4.653   5.431 -0.3587 -0.4702 -0.4815
 4287SOL    HW224324   3.308   4.606   5.311 -0.2486  3.2396 -0.0773
 4288SOL     OW24325   3.720   1.110  14.059 -0.3153 -0.1186  0.5413
 4288SOL    HW124326   3.653   1.059  14.014  0.3946 -1.7135  1.3053
 4288SOL    HW224327   3.704   1.200  14.030 -2.3843 -0.1672  1.5411
 4289SOL     OW24328   1.491   0.833   8.454  0.2066 -0.1502  0.1330
 4289SOL    HW124329   1.442   0.824   8.535 -0.2176  1.2479  0.0384
 4289SOL    HW224330   1.457   0.916   8.418  0.8181 -0.5740 -1.4489
 4290SOL     OW24331   3.230   1.352   9.965  0.6983 -0.6189  0.2213
 4290SOL    HW124332   3.272   1.354  10.051  1.3760  0.2626 -0.1263
 4290SOL    HW224333   3.286   1.283   9.927  1.2789  0.3617 -0.7080
 4291SOL     OW24334   0.299   4.133   7.129 -0.2708  0.1643 -0.7593
 4291SOL    HW124335   0.236   4.145   7.057 -1.8025 -0.2273  0.5034
 4291SOL    HW224336   0.254   4.068   7.183 -0.5124  3.3799  2.8827
 4292SOL     OW24337   0.330   4.289   7.479 -0.5005  0.1666 -0.1261
 4292SOL    HW124338   0.324   4.235   7.558  0.0686  2.0599  1.2312
 4292SOL    HW224339   0.355   4.235   7.404 -0.6441  0.0870 -0.1174
 4293SOL     OW24340   4.551   1.192   7.071 -0.0352  0.2233  0.3795
 4293SOL    HW124341   4.463   1.228   7.081 -0.1460  0.5659 -1.9384
 4293SOL    HW224342   4.533   1.127   7.003  1.2192 -0.2530  0.5054
 4294SOL     OW24343   0.587   1.885   6.126 -0.4903 -0.1630  0.3734
 4294SOL    HW124344   0.533   1.881   6.204 -1.5199  1.6791 -0.2464
 4294SOL    HW224345   0.664   1.839   6.160  0.4482  0.9270 -0.2526
 4295SOL     OW24346   1.056   0.117   6.437 -0.3022 -0.2350  0.2932
 4295SOL    HW124347   1.050   0.026   6.468  0.8785 -0.4189 -0.0282
 4295SOL    HW224348   0.968   0.139   6.469 -1.8201 -1.0594 -3.1948
 4296SOL     OW24349   3.782   2.900   6.104 -0.2828  0.3191  0.0873
 4296SOL    HW124350   3.826   2.917   6.188 -1.7555 -0.3127  0.9838
 4296SOL    HW224351   3.734   2.983   6.100  0.2746  0.7822  3.1200
 4297SOL     OW24352   0.581   4.588   2.827 -0.2186  0.0469  0.2207
 4297SOL    HW124353   0.671   4.570   2.853 -0.2171  2.6796  2.0147
 4297SOL    HW224354   0.541   4.601   2.913 -0.5432  1.6591 -0.1746
 4298SOL     OW24355   2.227   2.934  10.167  0.1415  0.2981  0.0025
 4298SOL    HW124356   2.146   2.984  10.176  0.5033  0.6909  1.0964
 4298SOL    HW224357   2.256   2.977  10.087  0.6525 -0.8086 -0.4006
 4299SOL     OW24358   1.506   4.686   3.275  0.3360  0.0125  0.4228
 4299SOL    HW124359   1.440   4.723   3.217  0.3120  1.4705  1.3574
 4299SOL    HW224360   1.460   4.606   3.299 -1.0160 -0.0536 -2.4453
 4300SOL     OW24361   0.604   0.649  12.541 -0.2128  0.1485 -0.0891
 4300SOL    HW124362   0.542   0.627  12.471  0.8360  0.3203 -1.0773
 4300SOL    HW224363   0.616   0.741  12.518 -2.8003  1.2210  2.8113
 4301SOL     OW24364   1.352   3.702   4.731 -0.3644 -0.2424 -0.3724
 4301SOL    HW124365   1.338   3.650   4.810 -1.1354  3.5887  1.9742
 4301SOL    HW224366   1.415   3.645   4.687 -0.9317 -1.2785  0.1593
 4302SOL     OW24367   3.211   2.932  10.039  0.1572 -0.0959  0.1493
 4302SOL    HW124368   3.264   2.882   9.976 -0.9385 -0.0243 -0.8155
 4302SOL    HW224369   3.234   2.892  10.124  0.3584  1.4029  0.7990
 4303SOL     OW24370   0.496   2.030  10.151  0.2762 -0.0233 -0.7357
 4303SOL    HW124371   0.426   1.965  10.147  0.0710  0.1187  0.6357
 4303SOL    HW224372   0.517   2.028  10.244  0.3681  1.5603 -0.7239
 4304SOL     OW24373   3.953   3.850   5.105 -0.2205 -0.5159 -0.3752
 4304SOL    HW124374   3.881   3.885   5.158  0.1037 -0.6555  0.1565
 4304SOL    HW224375   3.923   3.850   5.014 -0.3006  0.8449 -0.3428
 4305SOL     OW24376   4.462   0.215   7.989 -0.9871 -0.5843 -0.3318
 4305SOL    HW124377   4.472   0.303   8.025 -1.4421 -0.0473 -1.5076
 4305SOL    HW224378   4.549   0.177   7.982 -1.0901 -1.3062  2.3492
 4306SOL     OW24379   4.493   0.276  10.120  0.0934 -0.4997 -0.3345
 4306SOL    HW124380   4.485   0.236  10.034  2.4168 -0.9212 -0.3544
 4306SOL    HW224381   4.433   0.230  10.179  0.2677 -1.8570 -1.2299
 4307SOL     OW24382   2.544   4.162   3.542 -0.1989 -0.4132 -0.5160
 4307SOL    HW124383   2.577   4.147   3.630 -1.8541 -0.9389  0.0091
 4307SOL    HW224384   2.500   4.079   3.526 -0.2681 -0.1131 -1.8664
 4308SOL     OW24385   0.088   0.661  10.581 -0.1702 -0.0294  0.9065
 4308SOL    HW124386   4.715   0.664  10.577 -0.1231  1.4461  0.8372
 4308SOL    HW224387   0.102   0.756  10.589 -0.5742  0.0759  0.3676
 4309SOL     OW24388   1.565   0.431   8.564 -0.3753 -0.7378 -0.2193
 4309SOL    HW124389   1.552   0.358   8.504  0.8031 -0.0247 -1.3477
 4309SOL    HW224390   1.636   0.470   8.513 -1.3608  0.2253 -0.8306
 4310SOL     OW24391   3.088   1.397  10.255 -0.2774 -0.4133  0.0952
 4310SOL    HW124392   3.175   1.356  10.248  1.4267  3.0915  1.1219
 4310SOL    HW224393   3.097   1.480  10.209  0.5382 -0.8055 -0.4448
 4311SOL     OW24394   1.921   0.748  11.440  0.3891 -0.1325 -0.1266
 4311SOL    HW124395   1.938   0.786  11.526  3.3562 -2.7772  0.4666
 4311SOL    HW224396   1.873   0.817  11.394 -0.1686 -1.0371 -0.8952
 4312SOL     OW24397   1.006   4.394   9.509  0.5997 -0.1034 -0.0120
 4312SOL    HW124398   0.935   4.438   9.556  1.0077 -0.1918  0.6829
 4312SOL    HW224399   0.952   4.383   9.430  0.7517 -1.1949  0.0454
 4313SOL     OW24400   3.080   3.124   4.981 -0.3319 -0.2515  0.0784
 4313SOL    HW124401   3.019   3.087   4.917 -0.1069  1.6179 -1.2224
 4313SOL    HW224402   3.023   3.180   5.034  0.3930  0.7619 -0.2195
 4314SOL     OW24403   2.355   0.534   8.504  0.4856 -0.0819  0.6748
 4314SOL    HW124404   2.278   0.555   8.557  0.0897 -2.9525  1.2057
 4314SOL    HW224405   2.378   0.448   8.538 -0.7870 -0.2793  1.0186
 4315SOL     OW24406   3.835   1.765  17.132 -0.6327  0.0833  0.1306
 4315SOL    HW124407   3.870   1.777  17.220 -3.3225 -0.8073  1.3322
 4315SOL    HW224408   3.754   1.817  17.124 -0.9184 -0.3173  0.3972
 4316SOL     OW24409   0.836   4.044  16.984 -0.6170 -0.1821 -0.0357
 4316SOL    HW124410   0.787   4.039  16.902 -0.6844 -1.2618  0.0770
 4316SOL    HW224411   0.822   4.136  17.007  1.2015 -0.1782  1.0003
 4317SOL     OW24412   1.149   2.751   6.014 -0.1456 -0.3418  0.3365
 4317SOL    HW124413   1.228   2.721   5.970  0.6187 -1.5404  2.4830
 4317SOL    HW224414   1.139   2.829   5.961 -0.3927  0.0332  0.9362
 4318SOL     OW24415   3.771   0.235   9.718 -0.1128  0.1024 -0.2926
 4318SOL    HW124416   3.686   0.271   9.691 -0.0485 -1.3897 -2.4250
 4318SOL    HW224417   3.739   0.153   9.757 -1.0035 -0.0748 -1.4045
 4319SOL     OW24418   0.189   3.751   1.683  0.1053 -0.8102  0.4509
 4319SOL    HW124419   0.239   3.752   1.764 -0.8432  1.8412  1.0044
 4319SOL    HW224420   0.231   3.684   1.630  1.5394 -0.8108  1.5882
 4320SOL     OW24421   2.649   3.194   6.027  0.5699  0.2241 -0.4370
 4320SOL    HW124422   2.583   3.222   5.964 -0.3019  2.9365  1.6713
 4320SOL    HW224423   2.670   3.278   6.068 -0.4167  1.2691 -2.1023
 4321SOL     OW24424   2.411   4.491  12.183 -0.2019 -0.6210  0.2466
 4321SOL    HW124425   2.417   4.573  12.134 -2.4918 -0.4707  0.2251
 4321SOL    HW224426   2.491   4.493  12.236 -0.0124  1.4027 -0.1001
 4322SOL     OW24427   3.589   2.058   2.162 -0.3535 -0.3738  0.3199
 4322SOL    HW124428   3.673   2.099   2.143 -0.3805 -0.9338 -1.0143
 4322SOL    HW224429   3.550   2.059   2.075 -1.9040  1.9755  1.0413
 4323SOL     OW24430   3.900   3.216  12.131 -1.1127  0.5850 -0.2493
 4323SOL    HW124431   3.805   3.227  12.131 -1.1486  0.2711 -0.0950
 4323SOL    HW224432   3.928   3.272  12.058 -1.7860  2.5421  1.0099
 4324SOL     OW24433   3.377   3.390   4.496  0.2953  0.1292  0.5503
 4324SOL    HW124434   3.298   3.370   4.445  0.0831  0.4871  0.7434
 4324SOL    HW224435   3.398   3.482   4.486 -2.3438  0.5900 -0.8126
 4325SOL     OW24436   3.489   4.485   8.346 -0.4163  0.3900  0.4611
 4325SOL    HW124437   3.404   4.520   8.372  0.0580  0.5864  1.7166
 4325SOL    HW224438   3.557   4.546   8.376 -2.2724  0.2306  4.9722
 4326SOL     OW24439   1.371   1.127   7.554 -0.1038  0.0510  0.0614
 4326SOL    HW124440   1.364   1.117   7.649  2.8060 -1.4840  0.1023
 4326SOL    HW224441   1.295   1.074   7.531  0.0563 -0.3001  0.3515
 4327SOL     OW24442   1.237   3.634  14.938 -0.1888  0.2827  0.0134
 4327SOL    HW124443   1.239   3.722  14.901  0.2565  0.2274 -0.0995
 4327SOL    HW224444   1.186   3.658  15.015 -0.4820 -0.0877 -0.0641
 4328SOL     OW24445   2.033   2.337   3.891 -0.4891 -0.2559  0.3236
 4328SOL    HW124446   2.020   2.420   3.846  0.1680  0.9751  2.3956
 4328SOL    HW224447   1.947   2.297   3.906 -0.3073  0.2940  2.9343
 4329SOL     OW24448   0.626   3.975  14.907 -0.4130 -0.5519  0.3117
 4329SOL    HW124449   0.592   4.064  14.897 -1.8442 -1.0563  0.6973
 4329SOL    HW224450   0.721   3.990  14.909 -0.4122 -0.7949  2.1750
 4330SOL     OW24451   3.219   3.168   3.324 -0.1192  0.6445  0.2128
 4330SOL    HW124452   3.304   3.124   3.331 -0.8886 -0.3294  3.2520
 4330SOL    HW224453   3.236   3.218   3.244 -1.4781 -0.1615 -0.5811
 4331SOL     OW24454   0.252   1.022   1.616  0.4443  0.1139 -0.1754
 4331SOL    HW124455   0.201   1.103   1.611 -2.2494 -1.5249  0.2724
 4331SOL    HW224456   0.301   1.034   1.535  1.7245  2.8202  1.0255
 4332SOL     OW24457   4.618   3.844   7.345  0.1525  0.1339 -0.2318
 4332SOL    HW124458   4.569   3.807   7.272 -1.5014  2.8906 -0.5165
 4332SOL    HW224459   4.614   3.767   7.402 -0.3641 -0.7371 -1.4313
 4333SOL     OW24460   0.230   3.618   3.827  0.5501 -0.1983 -0.5848
 4333SOL    HW124461   0.279   3.655   3.901  0.2886  0.5525 -0.7891
 4333SOL    HW224462   0.256   3.665   3.748  1.4352 -0.1496 -0.2691
 4334SOL     OW24463   1.480   0.734  16.588 -0.3224  0.2722  0.1523
 4334SOL    HW124464   1.540   0.807  16.603  0.4388 -0.1106 -1.0077
 4334SOL    HW224465   1.541   0.661  16.600  0.2278  0.2245 -3.0191
 4335SOL     OW24466   0.124   0.169   7.423  0.1857 -0.1370  0.3360
 4335SOL    HW124467   0.079   0.123   7.353  1.6664  0.6769 -1.1586
 4335SOL    HW224468   0.099   0.259   7.400  3.4232  0.7655  0.2945
 4336SOL     OW24469   3.470   1.007   8.235 -0.4727 -0.0146 -0.3327
 4336SOL    HW124470   3.561   1.028   8.258 -0.0346 -2.9294  0.5742
 4336SOL    HW224471   3.430   1.094   8.238  2.3739  1.3310 -2.5505
 4337SOL     OW24472   1.440   3.763  16.192  0.5943  0.1556 -0.0401
 4337SOL    HW124473   1.488   3.837  16.152 -0.9457  0.8779 -0.5499
 4337SOL    HW224474   1.366   3.815  16.225 -1.2811 -1.3430 -1.9101
 4338SOL     OW24475   2.005   2.185   7.401 -0.0574 -0.0191 -0.0580
 4338SOL    HW124476   1.984   2.153   7.488 -1.7554  0.0132 -0.4617
 4338SOL    HW224477   2.008   2.279   7.418  0.7006  0.0564 -0.6114
 4339SOL     OW24478   0.184   0.355   5.883 -0.2922  0.0760 -0.3283
 4339SOL    HW124479   0.278   0.371   5.869 -0.0147  0.7724  2.2581
 4339SOL    HW224480   0.182   0.268   5.924 -0.7395 -0.6994 -2.0047
 4340SOL     OW24481   1.073   4.530   5.263  0.0227  0.1207 -0.1923
 4340SOL    HW124482   0.995   4.542   5.209 -0.6006  1.8099  1.0982
 4340SOL    HW224483   1.052   4.537   5.356  1.2131 -1.4571  0.2091
 4341SOL     OW24484   0.306   3.947   2.567  0.3393  0.5547 -0.3301
 4341SOL    HW124485   0.325   3.853   2.571 -0.8658  0.4328  2.4370
 4341SOL    HW224486   0.300   3.959   2.473 -0.7767  3.5832  0.1267
 4342SOL     OW24487   2.611   0.941   5.229  0.0368  0.6511 -0.3403
 4342SOL    HW124488   2.567   1.002   5.170  1.9128  3.4760  1.1546
 4342SOL    HW224489   2.700   0.941   5.195 -0.9105  0.3349 -2.7805
 4343SOL     OW24490   0.467   0.511   4.082  0.2196 -0.2023  0.1769
 4343SOL    HW124491   0.482   0.494   3.990 -1.2311 -1.1506  0.1102
 4343SOL    HW224492   0.413   0.438   4.113  0.7643 -0.8341 -0.3844
 4344SOL     OW24493   0.267   0.478  12.548  0.2059  0.0071  0.6423
 4344SOL    HW124494   0.310   0.397  12.520  1.1926  0.7060  0.1309
 4344SOL    HW224495   0.212   0.446  12.619 -0.3883 -0.7254 -0.1483
 4345SOL     OW24496   2.269   1.328  10.159  0.1760 -0.1148  0.5709
 4345SOL    HW124497   2.312   1.277  10.228 -1.9228  0.3377  2.2277
 4345SOL    HW224498   2.179   1.313  10.191 -0.3340  0.7950 -0.4319
 4346SOL     OW24499   0.099   2.255  14.745 -0.4816  0.5412  0.4555
 4346SOL    HW124500   0.188   2.265  14.781 -0.6221 -0.0496  0.9712
 4346SOL    HW224501   0.070   2.167  14.767 -0.5594  0.3181 -0.5527
 4347SOL     OW24502   4.472   4.339   3.539  0.1123 -0.2700 -0.0103
 4347SOL    HW124503   4.493   4.312   3.450 -0.4400  0.0027 -0.2176
 4347SOL    HW224504   4.376   4.330   3.537  0.0607  1.0246 -3.0279
 4348SOL     OW24505   4.348   0.410   8.409  0.3028  0.7328  0.3212
 4348SOL    HW124506   4.341   0.391   8.502 -0.4849 -1.4119 -0.1987
 4348SOL    HW224507   4.301   0.337   8.370  1.3471  0.5674 -0.6380
 4349SOL     OW24508   1.792   0.024   3.870  0.1733 -0.3273  0.6955
 4349SOL    HW124509   1.732   0.097   3.882  0.3282 -0.1876  0.6193
 4349SOL    HW224510   1.821   0.008   3.960 -1.5184 -1.4501  1.0439
 4350SOL     OW24511   2.412   4.634   8.379  0.5584 -0.2620  0.0603
 4350SOL    HW124512   2.459   4.701   8.428  3.1058 -1.1561 -1.1617
 4350SOL    HW224513   2.382   4.582   8.454  0.0875  1.1827  0.8591
 4351SOL     OW24514   1.717   2.332   7.247 -0.1464 -0.1139  0.4192
 4351SOL    HW124515   1.800   2.366   7.281 -0.6892  0.9770  0.6627
 4351SOL    HW224516   1.698   2.271   7.318  1.5142 -2.0180 -0.7760
 4352SOL     OW24517   3.145   1.589   4.280 -0.4131  0.3606  0.0441
 4352SOL    HW124518   3.067   1.551   4.238  0.0217  1.2399 -1.5728
 4352SOL    HW224519   3.207   1.587   4.208 -3.1830 -0.5053 -2.3292
 4353SOL     OW24520   4.325   4.351   7.155  0.3762 -0.3933  0.2543
 4353SOL    HW124521   4.284   4.300   7.224  0.1989 -0.3901  0.1515
 4353SOL    HW224522   4.254   4.414   7.146  2.2958  1.9589  1.5521
 4354SOL     OW24523   0.860   1.085   7.007 -0.3962  0.7776 -0.5445
 4354SOL    HW124524   0.878   1.141   6.931 -0.3453 -0.7452 -1.6517
 4354SOL    HW224525   0.898   1.124   7.086 -0.9778  0.8610 -0.3044
 4355SOL     OW24526   0.550   4.325  11.909  0.3793  0.7151  0.0584
 4355SOL    HW124527   0.536   4.349  11.817  2.3906 -0.4715 -0.5357
 4355SOL    HW224528   0.571   4.232  11.903  2.4095  1.1132  1.0319
 4356SOL     OW24529   2.767   1.799   7.737  0.4938 -0.2518  0.2803
 4356SOL    HW124530   2.746   1.887   7.767  0.5094  0.2630 -1.2214
 4356SOL    HW224531   2.812   1.815   7.654 -1.8432  3.0942 -0.3205
 4357SOL     OW24532   3.471   3.789   1.544  0.0893 -0.8379  0.3282
 4357SOL    HW124533   3.412   3.777   1.618 -0.7802  2.3109  0.1561
 4357SOL    HW224534   3.475   3.702   1.504  0.4740 -1.2271  1.2172
 4358SOL     OW24535   3.247   1.584   8.020  0.3596  0.4560 -0.0824
 4358SOL    HW124536   3.192   1.623   7.952 -1.0791  0.1423  0.9103
 4358SOL    HW224537   3.217   1.493   8.016 -0.2656  0.7278 -1.4674
 4359SOL     OW24538   0.167   1.380   0.836 -0.6322 -0.0285  0.0401
 4359SOL    HW124539   0.157   1.459   0.782 -0.2827 -0.0097  0.0052
 4359SOL    HW224540   0.240   1.339   0.790 -0.9311 -0.4564 -0.0584
 4360SOL     OW24541   0.722   3.837   8.335 -0.2835  0.1394  0.4054
 4360SOL    HW124542   0.709   3.847   8.429 -0.9761 -3.5020  0.6689
 4360SOL    HW224543   0.648   3.784   8.306  0.5898 -1.9781  2.1444
 4361SOL     OW24544   0.425   3.161   7.435  0.6817  0.6835 -0.0445
 4361SOL    HW124545   0.481   3.094   7.397 -0.0114 -0.7007  1.3863
 4361SOL    HW224546   0.465   3.165   7.522  1.4111  2.7135 -0.4658
 4362SOL     OW24547   2.794   2.734   7.875 -0.0974  0.3661  0.3854
 4362SOL    HW124548   2.760   2.752   7.962 -0.7734 -1.0075  0.4107
 4362SOL    HW224549   2.789   2.639   7.859 -1.7682  0.8728 -2.0329
 4363SOL     OW24550   0.172   3.730   7.588  0.5345 -0.1507  0.4684
 4363SOL    HW124551   0.128   3.814   7.606 -2.3482 -1.6741  0.5203
 4363SOL    HW224552   0.236   3.761   7.525 -0.9390 -0.2730 -1.0836
 4364SOL     OW24553   0.565   1.286  15.421 -0.1370  0.1745 -0.3087
 4364SOL    HW124554   0.481   1.262  15.459 -0.0230  0.2451 -0.0119
 4364SOL    HW224555   0.609   1.202  15.426  2.7731  1.4890 -3.5514
 4365SOL     OW24556   0.314   0.086   4.671 -0.2694 -0.5788  0.0648
 4365SOL    HW124557   0.360   0.008   4.637  2.2853  0.3917  1.2804
 4365SOL    HW224558   0.388   0.145   4.686  0.1325 -1.2411  0.7217
 4366SOL     OW24559   1.642   2.109   7.071  0.1541  0.5636 -0.4166
 4366SOL    HW124560   1.714   2.145   7.121  0.3812  1.7771 -1.6349
 4366SOL    HW224561   1.594   2.186   7.042  0.4433  0.3875 -1.3848
 4367SOL     OW24562   4.120   1.806   8.674  0.1104  0.1152  0.4467
 4367SOL    HW124563   4.057   1.878   8.667 -3.8871 -3.5233 -0.6524
 4367SOL    HW224564   4.069   1.730   8.645  2.2105 -0.4192 -1.7441
 4368SOL     OW24565   1.812   3.573   8.048  0.1860  0.3478 -0.2499
 4368SOL    HW124566   1.791   3.480   8.040 -0.6611  0.7435 -2.3622
 4368SOL    HW224567   1.898   3.559   8.088 -0.1389  0.8006  0.6237
 4369SOL     OW24568   3.529   0.730   8.532 -0.7673  0.2184  0.4062
 4369SOL    HW124569   3.484   0.678   8.599  0.6028 -2.0662 -0.4751
 4369SOL    HW224570   3.614   0.747   8.572  0.3198 -1.7022 -1.1061
 4370SOL     OW24571   1.183   4.305   3.967 -0.0007 -0.2502  0.0268
 4370SOL    HW124572   1.094   4.269   3.960  1.3279 -3.1798 -1.5748
 4370SOL    HW224573   1.229   4.223   3.984 -1.0318 -0.7849  0.2595
 4371SOL     OW24574   4.351   0.156   4.163  0.2289  0.1024  0.2564
 4371SOL    HW124575   4.405   0.145   4.084 -0.2828 -1.7221  0.1782
 4371SOL    HW224576   4.261   0.126   4.150 -0.2109  1.8653 -0.7969
 4372SOL     OW24577   4.716   0.985  11.494 -0.3295  0.0421  0.5278
 4372SOL    HW124578   0.054   1.053  11.524  0.0525  0.0510 -0.2641
 4372SOL    HW224579   4.665   1.028  11.425  0.7389 -2.5422 -1.9025
 4373SOL     OW24580   0.414   1.785   4.584 -1.1441 -0.2601  0.3349
 4373SOL    HW124581   0.444   1.862   4.534 -1.5877 -0.6228 -0.4877
 4373SOL    HW224582   0.496   1.735   4.581 -1.9084 -1.5075  0.6379
 4374SOL     OW24583   1.542   1.645  13.321  0.2879 -0.6981  0.3985
 4374SOL    HW124584   1.523   1.578  13.255 -3.5474 -0.4095  1.2276
 4374SOL    HW224585   1.595   1.708  13.272  1.4646 -2.8009 -1.0568
 4375SOL     OW24586   3.288   1.175   5.572  0.0002 -0.3677  0.3019
 4375SOL    HW124587   3.300   1.230   5.493  1.8385 -0.8086  0.2618
 4375SOL    HW224588   3.206   1.128   5.558 -0.2974  0.4775 -0.8561
 4376SOL     OW24589   1.028   0.251   0.186  0.5352  0.4518 -0.0651
 4376SOL    HW124590   1.079   0.311   0.242 -2.3130  1.4657  1.4140
 4376SOL    HW224591   1.042   0.168   0.233 -1.0631  0.6798  0.7988
 4377SOL     OW24592   2.568   3.675  13.150 -0.3593  0.3832 -0.0593
 4377SOL    HW124593   2.642   3.676  13.210 -0.1575 -0.8072 -0.2806
 4377SOL    HW224594   2.504   3.653  13.218 -1.0856 -0.1617 -0.9101
 4378SOL     OW24595   0.443   0.481   5.350  0.7852 -0.2410 -0.2753
 4378SOL    HW124596   0.475   0.391   5.358 -1.7145 -1.0310  0.8949
 4378SOL    HW224597   0.517   0.519   5.304  0.2675 -1.7337 -2.3197
 4379SOL     OW24598   0.034   2.255  12.851 -0.5187 -0.2121 -0.0998
 4379SOL    HW124599   0.077   2.308  12.784 -1.2917  1.4438  0.7317
 4379SOL    HW224600   0.075   2.292  12.930 -0.7163  0.4091 -0.2938
 4380SOL     OW24601   0.869   4.072   8.245  0.1384 -0.0403  0.2815
 4380SOL    HW124602   0.824   3.992   8.271  2.9388 -0.2498  4.4783
 4380SOL    HW224603   0.796   4.126   8.215 -0.0191 -0.7478 -0.5746
 4381SOL     OW24604   4.686   1.708  10.947  0.2396 -0.2487 -0.2868
 4381SOL    HW124605   4.654   1.787  10.991 -0.4456 -1.4295  1.3231
 4381SOL    HW224606   0.019   1.749  10.881 -0.8100 -0.9479 -1.6085
 4382SOL     OW24607   1.236   1.873  16.227 -0.5695  0.3931 -0.4328
 4382SOL    HW124608   1.253   1.918  16.144 -0.3077  0.7156 -0.2005
 4382SOL    HW224609   1.163   1.926  16.260  2.3880  3.9635  0.2578
 4383SOL     OW24610   1.501   2.000   6.008  1.0641 -0.0075  0.5297
 4383SOL    HW124611   1.520   2.042   6.092 -3.9239  1.2130  1.0872
 4383SOL    HW224612   1.479   2.080   5.960  2.5951  0.8109  1.2028
 4384SOL     OW24613   2.573   1.497  11.250 -0.2055 -0.9461 -0.7909
 4384SOL    HW124614   2.547   1.585  11.277  1.1004 -0.6853 -0.4036
 4384SOL    HW224615   2.491   1.469  11.209  0.2969 -1.2291 -1.6210
 4385SOL     OW24616   3.291   0.798  11.946  0.2702  0.1656  0.2774
 4385SOL    HW124617   3.229   0.725  11.949  0.5386 -0.1090 -0.9495
 4385SOL    HW224618   3.356   0.768  11.884 -1.4665 -4.7470  0.8636
 4386SOL     OW24619   0.997   2.344  13.454  0.2964  0.0622 -0.2222
 4386SOL    HW124620   0.959   2.298  13.379  2.5920 -0.4244 -1.0957
 4386SOL    HW224621   0.915   2.376  13.490  0.7978  0.7277  0.3289
 4387SOL     OW24622   3.055   0.130  15.133  0.7367  0.3946  0.1913
 4387SOL    HW124623   3.058   0.217  15.093  3.2826  0.4738  0.5331
 4387SOL    HW224624   3.110   0.145  15.210  0.6272  2.2065 -0.0790
 4388SOL     OW24625   0.509   2.531  16.745 -0.0072 -0.4189  0.0907
 4388SOL    HW124626   0.432   2.518  16.801 -0.7340  2.3881 -0.2626
 4388SOL    HW224627   0.548   2.444  16.748  1.2995  0.1259 -0.9547
 4389SOL     OW24628   3.800   4.073   3.603 -0.1329 -0.0020 -0.3424
 4389SOL    HW124629   3.889   4.101   3.624 -0.2846  0.9568 -0.9820
 4389SOL    HW224630   3.805   3.979   3.622  2.6881  0.2169 -0.0852
 4390SOL     OW24631   0.294   0.946   6.757  0.4924 -0.3372  0.0343
 4390SOL    HW124632   0.279   0.863   6.803 -1.2977  0.5155  0.9962
 4390SOL    HW224633   0.365   0.929   6.696  0.5606  1.5993 -0.4147
 4391SOL     OW24634   4.525   3.753   4.427  0.0845 -0.3811  0.4963
 4391SOL    HW124635   4.482   3.833   4.458  0.8513 -0.1968  1.0717
 4391SOL    HW224636   4.456   3.687   4.432 -1.7629  1.4946  0.1291
 4392SOL     OW24637   2.956   3.836   8.761  0.3304  0.3513  0.1642
 4392SOL    HW124638   2.971   3.930   8.767  1.7091  0.2051 -1.0485
 4392SOL    HW224639   2.870   3.834   8.718  0.4915  0.1706 -0.1486
 4393SOL     OW24640   3.943   1.235   3.886  0.4156  0.8151  0.0878
 4393SOL    HW124641   3.897   1.200   3.963  1.0463  1.1637  0.6248
 4393SOL    HW224642   3.999   1.162   3.863  1.7061  2.1740 -1.1110
 4394SOL     OW24643   3.529   2.420   5.964 -0.8388  0.0779 -0.6601
 4394SOL    HW124644   3.578   2.497   5.936  0.5624 -0.6559 -0.2344
 4394SOL    HW224645   3.467   2.461   6.024  0.8554 -0.3847  1.4214
 4395SOL     OW24646   1.559   1.492  14.062  0.0577  0.5687 -0.0345
 4395SOL    HW124647   1.581   1.550  13.989 -1.2426 -1.7706 -2.3189
 4395SOL    HW224648   1.488   1.448  14.016  0.8701 -0.2176 -0.5570
 4396SOL     OW24649   4.712   2.749   5.557  0.2926 -0.2036 -0.9908
 4396SOL    HW124650   4.720   2.670   5.610 -2.9074  1.0646  1.4545
 4396SOL    HW224651   0.075   2.787   5.575  0.5112 -0.9226 -0.5363
 4397SOL     OW24652   2.972   2.117   6.036  0.0803  0.0601  0.1819
 4397SOL    HW124653   3.064   2.142   6.043 -0.2237  1.0756  0.6213
 4397SOL    HW224654   2.984   2.030   5.999  0.6445 -0.5556  1.8497
 4398SOL     OW24655   2.268   4.452  11.010  0.1993 -0.2901 -0.3198
 4398SOL    HW124656   2.336   4.426  11.072  1.3029  0.2830 -1.3014
 4398SOL    HW224657   2.303   4.526  10.962  1.9057 -1.1088 -0.3297
 4399SOL     OW24658   1.155   4.455   0.038  0.0125 -0.2239  1.0613
 4399SOL    HW124659   1.242   4.428   0.069  1.2086  1.0322 -1.1848
 4399SOL    HW224660   1.156   4.550   0.028  0.8820 -0.2832  0.5915
 4400SOL     OW24661   1.849   4.009   6.932  0.6412  0.3467  0.5504
 4400SOL    HW124662   1.936   3.974   6.911  0.8506  1.3678 -0.2795
 4400SOL    HW224663   1.840   3.984   7.024  0.3623  0.5235  0.5708
 4401SOL     OW24664   1.312   3.710   3.592 -0.0249  0.4709 -0.2413
 4401SOL    HW124665   1.284   3.698   3.502 -1.1801  1.1862  0.0297
 4401SOL    HW224666   1.246   3.776   3.615 -0.3438 -0.4791  1.5788
 4402SOL     OW24667   1.696   3.442   1.938  0.7099 -0.3654  0.4708
 4402SOL    HW124668   1.651   3.366   1.901  0.2587  0.6494 -1.0760
 4402SOL    HW224669   1.750   3.398   2.004  1.8815  0.9566  0.4077
 4403SOL     OW24670   3.536   1.424   5.043 -0.1801 -0.1084  0.4769
 4403SOL    HW124671   3.619   1.457   5.078 -0.3568  0.0615  0.7343
 4403SOL    HW224672   3.478   1.494   5.072 -1.1524  0.3259 -2.5161
 4404SOL     OW24673   4.365   1.600   3.119 -0.0187  0.2446  0.1149
 4404SOL    HW124674   4.326   1.668   3.063 -0.5715 -1.1347 -1.1839
 4404SOL    HW224675   4.332   1.622   3.206 -0.0301  1.3047 -0.1538
 4405SOL     OW24676   1.866   3.546   4.129  0.4867 -0.2145 -0.0181
 4405SOL    HW124677   1.846   3.475   4.189 -2.2610  0.3242 -0.3030
 4405SOL    HW224678   1.782   3.588   4.112  0.4918 -0.5903 -0.9798
 4406SOL     OW24679   4.595   4.196   9.935 -0.0316  0.1418 -0.4632
 4406SOL    HW124680   4.564   4.114   9.973  1.0151 -0.2620 -0.4931
 4406SOL    HW224681   4.530   4.255   9.974  2.7715  1.0699  2.8514
 4407SOL     OW24682   2.181   1.480   2.338  0.4837 -0.1774 -0.1186
 4407SOL    HW124683   2.159   1.388   2.349 -1.9297  0.6582  1.9727
 4407SOL    HW224684   2.227   1.473   2.254  0.7475 -0.5030  0.0569
 4408SOL     OW24685   2.064   0.669   8.075 -0.0098 -0.4395 -0.3664
 4408SOL    HW124686   2.100   0.581   8.066 -0.5669 -0.7042 -0.0046
 4408SOL    HW224687   2.130   0.689   8.141  0.2554 -1.4474 -0.3356
 4409SOL     OW24688   2.782   0.248   3.381 -0.1925  0.2847 -0.1522
 4409SOL    HW124689   2.816   0.181   3.440  0.7699  0.7927 -0.1337
 4409SOL    HW224690   2.690   0.232   3.401  0.6441 -3.5307  0.6774
 4410SOL     OW24691   0.605   1.774   2.229 -0.3325 -0.4501  0.0588
 4410SOL    HW124692   0.583   1.727   2.148  0.2002 -0.1763 -0.2489
 4410SOL    HW224693   0.697   1.795   2.212 -0.7585  1.5878  0.3144
 4411SOL     OW24694   1.052   2.864   2.435  0.1497 -0.1029 -0.4360
 4411SOL    HW124695   1.048   2.939   2.376  0.7258 -0.4740 -0.9423
 4411SOL    HW224696   0.967   2.878   2.478 -0.6260 -0.5681 -1.8508
 4412SOL     OW24697   0.228   3.926   9.553 -0.1458 -0.0898 -0.2371
 4412SOL    HW124698   0.191   3.867   9.619 -1.4741 -0.2196 -1.0988
 4412SOL    HW224699   0.266   3.858   9.497  0.0679  0.5136 -0.8213
 4413SOL     OW24700   2.418   1.154  11.887 -0.0440 -0.3118 -0.2006
 4413SOL    HW124701   2.477   1.224  11.916  2.6198 -2.0656 -1.3620
 4413SOL    HW224702   2.343   1.213  11.882 -1.1190 -1.6955 -0.2210
 4414SOL     OW24703   3.931   3.036   2.428 -0.2001 -0.4877 -0.3406
 4414SOL    HW124704   3.841   3.051   2.457 -0.8589  1.2500 -3.3218
 4414SOL    HW224705   3.938   3.088   2.348  0.4661  1.7010  1.1163
 4415SOL     OW24706   1.731   1.700   3.843 -0.0401 -0.4111 -0.9125
 4415SOL    HW124707   1.697   1.616   3.814 -3.1110  0.7809 -0.6947
 4415SOL    HW224708   1.748   1.684   3.935 -1.1103  0.7478 -0.5093
 4416SOL     OW24709   4.642   2.008  11.515  0.2871  0.0272 -0.6211
 4416SOL    HW124710   4.682   1.965  11.439 -0.2713 -0.7849 -0.4548
 4416SOL    HW224711   4.712   2.011  11.579  1.1093 -0.3234 -1.4985
 4417SOL     OW24712   4.695   3.229  17.425  0.1419  0.6496 -0.4321
 4417SOL    HW124713   0.050   3.283  17.436  1.7827 -2.0233  1.2244
 4417SOL    HW224714   0.006   3.141  17.405 -1.5454  0.1187 -1.0082
 4418SOL     OW24715   4.483   0.703   4.472 -0.5500  0.4308  0.3164
 4418SOL    HW124716   4.418   0.667   4.411 -0.4074  0.0977  0.3584
 4418SOL    HW224717   4.543   0.629   4.485 -0.5043  0.3203 -0.5346
 4419SOL     OW24718   2.111   1.201   1.719 -0.2578  0.6124 -0.9432
 4419SOL    HW124719   2.203   1.181   1.736 -0.2210  2.4047  1.0376
 4419SOL    HW224720   2.091   1.270   1.784 -0.0875 -0.6465  0.4441
 4420SOL     OW24721   3.535   4.080  13.600  0.6296  0.1465 -0.0950
 4420SOL    HW124722   3.487   4.038  13.672 -1.9671  1.0156 -1.3050
 4420SOL    HW224723   3.467   4.094  13.534  0.2499  0.8818  0.4478
 4421SOL     OW24724   1.540   3.307  14.031  0.4146  0.0128  0.3583
 4421SOL    HW124725   1.560   3.368  13.959 -0.5649 -1.0338 -0.8034
 4421SOL    HW224726   1.541   3.369  14.104 -1.8151  1.2465 -0.6192
 4422SOL     OW24727   3.731   3.245   3.382 -0.5062 -0.0364 -0.2131
 4422SOL    HW124728   3.741   3.337   3.355 -0.3199  0.4635  1.5413
 4422SOL    HW224729   3.693   3.210   3.302  1.1949 -0.0258 -1.0273
 4423SOL     OW24730   3.836   4.532   4.098  0.2824 -0.0174 -0.5280
 4423SOL    HW124731   3.923   4.536   4.060  0.5183  0.1231  0.0321
 4423SOL    HW224732   3.841   4.608   4.157 -0.7388 -0.3922  0.0619
 4424SOL     OW24733   3.490   3.477   8.006  0.1630 -0.0587  0.1696
 4424SOL    HW124734   3.497   3.382   7.994  2.6638  0.0832  0.3690
 4424SOL    HW224735   3.462   3.484   8.097 -1.3206 -1.2620 -0.1912
 4425SOL     OW24736   4.378   2.633  14.294 -0.6357  0.2376  0.1533
 4425SOL    HW124737   4.313   2.694  14.327 -1.3539 -1.3496  1.6889
 4425SOL    HW224738   4.345   2.609  14.208 -0.9900 -0.1142  0.3851
 4426SOL     OW24739   1.130   1.303  10.373  0.1065  0.0524 -0.0121
 4426SOL    HW124740   1.194   1.270  10.310 -0.6373 -0.2516 -0.6082
 4426SOL    HW224741   1.169   1.384  10.408 -0.1109 -0.3917  1.2550
 4427SOL     OW24742   0.900   4.326   3.283  0.1169 -0.4485  0.2997
 4427SOL    HW124743   0.986   4.284   3.287 -0.4568 -1.8741 -2.3707
 4427SOL    HW224744   0.922   4.409   3.325  0.2924 -0.3732  0.0525
 4428SOL     OW24745   2.036   1.184   8.475  0.2282 -0.6825  0.2880
 4428SOL    HW124746   1.977   1.185   8.550 -0.8468 -0.1941 -0.5653
 4428SOL    HW224747   1.966   1.177   8.411  0.1510  3.6954 -0.1173
 4429SOL     OW24748   4.145   1.946   5.589  0.2271 -0.4561  0.1754
 4429SOL    HW124749   4.088   1.945   5.665 -1.4418 -1.3402 -1.0811
 4429SOL    HW224750   4.090   1.885   5.538  0.7338 -0.2409 -0.6355
 4430SOL     OW24751   0.363   1.334   2.000 -0.8715 -0.5088 -0.3704
 4430SOL    HW124752   0.347   1.241   2.012 -0.3183 -0.7614 -1.7023
 4430SOL    HW224753   0.428   1.344   1.932 -0.5328 -2.3946 -0.3227
 4431SOL     OW24754   0.382   4.482   5.239 -0.1758 -0.1003  0.5711
 4431SOL    HW124755   0.463   4.440   5.267  0.6994  0.3138 -1.3397
 4431SOL    HW224756   0.358   4.548   5.305  1.3918 -0.1251  1.1529
 4432SOL     OW24757   4.035   3.472  10.210  0.0462 -0.0730  0.4935
 4432SOL    HW124758   4.000   3.552  10.250  1.7347 -0.0046  1.8405
 4432SOL    HW224759   4.126   3.487  10.234  0.4984 -0.7917 -0.8010
 4433SOL     OW24760   2.703   0.953   8.340 -0.6326  0.2601 -0.5832
 4433SOL    HW124761   2.775   0.893   8.318  0.0256  0.4909  0.9672
 4433SOL    HW224762   2.728   1.025   8.281  2.1376 -0.2333 -0.0177
 4434SOL     OW24763   4.705   3.296   4.249  0.1102  0.1301 -0.4556
 4434SOL    HW124764   4.671   3.214   4.213  0.9762 -0.5696  0.3159
 4434SOL    HW224765   0.076   3.277   4.259 -0.4943 -1.0452  2.9137
 4435SOL     OW24766   3.887   2.019   1.167  0.1043  0.0196 -0.4455
 4435SOL    HW124767   3.893   2.115   1.170  0.4813  0.0651 -2.6289
 4435SOL    HW224768   3.837   2.011   1.086  2.0258 -3.1813 -1.3134
 4436SOL     OW24769   1.081   3.196   6.876  0.6000 -0.2827 -0.5874
 4436SOL    HW124770   1.117   3.143   6.805  2.3042 -0.8744  0.7327
 4436SOL    HW224771   0.990   3.203   6.846  0.4518 -0.2575 -0.1298
 4437SOL     OW24772   1.807   1.211   6.119 -0.1584  0.0867  0.1060
 4437SOL    HW124773   1.795   1.190   6.211 -0.3337  2.2322  0.5689
 4437SOL    HW224774   1.896   1.245   6.124 -0.0012 -0.4576  0.9554
 4438SOL     OW24775   1.491   1.058   6.164 -0.3995  0.2994 -0.0311
 4438SOL    HW124776   1.421   1.082   6.224  0.7577  1.6549  0.7692
 4438SOL    HW224777   1.567   1.047   6.221 -0.1435  1.8628 -0.0942
 4439SOL     OW24778   0.087   0.011  10.228 -0.2879 -0.0892 -0.8376
 4439SOL    HW124779   0.087   0.017  10.133 -0.8196  1.2147 -0.7567
 4439SOL    HW224780   0.065   0.102  10.249 -0.1136 -0.1448 -0.4184
 4440SOL     OW24781   0.573   0.480   1.406 -0.3606  0.3932  0.3691
 4440SOL    HW124782   0.609   0.426   1.476  0.1782 -0.0982 -0.2796
 4440SOL    HW224783   0.649   0.481   1.347 -0.0944 -0.8764  0.7118
 4441SOL     OW24784   2.744   2.654   8.199 -0.2849  0.4586  0.8147
 4441SOL    HW124785   2.658   2.657   8.156  0.4854 -1.4663 -0.9197
 4441SOL    HW224786   2.737   2.725   8.262 -2.2547  1.6601 -0.7572
 4442SOL     OW24787   3.435   1.686   6.692  0.3935  0.6796  0.1505
 4442SOL    HW124788   3.466   1.690   6.783 -2.4935  1.9371  1.1055
 4442SOL    HW224789   3.451   1.779   6.675  1.0210  0.3145 -1.2293
 4443SOL     OW24790   1.596   2.260   5.591 -0.6320 -0.0123 -0.0066
 4443SOL    HW124791   1.644   2.297   5.518 -1.0570 -0.5866 -0.5842
 4443SOL    HW224792   1.567   2.174   5.562  1.7606 -0.7632 -0.1677
 4444SOL     OW24793   4.155   4.003   3.388  0.0312 -0.4951  0.1077
 4444SOL    HW124794   4.189   4.028   3.302 -1.1470  2.7838  0.6042
 4444SOL    HW224795   4.168   3.909   3.375 -0.0994 -0.7713  1.9592
 4445SOL     OW24796   1.994   2.055   3.513 -0.3497 -0.2461  0.0954
 4445SOL    HW124797   1.998   2.063   3.418  2.6459  0.1230  0.2334
 4445SOL    HW224798   1.999   1.960   3.522 -4.2085 -0.4059  0.3069
 4446SOL     OW24799   3.565   3.642  13.049 -0.2610 -0.6799  0.2547
 4446SOL    HW124800   3.560   3.546  13.043 -1.5310 -0.5021 -1.3221
 4446SOL    HW224801   3.649   3.655  13.095 -1.4387 -0.1171  2.2541
 4447SOL     OW24802   1.179   2.090   5.849  0.0079  0.4684  0.2956
 4447SOL    HW124803   1.152   2.148   5.919 -0.9708  1.3118 -0.7727
 4447SOL    HW224804   1.271   2.116   5.840 -0.6251  2.5066 -0.1813
 4448SOL     OW24805   0.925   4.662   5.773  0.2313  0.2296  0.0772
 4448SOL    HW124806   0.893   0.028   5.788 -0.5476  0.0984 -0.7970
 4448SOL    HW224807   0.886   4.616   5.848  0.8221 -0.1642  0.1520
 4449SOL     OW24808   3.608   2.928  15.665 -0.3299 -0.3233 -0.3333
 4449SOL    HW124809   3.677   2.899  15.605  0.5447  1.2325 -0.0856
 4449SOL    HW224810   3.553   2.854  15.691  0.0644  0.3213  2.3605
 4450SOL     OW24811   4.145   4.052   2.301  0.1027 -0.8670  0.4413
 4450SOL    HW124812   4.174   4.071   2.390  0.4565 -1.6266  0.4901
 4450SOL    HW224813   4.066   4.000   2.318 -2.1839  2.7618  0.8806
 4451SOL     OW24814   3.698   0.119   1.043  0.0460 -0.2206  0.0409
 4451SOL    HW124815   3.710   0.062   0.967  0.3633 -0.0759 -0.0179
 4451SOL    HW224816   3.633   0.070   1.095 -0.6579  0.0668 -0.5675
 4452SOL     OW24817   1.645   4.429   8.879 -0.0818 -0.0542 -0.1651
 4452SOL    HW124818   1.642   4.369   8.953 -0.2931 -0.5160 -0.5524
 4452SOL    HW224819   1.555   4.454   8.860  0.8210  1.7750 -2.0176
 4453SOL     OW24820   0.128   4.126   0.427  0.3900  0.2270 -0.3070
 4453SOL    HW124821   0.176   4.179   0.363  0.1546  2.0036  0.9767
 4453SOL    HW224822   0.103   4.046   0.381  2.3053 -1.0479  0.9070
 4454SOL     OW24823   1.622   1.703  13.877  0.0026 -0.3658  0.0281
 4454SOL    HW124824   1.558   1.768  13.845  1.8045  1.2880 -0.2492
 4454SOL    HW224825   1.625   1.659  13.792 -0.1572  1.2806 -0.8496
 4455SOL     OW24826   1.983   3.753   2.060  0.3077  0.0702 -0.0155
 4455SOL    HW124827   2.019   3.673   2.100 -0.8767 -1.5019 -2.0749
 4455SOL    HW224828   2.068   3.796   2.058  0.5851 -0.4308  0.6403
 4456SOL     OW24829   1.795   3.281   6.044 -0.1518  0.3735 -0.2616
 4456SOL    HW124830   1.832   3.268   6.131  2.7498 -1.7255 -1.8404
 4456SOL    HW224831   1.861   3.259   5.978  1.9449 -0.2938  2.0618
 4457SOL     OW24832   3.269   4.641   4.199 -0.0929  0.1399 -0.2029
 4457SOL    HW124833   3.361   4.668   4.192  0.1904 -0.3253  1.8079
 4457SOL    HW224834   3.271   4.568   4.137  2.4487  1.9105 -2.2259
 4458SOL     OW24835   3.074   2.964   1.677 -0.3029  0.0471  0.5100
 4458SOL    HW124836   3.027   2.918   1.607  0.8179 -0.5236  0.1342
 4458SOL    HW224837   3.058   3.058   1.666  1.4429  0.6779  3.3699
 4459SOL     OW24838   3.498   2.694   2.946  0.3974  0.1855 -0.3598
 4459SOL    HW124839   3.447   2.747   3.008  0.1461 -1.5317  0.8847
 4459SOL    HW224840   3.586   2.732   2.953  0.1437  0.2208  2.8979
 4460SOL     OW24841   3.141   3.056  16.820  0.3949  0.4716  0.1329
 4460SOL    HW124842   3.162   3.049  16.913  1.6853  2.5381 -0.0002
 4460SOL    HW224843   3.059   3.104  16.829  0.2596  0.7979 -2.6168
 4461SOL     OW24844   4.432   3.268   6.597  0.0450 -0.1050 -0.2486
 4461SOL    HW124845   4.357   3.267   6.537  0.0696 -1.7635 -0.2434
 4461SOL    HW224846   4.389   3.221   6.669 -0.2065 -1.6608 -1.4232
 4462SOL     OW24847   2.839   4.175   3.519  0.2261  0.3146  0.0127
 4462SOL    HW124848   2.839   4.267   3.544  0.8080 -0.1888  1.9210
 4462SOL    HW224849   2.744   4.167   3.509  0.4267 -1.2292 -0.6310
 4463SOL     OW24850   3.805   3.024   3.568  0.3981 -0.1535  0.1520
 4463SOL    HW124851   3.749   2.996   3.641  0.2569  2.0509  0.8854
 4463SOL    HW224852   3.754   3.097   3.534  3.6160  2.2149  0.4388
 4464SOL     OW24853   3.479   4.381   5.861  0.2536  0.5073 -0.0678
 4464SOL    HW124854   3.513   4.410   5.776  6.1120 -0.5510  1.9373
 4464SOL    HW224855   3.553   4.330   5.893 -1.0174 -1.6661 -0.5255
 4465SOL     OW24856   0.743   0.446  10.735  0.2925  0.4595  0.5968
 4465SOL    HW124857   0.804   0.500  10.785  2.1124  2.2377 -3.5075
 4465SOL    HW224858   0.809   0.378  10.719  0.8346  1.1648 -0.1908
 4466SOL     OW24859   2.077   0.290   0.393 -0.0371  0.3796  0.2234
 4466SOL    HW124860   2.052   0.202   0.422  2.4574 -0.6315 -0.6348
 4466SOL    HW224861   2.033   0.345   0.458  0.0431  1.6555 -0.7968
 4467SOL     OW24862   0.228   2.902  16.222  0.0391  0.0476 -0.5612
 4467SOL    HW124863   0.141   2.864  16.227 -0.3693  1.0809  0.1814
 4467SOL    HW224864   0.262   2.827  16.173 -1.3275  0.7078 -2.5242
 4468SOL     OW24865   1.046   4.683   0.287  0.2683 -0.5801  0.0579
 4468SOL    HW124866   0.987   4.636   0.228  1.5540 -2.9642  0.6869
 4468SOL    HW224867   1.048   4.627   0.365 -1.9302 -0.5091  0.1734
 4469SOL     OW24868   0.894   2.940   3.591 -0.0204 -0.9142 -0.1267
 4469SOL    HW124869   0.810   2.898   3.573 -0.3633  0.7877 -2.4850
 4469SOL    HW224870   0.865   3.021   3.634  0.7980 -0.5259 -0.3019
 4470SOL     OW24871   1.398   4.515  11.724  0.2658  0.0665 -0.1640
 4470SOL    HW124872   1.404   4.571  11.801 -0.5593 -1.3841  0.9584
 4470SOL    HW224873   1.334   4.568  11.676 -1.2805  0.1060  1.9517
 4471SOL     OW24874   4.586   1.878  13.730 -0.1527 -0.4087 -0.2213
 4471SOL    HW124875   4.671   1.890  13.688  0.8182 -1.9915  1.3229
 4471SOL    HW224876   4.525   1.905  13.661 -0.6748 -0.1521  0.3445
 4472SOL     OW24877   2.314   3.462   8.650 -0.1273 -0.1362 -0.1578
 4472SOL    HW124878   2.303   3.428   8.561  1.3086  1.5886 -0.9876
 4472SOL    HW224879   2.307   3.549   8.611 -0.7623  1.6688  3.9311
 4473SOL     OW24880   3.917   0.853   9.006 -0.3401  0.4888  0.1441
 4473SOL    HW124881   3.955   0.808   8.931 -0.5376  0.8646 -0.1755
 4473SOL    HW224882   3.828   0.874   8.981 -1.2515 -1.9667  1.2573
 4474SOL     OW24883   3.224   4.625   3.255 -0.1222 -0.2877  0.0932
 4474SOL    HW124884   3.152   4.687   3.242  0.1508 -0.1519 -0.7712
 4474SOL    HW224885   3.271   4.659   3.331 -1.2986  1.9821 -0.2074
 4475SOL     OW24886   0.972   3.558   1.998 -0.5606 -0.1741  0.9101
 4475SOL    HW124887   1.030   3.541   2.073  0.4103  1.7552  0.5996
 4475SOL    HW224888   1.032   3.577   1.926 -0.7683 -0.4425  0.6718
 4476SOL     OW24889   0.369   2.412  10.693  0.2740 -0.2011  0.6499
 4476SOL    HW124890   0.304   2.465  10.647 -0.6561 -0.8482  1.2031
 4476SOL    HW224891   0.311   2.370  10.756 -0.3027 -0.2153  0.1113
 4477SOL     OW24892   0.718   1.932  12.521 -0.7481 -0.0403 -0.5780
 4477SOL    HW124893   0.733   1.855  12.465  2.9309  0.4771 -0.2923
 4477SOL    HW224894   0.706   1.885  12.603 -0.8847  0.8608 -0.0833
 4478SOL     OW24895   3.942   3.261  16.120  0.1703  0.8253 -0.0007
 4478SOL    HW124896   3.893   3.332  16.079 -0.9966 -1.4828 -2.5975
 4478SOL    HW224897   3.957   3.298  16.207  1.4422 -0.8576  0.4821
 4479SOL     OW24898   2.167   2.914   3.259  0.7234  0.1907 -0.4058
 4479SOL    HW124899   2.145   2.823   3.239  0.3252  0.1443  0.2343
 4479SOL    HW224900   2.140   2.965   3.183  1.1273 -0.0696 -0.7283
 4480SOL     OW24901   1.439   3.698   4.379 -0.5464 -0.4460  0.2311
 4480SOL    HW124902   1.501   3.651   4.322 -0.5139  1.2126 -1.0997
 4480SOL    HW224903   1.373   3.630   4.389 -0.4325 -0.5536  0.2570
 4481SOL     OW24904   3.490   0.222   3.391  0.3347 -0.7593 -0.1931
 4481SOL    HW124905   3.567   0.253   3.343  1.3049 -0.2864  1.6459
 4481SOL    HW224906   3.461   0.307   3.424  1.7727 -0.2303 -0.2991
 4482SOL     OW24907   3.315   0.732  12.559  0.1176  0.9507  0.1266
 4482SOL    HW124908   3.300   0.766  12.647  0.2352 -1.8855  1.2364
 4482SOL    HW224909   3.330   0.816  12.514  1.0192  0.8838  0.2999
 4483SOL     OW24910   4.231   4.609   4.146  0.3289 -0.6078 -0.0278
 4483SOL    HW124911   4.325   4.593   4.143  0.5159  0.4857  0.2757
 4483SOL    HW224912   4.198   4.593   4.057 -3.0367 -0.8485  1.2360
 4484SOL     OW24913   1.151   0.943   3.121 -0.4046  0.1371 -0.4484
 4484SOL    HW124914   1.212   0.902   3.183 -1.1045 -2.4088 -1.4515
 4484SOL    HW224915   1.164   0.894   3.039 -0.6872  1.1203 -1.0791
 4485SOL     OW24916   4.089   4.124   5.918  0.0503 -0.2889 -0.0625
 4485SOL    HW124917   4.019   4.189   5.906  1.3311  1.2896  1.1009
 4485SOL    HW224918   4.141   4.164   5.987 -1.2811  0.7592  0.3531
 4486SOL     OW24919   2.934   4.201   0.682 -0.4068  0.6902  0.1299
 4486SOL    HW124920   2.848   4.238   0.661  0.2933  0.4806 -2.9963
 4486SOL    HW224921   2.952   4.250   0.762  1.4069 -0.3819  0.3775
 4487SOL     OW24922   0.278   4.121   1.635  0.2200  0.6855  0.2096
 4487SOL    HW124923   0.250   4.121   1.543 -1.1129 -0.2401  0.6103
 4487SOL    HW224924   0.356   4.175   1.644  0.4706  0.1632  1.1435
 4488SOL     OW24925   1.221   2.489   7.427  0.1893  0.3985 -0.5651
 4488SOL    HW124926   1.262   2.525   7.505 -0.2929  0.4173 -0.3255
 4488SOL    HW224927   1.291   2.430   7.397  0.8965  1.5700 -1.2380
 4489SOL     OW24928   1.635   1.840   1.708 -0.1482 -0.0879  0.1596
 4489SOL    HW124929   1.652   1.933   1.694 -0.7706 -0.0255 -0.1803
 4489SOL    HW224930   1.642   1.839   1.804 -0.2359 -0.6402  0.1614
 4490SOL     OW24931   3.842   3.328  12.962 -0.4996  0.2172  0.0584
 4490SOL    HW124932   3.880   3.244  12.939 -1.3301  0.7634 -3.3296
 4490SOL    HW224933   3.767   3.305  13.016 -0.9461 -0.4096 -0.8326
 4491SOL     OW24934   3.695   0.443   4.414 -0.3687  0.5570 -0.0185
 4491SOL    HW124935   3.791   0.443   4.413 -0.3566 -0.2898  0.8080
 4491SOL    HW224936   3.679   0.465   4.506 -2.5577  1.1643 -0.5637
 4492SOL     OW24937   4.179   4.142  11.249 -0.0960  0.2918 -0.4930
 4492SOL    HW124938   4.182   4.062  11.196  1.9292  0.7721 -1.1139
 4492SOL    HW224939   4.162   4.211  11.185 -0.7458  0.3899 -0.2042
 4493SOL     OW24940   1.428   3.981  10.988  0.2541 -0.3101  0.2536
 4493SOL    HW124941   1.457   3.895  11.020  0.6701  0.7388  2.6635
 4493SOL    HW224942   1.444   4.039  11.062  0.9357  1.3095 -1.1564
 4494SOL     OW24943   3.728   4.659   0.820 -0.5567 -0.5956  0.1057
 4494SOL    HW124944   3.795   4.595   0.846  1.9239  1.4199 -1.2380
 4494SOL    HW224945   3.666   4.605   0.772 -0.5711  1.5286 -2.2436
 4495SOL     OW24946   3.326   2.763   6.946  0.2808 -0.4254  0.2476
 4495SOL    HW124947   3.291   2.710   7.017  1.3831 -0.4786  0.7590
 4495SOL    HW224948   3.351   2.839   6.999 -1.4257 -0.2402  0.7713
 4496SOL     OW24949   4.707   0.125   9.379 -0.5219 -0.1833 -0.4622
 4496SOL    HW124950   0.036   0.109   9.301  0.9831  0.4181  0.4181
 4496SOL    HW224951   4.657   0.202   9.352 -1.6290 -1.1878 -1.2863
 4497SOL     OW24952   3.066   0.789  16.608  0.2127  0.1253 -0.2502
 4497SOL    HW124953   2.984   0.825  16.642 -0.0607 -1.0936  0.4081
 4497SOL    HW224954   3.128   0.833  16.666  2.3580  0.6881 -3.0063
 4498SOL     OW24955   0.890   3.710   4.912  0.2012 -0.3026 -0.4175
 4498SOL    HW124956   0.911   3.621   4.943  1.3340 -0.3632 -1.3637
 4498SOL    HW224957   0.966   3.761   4.941  0.2964 -1.2176  0.9748
 4499SOL     OW24958   0.974   4.032   2.955 -0.3341  0.5650 -0.3745
 4499SOL    HW124959   0.957   4.125   2.965 -0.9772  0.2186  1.6657
 4499SOL    HW224960   0.934   4.020   3.041  1.3541  1.5071  0.5443
 4500SOL     OW24961   2.664   2.942   2.006  0.3184 -0.0636 -0.2963
 4500SOL    HW124962   2.711   2.865   2.036  2.0549  1.2921  0.4681
 4500SOL    HW224963   2.663   2.913   1.915  0.9600 -0.5572 -0.1492
 4501SOL     OW24964   0.399   0.636   5.020 -0.3715 -0.4701 -0.9292
 4501SOL    HW124965   0.468   0.695   4.990 -0.1261  0.0007  0.5899
 4501SOL    HW224966   0.437   0.611   5.104  1.4691 -0.4687 -1.7641
 4502SOL     OW24967   3.706   1.593   1.952  0.3402  0.1688 -0.3469
 4502SOL    HW124968   3.688   1.675   1.907 -2.6567 -1.1513 -1.5563
 4502SOL    HW224969   3.787   1.568   1.909  1.3057  3.2575 -0.3051
 4503SOL     OW24970   1.181   4.474  10.266  0.3416  0.0565  0.3977
 4503SOL    HW124971   1.196   4.397  10.212 -1.6961  0.7031 -1.0774
 4503SOL    HW224972   1.239   4.532  10.217 -1.1265 -0.4065 -1.8975
 4504SOL     OW24973   0.336   3.856   6.404 -0.2689 -0.3264  0.0120
 4504SOL    HW124974   0.411   3.834   6.350  0.1384  0.5844  0.2008
 4504SOL    HW224975   0.270   3.855   6.334  1.2225 -0.3406 -1.3802
 4505SOL     OW24976   1.171   2.296  16.267  0.0264  0.6555  0.1496
 4505SOL    HW124977   1.077   2.313  16.258  0.1485  1.0308 -0.4704
 4505SOL    HW224978   1.214   2.381  16.257 -1.9119  1.5172 -0.8092
 4506SOL     OW24979   0.284   2.243   8.609 -0.0254 -0.2327 -0.0573
 4506SOL    HW124980   0.288   2.284   8.696 -0.5707  0.3435 -0.3048
 4506SOL    HW224981   0.243   2.309   8.553 -0.1756 -0.6999 -0.5043
 4507SOL     OW24982   3.977   1.838   5.077  0.2909 -0.3132  0.1424
 4507SOL    HW124983   3.928   1.897   5.134  0.0075 -0.3438 -0.0717
 4507SOL    HW224984   4.060   1.858   5.120 -0.1517 -1.4506  1.4923
 4508SOL     OW24985   2.730   2.689   0.042  0.0159  0.2227 -0.0325
 4508SOL    HW124986   2.790   2.746   0.090 -0.1177 -0.4324  0.9138
 4508SOL    HW224987   2.779   2.674  17.653  1.0769 -0.6110  0.7593
 4509SOL     OW24988   2.541   2.580   4.094  0.6834  0.1737  0.9075
 4509SOL    HW124989   2.523   2.668   4.128 -0.8108  0.1953  0.0843
 4509SOL    HW224990   2.488   2.573   4.015 -0.9334  0.7153  1.9222
 4510SOL     OW24991   3.493   0.137   8.887 -0.1848 -0.3982 -0.2594
 4510SOL    HW124992   3.585   0.127   8.912  0.1974  2.0688 -0.6591
 4510SOL    HW224993   3.447   0.110   8.966 -0.5686 -1.1497 -0.7392
 4511SOL     OW24994   1.755   0.756   0.199 -0.7152  0.6455 -0.2028
 4511SOL    HW124995   1.824   0.699   0.234 -1.0491  0.9511  0.9359
 4511SOL    HW224996   1.675   0.705   0.202 -0.4986  0.3810  1.2325
 4512SOL     OW24997   4.522   4.298   1.224 -0.7660 -0.1840 -0.2363
 4512SOL    HW124998   4.520   4.366   1.156 -1.4242  0.6630  0.6162
 4512SOL    HW224999   4.544   4.222   1.170 -0.8673 -0.4066  0.0399
 4513SOL     OW25000   3.871   3.388   2.613 -0.3270  0.1064 -0.2304
 4513SOL    HW125001   3.951   3.439   2.625 -1.2355  1.7631 -1.1169
 4513SOL    HW225002   3.813   3.457   2.647  0.6909  1.6547 -1.6358
 4514SOL     OW25003   1.314   3.438   8.638  0.7118 -0.1517 -0.5571
 4514SOL    HW125004   1.256   3.430   8.714  0.1931  1.1067 -0.8168
 4514SOL    HW225005   1.260   3.404   8.567  0.3583 -1.1843  0.2008
 4515SOL     OW25006   0.640   1.065   8.709 -0.0325 -0.2845 -0.2315
 4515SOL    HW125007   0.695   0.986   8.712  3.2214  1.9874  0.2740
 4515SOL    HW225008   0.707   1.115   8.662 -0.9737  0.0645 -1.2048
 4516SOL     OW25009   3.473   4.318  12.674  0.3446 -0.3306 -0.4970
 4516SOL    HW125010   3.529   4.323  12.596  1.3510 -1.6666  0.1348
 4516SOL    HW225011   3.442   4.228  12.668  1.2673 -0.7930  1.6925
 4517SOL     OW25012   2.778   4.238  11.229  0.1109 -0.4622  0.3292
 4517SOL    HW125013   2.715   4.302  11.263  1.7539  2.1480 -1.4636
 4517SOL    HW225014   2.843   4.302  11.198 -0.0373 -0.9165 -0.9188
 4518SOL     OW25015   1.654   2.602   5.859  0.4704 -0.4930  0.0255
 4518SOL    HW125016   1.746   2.613   5.883  0.6603 -1.0951 -0.4115
 4518SOL    HW225017   1.663   2.589   5.765 -1.1706  2.2235 -0.4995
 4519SOL     OW25018   0.881   1.810   2.885  0.0316 -0.0153  0.1340
 4519SOL    HW125019   0.837   1.747   2.942 -0.6691  0.5423  0.2074
 4519SOL    HW225020   0.809   1.865   2.855  0.3448  0.8919  1.0444
 4520SOL     OW25021   0.167   1.222   6.550  0.3126  0.0327 -0.3623
 4520SOL    HW125022   0.209   1.308   6.552 -2.3709  1.2268  3.0741
 4520SOL    HW225023   0.080   1.252   6.576  0.6343  0.2521  0.4649
 4521SOL     OW25024   3.912   3.625   6.504 -0.4538  0.4764 -0.2461
 4521SOL    HW125025   3.884   3.683   6.575 -0.9007  0.3333 -0.3018
 4521SOL    HW225026   3.935   3.543   6.549  0.1086  0.0284 -1.3459
 4522SOL     OW25027   0.353   3.675  14.932 -0.5532  0.2369  0.5773
 4522SOL    HW125028   0.365   3.752  14.877 -0.2642 -0.7824 -0.7790
 4522SOL    HW225029   0.258   3.663  14.921 -0.8738  2.6716  0.6853
 4523SOL     OW25030   4.492   3.562  16.301 -0.1234 -0.1138 -0.0948
 4523SOL    HW125031   4.468   3.654  16.303 -1.7075 -0.5112 -0.7200
 4523SOL    HW225032   4.404   3.531  16.279  1.3158 -2.3053 -2.7603
 4524SOL     OW25033   0.212   1.719  12.002 -0.2691  0.4055  0.2463
 4524SOL    HW125034   0.203   1.663  12.079 -0.7147  0.7639  0.4509
 4524SOL    HW225035   0.195   1.652  11.935  3.1066 -0.1832 -0.0492
 4525SOL     OW25036   3.005   2.410  15.554 -0.0785 -0.3606  0.0172
 4525SOL    HW125037   3.057   2.445  15.482  0.3851 -0.1518  0.4528
 4525SOL    HW225038   2.926   2.385  15.507 -0.6972 -1.4026  1.5904
 4526SOL     OW25039   0.548   4.523   3.325 -0.2980  0.5202  0.0692
 4526SOL    HW125040   0.559   4.488   3.236 -2.5645  1.9446 -0.8026
 4526SOL    HW225041   0.485   4.469   3.373 -0.9868  1.6555  0.4449
 4527SOL     OW25042   0.839   1.094   0.460 -0.2334 -0.3004 -0.2900
 4527SOL    HW125043   0.874   1.094   0.371  1.4197  1.3888  0.3593
 4527SOL    HW225044   0.805   1.005   0.457 -0.1698 -0.3738  1.1167
 4528SOL     OW25045   1.075   0.317   4.808  0.0101  0.0785  0.8267
 4528SOL    HW125046   1.168   0.295   4.806  0.1283  0.5428  1.1466
 4528SOL    HW225047   1.084   0.399   4.857 -0.2381 -0.0122  1.0200
 4529SOL     OW25048   1.947   2.301  17.187 -0.1625 -0.3560  0.5181
 4529SOL    HW125049   1.939   2.396  17.192  0.1045 -0.3219  0.2527
 4529SOL    HW225050   2.005   2.294  17.112  0.8112  0.2253  1.2182
 4530SOL     OW25051   0.097   1.347   5.285 -0.0757 -0.2641 -0.4197
 4530SOL    HW125052   0.163   1.279   5.273  0.7227  0.0998  1.9333
 4530SOL    HW225053   0.137   1.417   5.235  0.0767  1.3325  1.9153
 4531SOL     OW25054   0.805   0.934   8.490 -0.0340  0.4673  0.1352
 4531SOL    HW125055   0.870   1.005   8.492  2.6832 -1.9829 -0.0689
 4531SOL    HW225056   0.860   0.858   8.509 -1.3778 -0.5509 -0.1593
 4532SOL     OW25057   0.193   0.259   5.492 -0.0303 -0.9857 -0.0346
 4532SOL    HW125058   0.141   0.194   5.445  0.2197 -0.7729 -0.6062
 4532SOL    HW225059   0.253   0.195   5.532  0.5661  1.4155  2.9484
 4533SOL     OW25060   3.864   2.965  15.843  0.2192 -0.5420  0.3032
 4533SOL    HW125061   3.782   2.958  15.795  0.0418  0.0672  0.5221
 4533SOL    HW225062   3.851   2.875  15.876 -1.0377 -0.6266 -0.4248
 4534SOL     OW25063   3.343   3.186  16.683 -0.6260 -0.4787 -0.3476
 4534SOL    HW125064   3.281   3.123  16.720  0.5168 -1.4989 -0.1506
 4534SOL    HW225065   3.295   3.267  16.701  3.5791  1.2190  3.3234
 4535SOL     OW25066   1.067   4.386   2.691  0.1835  0.5108  0.2374
 4535SOL    HW125067   0.988   4.349   2.730  0.2965 -0.4076 -0.4152
 4535SOL    HW225068   1.039   4.407   2.602 -1.6712  0.8600  0.9203
 4536SOL     OW25069   1.064   3.249   4.777  0.0441  0.6644 -0.1762
 4536SOL    HW125070   1.119   3.199   4.717 -0.9122 -0.7943  0.1772
 4536SOL    HW225071   1.090   3.204   4.858 -0.8320  0.7393  0.1406
 4537SOL     OW25072   1.582   2.535  13.545  0.6052 -1.0679 -0.2051
 4537SOL    HW125073   1.513   2.569  13.487 -0.5286  0.1339  1.8532
 4537SOL    HW225074   1.526   2.482  13.601 -0.6744 -0.2839 -0.7327
 4538SOL     OW25075   1.788   2.827   6.997 -0.3564  0.0404  0.2768
 4538SOL    HW125076   1.883   2.831   6.986 -0.1595 -3.2717  0.8026
 4538SOL    HW225077   1.782   2.741   7.039 -1.2419 -0.0617 -0.0574
 4539SOL     OW25078   1.054   4.342   5.586 -0.0209 -0.2407  0.0648
 4539SOL    HW125079   1.015   4.270   5.636  0.0610 -0.6384 -0.4429
 4539SOL    HW225080   1.113   4.279   5.546 -0.2435  1.5089 -3.0955
 4540SOL     OW25081   0.491   4.049   4.421  0.3044 -0.0224 -0.0462
 4540SOL    HW125082   0.450   3.983   4.476 -3.1001  0.6406 -1.8259
 4540SOL    HW225083   0.444   4.022   4.342  1.6688  1.5054 -1.4165
 4541SOL     OW25084   1.770   2.485   6.653  0.4029 -0.0775 -0.3227
 4541SOL    HW125085   1.756   2.391   6.668  1.6598 -0.4393 -1.3705
 4541SOL    HW225086   1.862   2.488   6.626  0.8038 -3.6411  0.5875
 4542SOL     OW25087   0.252   2.070   3.471 -0.2805  0.1994 -0.7549
 4542SOL    HW125088   0.265   2.158   3.508 -0.9246  0.0437 -0.1567
 4542SOL    HW225089   0.343   2.041   3.475 -0.7227 -0.9834  0.7377
 4543SOL     OW25090   1.658   0.881   0.554 -0.3178 -0.8383 -0.1152
 4543SOL    HW125091   1.595   0.859   0.485 -0.6765 -4.2342  1.2797
 4543SOL    HW225092   1.596   0.896   0.625 -0.8181 -0.2930 -0.6607
 4544SOL     OW25093   0.274   1.456   3.697  0.2033 -0.9369 -0.0705
 4544SOL    HW125094   0.274   1.465   3.602 -0.1153 -1.8770 -0.1642
 4544SOL    HW225095   0.223   1.527   3.737  0.4366 -2.2135  2.5619
 4545SOL     OW25096   1.828   2.866   9.054  0.0462  0.2957  0.2400
 4545SOL    HW125097   1.796   2.926   8.987 -0.0513  0.8233  0.7583
 4545SOL    HW225098   1.811   2.910   9.137  2.4882 -0.0665  0.9442
 4546SOL     OW25099   1.422   3.400   8.080 -0.1095  0.8744  0.1942
 4546SOL    HW125100   1.422   3.310   8.112 -0.7658  1.9252  3.1554
 4546SOL    HW225101   1.447   3.455   8.154  0.9453 -1.2793  1.4386
 4547SOL     OW25102   3.648   3.517   4.219 -0.4780 -0.4563 -0.4157
 4547SOL    HW125103   3.656   3.604   4.178  2.4339  0.2457  1.7012
 4547SOL    HW225104   3.605   3.551   4.298  2.7652 -0.2670  1.2342
 4548SOL     OW25105   1.839   3.451   7.758 -0.1866 -0.3186  0.2599
 4548SOL    HW125106   1.791   3.434   7.677 -1.4663 -1.4906  1.2551
 4548SOL    HW225107   1.774   3.503   7.806 -0.9723 -1.8965  0.9343
 4549SOL     OW25108   0.671   1.369  16.743 -0.1378 -0.0272  0.0170
 4549SOL    HW125109   0.635   1.291  16.785  2.1088 -0.7382  0.6051
 4549SOL    HW225110   0.604   1.396  16.680 -0.5090  1.5952  1.1103
 4550SOL     OW25111   3.370   1.126   8.557 -0.2345  0.0948 -0.4902
 4550SOL    HW125112   3.349   1.130   8.650 -0.2087 -2.3007 -0.3813
 4550SOL    HW225113   3.384   1.221   8.550 -2.4800  0.5131  0.7026
 4551SOL     OW25114   3.719   2.480   4.668  0.4018 -0.3099  0.5174
 4551SOL    HW125115   3.774   2.401   4.662 -2.1227 -1.9178 -1.3638
 4551SOL    HW225116   3.775   2.530   4.728 -1.3351  1.0631  0.9713
 4552SOL     OW25117   4.230   3.622   9.982 -0.2816  0.2390 -0.1597
 4552SOL    HW125118   4.276   3.653  10.060  1.5474 -1.1119 -0.6756
 4552SOL    HW225119   4.139   3.602  10.005  0.5807 -2.6092  0.7798
 4553SOL     OW25120   0.520   2.539   4.100 -0.6612  0.1667 -0.3734
 4553SOL    HW125121   0.426   2.523   4.111 -0.9017  0.2970 -2.2606
 4553SOL    HW225122   0.533   2.625   4.140  0.7975 -0.1908 -0.1038
 4554SOL     OW25123   1.605   4.677   3.647 -0.3804  0.1845  0.0923
 4554SOL    HW125124   1.636   0.011   3.576  0.8541  1.2764  1.5094
 4554SOL    HW225125   1.674   4.688   3.713  1.3468  1.5181 -1.9441
 4555SOL     OW25126   4.569   1.069   2.278  0.2137  0.7431 -0.1486
 4555SOL    HW125127   4.492   1.101   2.231  1.4766  0.5721 -2.3323
 4555SOL    HW225128   4.637   1.063   2.210  1.0494 -0.1396  0.7618
 4556SOL     OW25129   1.224   4.596   3.646 -0.1339 -0.0762  0.0955
 4556SOL    HW125130   1.250   4.592   3.739  1.4252  0.6424 -0.3060
 4556SOL    HW225131   1.263   4.516   3.612  0.3703  1.4139 -2.8210
 4557SOL     OW25132   2.692   2.638  10.712 -0.1828  0.1500 -0.1137
 4557SOL    HW125133   2.653   2.698  10.776 -0.6801  0.7907 -1.0140
 4557SOL    HW225134   2.619   2.618  10.653  0.0059 -2.4972  0.5858
 4558SOL     OW25135   1.383   4.614   7.310  0.4969 -0.1117  0.7738
 4558SOL    HW125136   1.402   4.524   7.286  1.9695 -0.2591  2.4956
 4558SOL    HW225137   1.450   4.630   7.377  2.0535 -1.8218 -0.3865
 4559SOL     OW25138   0.892   3.345   2.119  0.6302  0.1132  0.1017
 4559SOL    HW125139   0.928   3.419   2.069  0.4546  1.5247  2.0623
 4559SOL    HW225140   0.820   3.324   2.059  0.5596  2.2742 -0.5893
 4560SOL     OW25141   2.377   2.446  11.979  0.5608  0.3848 -0.3186
 4560SOL    HW125142   2.458   2.484  11.945  0.4385 -0.5931 -1.6938
 4560SOL    HW225143   2.314   2.434  11.908  0.5965  0.0876 -0.3017
 4561SOL     OW25144   3.564   1.465  15.903 -0.1362  0.5995 -0.0227
 4561SOL    HW125145   3.630   1.533  15.890  0.7296  0.3866  3.1792
 4561SOL    HW225146   3.478   1.507  15.909 -0.2991  0.0647  1.4766
 4562SOL     OW25147   2.807   1.684   4.975 -0.0244 -0.4598  0.5085
 4562SOL    HW125148   2.832   1.775   4.960  1.4064 -1.1579 -1.3525
 4562SOL    HW225149   2.792   1.656   4.884  2.4569 -0.2195  0.0228
 4563SOL     OW25150   2.262   0.757   3.654  0.4923 -0.3083  0.0253
 4563SOL    HW125151   2.239   0.678   3.704  2.0464 -0.2914  0.7712
 4563SOL    HW225152   2.283   0.820   3.723  2.1067 -2.5502  1.5962
 4564SOL     OW25153   2.739   2.691   3.338  0.1029 -0.6217 -0.1745
 4564SOL    HW125154   2.691   2.669   3.258  1.5658 -3.3255 -0.3180
 4564SOL    HW225155   2.817   2.635   3.332  1.8083  1.9945 -2.2877
 4565SOL     OW25156   3.600   2.790   5.769  0.2859  0.5916 -0.3410
 4565SOL    HW125157   3.690   2.779   5.799  0.3347 -0.5127 -0.8927
 4565SOL    HW225158   3.577   2.879   5.796 -1.4951 -0.2368  0.8962
 4566SOL     OW25159   3.572   2.856  14.621 -0.6929 -0.2806  0.2443
 4566SOL    HW125160   3.557   2.917  14.550 -0.5661 -1.1811 -0.5596
 4566SOL    HW225161   3.662   2.881  14.640 -0.8826  0.9639 -0.5060
 4567SOL     OW25162   1.273   4.309   0.299 -0.2360 -0.0514 -0.4706
 4567SOL    HW125163   1.305   4.221   0.318 -0.6549 -0.1503 -0.2302
 4567SOL    HW225164   1.197   4.301   0.357 -1.5912  0.8202 -2.1225
 4568SOL     OW25165   2.120   2.703   7.405 -0.1438 -0.3239 -0.2966
 4568SOL    HW125166   2.212   2.693   7.429 -0.0768  0.3522 -0.2780
 4568SOL    HW225167   2.073   2.686   7.487  1.0918 -0.8929  0.3026
 4569SOL     OW25168   1.384   4.226   6.024 -0.4813 -0.3331  0.3485
 4569SOL    HW125169   1.393   4.238   6.118  2.9217 -0.4114  0.0241
 4569SOL    HW225170   1.475   4.236   5.997 -0.6298  1.4276  0.5614
 4570SOL     OW25171   2.637   2.337   2.778  0.3050 -0.1836  0.3243
 4570SOL    HW125172   2.586   2.301   2.851 -0.5474 -0.3978 -0.3730
 4570SOL    HW225173   2.622   2.278   2.704 -0.0484  1.8529 -1.2308
 4571SOL     OW25174   3.658   4.246   0.874  1.1139 -0.6957  0.2927
 4571SOL    HW125175   3.604   4.174   0.843 -0.7916  1.6138 -1.7986
 4571SOL    HW225176   3.745   4.207   0.866  0.6052 -2.1523  2.0394
 4572SOL     OW25177   2.414   1.142   6.087 -0.7045  0.3640 -0.1798
 4572SOL    HW125178   2.441   1.115   5.999 -0.9719  1.2890 -0.5469
 4572SOL    HW225179   2.342   1.200   6.064 -1.2183  0.5399  1.8930
 4573SOL     OW25180   0.549   1.484   6.762  0.0091 -0.1603  0.1987
 4573SOL    HW125181   0.496   1.476   6.841  0.1542 -1.6969  0.1351
 4573SOL    HW225182   0.522   1.561   6.711  2.0248  1.9810  2.3544
 4574SOL     OW25183   0.018   0.289   2.704 -0.0696  0.6404  0.0940
 4574SOL    HW125184   0.019   0.385   2.707  0.5946  0.6044  0.8219
 4574SOL    HW225185   4.649   0.269   2.685  0.3332 -2.6305  1.6204
 4575SOL     OW25186   3.755   4.308   5.493  0.3051 -0.2078  0.2685
 4575SOL    HW125187   3.681   4.363   5.519  0.2813  0.7036 -1.6798
 4575SOL    HW225188   3.718   4.220   5.492  0.8579 -0.4225 -1.5822
 4576SOL     OW25189   2.053   0.275   2.986 -0.2336 -0.0795  0.3279
 4576SOL    HW125190   2.011   0.241   3.065  0.5472 -1.3065  0.2254
 4576SOL    HW225191   2.137   0.228   2.985 -0.1530 -0.0398  4.0752
 4577SOL     OW25192   3.994   0.842   4.219  0.0905 -0.3729 -0.4975
 4577SOL    HW125193   3.981   0.810   4.308  1.4427 -0.1384 -0.2124
 4577SOL    HW225194   3.905   0.830   4.187  0.7047 -1.4031 -1.8258
 4578SOL     OW25195   1.533   3.406   1.004 -0.4523  0.1457 -0.2502
 4578SOL    HW125196   1.480   3.483   1.026 -3.1829 -1.7180 -0.2960
 4578SOL    HW225197   1.526   3.408   0.909 -1.5947 -0.4018 -0.1813
 4579SOL     OW25198   4.291   2.136   2.039 -0.2511 -0.0637 -0.3088
 4579SOL    HW125199   4.387   2.139   2.041 -0.2467  0.1822 -0.7753
 4579SOL    HW225200   4.286   2.164   1.947 -2.0669  0.4377 -0.0578
 4580SOL     OW25201   0.837   2.791   9.589 -0.3060 -0.8345  0.6986
 4580SOL    HW125202   0.784   2.819   9.664  0.4986 -0.2690  1.0514
 4580SOL    HW225203   0.812   2.856   9.523  2.3864 -1.4283 -0.8819
 4581SOL     OW25204   3.987   4.714  13.393  0.1809  0.2525  0.1052
 4581SOL    HW125205   4.001   4.620  13.378  0.6239  0.2493  0.5572
 4581SOL    HW225206   3.951   4.703  13.481  1.2783 -0.9081  0.4056
 4582SOL     OW25207   4.076   0.542  12.185 -0.0081 -0.2474 -0.4240
 4582SOL    HW125208   4.090   0.637  12.185  2.4444 -0.5894 -2.4577
 4582SOL    HW225209   4.161   0.522  12.225 -0.5669 -1.4539  0.1390
 4583SOL     OW25210   0.726   3.022  10.986  0.3115  0.2186 -0.8252
 4583SOL    HW125211   0.759   2.946  11.034 -0.7903  1.1611  1.4253
 4583SOL    HW225212   0.642   3.032  11.029  1.1625  2.1862  0.3850
 4584SOL     OW25213   2.452   3.717   2.426 -0.1335 -0.0681  0.2648
 4584SOL    HW125214   2.386   3.649   2.429 -2.3813  2.1398  0.6004
 4584SOL    HW225215   2.407   3.796   2.455 -1.2032 -1.2170  1.6917
 4585SOL     OW25216   0.566   2.929   4.882  0.4306 -0.1591  0.0939
 4585SOL    HW125217   0.595   2.881   4.959  0.5983 -0.0528  0.0985
 4585SOL    HW225218   0.640   2.978   4.846 -1.4441  0.2628 -3.1522
 4586SOL     OW25219   2.371   3.660   3.197 -0.0183 -0.2052 -0.4961
 4586SOL    HW125220   2.429   3.616   3.259  0.3764  0.3896 -0.4339
 4586SOL    HW225221   2.304   3.685   3.261  0.2332 -0.9317  0.0564
 4587SOL     OW25222   1.877   1.358   5.259  0.2040 -0.6394 -0.4929
 4587SOL    HW125223   1.813   1.344   5.190 -1.7729 -2.7758  1.7856
 4587SOL    HW225224   1.941   1.407   5.207 -1.2767  1.0773 -0.6917
 4588SOL     OW25225   1.958   4.510   7.640 -0.1390  0.3107  0.5328
 4588SOL    HW125226   2.037   4.457   7.647 -0.7734 -0.8491 -1.1434
 4588SOL    HW225227   1.909   4.471   7.712 -2.1839  0.5412 -0.7369
 4589SOL     OW25228   3.550   4.595  16.921 -0.0550 -0.0166 -0.1112
 4589SOL    HW125229   3.549   4.502  16.901  2.8982 -0.4973  1.9612
 4589SOL    HW225230   3.493   4.634  16.855 -1.2810 -1.0597  0.3287
 4590SOL     OW25231   3.776   4.123   3.145 -0.2100  0.5544 -0.4710
 4590SOL    HW125232   3.775   4.028   3.155  0.6601  0.4531 -1.2711
 4590SOL    HW225233   3.708   4.139   3.080 -1.3055  0.7739  0.7436
 4591SOL     OW25234   2.540   0.942   2.478  0.6881  0.2549 -0.3850
 4591SOL    HW125235   2.623   0.991   2.476  0.0913  1.2611 -0.6597
 4591SOL    HW225236   2.557   0.864   2.530  0.8631  0.4171 -0.2004
 4592SOL     OW25237   1.296   0.232   6.531 -0.0787  0.8972  0.0416
 4592SOL    HW125238   1.213   0.195   6.499  0.0184  2.2091 -1.7201
 4592SOL    HW225239   1.323   0.179   6.606  0.5527  1.8124  0.4446
 4593SOL     OW25240   1.250   3.713   4.015 -0.1507 -0.5604 -0.5773
 4593SOL    HW125241   1.310   3.745   3.948  1.8186 -0.6608  1.1380
 4593SOL    HW225242   1.199   3.793   4.029  1.6852  0.4482  0.3166
 4594SOL     OW25243   0.495   1.233   2.321  0.8480  0.2452  0.5739
 4594SOL    HW125244   0.445   1.152   2.327  1.2017 -0.0382 -0.2468
 4594SOL    HW225245   0.548   1.235   2.400  1.2413 -1.4761  0.3608
 4595SOL     OW25246   1.681   1.747  11.213 -0.1007  0.6120 -0.5473
 4595SOL    HW125247   1.752   1.717  11.269 -0.4643 -0.8988 -0.8830
 4595SOL    HW225248   1.664   1.834  11.250 -0.3088  0.4451 -0.2505
 4596SOL     OW25249   4.713   0.184  13.712 -0.5269  0.6123 -0.1143
 4596SOL    HW125250   4.700   0.116  13.778 -1.2239  0.9780  0.1174
 4596SOL    HW225251   0.066   0.225  13.753 -0.3839  1.0755 -0.8441
 4597SOL     OW25252   3.817   4.680   2.764  0.3598  0.6905 -0.1824
 4597SOL    HW125253   3.856   4.717   2.843  1.8839 -1.1445 -0.0863
 4597SOL    HW225254   3.884   4.627   2.722  0.0949  0.3722 -0.2079
 4598SOL     OW25255   1.655   2.789   0.702  0.0510 -0.3831  0.1128
 4598SOL    HW125256   1.719   2.795   0.772 -0.2548  1.0512  0.2638
 4598SOL    HW225257   1.700   2.754   0.625  2.0806 -0.7697  1.5021
 4599SOL     OW25258   0.885   2.324   3.849 -0.3105  0.0052  0.3168
 4599SOL    HW125259   0.911   2.261   3.781 -0.3290  1.9964 -1.5215
 4599SOL    HW225260   0.851   2.264   3.915  0.9304 -0.7171  0.3080
 4600SOL     OW25261   1.718   3.651   8.823  0.1584 -0.0655  0.1060
 4600SOL    HW125262   1.690   3.702   8.899  3.3646  2.8370 -0.6787
 4600SOL    HW225263   1.808   3.679   8.805  0.1616  0.8127  1.4910
 4601SOL     OW25264   0.343   1.668   6.278  0.2764  0.7143  0.0731
 4601SOL    HW125265   0.262   1.704   6.240  0.4727 -0.2102 -1.2382
 4601SOL    HW225266   0.394   1.746   6.299 -2.7476  2.2120  1.8273
 4602SOL     OW25267   4.027   0.137   8.516 -0.3434  0.1207  0.0756
 4602SOL    HW125268   3.986   0.200   8.575 -0.0349  1.5807 -1.2683
 4602SOL    HW225269   4.077   0.081   8.575  0.8465  1.6838  0.5595
 4603SOL     OW25270   1.551   4.356  11.566  0.0556 -0.5381 -0.5770
 4603SOL    HW125271   1.581   4.412  11.494 -0.0542 -0.4117 -0.5236
 4603SOL    HW225272   1.514   4.412  11.634  1.0250  0.3370 -0.7531
 4604SOL     OW25273   3.360   1.192   1.179 -0.6009 -0.0705  0.5213
 4604SOL    HW125274   3.276   1.147   1.191  0.3547 -1.5067  1.7253
 4604SOL    HW225275   3.404   1.120   1.133  0.9818  1.5171 -0.4445
 4605SOL     OW25276   4.418   2.341   7.994  0.2379  1.1288 -0.4924
 4605SOL    HW125277   4.488   2.406   7.989 -2.0631  3.6432  0.3796
 4605SOL    HW225278   4.453   2.276   7.933 -1.8723 -0.2414 -0.2505
 4606SOL     OW25279   3.544   4.639   4.382  0.7021  0.0128 -0.6585
 4606SOL    HW125280   3.599   4.714   4.407  1.5520 -0.5857 -0.7097
 4606SOL    HW225281   3.532   4.667   4.292 -0.9569  1.2600 -0.0420
 4607SOL     OW25282   0.839   2.665   7.637  0.1198  0.1370 -0.5205
 4607SOL    HW125283   0.765   2.608   7.619 -0.3426  0.5368  0.1171
 4607SOL    HW225284   0.916   2.609   7.633 -1.8547 -2.5281 -1.0975
 4608SOL     OW25285   2.206   0.155  15.415  0.1335 -0.5356  0.5438
 4608SOL    HW125286   2.200   0.073  15.365  0.3873 -1.0917  1.4189
 4608SOL    HW225287   2.242   0.218  15.353 -0.6368 -1.7738 -1.1622
 4609SOL     OW25288   4.418   1.360  11.328 -0.1175 -0.2275 -0.5170
 4609SOL    HW125289   4.416   1.294  11.259  1.2933 -1.2392  0.3981
 4609SOL    HW225290   4.361   1.433  11.306  2.3162  1.7921 -0.1087
 4610SOL     OW25291   1.745   0.276   3.645  0.7299  0.2593 -0.7487
 4610SOL    HW125292   1.693   0.221   3.586  0.1601 -2.0338  1.8712
 4610SOL    HW225293   1.693   0.273   3.726 -1.3283 -0.4025 -2.0763
 4611SOL     OW25294   0.978   4.144   1.830 -0.4997  0.0043  0.6330
 4611SOL    HW125295   0.922   4.141   1.752 -2.1074  2.1789  1.6842
 4611SOL    HW225296   0.987   4.238   1.848  0.6914 -0.0722  0.3804
 4612SOL     OW25297   3.223   2.355   9.412  0.1908 -0.6040  0.0283
 4612SOL    HW125298   3.170   2.277   9.396 -1.1780 -0.0677  1.9143
 4612SOL    HW225299   3.174   2.400   9.481 -0.8136 -2.7219  0.6857
 4613SOL     OW25300   1.880   2.896   2.034 -0.3085 -0.5588 -0.0120
 4613SOL    HW125301   1.902   2.816   2.081 -0.3358 -0.1344  0.7349
 4613SOL    HW225302   1.894   2.884   1.941 -0.7188 -0.5839 -0.0727
 4614SOL     OW25303   3.806   0.663   5.848  0.2805 -0.1459  0.1823
 4614SOL    HW125304   3.862   0.711   5.908  3.7903 -0.9897 -2.4124
 4614SOL    HW225305   3.859   0.585   5.834  0.9731  0.0993  1.4921
 4615SOL     OW25306   3.944   2.701   3.958  0.4444 -0.4992 -0.3860
 4615SOL    HW125307   3.944   2.771   4.023  1.6374 -0.5415 -0.3426
 4615SOL    HW225308   3.945   2.758   3.881 -2.9920 -0.7655 -0.6013
 4616SOL     OW25309   0.578   2.249   5.368 -0.6017  0.6040  0.3641
 4616SOL    HW125310   0.631   2.237   5.289 -1.8438 -3.2302  0.0940
 4616SOL    HW225311   0.567   2.159   5.399 -2.0560 -0.2606 -2.6794
 4617SOL     OW25312   4.393   1.289  13.247 -0.1144  0.0885 -0.0743
 4617SOL    HW125313   4.387   1.304  13.341  0.2746  0.1177 -0.0563
 4617SOL    HW225314   4.460   1.221  13.240  1.0340  1.2864 -0.6523
 4618SOL     OW25315   1.165   3.545   2.179  0.0189  0.1641 -0.8637
 4618SOL    HW125316   1.195   3.556   2.269  0.4779  0.8888 -1.1021
 4618SOL    HW225317   1.216   3.474   2.140  0.9146  0.1954  0.2618
 4619SOL     OW25318   2.000   4.474  10.698  0.2989 -0.0300  0.0351
 4619SOL    HW125319   1.951   4.545  10.739  0.2194 -1.4714  2.4134
 4619SOL    HW225320   1.993   4.490  10.604  0.2601 -1.4591 -0.2085
 4620SOL     OW25321   3.242   2.908   9.103 -0.5031  0.2449  0.1708
 4620SOL    HW125322   3.247   2.985   9.046  0.0555 -0.3639 -0.5986
 4620SOL    HW225323   3.157   2.928   9.141 -1.8426 -1.5728 -1.8994
 4621SOL     OW25324   2.801   3.626   8.926  0.3239  0.1052  0.5167
 4621SOL    HW125325   2.800   3.649   9.019 -0.9452  0.1179  0.5047
 4621SOL    HW225326   2.869   3.681   8.890 -0.5681 -0.0589 -1.4149
 4622SOL     OW25327   0.226   0.948  12.521  0.4862  0.3993 -0.2001
 4622SOL    HW125328   0.244   1.013  12.589  1.2884 -0.3152  0.2708
 4622SOL    HW225329   0.135   0.967  12.496  0.1557 -0.8680  0.0604
 4623SOL     OW25330   1.829   0.485   8.200 -0.0979  0.0651 -0.3287
 4623SOL    HW125331   1.890   0.473   8.272  1.9955  1.2311 -1.8868
 4623SOL    HW225332   1.823   0.581   8.204  0.3743  0.0483  0.7292
 4624SOL     OW25333   4.590   4.326   3.990 -0.3118  0.2897  0.1756
 4624SOL    HW125334   4.663   4.304   4.047 -0.5393 -0.3895  0.2002
 4624SOL    HW225335   4.556   4.239   3.968 -0.4815  0.5405 -0.5779
 4625SOL     OW25336   1.684   1.952   5.205 -0.4965 -0.5293  0.3962
 4625SOL    HW125337   1.593   1.940   5.176  0.1741  0.5219 -2.0803
 4625SOL    HW225338   1.716   1.865   5.228 -1.6520 -1.3800 -1.1979
 4626SOL     OW25339   0.885   3.146   6.345  0.0619 -0.6296 -0.6683
 4626SOL    HW125340   0.944   3.074   6.364 -1.3080 -1.6016 -0.0993
 4626SOL    HW225341   0.826   3.133   6.420 -0.8822  0.5886 -1.1880
 4627SOL     OW25342   2.643   1.637  11.845 -0.1735  0.3837  0.2626
 4627SOL    HW125343   2.613   1.721  11.878  1.5935  0.4176  1.7791
 4627SOL    HW225344   2.726   1.663  11.805  0.7063  0.0371  1.8153
 4628SOL     OW25345   4.625   1.160   6.117 -0.0694  0.0275 -0.0296
 4628SOL    HW125346   4.612   1.167   6.211  1.3300  1.5799  0.0498
 4628SOL    HW225347   4.581   1.241   6.095  1.3065  1.2700  1.7705
 4629SOL     OW25348   0.778   4.697   7.286  0.7878  0.5789 -0.1775
 4629SOL    HW125349   0.828   4.656   7.216  0.1007 -0.4191 -0.0811
 4629SOL    HW225350   0.751   4.615   7.327  0.4417  0.3609 -0.8422
 4630SOL     OW25351   3.363   1.632   5.171 -0.5476  0.2940  0.2184
 4630SOL    HW125352   3.269   1.629   5.155 -0.9346 -1.2009  2.8084
 4630SOL    HW225353   3.361   1.626   5.267 -0.8626 -1.2879  0.1063
 4631SOL     OW25354   4.048   0.108   9.770  0.2155  0.1879 -0.0110
 4631SOL    HW125355   3.966   0.157   9.773  1.6829  2.4421  2.5024
 4631SOL    HW225356   4.012   0.032   9.724  1.3133 -0.3231 -0.0240
 4632SOL     OW25357   3.129   1.769   2.457 -0.4041 -0.4536  0.3272
 4632SOL    HW125358   3.151   1.838   2.520  2.7816  1.1971 -2.5830
 4632SOL    HW225359   3.149   1.685   2.498 -0.5268 -0.3552  0.5906
 4633SOL     OW25360   2.987   4.243   5.875 -0.0419 -0.6943  0.3884
 4633SOL    HW125361   2.957   4.320   5.923 -1.1065 -0.3318 -0.8603
 4633SOL    HW225362   3.074   4.277   5.854 -1.0283  0.3277 -2.0069
 4634SOL     OW25363   4.508   1.050   0.415  0.6792 -0.0809  0.4077
 4634SOL    HW125364   4.502   0.961   0.451  1.3105  0.1110  0.9999
 4634SOL    HW225365   4.463   1.038   0.332 -0.4161  1.6037  0.7560
 4635SOL     OW25366   0.898   1.537  14.700  0.1083  0.2881 -0.5779
 4635SOL    HW125367   0.822   1.565  14.751 -0.4486 -1.6149 -0.3576
 4635SOL    HW225368   0.878   1.572  14.613  1.1164 -0.4061 -1.0870
 4636SOL     OW25369   3.953   2.848   4.192 -0.6525 -0.5493  0.6843
 4636SOL    HW125370   3.938   2.942   4.202  0.3555 -0.0764 -2.3277
 4636SOL    HW225371   3.923   2.828   4.281 -2.2576 -2.2493 -0.2381
 4637SOL     OW25372   0.719   4.319   1.832 -0.7636 -0.2278  0.5971
 4637SOL    HW125373   0.713   4.414   1.832  3.5302  0.0073 -0.3902
 4637SOL    HW225374   0.805   4.292   1.864  0.7015  1.2080 -2.2011
 4638SOL     OW25375   0.304   0.186   4.393 -0.1058  0.3113  0.3686
 4638SOL    HW125376   0.389   0.144   4.379  0.2176  1.4863 -1.1860
 4638SOL    HW225377   0.324   0.261   4.450 -4.8274  1.2796  0.8172
 4639SOL     OW25378   4.092   4.586   3.886  0.1235 -0.4692  0.2529
 4639SOL    HW125379   4.094   4.678   3.859 -0.7527 -0.3569  0.5442
 4639SOL    HW225380   4.105   4.533   3.808  0.4453 -0.2516  0.1630
 4640SOL     OW25381   1.249   0.820   9.802  0.3530 -0.4434  0.3090
 4640SOL    HW125382   1.313   0.780   9.861 -0.6067 -2.6755 -0.1358
 4640SOL    HW225383   1.301   0.803   9.724 -0.6683  0.0913 -0.4853
 4641SOL     OW25384   3.023   1.585  13.662  0.3354 -0.2945  0.2893
 4641SOL    HW125385   2.992   1.610  13.749  1.1815 -0.4009  0.6173
 4641SOL    HW225386   3.082   1.512  13.681  0.8663  0.7454  2.5621
 4642SOL     OW25387   0.128   3.499   1.142 -0.2009 -0.6380 -0.1330
 4642SOL    HW125388   0.112   3.559   1.216 -1.9430 -0.4795 -0.6547
 4642SOL    HW225389   0.085   3.552   1.076  0.8343  1.9016  1.2164
 4643SOL     OW25390   0.487   3.535   2.330  0.4248 -0.5126  0.1626
 4643SOL    HW125391   0.427   3.588   2.382 -0.2361 -0.3202 -0.7915
 4643SOL    HW225392   0.519   3.484   2.405  0.0942  1.1737  1.4483
 4644SOL     OW25393   0.725   0.782   7.352 -0.0616  0.6877 -0.1653
 4644SOL    HW125394   0.656   0.760   7.414  0.0279 -1.4705 -0.8260
 4644SOL    HW225395   0.739   0.694   7.317 -1.0890  0.1205  0.8632
 4645SOL     OW25396   3.097   0.294   4.815  0.1352 -0.2351  0.5452
 4645SOL    HW125397   3.164   0.227   4.827 -0.8790 -1.0613  1.5344
 4645SOL    HW225398   3.154   0.367   4.841  1.5720 -0.2097 -2.6686
 4646SOL     OW25399   2.685   3.291   3.361  0.0388 -0.0379 -0.1907
 4646SOL    HW125400   2.688   3.215   3.303  1.9241  1.8545 -2.5390
 4646SOL    HW225401   2.769   3.330   3.337  0.3375  0.6233  1.8876
 4647SOL     OW25402   4.601   0.023   9.022 -0.5415 -0.2473  0.2020
 4647SOL    HW125403   4.683   0.067   9.047 -1.7256  0.7841  2.2647
 4647SOL    HW225404   4.577   0.091   8.960 -2.4308 -0.8926  0.2285
 4648SOL     OW25405   1.050   3.088   3.825 -0.2767 -0.0114  0.1856
 4648SOL    HW125406   1.100   3.021   3.872  0.8916  0.8588  0.1877
 4648SOL    HW225407   1.059   3.163   3.883  0.1938  1.3682 -1.6658
 4649SOL     OW25408   4.567   1.652  14.578 -0.0378  0.1437  0.7513
 4649SOL    HW125409   4.646   1.704  14.563  0.1798 -0.3221  0.2999
 4649SOL    HW225410   4.525   1.645  14.492  0.2769 -1.3697  0.7251
 4650SOL     OW25411   4.688   3.236   6.904  0.3886  1.1408 -0.0004
 4650SOL    HW125412   0.044   3.262   6.952 -0.0540 -0.9203  1.8294
 4650SOL    HW225413   4.627   3.275   6.967  0.9824  1.3898  0.4155
 4651SOL     OW25414   4.117   2.089  14.853  0.4600 -0.6549  0.0569
 4651SOL    HW125415   4.051   2.127  14.795  0.3414 -0.4954  0.2963
 4651SOL    HW225416   4.175   2.164  14.841 -0.7227  0.3874  0.7817
 4652SOL     OW25417   0.436   0.205   3.465  0.2826 -0.1255 -0.0986
 4652SOL    HW125418   0.496   0.166   3.401  2.7527 -0.2253  2.2442
 4652SOL    HW225419   0.419   0.296   3.441 -1.7307 -0.3697  0.4279
 4653SOL     OW25420   1.294   3.965  13.481 -0.0358  0.3065  0.5609
 4653SOL    HW125421   1.210   4.006  13.501 -0.8610 -0.2770 -1.7669
 4653SOL    HW225422   1.349   4.025  13.532  0.6117 -1.3337  1.8180
 4654SOL     OW25423   4.356   0.545   3.620  0.0549  0.0512  0.0394
 4654SOL    HW125424   4.436   0.493   3.626  0.6285  0.8814 -0.4154
 4654SOL    HW225425   4.379   0.620   3.675 -0.2727 -0.6503  1.1325
 4655SOL     OW25426   2.654   1.623  16.097  0.6089 -0.6027  0.1331
 4655SOL    HW125427   2.645   1.535  16.133  0.3780 -0.3271  0.7472
 4655SOL    HW225428   2.671   1.597  16.007  1.1133  0.7368 -0.1654
 4656SOL     OW25429   1.202   4.581   6.619 -0.1175 -0.0385  0.2706
 4656SOL    HW125430   1.213   4.525   6.542 -0.6624 -0.2010  0.3130
 4656SOL    HW225431   1.285   4.567   6.664 -0.3561 -2.6157 -0.1027
 4657SOL     OW25432   0.168   4.581   7.948  0.2720  0.1502  0.4407
 4657SOL    HW125433   0.261   4.564   7.935  0.3353  0.4471  0.5080
 4657SOL    HW225434   0.167   4.570   8.044 -0.8393 -2.5919  0.1133
 4658SOL     OW25435   4.663   1.393   9.498 -0.6563 -0.0882  0.0156
 4658SOL    HW125436   4.705   1.438   9.571  2.9962 -2.1695 -0.8110
 4658SOL    HW225437   0.024   1.376   9.454  1.0828  2.1208  2.4919
 4659SOL     OW25438   0.236   3.742   3.209 -0.6771  0.2462 -0.4678
 4659SOL    HW125439   0.158   3.725   3.156 -1.8925  0.0255  1.4279
 4659SOL    HW225440   0.202   3.716   3.294 -1.9946 -1.9248 -1.6465
 4660SOL     OW25441   2.074   3.653  11.012  0.1066 -0.3661 -0.0540
 4660SOL    HW125442   2.016   3.683  10.942  1.6822  1.0028 -0.7734
 4660SOL    HW225443   2.145   3.713  10.990  1.1763 -1.6915 -0.2456
 4661SOL     OW25444   3.006   3.398   5.737  0.2392  0.2677 -0.2810
 4661SOL    HW125445   2.932   3.457   5.722  0.2191  0.6582  1.3840
 4661SOL    HW225446   3.043   3.424   5.821 -0.5890 -2.3977  0.8838
 4662SOL     OW25447   3.191   0.307   0.538 -0.2041  0.4094  0.1693
 4662SOL    HW125448   3.166   0.392   0.503  1.2125  0.7965  0.1195
 4662SOL    HW225449   3.129   0.303   0.611 -1.6400 -1.3724 -1.1112
 4663SOL     OW25450   1.844   1.152   8.266  0.2233 -0.4204  0.4284
 4663SOL    HW125451   1.835   1.073   8.319  1.5340 -0.6623  0.3131
 4663SOL    HW225452   1.814   1.109   8.185 -1.1457  1.8215 -0.2441
 4664SOL     OW25453   4.127   1.045   7.578  0.2293 -0.1481 -0.0636
 4664SOL    HW125454   4.136   0.950   7.569  0.7030  0.0647 -1.8656
 4664SOL    HW225455   4.034   1.052   7.556  0.2370 -0.8700 -0.3314
 4665SOL     OW25456   2.324   2.692   5.230  0.9210  0.1283 -0.4231
 4665SOL    HW125457   2.395   2.756   5.223  1.5164 -0.5000 -0.1428
 4665SOL    HW225458   2.270   2.724   5.157  0.8164 -0.8282 -0.7663
 4666SOL     OW25459   3.464   0.924   4.904 -0.0674  0.4616 -0.1066
 4666SOL    HW125460   3.387   0.902   4.851  1.0007  1.5444 -2.1261
 4666SOL    HW225461   3.462   1.019   4.892 -1.1286  0.3137 -1.1130
 4667SOL     OW25462   2.766   3.936   1.310 -0.6884 -0.0533 -0.2755
 4667SOL    HW125463   2.793   3.844   1.314  2.5197  0.8380 -1.3716
 4667SOL    HW225464   2.721   3.941   1.395  1.2189  2.3108  0.5823
 4668SOL     OW25465   0.367   3.542   7.075 -0.3223  0.1521  0.0076
 4668SOL    HW125466   0.315   3.523   7.154 -1.1510 -0.6404 -0.7316
 4668SOL    HW225467   0.366   3.636   7.059 -0.4043 -0.3802 -2.9765
 4669SOL     OW25468   0.533   3.318  17.548  0.4807  0.0993  0.0371
 4669SOL    HW125469   0.595   3.286  17.614  0.2977  0.4088  0.3578
 4669SOL    HW225470   0.524   3.259  17.473 -0.8733  1.7658 -1.0950
 4670SOL     OW25471   2.833   1.949  13.112  0.0356 -0.0746 -0.2480
 4670SOL    HW125472   2.825   1.914  13.201  2.0368  2.1034  0.8121
 4670SOL    HW225473   2.883   1.879  13.071  0.4920  0.4062 -0.5039
 4671SOL     OW25474   0.241   3.957  11.463  0.0513 -0.4457 -0.5385
 4671SOL    HW125475   0.237   3.931  11.555  0.1329 -0.2337 -0.4767
 4671SOL    HW225476   0.194   4.040  11.471  0.9342 -0.0208  0.1785
 4672SOL     OW25477   2.956   0.791   8.308 -0.1289 -0.3870  0.0529
 4672SOL    HW125478   3.012   0.801   8.385 -2.4041 -0.2655  1.7157
 4672SOL    HW225479   2.999   0.732   8.246  0.3638 -0.4718  0.4762
 4673SOL     OW25480   0.520   3.892  16.465  0.0371 -0.3799  0.5320
 4673SOL    HW125481   0.545   3.980  16.491  2.5166 -1.0862  0.5093
 4673SOL    HW225482   0.474   3.918  16.385  1.8409 -1.0112 -0.7059
 4674SOL     OW25483   2.411   0.775   6.397 -0.0216  0.1820 -0.2690
 4674SOL    HW125484   2.330   0.798   6.443 -0.2280  1.8882 -1.4944
 4674SOL    HW225485   2.375   0.723   6.325 -0.8485  4.5873 -3.0559
 4675SOL     OW25486   0.549   2.280   4.586 -0.2712 -0.7770  0.2066
 4675SOL    HW125487   0.505   2.353   4.630  0.0985 -0.5666  0.2201
 4675SOL    HW225488   0.635   2.315   4.564  0.3268 -3.0559 -1.0565
 4676SOL     OW25489   4.075   4.480   6.487  0.4365 -0.4042 -0.2038
 4676SOL    HW125490   4.141   4.532   6.532 -1.2837  1.4925  0.1694
 4676SOL    HW225491   4.030   4.449   6.565 -0.1877  1.0207  0.0091
 4677SOL     OW25492   2.915   0.984   8.592 -0.3498  0.1402 -0.3098
 4677SOL    HW125493   2.844   1.042   8.565 -1.3387 -0.9902 -0.1856
 4677SOL    HW225494   2.873   0.906   8.629  0.2410 -0.4456 -0.8610
 4678SOL     OW25495   1.350   0.416   2.883  0.2053 -0.2246  0.7264
 4678SOL    HW125496   1.360   0.322   2.898  1.2486 -0.3781 -1.0292
 4678SOL    HW225497   1.336   0.460   2.968 -1.6271 -0.6176  0.6273
 4679SOL     OW25498   1.595   3.383  12.208 -0.2712 -0.0367 -0.2389
 4679SOL    HW125499   1.572   3.320  12.276  0.2437 -0.2763 -0.2795
 4679SOL    HW225500   1.510   3.421  12.186  0.3804  1.2738 -0.4567
 4680SOL     OW25501   2.157   0.052   8.564 -0.2017  0.1486  0.1802
 4680SOL    HW125502   2.158   0.078   8.657  1.4834 -0.1114  0.2458
 4680SOL    HW225503   2.224   0.113   8.533 -1.5985  1.1341 -0.8734
 4681SOL     OW25504   0.401   3.098   4.508 -0.2188 -0.4053 -0.2720
 4681SOL    HW125505   0.361   3.165   4.453 -2.5722 -0.6957  1.1180
 4681SOL    HW225506   0.423   3.151   4.585  2.4995 -0.9070 -0.6953
 4682SOL     OW25507   1.401   1.514   6.299  0.1691 -0.3265 -0.2390
 4682SOL    HW125508   1.383   1.522   6.206  0.6511 -1.1295 -0.4053
 4682SOL    HW225509   1.481   1.565   6.312 -1.0281  1.5581 -0.2673
 4683SOL     OW25510   2.697   2.850  17.367 -0.5261 -0.0600  0.3861
 4683SOL    HW125511   2.748   2.910  17.313  0.4054 -1.2403 -0.0471
 4683SOL    HW225512   2.730   2.762  17.348  1.0170  0.2304  1.6543
 4684SOL     OW25513   3.131   4.246   5.507 -0.2907 -0.0893  0.7920
 4684SOL    HW125514   3.130   4.268   5.600  1.1902  0.7363  0.6130
 4684SOL    HW225515   3.081   4.319   5.469 -0.9886 -1.0401 -0.1074
 4685SOL     OW25516   4.713   1.747   8.297 -0.6209  0.0998 -0.2127
 4685SOL    HW125517   4.652   1.733   8.225 -0.8385 -3.7543  0.7083
 4685SOL    HW225518   4.721   1.842   8.301  0.3359 -0.1002  2.4792
 4686SOL     OW25519   1.902   0.612   4.494  0.0961 -0.1961  0.5739
 4686SOL    HW125520   1.974   0.660   4.534  0.1458 -0.2932  0.5998
 4686SOL    HW225521   1.859   0.595   4.578  0.6944  0.9107  1.1007
 4687SOL     OW25522   1.589   2.613   9.037  0.1208 -0.3882  0.3217
 4687SOL    HW125523   1.665   2.604   8.980  0.4277 -0.6858  0.7799
 4687SOL    HW225524   1.628   2.657   9.113  0.2988 -0.6608  0.3888
 4688SOL     OW25525   0.667   2.440   6.822 -0.3495 -0.0742  0.6937
 4688SOL    HW125526   0.748   2.487   6.841 -0.7165  0.9190 -0.1875
 4688SOL    HW225527   0.635   2.489   6.746 -1.3649 -0.7459  0.6859
 4689SOL     OW25528   0.512   1.593   5.041 -0.3368  0.0535  0.0480
 4689SOL    HW125529   0.482   1.619   4.954  2.4635 -1.4177 -1.3332
 4689SOL    HW225530   0.585   1.653   5.053  0.0650 -0.4554  0.1548
 4690SOL     OW25531   0.499   0.021   5.554  0.1292 -0.1233 -0.3227
 4690SOL    HW125532   0.488   0.051   5.645  3.3276 -0.1421  0.0678
 4690SOL    HW225533   0.411   4.708   5.543 -0.1400  0.6176 -0.6129
 4691SOL     OW25534   2.859   1.271   5.436 -0.2803 -0.2369 -0.1659
 4691SOL    HW125535   2.796   1.320   5.489 -0.6275 -1.3054  0.4111
 4691SOL    HW225536   2.902   1.238   5.515 -0.8677  0.7905  0.5861
 4692SOL     OW25537   3.261   3.772  17.687  0.4225  0.4394 -0.0431
 4692SOL    HW125538   3.184   3.723   0.023 -1.0095  2.3046 -0.7038
 4692SOL    HW225539   3.308   3.692  17.665  0.7091  0.9118 -1.1200
 4693SOL     OW25540   4.667   1.646   2.885  0.6077 -0.3560  0.5639
 4693SOL    HW125541   4.711   1.702   2.949  0.2164 -0.1253  0.6265
 4693SOL    HW225542   0.014   1.584   2.863  0.8397  0.9579 -2.3502
 4694SOL     OW25543   0.083   4.151   9.527  0.0533 -0.1383  0.0471
 4694SOL    HW125544   0.126   4.072   9.560 -0.7035  0.1561  1.7132
 4694SOL    HW225545   0.039   4.105   9.456  0.9999  2.3574 -2.1685
 4695SOL     OW25546   2.270   2.103   5.695  0.4315 -0.4194 -0.0742
 4695SOL    HW125547   2.335   2.119   5.763 -1.3105  2.9485  0.8433
 4695SOL    HW225548   2.194   2.154   5.723  1.5971  0.6366  1.1486
 4696SOL     OW25549   2.699   3.064   5.046 -0.1776 -0.4439 -0.5731
 4696SOL    HW125550   2.619   3.112   5.025 -0.1291 -0.7983 -1.5707
 4696SOL    HW225551   2.707   3.098   5.135  2.2169 -0.1537 -0.9015
 4697SOL     OW25552   0.955   3.086  13.756 -0.4758  0.4645  0.8748
 4697SOL    HW125553   0.961   3.182  13.763  0.1629  0.5058 -0.2796
 4697SOL    HW225554   1.019   3.054  13.693 -0.8518 -1.0050  1.2570
 4698SOL     OW25555   3.568   3.783   3.016  0.2260 -0.3505 -0.1034
 4698SOL    HW125556   3.664   3.783   3.020  0.2448 -1.0148 -0.5477
 4698SOL    HW225557   3.546   3.874   2.998 -0.0957 -0.6859 -1.3787
 4699SOL     OW25558   3.004   3.756  12.533 -0.2057 -0.3421  0.4514
 4699SOL    HW125559   3.019   3.838  12.486 -3.6095  1.7682  2.9540
 4699SOL    HW225560   3.030   3.783  12.622  0.1415  2.3142 -0.4601
 4700SOL     OW25561   1.966   4.492  13.388  0.1243 -0.4175 -0.2392
 4700SOL    HW125562   1.918   4.555  13.442 -1.1816  1.8787 -4.0761
 4700SOL    HW225563   2.057   4.494  13.416 -0.2030  0.5188  0.7609
 4701SOL     OW25564   0.106   1.645  14.818  0.1421 -0.0742  0.0265
 4701SOL    HW125565   0.091   1.684  14.732  2.4354  1.6506  0.4088
 4701SOL    HW225566   0.076   1.711  14.880 -1.3706 -2.3612  1.7604
 4702SOL     OW25567   3.110   1.701  16.859 -0.1501 -0.1114 -0.4107
 4702SOL    HW125568   3.193   1.743  16.883 -1.2373  2.0003 -0.3583
 4702SOL    HW225569   3.079   1.725  16.946  0.4393 -1.4031  0.1548
 4703SOL     OW25570   3.483   0.154   8.621  0.2970 -0.2773  0.0924
 4703SOL    HW125571   3.535   0.231   8.598 -0.8728  0.7676  0.9195
 4703SOL    HW225572   3.495   0.150   8.716 -0.7157  1.2072  0.2843
 4704SOL     OW25573   2.646   2.673   3.093  0.2380 -0.2657 -0.9133
 4704SOL    HW125574   2.587   2.743   3.067  1.5206  1.0519 -0.2772
 4704SOL    HW225575   2.699   2.667   3.014 -1.6596 -0.4825 -2.1564
 4705SOL     OW25576   1.683   0.830   6.734  0.1940 -0.0668 -0.6560
 4705SOL    HW125577   1.622   0.896   6.768 -1.1876 -0.9287 -1.4773
 4705SOL    HW225578   1.765   0.857   6.777 -0.0573 -1.2597  0.6032
 4706SOL     OW25579   2.251   3.932   4.199 -0.0165 -0.3562  0.2499
 4706SOL    HW125580   2.188   3.900   4.135 -0.6913 -0.0055  0.7299
 4706SOL    HW225581   2.199   4.011   4.215  1.0140  0.9090 -2.6016
 4707SOL     OW25582   2.156   2.636   5.888  0.0599 -0.0614 -0.3358
 4707SOL    HW125583   2.251   2.623   5.891  0.1038  0.4216  0.1714
 4707SOL    HW225584   2.148   2.724   5.925  0.8021  0.3772 -1.2035
 4708SOL     OW25585   4.231   1.947  15.991 -0.2652 -0.6326 -0.4146
 4708SOL    HW125586   4.182   1.938  15.909 -1.8681  0.8301  0.3754
 4708SOL    HW225587   4.248   1.855  16.007  0.5163 -0.3007  0.6806
 4709SOL     OW25588   1.384   2.597  10.683  0.1571  0.2683  0.2084
 4709SOL    HW125589   1.367   2.505  10.661 -2.6318  0.4643  1.5343
 4709SOL    HW225590   1.311   2.619  10.741  1.5454  1.0307  1.6822
 4710SOL     OW25591   2.939   3.465   2.460 -0.7623  0.4435 -0.2989
 4710SOL    HW125592   3.009   3.504   2.406 -0.2094 -0.6585 -0.3688
 4710SOL    HW225593   2.868   3.530   2.464 -0.5774  0.7001 -1.1538
 4711SOL     OW25594   2.678   1.240  11.937  0.2127  0.5486  0.3081
 4711SOL    HW125595   2.764   1.210  11.968  0.9265  0.1131 -2.1078
 4711SOL    HW225596   2.689   1.234  11.843 -0.3223  0.3232  0.2603
 4712SOL     OW25597   0.449   1.379   8.953 -0.2412  0.0912 -0.2980
 4712SOL    HW125598   0.499   1.440   8.898  1.0033 -1.4226 -0.8319
 4712SOL    HW225599   0.364   1.382   8.908 -0.9304  1.3487  1.1015
 4713SOL     OW25600   0.607   1.060  16.912 -0.0669  0.2553 -0.3141
 4713SOL    HW125601   0.675   1.056  16.979  2.2140  0.9161 -2.5782
 4713SOL    HW225602   0.617   0.977  16.866 -0.3211 -0.5001  1.0185
 4714SOL     OW25603   3.582   3.586   9.313 -0.1506 -0.2146 -0.4343
 4714SOL    HW125604   3.660   3.639   9.329 -0.0002 -0.7233  0.5566
 4714SOL    HW225605   3.567   3.529   9.389  1.4972 -0.9975 -0.6864
 4715SOL     OW25606   4.392   1.731   1.734 -0.2237 -0.0755 -0.5949
 4715SOL    HW125607   4.403   1.802   1.798 -0.1267 -1.0592  0.4659
 4715SOL    HW225608   4.366   1.777   1.654 -1.1364  1.5342  0.6240
 4716SOL     OW25609   2.456   4.463  10.397  0.2949 -0.2409  0.2246
 4716SOL    HW125610   2.453   4.370  10.420 -4.4579  0.2395  1.6464
 4716SOL    HW225611   2.449   4.503  10.484 -1.3474  0.2762 -0.1342
 4717SOL     OW25612   3.186   2.308  12.043 -0.2069  0.2803 -0.0385
 4717SOL    HW125613   3.124   2.348  11.982 -1.5002 -0.4022  0.8168
 4717SOL    HW225614   3.140   2.267  12.116 -1.6426  0.9306 -0.5761
 4718SOL     OW25615   3.065   0.900   2.365  0.1107  0.3293 -0.1433
 4718SOL    HW125616   3.035   0.835   2.301 -0.0971  0.7097 -0.4336
 4718SOL    HW225617   3.157   0.914   2.343  0.8572 -0.9129  2.1750
 4719SOL     OW25618   2.464   4.503  17.416 -0.1283  0.6746  0.9695
 4719SOL    HW125619   2.544   4.549  17.439  0.3042 -0.0760  0.9538
 4719SOL    HW225620   2.418   4.558  17.352  1.4552 -0.1944 -0.9168
 4720SOL     OW25621   0.096   4.576   1.648 -0.0682 -0.6011 -0.1723
 4720SOL    HW125622   0.070   4.488   1.674  3.2292 -1.3594  0.6049
 4720SOL    HW225623   0.044   4.590   1.569  0.9053  2.4836 -0.2685
 4721SOL     OW25624   3.100   3.692   8.577  0.4413 -0.2645 -0.5660
 4721SOL    HW125625   3.064   3.729   8.658 -0.1404  0.2923 -1.0754
 4721SOL    HW225626   3.073   3.600   8.579 -2.4390  0.5471 -1.3684
 4722SOL     OW25627   1.132   0.866   3.965  0.0754 -0.1550  0.1708
 4722SOL    HW125628   1.149   0.814   4.043 -0.1786  0.6283  0.7470
 4722SOL    HW225629   1.218   0.889   3.928  0.5978  0.6138  1.8819
 4723SOL     OW25630   2.182   2.726   7.746 -0.3592 -0.3917  0.2629
 4723SOL    HW125631   2.253   2.680   7.790 -0.2159 -1.2760 -0.9258
 4723SOL    HW225632   2.174   2.807   7.797  1.6573 -0.6358  0.9579
 4724SOL     OW25633   0.402   4.488   8.348 -0.0128 -0.2817 -0.4001
 4724SOL    HW125634   0.358   4.489   8.432 -3.9445  3.0724 -2.5137
 4724SOL    HW225635   0.326   4.506   8.293  0.0622 -0.3050 -0.5135
 4725SOL     OW25636   2.601   1.836   6.365  0.0162 -0.4144 -0.3335
 4725SOL    HW125637   2.605   1.742   6.382  0.5158 -0.7654 -2.3254
 4725SOL    HW225638   2.633   1.826   6.275 -4.4791  0.4903 -2.0033
 4726SOL     OW25639   2.774   2.918   6.324  0.5146  0.2788 -0.0502
 4726SOL    HW125640   2.739   2.981   6.387 -0.8752  0.2433 -0.7809
 4726SOL    HW225641   2.703   2.915   6.260  0.8471 -1.1060 -0.3743
 4727SOL     OW25642   3.655   3.580   3.825 -0.3820  0.6102 -0.3671
 4727SOL    HW125643   3.655   3.539   3.739 -1.0451  0.9810 -0.5462
 4727SOL    HW225644   3.627   3.668   3.800 -3.0047 -0.3121 -0.6701
 4728SOL     OW25645   1.221   2.348  10.759  1.2066 -0.2036  0.0443
 4728SOL    HW125646   1.229   2.406  10.835 -0.6124 -0.8840  0.7825
 4728SOL    HW225647   1.300   2.296  10.768  0.3020 -1.7031 -0.6262
 4729SOL     OW25648   1.018   1.600  11.010 -0.4090  0.2780  1.2625
 4729SOL    HW125649   1.006   1.506  11.018 -0.2861  0.3052  1.7448
 4729SOL    HW225650   0.937   1.623  10.964  0.6961 -0.7810 -1.2668
 4730SOL     OW25651   0.356   2.416   6.590 -0.1588  0.0135 -0.3876
 4730SOL    HW125652   0.324   2.505   6.577 -2.2530 -0.3270  2.3241
 4730SOL    HW225653   0.380   2.415   6.683  0.4678 -0.7142 -0.5550
 4731SOL     OW25654   1.910   4.303   6.849 -0.0187 -0.2013 -0.4003
 4731SOL    HW125655   1.909   4.208   6.847 -0.9517 -0.1965 -0.2232
 4731SOL    HW225656   1.906   4.316   6.943 -1.2462 -0.7655 -0.3831
 4732SOL     OW25657   1.829   1.119  15.962 -0.1078  0.6757 -0.0300
 4732SOL    HW125658   1.792   1.036  15.930  2.4731 -0.2975 -0.5296
 4732SOL    HW225659   1.779   1.177  15.905 -0.4916  0.2286 -0.1529
 4733SOL     OW25660   0.438   4.014   6.056 -0.3782 -0.0829  0.2781
 4733SOL    HW125661   0.409   4.058   5.976 -2.1411  0.4746  1.2353
 4733SOL    HW225662   0.393   3.931   6.044 -0.5589  0.1644 -0.7697
 4734SOL     OW25663   0.958   4.433  10.922  0.0750 -0.6034  0.3756
 4734SOL    HW125664   1.038   4.483  10.940 -0.3525 -0.4354  1.8652
 4734SOL    HW225665   0.931   4.475  10.840 -0.0669 -0.0081  0.7228
 4735SOL     OW25666   3.195   3.206   3.025 -0.0819  0.0769 -0.1910
 4735SOL    HW125667   3.196   3.301   3.014 -1.0649  0.0114 -0.8484
 4735SOL    HW225668   3.225   3.185   2.936  0.7900 -2.3934  0.6763
 4736SOL     OW25669   0.834   0.757   7.727  0.3315  0.0580 -0.1277
 4736SOL    HW125670   0.805   0.681   7.676 -0.4513  0.8714 -0.9032
 4736SOL    HW225671   0.889   0.715   7.792  0.6418  0.7323  0.0379
 4737SOL     OW25672   4.464   2.899   4.180  0.4401 -0.1194 -0.5332
 4737SOL    HW125673   4.427   2.950   4.252 -1.7419 -1.5741 -0.6375
 4737SOL    HW225674   4.448   2.807   4.198  0.3057  0.0083 -0.0221
 4738SOL     OW25675   2.909   4.464   4.278 -0.2371 -0.2580  0.7006
 4738SOL    HW125676   2.966   4.527   4.322 -0.0389 -0.8034  1.2311
 4738SOL    HW225677   2.906   4.382   4.328  0.0250 -1.0424 -0.5641
 4739SOL     OW25678   0.184   0.222   7.022 -0.7732 -0.1275 -0.0007
 4739SOL    HW125679   0.228   0.257   7.099 -1.5259 -0.6115  0.6428
 4739SOL    HW225680   0.216   0.134   7.003 -0.6177 -0.1692  0.4644
 4740SOL     OW25681   3.997   4.018   2.817  0.1070  0.1702 -0.6041
 4740SOL    HW125682   3.997   4.109   2.847  1.7900 -0.3631  1.0300
 4740SOL    HW225683   4.037   3.982   2.897  0.6494 -0.1474 -1.0211
 4741SOL     OW25684   2.707   3.882   9.084 -0.3217 -0.1817 -0.4325
 4741SOL    HW125685   2.634   3.821   9.099  0.6962 -1.4877 -0.7775
 4741SOL    HW225686   2.682   3.960   9.034 -0.2164  0.2598  0.2098
 4742SOL     OW25687   3.771   3.849   2.782 -0.2362  0.1100 -0.3977
 4742SOL    HW125688   3.843   3.890   2.831 -0.1990  1.8327 -1.8926
 4742SOL    HW225689   3.733   3.928   2.743  0.3128  1.6837  2.2887
 4743SOL     OW25690   4.717   0.257  10.283  0.0915 -0.1944 -0.1937
 4743SOL    HW125691   4.626   0.263  10.254 -0.2148 -1.8423  0.3900
 4743SOL    HW225692   0.010   0.349  10.303 -1.4111  0.0903 -0.3233
 4744SOL     OW25693   2.845   3.886  16.490  0.3568 -0.2168  0.5890
 4744SOL    HW125694   2.814   3.958  16.434  1.2154 -1.2180 -1.1695
 4744SOL    HW225695   2.762   3.847  16.517  0.8237  0.3553  2.8554
 4745SOL     OW25696   2.720   3.993  11.114  0.0159 -0.0816 -0.0992
 4745SOL    HW125697   2.730   4.083  11.144 -0.3161  0.0688 -0.4314
 4745SOL    HW225698   2.811   3.966  11.102  0.3339 -0.2683  2.6741
 4746SOL     OW25699   0.896   0.363  11.909  0.5044 -0.0510 -0.0723
 4746SOL    HW125700   0.965   0.306  11.941  1.6544  1.3047 -0.1472
 4746SOL    HW225701   0.888   0.432  11.974  0.0017 -0.5816  0.4235
 4747SOL     OW25702   2.501   2.751   2.511  0.3057  0.1984  0.6418
 4747SOL    HW125703   2.500   2.784   2.421  2.4215 -2.1087 -0.2325
 4747SOL    HW225704   2.566   2.681   2.507 -1.5849 -1.5301  0.3611
 4748SOL     OW25705   1.523   4.497   5.075 -0.2108  0.5484 -0.1302
 4748SOL    HW125706   1.483   4.570   5.124 -2.8686  0.2964 -1.9252
 4748SOL    HW225707   1.614   4.501   5.103 -0.0064 -0.5825 -0.6498
 4749SOL     OW25708   3.394   4.455   2.508 -0.4588 -0.3027  0.2002
 4749SOL    HW125709   3.344   4.382   2.471  0.2233 -0.7502  0.1683
 4749SOL    HW225710   3.325   4.521   2.508 -1.1001 -0.9664  0.4815
 4750SOL     OW25711   0.767   2.765  10.457  0.0009  0.1350  0.5461
 4750SOL    HW125712   0.796   2.836  10.400  1.6975 -2.2252 -1.5516
 4750SOL    HW225713   0.698   2.802  10.512  1.2988  1.7607  1.0640
 4751SOL     OW25714   0.932   2.754  17.392 -0.0054  0.2235  0.0817
 4751SOL    HW125715   0.859   2.734  17.333  1.2016 -3.6496 -0.0401
 4751SOL    HW225716   0.971   2.833  17.353  1.1924 -0.1738  0.4627
 4752SOL     OW25717   2.279   3.294   6.020 -0.0436  0.0428  0.4786
 4752SOL    HW125718   2.349   3.260   5.966  1.1716 -0.6954  2.5166
 4752SOL    HW225719   2.264   3.378   5.976 -0.4420 -0.3460 -0.1239
 4753SOL     OW25720   0.912   0.767  16.036 -0.1451  0.2696  0.3894
 4753SOL    HW125721   1.004   0.777  16.060 -0.2194  0.0806  0.7524
 4753SOL    HW225722   0.875   0.779  16.123  0.7270 -1.3239  0.9787
 4754SOL     OW25723   0.729   0.762   6.674  0.0636 -0.3942  0.1729
 4754SOL    HW125724   0.743   0.805   6.758  2.3219  1.5329 -1.1889
 4754SOL    HW225725   0.806   0.711   6.650  0.8285 -0.0987  2.0442
 4755SOL     OW25726   0.856   1.759   2.136  0.6941 -0.2846 -0.1791
 4755SOL    HW125727   0.910   1.828   2.173  1.2302 -0.4000 -0.7566
 4755SOL    HW225728   0.848   1.790   2.046  1.3009 -1.9177 -0.7960
 4756SOL     OW25729   1.103   1.537   2.726  0.5472 -0.2426 -0.5784
 4756SOL    HW125730   1.113   1.625   2.760  0.3580 -0.3128 -0.3385
 4756SOL    HW225731   1.170   1.528   2.658  1.0268 -2.4837  0.1689
 4757SOL     OW25732   2.917   3.310  10.949 -0.3127  0.3870  0.7181
 4757SOL    HW125733   2.854   3.349  10.889 -0.0473 -0.4035 -0.0659
 4757SOL    HW225734   2.874   3.226  10.961 -0.4023  0.4595  0.9240
 4758SOL     OW25735   0.015   0.579   7.784  0.1080  0.1330 -0.0579
 4758SOL    HW125736   0.054   0.495   7.759  0.2027 -0.6546  2.8283
 4758SOL    HW225737   0.079   0.623   7.840  1.1405  0.7335 -1.7050
 4759SOL     OW25738   2.918   3.136   4.412  0.2042  0.0215 -0.0724
 4759SOL    HW125739   2.988   3.152   4.474  1.0252 -0.2494 -0.9271
 4759SOL    HW225740   2.860   3.083   4.467  1.3656 -0.8566  0.2855
 4760SOL     OW25741   0.027   1.763   7.595  0.6367 -0.3557  0.1516
 4760SOL    HW125742   0.024   1.771   7.499 -0.6721 -0.2872  0.1923
 4760SOL    HW225743   0.034   1.853   7.625 -0.8278  0.0949 -0.8371
 4761SOL     OW25744   0.809   1.823  14.686  0.1667 -0.0155  0.8211
 4761SOL    HW125745   0.775   1.825  14.776  0.2072  0.8246  0.8176
 4761SOL    HW225746   0.729   1.808  14.635  0.8239  0.7296 -0.4012
 4762SOL     OW25747   3.039   2.770   8.493 -0.1789  0.0289 -0.1011
 4762SOL    HW125748   3.015   2.732   8.408  2.4679 -1.8536  0.0017
 4762SOL    HW225749   3.035   2.698   8.556 -0.9222 -0.9117 -1.2126
 4763SOL     OW25750   3.126   2.770   5.276  0.1671 -0.0502  0.5984
 4763SOL    HW125751   3.148   2.714   5.202  2.3231  1.0275  0.4072
 4763SOL    HW225752   3.039   2.798   5.246  0.3622  0.0452  0.1250
 4764SOL     OW25753   2.777   3.615   2.935 -0.3095  0.6359 -0.3135
 4764SOL    HW125754   2.819   3.701   2.929  0.6003  0.1604 -0.9247
 4764SOL    HW225755   2.792   3.592   3.027 -1.1042  1.8720  0.1311
 4765SOL     OW25756   2.873   2.062  17.656  0.2575  0.1838  0.5621
 4765SOL    HW125757   2.865   2.133   0.027  0.5932 -1.3210  2.2961
 4765SOL    HW225758   2.955   2.091  17.616 -1.0614  3.4662  0.1862
 4766SOL     OW25759   0.223   0.932   5.026  0.5131 -0.7756  0.0534
 4766SOL    HW125760   0.277   0.918   4.948  3.6466  2.3309  1.6786
 4766SOL    HW225761   0.227   0.845   5.066 -0.5729 -0.5198  0.7201
 4767SOL     OW25762   2.067   3.298  14.976  0.0895  0.0534 -0.9956
 4767SOL    HW125763   2.088   3.205  14.975  1.8438  0.4483  0.9011
 4767SOL    HW225764   2.138   3.335  15.027  1.0369  0.2570 -2.4528
 4768SOL     OW25765   2.466   3.972  14.827 -0.2535 -0.4628 -1.0557
 4768SOL    HW125766   2.451   3.885  14.863  3.1489 -0.2272  0.9187
 4768SOL    HW225767   2.559   3.960  14.808 -0.1670 -3.1905  1.2040
 4769SOL     OW25768   4.489   0.213   4.389  0.0190 -0.1938  0.3469
 4769SOL    HW125769   4.439   0.204   4.308  0.4552  0.7233 -0.0228
 4769SOL    HW225770   4.425   0.168   4.444 -0.6393 -0.9196 -1.0263
 4770SOL     OW25771   0.931   4.484  10.656 -0.3272  0.5295  0.3061
 4770SOL    HW125772   0.991   4.411  10.642  0.2195  0.4287  3.1673
 4770SOL    HW225773   0.930   4.516  10.566 -0.2154 -0.8279 -0.1735
 4771SOL     OW25774   3.438   1.596   1.383  0.2580  0.5418 -0.3508
 4771SOL    HW125775   3.389   1.635   1.455 -1.5387 -0.6541 -0.9323
 4771SOL    HW225776   3.493   1.530   1.424  0.4985  1.5686  0.9945
 4772SOL     OW25777   3.005   0.781   4.581 -0.0438  0.2351 -0.3907
 4772SOL    HW125778   2.952   0.858   4.602 -0.1524 -0.4321  1.7568
 4772SOL    HW225779   2.937   0.719   4.605 -1.2843  1.1518 -1.5866
 4773SOL     OW25780   4.150   1.040   5.930  0.8388  0.3790  0.1977
 4773SOL    HW125781   4.093   1.114   5.911 -0.1609 -0.3147  0.5126
 4773SOL    HW225782   4.228   1.055   5.876  0.5492 -3.8646 -1.4016
 4774SOL     OW25783   2.989   3.998  13.339 -0.4236 -0.2262  0.0106
 4774SOL    HW125784   2.973   4.073  13.282  1.0257  0.5708  0.6552
 4774SOL    HW225785   3.061   3.954  13.293  1.4456  0.4847  2.2847
 4775SOL     OW25786   3.819   0.464   5.402  0.2437  0.4054 -0.2160
 4775SOL    HW125787   3.762   0.477   5.327  1.4915 -0.8753 -1.3897
 4775SOL    HW225788   3.903   0.500   5.371 -0.1569  1.3823 -0.1757
 4776SOL     OW25789   3.375   1.300   3.401 -0.2797 -0.5261  0.4122
 4776SOL    HW125790   3.376   1.208   3.428 -0.6872 -1.2504 -2.0500
 4776SOL    HW225791   3.461   1.315   3.363  0.0755  0.2798  1.5388
 4777SOL     OW25792   0.341   3.872   0.481  0.2167  0.2503  0.4393
 4777SOL    HW125793   0.375   3.862   0.393  0.9307  0.0319  0.7387
 4777SOL    HW225794   0.246   3.864   0.473  0.0809  2.3211  0.0787
 4778SOL     OW25795   4.448   0.689  13.833 -0.1747  0.3015 -0.4743
 4778SOL    HW125796   4.540   0.699  13.859 -0.3377  2.8382 -0.8956
 4778SOL    HW225797   4.419   0.618  13.891  0.2407  0.9812  0.5672
 4779SOL     OW25798   1.644   4.538   4.122 -0.2436 -0.2637  0.5641
 4779SOL    HW125799   1.552   4.512   4.131 -0.1730 -1.0588 -0.9934
 4779SOL    HW225800   1.646   4.616   4.177 -0.9817 -0.1352  0.4088
 4780SOL     OW25801   3.933   4.521   5.533 -0.7256 -0.7433  0.2675
 4780SOL    HW125802   3.914   4.437   5.492 -1.8648  0.6427 -2.0565
 4780SOL    HW225803   3.910   4.582   5.463  1.4015 -0.2516 -0.0055
 4781SOL     OW25804   3.508   2.562   1.532  0.2653  0.5764 -0.1023
 4781SOL    HW125805   3.528   2.649   1.567  2.7342 -0.2259  0.4716
 4781SOL    HW225806   3.586   2.520   1.496 -1.7145  0.8651 -4.7646
 4782SOL     OW25807   1.552   3.858   8.322  0.1423 -0.1143 -0.0725
 4782SOL    HW125808   1.556   3.864   8.418 -1.3285 -3.0943  0.1824
 4782SOL    HW225809   1.476   3.802   8.307  1.2858 -1.5902 -0.4043
 4783SOL     OW25810   3.104   1.049   5.213 -0.1598 -0.2091 -0.1781
 4783SOL    HW125811   3.093   0.976   5.273 -0.0020  0.6993  0.9616
 4783SOL    HW225812   3.199   1.051   5.199 -0.0072  0.8987  0.9567
 4784SOL     OW25813   1.392   4.186   5.693  0.5657 -0.0803 -0.4924
 4784SOL    HW125814   1.428   4.264   5.651  0.3608  0.3678  0.1743
 4784SOL    HW225815   1.303   4.188   5.657  0.7407  0.0734 -0.9183
 4785SOL     OW25816   1.058   3.683   8.595  0.2679  0.5308 -0.4833
 4785SOL    HW125817   1.083   3.648   8.509  1.8306  0.9637 -0.1862
 4785SOL    HW225818   1.003   3.617   8.638  1.5118 -1.4647 -1.9438
 4786SOL     OW25819   0.121   3.602   3.423  0.0336 -0.6605  0.2555
 4786SOL    HW125820   0.179   3.619   3.497  0.0469 -2.5096  0.6903
 4786SOL    HW225821   0.045   3.654   3.450 -0.0362 -0.1476 -0.9480
 4787SOL     OW25822   3.374   4.604   2.979 -0.3719 -0.4729 -0.1144
 4787SOL    HW125823   3.405   4.660   2.907  0.8134 -1.6629 -0.5350
 4787SOL    HW225824   3.353   4.675   3.039  0.8591  0.1705 -0.4242
 4788SOL     OW25825   3.082   1.191   7.181  0.1973  0.1946  0.5167
 4788SOL    HW125826   2.988   1.200   7.194  0.4514  1.3288  1.5100
 4788SOL    HW225827   3.121   1.203   7.268  0.1454 -2.1115  0.8778
 4789SOL     OW25828   4.161   1.275  13.623  0.2184  0.0247  0.1647
 4789SOL    HW125829   4.110   1.309  13.549  0.2811  0.4456  0.3172
 4789SOL    HW225830   4.151   1.180  13.616  2.6706 -0.3273  1.4612
 4790SOL     OW25831   2.898   3.419   5.264  0.1722 -0.1060  0.7425
 4790SOL    HW125832   2.920   3.472   5.341  1.4513  1.7205 -0.8662
 4790SOL    HW225833   2.980   3.437   5.219  0.4191  0.4289  1.4047
 4791SOL     OW25834   3.717   1.742   4.713 -0.7888 -0.0888 -0.2506
 4791SOL    HW125835   3.622   1.732   4.706 -0.8899 -0.2912  1.3074
 4791SOL    HW225836   3.740   1.653   4.741 -3.4246 -0.5665  0.4881
 4792SOL     OW25837   2.645   2.149   7.336 -0.2479 -0.5125 -0.6673
 4792SOL    HW125838   2.687   2.128   7.252 -0.7749  1.8811 -1.5304
 4792SOL    HW225839   2.561   2.105   7.322  0.1485 -1.9659  1.5072
 4793SOL     OW25840   0.905   1.146   4.356 -0.4089  0.6036  0.0451
 4793SOL    HW125841   0.811   1.163   4.368 -0.0322  1.8761  1.1769
 4793SOL    HW225842   0.916   1.144   4.261 -1.1723 -1.5878 -0.0086
 4794SOL     OW25843   2.404   1.582   3.507 -0.1166  0.3600  0.5847
 4794SOL    HW125844   2.412   1.624   3.592  1.6638 -1.5873  1.3595
 4794SOL    HW225845   2.430   1.642   3.436  1.0343 -1.0081 -0.1562
 4795SOL     OW25846   3.029   3.337   6.235  0.2466 -0.1644 -0.2170
 4795SOL    HW125847   2.938   3.359   6.254 -0.2280 -0.2021 -2.3930
 4795SOL    HW225848   3.075   3.328   6.319  0.2415 -0.8939 -0.2866
 4796SOL     OW25849   0.563   1.478  14.728 -0.1746 -0.4892 -0.2747
 4796SOL    HW125850   0.506   1.417  14.775 -0.5614 -0.9217 -1.3038
 4796SOL    HW225851   0.499   1.544  14.701 -1.0770 -1.1163  0.3221
 4797SOL     OW25852   4.661   3.080   1.980  0.3805 -0.3406 -0.1378
 4797SOL    HW125853   4.705   3.066   1.895  1.6385 -0.1169  0.4739
 4797SOL    HW225854   0.012   3.119   2.027  1.5568 -2.7593  0.0610
 4798SOL     OW25855   2.411   3.300   2.882  0.1985 -0.2928 -0.2686
 4798SOL    HW125856   2.353   3.372   2.907  0.7403  0.6410 -1.7419
 4798SOL    HW225857   2.484   3.319   2.941 -0.9284  2.0387  0.3588
 4799SOL     OW25858   3.791   4.622  17.434  0.5236  0.8252 -0.0541
 4799SOL    HW125859   3.746   4.641  17.352  0.5814  0.8607 -0.0776
 4799SOL    HW225860   3.726   4.592  17.497 -0.4786  0.1239 -1.3983
 4800SOL     OW25861   1.496   0.362   6.714  0.6014 -0.1773 -1.3788
 4800SOL    HW125862   1.437   0.287   6.702 -0.9870  0.9104 -0.2902
 4800SOL    HW225863   1.555   0.328   6.781 -1.5913 -0.3924  0.4405
 4801SOL     OW25864   4.281   3.649   1.950 -0.4446  0.0623  0.1571
 4801SOL    HW125865   4.375   3.631   1.957 -0.7370 -1.3385  0.5044
 4801SOL    HW225866   4.289   3.735   1.910 -0.9624 -0.2527 -0.6246
 4802SOL     OW25867   2.646   2.824   0.461 -0.0968 -0.3917  0.7962
 4802SOL    HW125868   2.737   2.855   0.453  0.1420 -1.1616  0.4204
 4802SOL    HW225869   2.666   2.732   0.440  0.5832  0.0970 -0.6958
 4803SOL     OW25870   3.038   2.022   9.699 -0.4013 -0.2332  0.0555
 4803SOL    HW125871   3.106   1.983   9.753 -0.0251  0.3596  0.0048
 4803SOL    HW225872   2.969   1.956   9.710  0.1409 -0.8489 -0.2148
 4804SOL     OW25873   2.480   4.646  11.115 -0.4953  0.3131 -0.1820
 4804SOL    HW125874   2.529   0.005  11.125  0.9706 -0.6845  0.7824
 4804SOL    HW225875   2.390   4.679  11.118 -1.4471 -2.2732 -0.4232
 4805SOL     OW25876   3.477   1.592  10.316 -0.0799  0.0088 -0.1152
 4805SOL    HW125877   3.437   1.657  10.374  0.7136 -1.4223  2.0540
 4805SOL    HW225878   3.543   1.647  10.274  0.8879 -1.4935 -0.5698
 4806SOL     OW25879   2.209   0.949  10.975 -0.4129 -0.0807  0.1915
 4806SOL    HW125880   2.280   1.001  11.014 -1.5433  0.0477  2.0591
 4806SOL    HW225881   2.183   1.003  10.900 -0.9234  0.4488  0.7503
 4807SOL     OW25882   3.062   1.706   3.870 -0.1028 -0.4719 -0.6632
 4807SOL    HW125883   3.091   1.739   3.955  0.5468  0.1003 -1.1078
 4807SOL    HW225884   3.056   1.792   3.828  0.7827 -0.7384 -1.3295
 4808SOL     OW25885   0.354   3.488  11.783  0.2323  0.0585 -0.0469
 4808SOL    HW125886   0.415   3.561  11.797  2.4637 -1.6321 -0.9377
 4808SOL    HW225887   0.330   3.464  11.872  0.2931 -0.5919 -0.2086
 4809SOL     OW25888   0.693   1.896   4.144 -0.1447 -0.4080 -0.0712
 4809SOL    HW125889   0.607   1.937   4.151  0.8510  0.9879  3.7122
 4809SOL    HW225890   0.750   1.972   4.134  1.4231 -1.2003  2.9908
 4810SOL     OW25891   3.938   2.451  11.243  0.1340 -0.4833 -1.5652
 4810SOL    HW125892   3.994   2.377  11.218  0.4967 -1.0991  1.1175
 4810SOL    HW225893   3.969   2.464  11.333 -2.3116 -2.4535 -0.4322
 4811SOL     OW25894   1.029   2.115   7.213 -0.7653 -0.2315  0.1562
 4811SOL    HW125895   0.979   2.047   7.258  0.8137 -1.3154  0.2711
 4811SOL    HW225896   0.993   2.191   7.259 -1.1730 -0.2626 -0.1148
 4812SOL     OW25897   4.524   1.663   6.178  0.5460  0.5519 -0.3219
 4812SOL    HW125898   4.500   1.756   6.176 -0.9671  0.2421  2.0748
 4812SOL    HW225899   4.618   1.675   6.186  1.0461 -2.8446 -1.2863
 4813SOL     OW25900   0.033   1.827  14.225 -0.1510  0.6354  0.2867
 4813SOL    HW125901   0.065   1.909  14.187  3.0005 -0.4163  0.6365
 4813SOL    HW225902   0.054   1.771  14.150 -0.6546 -0.0742  0.6755
 4814SOL     OW25903   3.973   0.370   6.456 -0.1641 -0.2095  0.0491
 4814SOL    HW125904   3.885   0.369   6.494  0.8711 -2.4363  2.3907
 4814SOL    HW225905   3.941   0.395   6.370  1.3739 -1.6433 -0.9347
 4815SOL     OW25906   1.047   1.404  13.803 -0.1183  0.2777  0.3128
 4815SOL    HW125907   1.117   1.458  13.767 -0.9649  1.6810  0.7537
 4815SOL    HW225908   0.976   1.440  13.749 -2.6844 -0.6095  3.1033
 4816SOL     OW25909   1.425   3.194   2.553 -0.0210  0.1101  0.5315
 4816SOL    HW125910   1.463   3.115   2.591  1.4624  0.7002  0.2726
 4816SOL    HW225911   1.405   3.170   2.463  1.7750 -0.0762  0.1784
 4817SOL     OW25912   0.140   1.691   8.669 -0.0086  0.5178  0.2169
 4817SOL    HW125913   0.086   1.645   8.734  1.4942  1.7659  2.3637
 4817SOL    HW225914   0.093   1.769   8.639  1.2661  0.2954 -2.3544
 4818SOL     OW25915   3.320   2.562  10.982 -0.3608  0.4670  0.3853
 4818SOL    HW125916   3.355   2.523  11.062 -0.1477 -0.1362 -0.0035
 4818SOL    HW225917   3.399   2.606  10.950  1.5082 -2.5118  0.9161
 4819SOL     OW25918   3.851   0.975   1.332  0.2278 -0.4167  0.1229
 4819SOL    HW125919   3.842   0.947   1.423  0.1311 -0.7478  0.0127
 4819SOL    HW225920   3.903   0.908   1.288  0.5787 -1.7663  2.5533
 4820SOL     OW25921   2.890   2.882  15.844  0.5216 -0.3668  0.3965
 4820SOL    HW125922   2.940   2.800  15.843  0.1973 -0.5368 -0.9331
 4820SOL    HW225923   2.908   2.910  15.755 -0.3929 -1.2221 -0.0635
 4821SOL     OW25924   0.064   0.761  14.487  0.3568  0.2129 -0.2387
 4821SOL    HW125925   0.041   0.837  14.433 -0.1885  1.5957  1.9313
 4821SOL    HW225926   0.074   0.686  14.429 -0.7948  2.1572 -2.9880
 4822SOL     OW25927   3.637   3.257   4.163  0.4469  0.1524 -0.0976
 4822SOL    HW125928   3.639   3.351   4.181  3.1347 -0.0163  0.5262
 4822SOL    HW225929   3.629   3.260   4.068  0.1094 -1.9378 -0.1288
 4823SOL     OW25930   2.403   3.627   4.056 -0.2172  0.1195  0.0560
 4823SOL    HW125931   2.436   3.560   4.117 -1.0353  0.1362  0.5215
 4823SOL    HW225932   2.401   3.589   3.968  0.3802  1.8532 -0.6877
 4824SOL     OW25933   2.132   4.494  17.359  0.0869  0.0411 -0.5786
 4824SOL    HW125934   2.072   4.439  17.408  0.7818  0.7940  1.1428
 4824SOL    HW225935   2.207   4.507  17.417 -0.1579 -2.0951  0.2131
 4825SOL     OW25936   1.155   4.511   3.049 -0.1769  0.4123 -0.1086
 4825SOL    HW125937   1.065   4.539   3.037  0.0231  2.6186  3.4421
 4825SOL    HW225938   1.198   4.553   2.975 -1.4270  0.4576 -0.8036
 4826SOL     OW25939   2.992   2.360   4.593  0.5890  0.3620  0.4453
 4826SOL    HW125940   3.036   2.276   4.601  1.3745  0.7314 -0.0473
 4826SOL    HW225941   2.953   2.364   4.506 -0.7338 -1.9920  0.9251
 4827SOL     OW25942   3.451   3.342   2.603  0.3315  0.2011 -0.7392
 4827SOL    HW125943   3.425   3.381   2.687 -1.4179  0.0996 -1.2329
 4827SOL    HW225944   3.523   3.398   2.575  0.0559 -0.9235 -3.6458
 4828SOL     OW25945   0.002   2.814  15.654  0.7307  0.0505 -0.2262
 4828SOL    HW125946   4.712   2.727  15.617  2.4065 -0.4222  0.3135
 4828SOL    HW225947   0.029   2.859  15.574  1.3000 -1.5981 -0.9458
 4829SOL     OW25948   3.691   4.151   8.120  0.3957  0.2902  0.6053
 4829SOL    HW125949   3.615   4.111   8.078  0.1677  2.5442 -1.1521
 4829SOL    HW225950   3.647   4.195   8.193  1.2474  1.5530  0.3627
 4830SOL     OW25951   0.014   0.525  10.285  0.3565  0.4954  0.8666
 4830SOL    HW125952   4.708   0.562  10.369  2.0829 -1.3756  2.2849
 4830SOL    HW225953   0.084   0.590  10.276 -1.9231  2.9515  0.7817
 4831SOL     OW25954   4.082   0.544   1.743  0.1034  0.9771  0.4210
 4831SOL    HW125955   4.046   0.590   1.819 -2.2429  0.3827 -0.3257
 4831SOL    HW225956   4.176   0.564   1.745 -0.0212  1.6284 -0.2032
 4832SOL     OW25957   2.036   3.167   5.956  0.0738  0.5058 -0.2389
 4832SOL    HW125958   1.975   3.116   6.010 -0.1120 -0.5836 -1.4603
 4832SOL    HW225959   2.108   3.194   6.012  0.2286 -0.7153  0.1427
 4833SOL     OW25960   0.701   3.887   6.016 -0.3278  0.6702  0.5908
 4833SOL    HW125961   0.720   3.972   6.054 -2.0223  0.4067  1.9675
 4833SOL    HW225962   0.606   3.890   6.021 -0.4796 -4.1423  0.8640
 4834SOL     OW25963   0.296   2.633   7.615 -0.3865  0.6763 -0.5729
 4834SOL    HW125964   0.209   2.606   7.587 -0.2383 -0.8785  0.4475
 4834SOL    HW225965   0.303   2.723   7.584  1.2676  0.8227  0.2196
 4835SOL     OW25966   4.413   1.076  15.341 -0.2272 -0.4898 -0.4970
 4835SOL    HW125967   4.407   1.124  15.424 -0.7127  1.1969 -1.5045
 4835SOL    HW225968   4.318   1.077  15.326 -0.0524 -2.1120 -1.6455
 4836SOL     OW25969   4.575   2.997   2.270 -0.2169 -0.2855  0.2896
 4836SOL    HW125970   4.574   3.085   2.232  0.6718 -0.4560 -0.1313
 4836SOL    HW225971   4.668   2.980   2.278  0.0033  0.6505 -0.2192
 4837SOL     OW25972   3.947   3.071   8.380  0.6923  0.1753 -0.3096
 4837SOL    HW125973   3.870   3.119   8.409  1.9535  2.4205 -0.5719
 4837SOL    HW225974   4.009   3.079   8.453  1.2037 -1.9363 -0.5173
 4838SOL     OW25975   2.035   0.895   4.147 -0.1690  0.6120  0.2106
 4838SOL    HW125976   2.027   0.971   4.091 -0.7960 -0.0379 -0.5856
 4838SOL    HW225977   1.987   0.920   4.227  0.1687  0.0855  0.5820
 4839SOL     OW25978   3.393   2.496   5.438 -0.2059  0.3593  0.7368
 4839SOL    HW125979   3.468   2.546   5.470 -0.7316  1.2382  0.6064
 4839SOL    HW225980   3.370   2.434   5.507  0.7986  0.9722  1.6079
 4840SOL     OW25981   0.872   3.460   2.775  0.2199 -0.1306 -0.1753
 4840SOL    HW125982   0.942   3.439   2.836  0.6512 -0.5880 -0.8263
 4840SOL    HW225983   0.921   3.501   2.703  0.1874 -1.1277 -0.7717
 4841SOL     OW25984   1.951   2.442   7.418  0.0969  0.0307 -0.0189
 4841SOL    HW125985   1.982   2.525   7.382 -1.0025  0.9499  1.1496
 4841SOL    HW225986   1.914   2.471   7.501  1.8913  2.3739 -0.0550
 4842SOL     OW25987   4.160   3.914   5.604  0.4243 -0.3638  0.3554
 4842SOL    HW125988   4.213   3.841   5.636  0.9063 -0.5447 -0.8634
 4842SOL    HW225989   4.224   3.974   5.567  1.7022 -2.0660 -0.2172
 4843SOL     OW25990   3.348   4.272   1.705 -0.2492  0.1504 -1.0900
 4843SOL    HW125991   3.290   4.342   1.674 -2.9854 -1.3421  0.7017
 4843SOL    HW225992   3.408   4.328   1.755  0.7653 -1.4285 -0.5572
 4844SOL     OW25993   1.699   4.452  11.371 -0.1517 -0.3325 -0.1262
 4844SOL    HW125994   1.733   4.534  11.407 -0.6784 -0.3788  0.4763
 4844SOL    HW225995   1.723   4.465  11.279 -0.6926 -1.0546 -0.3682
 4845SOL     OW25996   4.199   3.954  11.007 -0.3177  0.5104 -0.0055
 4845SOL    HW125997   4.227   3.864  10.988 -0.7674  0.4413 -0.3359
 4845SOL    HW225998   4.180   3.990  10.920  1.1536  0.5855 -0.2968
 4846SOL     OW25999   2.130   1.516  16.287 -0.3682 -0.0106 -0.4299
 4846SOL    HW126000   2.191   1.589  16.279  1.8023 -1.6691  0.7857
 4846SOL    HW226001   2.172   1.459  16.352 -1.5945  0.5470  0.8357
 4847SOL     OW26002   1.315   1.863   7.272 -0.1891  0.2289 -0.0556
 4847SOL    HW126003   1.272   1.779   7.258 -2.9644  2.0364 -2.2855
 4847SOL    HW226004   1.251   1.924   7.234  0.0160  1.2629  1.2672
 4848SOL     OW26005   2.086   0.978  17.613 -0.1425  0.0608 -0.1662
 4848SOL    HW126006   2.049   1.041  17.552 -1.3361 -1.1589 -0.6986
 4848SOL    HW226007   2.025   0.977  17.687  0.9578 -0.1988  0.7301
 4849SOL     OW26008   2.149   4.257   5.198 -0.0299  0.2212 -0.0193
 4849SOL    HW126009   2.077   4.203   5.229  0.3990 -0.6447 -0.5584
 4849SOL    HW226010   2.101   4.314   5.138 -1.5025 -1.2041 -0.1716
 4850SOL     OW26011   1.002   2.228   4.542  0.0503 -0.6076 -0.5034
 4850SOL    HW126012   0.957   2.285   4.604 -0.2868  0.1381 -1.4373
 4850SOL    HW226013   1.090   2.265   4.534 -0.5033  0.7948 -0.0788
 4851SOL     OW26014   0.370   0.073   3.900 -0.2074  0.0207  0.0212
 4851SOL    HW126015   0.347   0.134   3.971  0.1799  0.2563 -0.0584
 4851SOL    HW226016   0.455   0.106   3.871 -0.0767 -0.0618  0.3054
 4852SOL     OW26017   1.565   1.118   5.649  0.1040 -0.1321  0.4914
 4852SOL    HW126018   1.612   1.170   5.715  0.2080 -0.7451  0.8950
 4852SOL    HW226019   1.471   1.131   5.658  0.5335  2.9098  0.5567
 4853SOL     OW26020   4.031   1.167  14.441 -0.0109  0.1377 -0.0798
 4853SOL    HW126021   3.979   1.174  14.362 -0.5233 -0.1222  0.2360
 4853SOL    HW226022   4.075   1.252  14.443  0.2946 -0.0769  2.3498
 4854SOL     OW26023   1.562   3.553  17.501  0.4600 -0.4645  0.1764
 4854SOL    HW126024   1.647   3.508  17.493  1.9663  2.4885 -0.3641
 4854SOL    HW226025   1.545   3.556  17.595 -1.4861 -0.5456 -0.1704
 4855SOL     OW26026   0.417   2.854  12.195  0.1073 -0.4397  0.3639
 4855SOL    HW126027   0.441   2.923  12.133 -1.7401  0.8166  1.0427
 4855SOL    HW226028   0.364   2.794  12.143 -0.6523  0.3719  0.2127
 4856SOL     OW26029   3.246   0.906   4.188 -0.5512 -0.0801 -0.1857
 4856SOL    HW126030   3.275   0.845   4.120 -1.5987  1.4606 -2.0385
 4856SOL    HW226031   3.188   0.966   4.140  1.5393 -1.2360 -4.0950
 4857SOL     OW26032   4.607   1.672  12.465  0.9664  0.0497  0.1073
 4857SOL    HW126033   4.539   1.633  12.520  1.0540 -4.5053 -3.0125
 4857SOL    HW226034   4.562   1.723  12.398  1.6810 -3.3841 -2.9485
 4858SOL     OW26035   3.028   2.340  16.758 -0.3954 -0.2416  0.6529
 4858SOL    HW126036   3.067   2.340  16.671  0.8786 -1.2638  1.2251
 4858SOL    HW226037   3.101   2.311  16.812 -0.0761  2.5259  1.7233
 4859SOL     OW26038   0.397   1.200   0.167  0.0655  0.3843 -0.0121
 4859SOL    HW126039   0.462   1.267   0.145 -0.8343  0.8031 -1.4425
 4859SOL    HW226040   0.456   1.125   0.163 -2.0350 -1.2317 -0.8004
 4860SOL     OW26041   2.773   2.906   2.473  0.2363 -0.3195  0.5119
 4860SOL    HW126042   2.780   2.844   2.546  0.5621 -0.3993  0.4093
 4860SOL    HW226043   2.831   2.868   2.408 -0.0940 -0.0834  0.0795
 4861SOL     OW26044   0.528   2.059   3.480 -0.6182 -0.4976  0.3550
 4861SOL    HW126045   0.597   2.012   3.433  3.0138  3.5288  1.7456
 4861SOL    HW226046   0.553   2.150   3.462  1.6503 -1.3467 -0.8100
 4862SOL     OW26047   0.731   3.748   0.526  0.5294  0.5331  0.2178
 4862SOL    HW126048   0.705   3.835   0.497 -1.1977 -0.4226 -1.1261
 4862SOL    HW226049   0.654   3.714   0.571 -0.2147  0.4380 -1.1269
 4863SOL     OW26050   2.291   4.476   5.250 -0.0660  0.0373 -0.5209
 4863SOL    HW126051   2.351   4.463   5.177 -0.6243 -1.4560 -0.7342
 4863SOL    HW226052   2.234   4.401   5.228 -0.9133  0.2863  0.7925
 4864SOL     OW26053   1.760   3.950  12.760  0.0208  0.0697  0.4538
 4864SOL    HW126054   1.812   3.901  12.696 -0.2594 -1.0490  1.0796
 4864SOL    HW226055   1.808   4.032  12.767  0.8686 -0.4101  0.2611
 4865SOL     OW26056   1.033   0.791   6.992  0.4175  0.0259  0.5939
 4865SOL    HW126057   1.035   0.804   6.897  0.4655  1.4987  0.7957
 4865SOL    HW226058   1.002   0.876   7.024  1.4729  0.3568  0.7370
 4866SOL     OW26059   0.031   0.834   3.407  0.2116 -0.1093  0.2816
 4866SOL    HW126060   0.100   0.839   3.473  0.5423 -0.2377 -0.0525
 4866SOL    HW226061   0.018   0.922   3.371 -0.9175  0.0859  1.1783
 4867SOL     OW26062   0.744   0.227   5.491  0.6394 -0.4419 -0.4081
 4867SOL    HW126063   0.667   0.234   5.435 -0.0770 -0.5137  0.5608
 4867SOL    HW226064   0.796   0.306   5.477  0.6456 -0.4166 -0.2409
 4868SOL     OW26065   4.040   4.463   9.407  0.1427 -0.6940 -0.3245
 4868SOL    HW126066   4.129   4.427   9.410  0.8776  1.2104  0.3650
 4868SOL    HW226067   4.048   4.541   9.352  0.9047 -0.1622  0.5570
 4869SOL     OW26068   1.107   2.441   1.514 -1.0448  0.4098  0.1412
 4869SOL    HW126069   1.056   2.367   1.548 -0.0075 -0.4376 -0.1574
 4869SOL    HW226070   1.092   2.521   1.564  1.5885  0.7742  0.3392
 4870SOL     OW26071   2.860   0.909   7.084 -0.2780  0.1031  0.3617
 4870SOL    HW126072   2.891   0.881   6.998  1.5217  0.2680  0.9550
 4870SOL    HW226073   2.829   0.824   7.117  1.3538 -0.3257  0.7704
 4871SOL     OW26074   3.946   0.482  12.819 -0.0003  0.1887  0.2431
 4871SOL    HW126075   3.909   0.468  12.732 -0.4073 -1.7530  0.7281
 4871SOL    HW226076   4.029   0.524  12.797  0.7627 -0.8237  1.2031
 4872SOL     OW26077   1.667   4.417   8.138 -0.2009  0.1586 -0.3247
 4872SOL    HW126078   1.652   4.480   8.068 -0.8175 -0.9715 -1.2100
 4872SOL    HW226079   1.681   4.336   8.088  0.8054  0.3859 -0.4150
 4873SOL     OW26080   1.512   2.575   0.629 -0.3931 -0.2315  1.3700
 4873SOL    HW126081   1.563   2.496   0.612  0.9400  0.6024  1.5368
 4873SOL    HW226082   1.577   2.642   0.608 -0.1099 -1.3036 -1.2549
 4874SOL     OW26083   1.062   0.537   3.048 -0.6157  0.5707 -0.0552
 4874SOL    HW126084   1.097   0.602   2.987 -3.4094  1.1982 -0.9973
 4874SOL    HW226085   1.136   0.538   3.108 -0.4436 -0.9403 -0.2542
 4875SOL     OW26086   4.407   1.940   4.183  0.3972  0.2983 -0.0467
 4875SOL    HW126087   4.318   1.907   4.194 -0.0979  0.8878 -2.2665
 4875SOL    HW226088   4.428   1.919   4.092 -0.2610 -0.2697 -0.0677
 4876SOL     OW26089   1.731   3.772  11.479  0.5563  0.1389  0.1870
 4876SOL    HW126090   1.721   3.704  11.546 -2.0110  0.7561  0.4146
 4876SOL    HW226091   1.768   3.730  11.401  0.2726  2.3438 -1.1220
 4877SOL     OW26092   0.390   3.689   2.638 -0.2660 -0.2472 -0.6118
 4877SOL    HW126093   0.355   3.649   2.559 -1.0409 -0.3234 -0.2207
 4877SOL    HW226094   0.480   3.658   2.648 -0.3833 -0.5039 -0.3620
 4878SOL     OW26095   0.565   3.670  11.806 -0.1035 -0.3155  0.2757
 4878SOL    HW126096   0.650   3.706  11.832 -0.4418 -0.0850  1.0460
 4878SOL    HW226097   0.577   3.627  11.721 -3.0528 -0.3261 -0.1600
 4879SOL     OW26098   0.173   1.525   2.848 -0.4245  0.1490 -0.3271
 4879SOL    HW126099   0.225   1.588   2.798  0.5813  0.3545  0.9893
 4879SOL    HW226100   0.210   1.440   2.825 -0.4207  0.6223 -2.1072
 4880SOL     OW26101   3.951   2.579   6.108  0.1351  0.2168 -0.4729
 4880SOL    HW126102   4.001   2.650   6.066 -2.0572  1.2498 -1.3301
 4880SOL    HW226103   3.996   2.564   6.191 -0.0988  2.3449  0.0584
 4881SOL     OW26104   1.299   2.328   2.384 -0.1434 -0.1727  0.0638
 4881SOL    HW126105   1.210   2.352   2.411 -0.0379 -0.3910  0.6133
 4881SOL    HW226106   1.292   2.339   2.289 -0.6929 -1.4152 -0.0443
 4882SOL     OW26107   2.063   0.298  10.190  0.0892  0.0145  0.1783
 4882SOL    HW126108   2.087   0.385  10.222  0.7572 -0.4840  1.0208
 4882SOL    HW226109   2.131   0.235  10.215  0.3766 -0.0847 -0.8672
 4883SOL     OW26110   4.635   1.517   3.511 -0.2475 -0.0190 -0.5330
 4883SOL    HW126111   4.643   1.507   3.417 -0.1639 -1.1865 -0.4013
 4883SOL    HW226112   4.539   1.510   3.512 -0.2363 -0.1824 -0.6802
 4884SOL     OW26113   0.956   1.943   3.508  0.1410  0.5721 -0.2677
 4884SOL    HW126114   0.896   1.868   3.506  0.8735  0.0093 -1.5800
 4884SOL    HW226115   1.013   1.912   3.578  0.0454  1.2645  0.1130
 4885SOL     OW26116   2.300   1.351   5.942  0.0482  0.1393 -0.0822
 4885SOL    HW126117   2.365   1.418   5.925  1.2531 -1.1615 -0.5733
 4885SOL    HW226118   2.246   1.375   5.867 -2.4774 -1.2579  1.2677
 4886SOL     OW26119   0.288   2.680   4.855 -0.2405 -0.2902 -0.1228
 4886SOL    HW126120   0.266   2.771   4.838  0.4594 -0.2182 -0.6479
 4886SOL    HW226121   0.198   2.649   4.863 -0.1753 -0.0623  1.4982
 4887SOL     OW26122   1.564   1.465   8.105 -0.3377  0.9512 -0.2761
 4887SOL    HW126123   1.541   1.558   8.113 -0.4892  1.0378 -1.6817
 4887SOL    HW226124   1.610   1.437   8.184  0.1192  1.7638 -0.2452
 4888SOL     OW26125   3.640   0.252   5.693 -0.1662  0.2597 -0.1875
 4888SOL    HW126126   3.573   0.319   5.699  1.1594  1.3806  1.9510
 4888SOL    HW226127   3.600   0.168   5.717  0.0837 -0.1149 -1.0837
 4889SOL     OW26128   4.063   1.421   7.362 -0.1047 -0.3764  0.3133
 4889SOL    HW126129   4.005   1.430   7.438 -2.7840  0.8445 -1.8762
 4889SOL    HW226130   4.133   1.364   7.393 -1.8234 -1.8057  1.5688
 4890SOL     OW26131   1.642   1.977  11.335  0.7212 -0.1451  0.2578
 4890SOL    HW126132   1.673   1.976  11.426  1.1894 -0.4023  0.0955
 4890SOL    HW226133   1.644   2.072  11.323  7.0195 -0.3847 -0.9959
 4891SOL     OW26134   2.109   3.200   9.090  0.0634  0.3529 -0.8141
 4891SOL    HW126135   2.203   3.198   9.111  0.0513 -0.8765 -0.8808
 4891SOL    HW226136   2.101   3.280   9.038 -0.6437 -0.6980 -2.3250
 4892SOL     OW26137   3.234   4.262   5.778 -0.4986 -0.1328  0.4124
 4892SOL    HW126138   3.321   4.299   5.788 -0.9494  0.6346  1.4834
 4892SOL    HW226139   3.248   4.168   5.788  0.3260 -0.1621 -0.9823
 4893SOL     OW26140   1.009   2.560   3.305  0.2385 -0.3835 -0.2116
 4893SOL    HW126141   0.998   2.654   3.319 -0.2411  0.1610 -4.2327
 4893SOL    HW226142   0.925   2.537   3.344  0.4322 -0.2556  0.2716
 4894SOL     OW26143   2.654   2.593   4.473  0.6382 -0.2641  0.0074
 4894SOL    HW126144   2.683   2.593   4.564 -0.5686 -0.2422  0.3977
 4894SOL    HW226145   2.730   2.624   4.425  1.3600  0.0439  1.3541
 4895SOL     OW26146   3.587   3.490  12.312 -0.2127 -0.1638  0.6418
 4895SOL    HW126147   3.492   3.489  12.305 -0.2688 -3.1113  1.4925
 4895SOL    HW226148   3.616   3.523  12.227 -1.8073  1.2549  0.6502
 4896SOL     OW26149   0.884   0.347   0.487  0.3994 -1.4879 -0.0305
 4896SOL    HW126150   0.964   0.374   0.532  0.4977 -0.1536 -1.0008
 4896SOL    HW226151   0.856   0.275   0.544  1.3782 -1.2819  0.7096
 4897SOL     OW26152   0.865   3.550   3.485 -0.0660  0.6296 -0.7958
 4897SOL    HW126153   0.777   3.518   3.505 -0.9821  1.9844 -2.5608
 4897SOL    HW226154   0.876   3.497   3.406 -0.5784 -0.6115 -0.0316
 4898SOL     OW26155   4.112   2.527   2.620 -0.3005 -0.3903 -0.2642
 4898SOL    HW126156   4.051   2.455   2.639 -0.0346 -0.8830 -1.3131
 4898SOL    HW226157   4.140   2.539   2.711  1.3721  0.6889 -0.9323
 4899SOL     OW26158   3.235   0.875   8.202 -0.0177  0.6943  0.2256
 4899SOL    HW126159   3.197   0.904   8.285  1.4045  0.1415  1.0705
 4899SOL    HW226160   3.314   0.928   8.202  1.7802 -1.9961  1.9172
 4900SOL     OW26161   3.408   1.217   6.469 -0.3242  0.1077  0.8415
 4900SOL    HW126162   3.381   1.263   6.548  1.9166 -0.4618  1.9496
 4900SOL    HW226163   3.407   1.284   6.399 -0.6647 -1.7518 -0.9281
 4901SOL     OW26164   3.653   3.943   6.358  0.1084  0.3764 -0.2415
 4901SOL    HW126165   3.572   3.995   6.358 -1.2269 -1.7200 -0.2231
 4901SOL    HW226166   3.685   3.957   6.269 -0.9102 -3.3343 -1.1882
 4902SOL     OW26167   0.465   2.154   6.515 -0.0854  0.7430 -0.4693
 4902SOL    HW126168   0.430   2.243   6.512  0.9232  1.2290  1.8188
 4902SOL    HW226169   0.558   2.176   6.523  0.0613 -0.4782  1.0283
 4903SOL     OW26170   3.488   0.353   2.620  0.1561 -0.0102  0.4570
 4903SOL    HW126171   3.529   0.399   2.547  2.0173 -2.7523 -0.2262
 4903SOL    HW226172   3.401   0.393   2.616 -0.3588 -1.0399  1.1670
 4904SOL     OW26173   3.637   2.024   4.548 -0.1462 -0.1792 -0.0022
 4904SOL    HW126174   3.605   2.018   4.638 -1.3043  0.6774 -0.3659
 4904SOL    HW226175   3.609   1.937   4.519 -1.2033  0.0050  0.4760
 4905SOL     OW26176   2.700   0.980   5.960  0.5055 -0.4128 -0.1720
 4905SOL    HW126177   2.624   0.922   5.966  0.0775  0.1731  0.0072
 4905SOL    HW226178   2.738   0.962   6.046  1.2701  0.3394 -0.3476
 4906SOL     OW26179   4.549   1.035   8.878 -0.0270  1.0559  0.8603
 4906SOL    HW126180   4.616   1.084   8.830  1.5401 -1.3748  0.5684
 4906SOL    HW226181   4.585   1.039   8.966 -0.2014 -1.2934  1.0365
 4907SOL     OW26182   4.377   2.633  12.144  0.7072 -0.7722 -0.1890
 4907SOL    HW126183   4.427   2.652  12.064  0.5009 -2.3242 -0.6837
 4907SOL    HW226184   4.321   2.564  12.110  0.2256 -0.6175  0.2976
 4908SOL     OW26185   1.551   3.548   8.296 -0.1041 -0.4831  0.1989
 4908SOL    HW126186   1.622   3.517   8.239  0.0788 -0.2414  0.2954
 4908SOL    HW226187   1.595   3.546   8.381 -2.0695 -0.2733  1.2191
 4909SOL     OW26188   4.240   4.236   1.211 -0.1673 -0.0416 -0.5297
 4909SOL    HW126189   4.309   4.195   1.262  0.5124  1.8372  0.0785
 4909SOL    HW226190   4.279   4.322   1.193  0.7157 -0.0829  1.2211
 4910SOL     OW26191   2.137   2.854   8.005 -0.2844  0.5667 -0.0238
 4910SOL    HW126192   2.127   2.792   8.077  1.5700 -0.7901 -0.9235
 4910SOL    HW226193   2.064   2.913   8.025  1.0462  1.7302  1.3985
 4911SOL     OW26194   3.227   1.424  13.802  0.1106  0.5315 -0.1861
 4911SOL    HW126195   3.215   1.466  13.887 -1.4359  0.4265 -0.3546
 4911SOL    HW226196   3.244   1.332  13.825  1.1479  1.2217  1.7230
 4912SOL     OW26197   3.178   1.766  12.859 -0.3046  0.6335 -0.4350
 4912SOL    HW126198   3.110   1.773  12.926 -1.7356 -1.3179 -1.7008
 4912SOL    HW226199   3.128   1.821  12.798  1.2052  2.0850 -0.3815
 4913SOL     OW26200   2.721   1.024   1.867  0.0284 -0.3575  0.6350
 4913SOL    HW126201   2.788   1.003   1.802 -0.3507 -0.6285  0.3345
 4913SOL    HW226202   2.662   1.079   1.815 -1.5843 -2.4745  0.2539
 4914SOL     OW26203   4.118   2.079   9.063  0.2148  0.2092 -0.3691
 4914SOL    HW126204   4.024   2.095   9.064  0.3056  0.7332 -0.3773
 4914SOL    HW226205   4.140   2.105   8.973  0.8208  1.0358  0.0123
 4915SOL     OW26206   3.854   3.884   8.398  0.0804 -0.3830  0.3234
 4915SOL    HW126207   3.946   3.859   8.406  0.4146  0.1652 -1.8812
 4915SOL    HW226208   3.852   3.970   8.442 -2.3182 -0.3842  0.2216
 4916SOL     OW26209   3.503   2.046   8.473 -0.1104 -0.6102  0.5505
 4916SOL    HW126210   3.427   1.994   8.445  0.3563 -0.2184 -1.4494
 4916SOL    HW226211   3.530   1.995   8.549  0.5825  0.6470  1.1450
 4917SOL     OW26212   1.476   4.705  11.927  0.7210  0.1768  0.2005
 4917SOL    HW126213   1.480   0.053  11.863  0.9821 -0.3538 -0.3704
 4917SOL    HW226214   1.538   0.020  11.990  2.1497 -0.6300 -0.7220
 4918SOL     OW26215   2.730   1.135   3.359 -0.0565  0.3909 -0.3302
 4918SOL    HW126216   2.800   1.194   3.387  1.3257 -1.5222  0.2460
 4918SOL    HW226217   2.788   1.077   3.310 -0.3708 -2.0985  2.2555
 4919SOL     OW26218   1.030   0.052   1.069 -0.4958  0.0128 -0.1891
 4919SOL    HW126219   0.985   0.042   1.153 -0.7503  1.1087 -0.1945
 4919SOL    HW226220   1.088   0.127   1.079 -1.5477  0.4715  2.4422
 4920SOL     OW26221   3.098   3.105   5.551  0.1511 -0.4698  0.3024
 4920SOL    HW126222   3.139   3.045   5.488  1.8629  1.5135 -0.4814
 4920SOL    HW226223   3.178   3.147   5.581  0.5371 -1.7099  1.0342
 4921SOL     OW26224   3.463   1.636  12.084  0.1058 -0.3484  0.1364
 4921SOL    HW126225   3.463   1.697  12.011 -2.4354 -1.3593 -0.7049
 4921SOL    HW226226   3.374   1.651  12.117 -0.2668 -1.4312 -0.3979
 4922SOL     OW26227   4.118   0.826  12.188  0.2409  0.5560  0.0601
 4922SOL    HW126228   4.177   0.848  12.261  2.2644 -1.4484 -0.9784
 4922SOL    HW226229   4.110   0.914  12.150  1.1332 -0.1543 -1.7693
 4923SOL     OW26230   1.811   3.463   0.976  0.0772 -0.2210 -0.8041
 4923SOL    HW126231   1.830   3.371   0.990  3.9392  0.8881  1.1616
 4923SOL    HW226232   1.718   3.471   0.999  1.1346  0.0163  3.4179
 4924SOL     OW26233   2.203   0.605  16.990  0.1012  0.4121  0.3298
 4924SOL    HW126234   2.249   0.535  16.941 -0.3716 -1.8097  3.0837
 4924SOL    HW226235   2.187   0.571  17.078  1.1287 -3.1344 -0.8408
 4925SOL     OW26236   2.511   3.606   1.438  0.4086 -0.5895 -0.5359
 4925SOL    HW126237   2.451   3.591   1.510  0.1198 -0.8477 -0.8325
 4925SOL    HW226238   2.464   3.643   1.363  2.2908  0.5881 -1.1389
 4926SOL     OW26239   3.983   3.928   2.539 -0.0123  0.4621 -0.1046
 4926SOL    HW126240   3.976   4.016   2.503  0.1747  0.8292  0.7563
 4926SOL    HW226241   3.953   3.953   2.627  0.0995 -0.0703  0.0835
 4927SOL     OW26242   0.044   4.470   5.569  0.2691 -0.7873  0.1759
 4927SOL    HW126243   0.052   4.385   5.526 -1.3805 -0.7905 -0.1303
 4927SOL    HW226244   4.673   4.488   5.563  0.1512 -1.5870 -0.4085
 4928SOL     OW26245   0.591   0.625   4.763  0.7183 -0.5151 -0.0749
 4928SOL    HW126246   0.581   0.534   4.790  0.0772 -0.8681 -1.4841
 4928SOL    HW226247   0.611   0.669   4.846  1.0222  1.1694 -1.0417
 4929SOL     OW26248   0.095   0.066  17.257 -0.4135 -0.4818  0.0617
 4929SOL    HW126249   0.011   0.045  17.298 -1.4034  1.9267 -0.7201
 4929SOL    HW226250   0.069   0.110  17.176  1.8694  1.3903  0.3500
 4930SOL     OW26251   4.564   2.278   6.904  0.2237 -0.0561 -0.4979
 4930SOL    HW126252   4.556   2.235   6.990 -1.3309  0.2546 -0.4830
 4930SOL    HW226253   4.565   2.370   6.931  0.9241 -1.2113  3.5068
 4931SOL     OW26254   4.496   4.678   5.714  0.5942 -0.9129  0.2117
 4931SOL    HW126255   4.439   0.031   5.706  0.1462 -1.2494  0.2530
 4931SOL    HW226256   4.505   4.657   5.621 -0.4219 -0.2515 -0.0289
 4932SOL     OW26257   2.037   4.194  16.850 -0.5640 -0.6352 -0.7882
 4932SOL    HW126258   1.989   4.225  16.774 -3.2159  2.6557  2.2283
 4932SOL    HW226259   2.095   4.270  16.855 -1.7200  0.2260 -0.7209
 4933SOL     OW26260   3.947   1.003  10.213  0.1364  0.3305  0.0244
 4933SOL    HW126261   3.898   0.922  10.196  0.7310  0.7846 -3.9824
 4933SOL    HW226262   4.035   0.965  10.211 -0.0342 -0.1004  0.8588
 4934SOL     OW26263   2.962   4.430   5.374  0.5000  0.1293 -0.4856
 4934SOL    HW126264   2.884   4.463   5.420  1.1715  0.7549  0.2094
 4934SOL    HW226265   2.926   4.353   5.330  0.3271 -0.7987  1.3013
 4935SOL     OW26266   1.738   4.413   8.472 -0.5811  0.2333 -0.8334
 4935SOL    HW126267   1.784   4.496   8.466 -2.6917  1.5614  1.3729
 4935SOL    HW226268   1.770   4.391   8.560  0.1867  0.8971 -0.9463
 4936SOL     OW26269   4.409   1.995   5.411  0.6234  0.0327  0.3147
 4936SOL    HW126270   4.390   2.061   5.345 -0.7502 -0.6117  0.0799
 4936SOL    HW226271   4.398   2.047   5.491 -1.8249  0.1983 -0.1264
 4937SOL     OW26272   3.520   1.893   9.195 -0.1204  0.0768 -0.6753
 4937SOL    HW126273   3.556   1.814   9.155 -2.6579 -2.1222  1.2675
 4937SOL    HW226274   3.457   1.849   9.253  0.7778  0.0083  0.2362
 4938SOL     OW26275   3.603   2.708   8.223 -0.2270 -0.4151 -0.0249
 4938SOL    HW126276   3.515   2.676   8.202 -0.1867 -1.5088  1.4717
 4938SOL    HW226277   3.634   2.637   8.279 -0.5919 -0.8018 -0.3133
 4939SOL     OW26278   3.486   0.112   7.466 -0.4683  0.0945 -0.4645
 4939SOL    HW126279   3.410   0.057   7.450  0.0908 -0.4968 -1.1117
 4939SOL    HW226280   3.505   0.077   7.553  1.7131 -0.2781 -1.0953
 4940SOL     OW26281   0.083   3.621   3.000 -0.3231 -0.2449 -0.0417
 4940SOL    HW126282   0.142   3.598   2.928  0.6350  0.9098  0.3752
 4940SOL    HW226283   0.016   3.552   2.995  0.9254 -1.5254  0.9297
 4941SOL     OW26284   0.954   1.526   1.174 -0.2981  0.0933 -0.2559
 4941SOL    HW126285   0.891   1.499   1.108  1.2925 -2.4152 -0.7334
 4941SOL    HW226286   0.960   1.449   1.231  0.2609  0.6896  0.4948
 4942SOL     OW26287   2.063   4.601  16.878  0.0205 -0.8588  0.1553
 4942SOL    HW126288   1.995   4.564  16.935 -1.6737  0.1875 -1.2084
 4942SOL    HW226289   2.089   4.534  16.815  0.0962 -1.7691  1.1614
 4943SOL     OW26290   4.256   0.524  12.404  0.6723  0.3416 -0.2197
 4943SOL    HW126291   4.230   0.452  12.462  1.0064 -0.5051 -1.1248
 4943SOL    HW226292   4.321   0.475  12.355 -0.1645 -0.7328 -0.2707
 4944SOL     OW26293   3.984   4.684  10.061 -0.2973  0.9542  0.0594
 4944SOL    HW126294   3.988   4.602  10.012  0.1742  0.8967  0.1914
 4944SOL    HW226295   3.931   4.654  10.135 -0.7644 -0.3808 -0.8233
 4945SOL     OW26296   4.155   1.649   2.202 -0.4006  0.4968 -0.2675
 4945SOL    HW126297   4.223   1.589   2.171 -0.1677  0.7467 -0.2436
 4945SOL    HW226298   4.204   1.700   2.266  1.2439  0.6870 -1.6542
 4946SOL     OW26299   2.065   1.621   3.540 -0.4266  0.4230 -0.1018
 4946SOL    HW126300   2.057   1.537   3.586  1.0221  1.3612  1.8383
 4946SOL    HW226301   2.072   1.603   3.446  0.2765 -2.1903  0.4399
 4947SOL     OW26302   2.821   3.133   5.309  0.2675  0.4580 -0.3134
 4947SOL    HW126303   2.881   3.077   5.359 -1.7195 -1.1843  0.2220
 4947SOL    HW226304   2.824   3.208   5.368 -1.7439 -2.2157  3.2319
 4948SOL     OW26305   3.889   1.876   8.851  0.4031 -0.2056 -0.0521
 4948SOL    HW126306   3.804   1.861   8.893  1.8154 -0.4862  2.7236
 4948SOL    HW226307   3.874   1.943   8.784  0.9292  0.2306  0.2670
 4949SOL     OW26308   3.306   3.837   8.447 -0.8604 -0.1556  0.9408
 4949SOL    HW126309   3.370   3.770   8.469  0.3996  0.0560 -2.1202
 4949SOL    HW226310   3.221   3.792   8.447 -0.2661 -1.2852  1.2648
 4950SOL     OW26311   3.143   2.747   5.677  0.1464  0.1725 -0.2131
 4950SOL    HW126312   3.189   2.744   5.761  1.1556 -0.4665 -0.7875
 4950SOL    HW226313   3.223   2.768   5.629  0.1597  0.8726  0.1056
 4951SOL     OW26314   3.864   0.724   5.576  0.2116  0.5912  0.3318
 4951SOL    HW126315   3.803   0.719   5.649 -2.0445  1.9577 -1.4343
 4951SOL    HW226316   3.844   0.653   5.514  0.5301  1.7165 -1.0676
 4952SOL     OW26317   3.249   3.876  16.197  0.4724  0.4443 -0.1173
 4952SOL    HW126318   3.302   3.859  16.275 -1.4389  0.7853  1.2727
 4952SOL    HW226319   3.160   3.866  16.231  0.0505  0.0146 -1.3714
 4953SOL     OW26320   0.397   0.448   3.349  0.3127 -0.3203 -0.2035
 4953SOL    HW126321   0.345   0.481   3.276 -0.2379 -0.8988 -0.0752
 4953SOL    HW226322   0.486   0.448   3.314  0.0424 -0.4291 -0.8972
 4954SOL     OW26323   1.739   0.753   2.668  0.4660 -0.2016  0.5591
 4954SOL    HW126324   1.810   0.715   2.720 -1.5256 -3.1415  1.1434
 4954SOL    HW226325   1.742   0.842   2.701  1.7818 -0.9319  2.4422
 4955SOL     OW26326   0.658   2.688   5.019  0.4008 -0.3578 -0.2975
 4955SOL    HW126327   0.659   2.670   5.113 -2.0107  1.8503  0.1447
 4955SOL    HW226328   0.741   2.648   4.993  0.9077  1.1983 -1.0498
 4956SOL     OW26329   3.688   1.398   8.426  0.4908  0.9411 -0.6639
 4956SOL    HW126330   3.746   1.346   8.370  0.3880  0.7152 -0.5584
 4956SOL    HW226331   3.653   1.324   8.475  1.3481  0.3421 -0.9551
 4957SOL     OW26332   2.286   0.727   7.511  0.2054  0.0408  0.1076
 4957SOL    HW126333   2.290   0.658   7.445 -0.2350  0.3578 -0.2569
 4957SOL    HW226334   2.376   0.722   7.541 -0.0341 -1.2137  0.6241
 4958SOL     OW26335   0.159   2.328  17.519 -0.6675  0.0171  0.0224
 4958SOL    HW126336   0.178   2.316  17.612 -1.8175  0.0833  0.2686
 4958SOL    HW226337   0.086   2.388  17.505 -0.9285  0.0192  1.4236
 4959SOL     OW26338   4.125   0.920   1.506 -0.4379 -0.1028  0.4835
 4959SOL    HW126339   4.167   0.935   1.590 -0.1127  2.4698 -0.1300
 4959SOL    HW226340   4.038   0.889   1.532 -0.6724 -0.0775 -0.2500
 4960SOL     OW26341   0.519   4.081  13.060  0.1086  0.2252 -0.3203
 4960SOL    HW126342   0.578   4.085  13.135 -0.7628  2.9129  0.2433
 4960SOL    HW226343   0.568   4.137  12.999  0.6643  0.3972  0.2765
 4961SOL     OW26344   4.417   2.220   3.672  0.1262 -0.0214 -0.3010
 4961SOL    HW126345   4.349   2.277   3.636  2.2985  2.1156 -1.0002
 4961SOL    HW226346   4.478   2.208   3.599  0.2268  0.0120 -0.2215
 4962SOL     OW26347   4.382   1.292  16.625 -0.4825  0.0207  0.5467
 4962SOL    HW126348   4.457   1.263  16.676 -0.3267  1.0854  0.9173
 4962SOL    HW226349   4.310   1.282  16.687 -0.3019 -1.7156  0.4685
 4963SOL     OW26350   0.532   2.105   4.905 -0.3389  0.2203  0.1003
 4963SOL    HW126351   0.588   2.139   4.975 -0.7991  1.0364  0.0678
 4963SOL    HW226352   0.586   2.050   4.849 -0.9970 -0.9842  0.6517
 4964SOL     OW26353   2.141   4.468   2.792  0.2581  0.1978 -0.2792
 4964SOL    HW126354   2.122   4.561   2.776  1.4975  0.7025  1.1988
 4964SOL    HW226355   2.233   4.468   2.818  0.5352  0.5001 -1.2755
 4965SOL     OW26356   2.280   4.218   2.645  0.0562 -0.1044 -0.2724
 4965SOL    HW126357   2.252   4.301   2.683 -0.4367  1.1972 -3.4864
 4965SOL    HW226358   2.205   4.195   2.590  0.5507 -0.3344 -0.8406
 4966SOL     OW26359   0.322   3.773   5.914  0.3530  0.3680  0.9752
 4966SOL    HW126360   0.278   3.846   5.870  2.3553  0.7479 -0.4018
 4966SOL    HW226361   0.273   3.695   5.888 -1.8573  1.4878  1.7515
 4967SOL     OW26362   1.603   3.487   7.621  0.3498 -0.0479  0.7098
 4967SOL    HW126363   1.636   3.574   7.642 -0.3006  0.7015 -1.3310
 4967SOL    HW226364   1.636   3.472   7.532  0.5875  0.4688  0.7136
 4968SOL     OW26365   3.161   2.505   6.759  0.0868  0.0363 -0.8357
 4968SOL    HW126366   3.103   2.575   6.728 -0.2225  1.0193  1.9723
 4968SOL    HW226367   3.134   2.432   6.704  0.0111 -0.6043  0.0610
 4969SOL     OW26368   2.120   2.254   1.124  0.5189 -0.1125  0.6215
 4969SOL    HW126369   2.196   2.247   1.181  0.7550  0.7652  0.4139
 4969SOL    HW226370   2.148   2.196   1.053  0.1471  0.2767  0.1526
 4970SOL     OW26371   3.542   1.450   6.564 -0.3086 -0.6130 -0.3888
 4970SOL    HW126372   3.579   1.453   6.476 -1.9560 -1.5161 -1.1132
 4970SOL    HW226373   3.535   1.543   6.586 -3.4948 -0.4237 -2.2539
 4971SOL     OW26374   1.666   1.246  15.810 -0.1284 -0.2325  0.6587
 4971SOL    HW126375   1.692   1.271  15.721 -2.0710  0.5956  0.3170
 4971SOL    HW226376   1.572   1.251  15.791 -0.0243 -1.0294 -0.0410
 4972SOL     OW26377   1.228   0.810   7.672 -0.0843 -0.2302  0.3129
 4972SOL    HW126378   1.248   0.721   7.643  3.2814  0.6200 -0.0014
 4972SOL    HW226379   1.173   0.782   7.745 -0.2438 -1.8116 -0.4149
 4973SOL     OW26380   4.549   0.959  10.459 -0.0399  0.1320 -0.2398
 4973SOL    HW126381   4.604   0.918  10.526 -1.0084  0.0946  0.5423
 4973SOL    HW226382   4.567   0.909  10.380 -1.0002  1.0813 -1.0553
 4974SOL     OW26383   1.725   1.844   5.819  0.1846  0.9237  0.2322
 4974SOL    HW126384   1.698   1.822   5.730 -0.3460  0.3693  0.5311
 4974SOL    HW226385   1.804   1.792   5.813  0.0610  0.8891 -1.0513
 4975SOL     OW26386   2.471   2.949  11.120 -0.0290  0.6994  0.2484
 4975SOL    HW126387   2.477   2.897  11.200  0.2609  0.4411  0.0554
 4975SOL    HW226388   2.409   3.017  11.147 -0.1149  1.0880 -0.9266
 4976SOL     OW26389   4.035   1.405   2.272  0.0454  0.3481  0.6679
 4976SOL    HW126390   4.089   1.484   2.272 -0.9513  1.0437 -1.1972
 4976SOL    HW226391   4.065   1.358   2.194 -1.7246  1.7393 -0.8472
 4977SOL     OW26392   2.783   1.800   3.348  0.3319 -0.1182  0.3005
 4977SOL    HW126393   2.765   1.745   3.424  0.2326 -1.1256 -0.4518
 4977SOL    HW226394   2.877   1.809   3.364  0.3450  0.6624 -0.2290
 4978SOL     OW26395   2.370   3.916   9.316 -0.1937  0.2684  0.2296
 4978SOL    HW126396   2.305   3.877   9.374 -0.1850  2.3761  1.6596
 4978SOL    HW226397   2.441   3.856   9.337 -1.1360  0.0670  2.8412
 4979SOL     OW26398   0.213   1.422   8.825 -0.0092  0.2231 -0.3112
 4979SOL    HW126399   0.177   1.389   8.743 -0.9513  0.0121  0.1753
 4979SOL    HW226400   0.140   1.474   8.859  1.3507  1.0775  1.2547
 4980SOL     OW26401   3.302   0.481   7.034  0.0321 -0.0971  0.3058
 4980SOL    HW126402   3.338   0.505   7.120 -1.3627  1.2536  0.5046
 4980SOL    HW226403   3.347   0.397   7.027  3.7451  1.9358  0.1738
 4981SOL     OW26404   4.387   1.642   4.284  0.2406 -0.2069 -0.1481
 4981SOL    HW126405   4.308   1.673   4.329  0.4738 -2.5011  1.8326
 4981SOL    HW226406   4.449   1.664   4.353  1.4515  0.2944 -1.3916
 4982SOL     OW26407   4.125   3.473  13.535 -0.7772 -0.0261  0.5595
 4982SOL    HW126408   4.069   3.423  13.594  2.1204 -1.7931  1.8260
 4982SOL    HW226409   4.199   3.412  13.526 -0.6198  0.0821  1.1620
 4983SOL     OW26410   4.241   3.407   4.993 -0.4466 -0.0498  0.3060
 4983SOL    HW126411   4.327   3.449   5.001 -0.4017  0.3623 -2.4510
 4983SOL    HW226412   4.241   3.340   5.062  1.6277 -0.9079 -0.5117
 4984SOL     OW26413   3.866   2.729  16.897  0.5585  0.3862  0.1638
 4984SOL    HW126414   3.810   2.693  16.828  0.1799  0.1673  0.5862
 4984SOL    HW226415   3.838   2.821  16.896 -2.7315 -0.6737 -4.1416
 4985SOL     OW26416   4.313   1.263   6.399 -0.1608 -0.0865 -0.2874
 4985SOL    HW126417   4.391   1.208   6.404 -0.9190 -0.9278  2.2775
 4985SOL    HW226418   4.268   1.240   6.317  1.2005  0.4953 -1.1912
 4986SOL     OW26419   0.880   2.899   5.280  0.3106 -0.0058  0.3324
 4986SOL    HW126420   0.924   2.872   5.200 -1.4000 -0.6184 -0.3962
 4986SOL    HW226421   0.806   2.840   5.295  0.1094  0.1498 -0.0739
 4987SOL     OW26422   1.568   4.289   5.424  0.4461  0.0083  0.0753
 4987SOL    HW126423   1.505   4.304   5.354  1.4126  2.6457 -0.2245
 4987SOL    HW226424   1.588   4.382   5.435 -1.2805  0.4219 -0.2790
 4988SOL     OW26425   1.913   2.667  15.989  0.2604  0.5204  0.2043
 4988SOL    HW126426   1.955   2.679  16.074  2.9150 -3.2404 -0.5796
 4988SOL    HW226427   1.934   2.747  15.940 -0.1936  1.2283  1.1659
 4989SOL     OW26428   0.560   3.839   1.666  0.4170  0.4414  1.1172
 4989SOL    HW126429   0.598   3.767   1.616 -0.9640  0.8578 -0.5140
 4989SOL    HW226430   0.551   3.909   1.602 -1.6780  0.3800  1.3302
 4990SOL     OW26431   2.738   4.308  10.593  0.7000  0.3238 -0.2439
 4990SOL    HW126432   2.777   4.395  10.604  2.8600 -0.7407  0.6317
 4990SOL    HW226433   2.652   4.330  10.627  0.6130  0.1174 -0.3346
 4991SOL     OW26434   0.686   3.593   2.181 -0.1336 -0.2911 -0.6312
 4991SOL    HW126435   0.601   3.589   2.225  1.1930 -1.5479  1.7562
 4991SOL    HW226436   0.722   3.513   2.220 -2.0824 -0.4678  0.7700
 4992SOL     OW26437   1.803   1.958   1.906  0.4900 -0.0055 -0.1673
 4992SOL    HW126438   1.805   1.920   1.994 -1.8383 -0.0876 -0.1461
 4992SOL    HW226439   1.894   1.939   1.882  0.7222 -2.9992  3.1206
 4993SOL     OW26440   3.359   0.091   2.786  0.4653  0.0593 -0.1268
 4993SOL    HW126441   3.292   0.153   2.814  1.5762  0.5537  1.4461
 4993SOL    HW226442   3.436   0.137   2.819  0.5625 -0.8439  0.8938
 4994SOL     OW26443   3.386   3.628   8.611 -0.3031 -0.1281  0.0000
 4994SOL    HW126444   3.315   3.578   8.572 -0.2298 -0.6636  0.5343
 4994SOL    HW226445   3.335   3.687   8.667  0.9465  0.5679  0.4094
 4995SOL     OW26446   1.727   0.975   1.459 -0.4848 -0.0904 -0.6860
 4995SOL    HW126447   1.690   0.927   1.385 -0.6136  0.5915 -1.0599
 4995SOL    HW226448   1.666   1.048   1.460  0.3414  0.6096 -1.3277
 4996SOL     OW26449   0.533   3.986  14.620 -0.3972 -0.0198 -0.0612
 4996SOL    HW126450   0.618   3.977  14.577 -0.5127  0.7262 -0.4432
 4996SOL    HW226451   0.571   3.943  14.697  0.5732  0.2596 -0.3865
 4997SOL     OW26452   2.310   1.099  16.115 -0.5993  0.1207 -0.1972
 4997SOL    HW126453   2.393   1.098  16.067 -0.8211  0.3811 -0.5829
 4997SOL    HW226454   2.311   1.192  16.138  1.4857 -0.4878  2.2122
 4998SOL     OW26455   3.597   3.796   8.404 -0.5296 -0.0161 -0.1629
 4998SOL    HW126456   3.671   3.851   8.379 -1.0447  1.0724  0.7227
 4998SOL    HW226457   3.614   3.792   8.498 -1.2469 -2.2522 -0.1296
 4999SOL     OW26458   0.461   1.369  14.064 -0.0371 -0.3451 -0.3048
 4999SOL    HW126459   0.468   1.286  14.017  1.2451 -1.0541  1.1168
 4999SOL    HW226460   0.366   1.379  14.072 -0.0224  1.2528 -2.3524
 5000SOL     OW26461   2.499   0.039  15.258  0.7173 -0.1977  0.3367
 5000SOL    HW126462   2.443   0.033  15.181 -1.8760  2.9834  1.9753
 5000SOL    HW226463   2.485   0.133  15.264  1.0284 -0.2419  1.7486
 5001SOL     OW26464   3.858   2.681   4.868 -0.0625  0.0078  0.6109
 5001SOL    HW126465   3.813   2.694   4.952  0.4876  2.1541  0.5769
 5001SOL    HW226466   3.823   2.759   4.825  1.6503  0.3915 -0.0580
 5002SOL     OW26467   3.794   0.893   5.383  0.0241  0.3279 -0.2594
 5002SOL    HW126468   3.887   0.913   5.368  0.1313 -0.0851 -0.1723
 5002SOL    HW226469   3.807   0.851   5.469  1.0935  0.4480 -0.3550
 5003SOL     OW26470   0.623   4.040  11.945  0.2024  0.5465 -0.7356
 5003SOL    HW126471   0.637   3.984  11.869 -3.2657 -1.7713  0.3439
 5003SOL    HW226472   0.648   3.989  12.022 -1.7249  0.0589 -0.4312
 5004SOL     OW26473   2.606   0.255   2.814  0.3144  0.0615 -0.0154
 5004SOL    HW126474   2.573   0.260   2.904 -1.8386 -1.2719 -0.7455
 5004SOL    HW226475   2.525   0.236   2.768 -0.9470  1.8555  1.4635
 5005SOL     OW26476   4.050   0.329   2.474 -0.1703 -0.4376 -0.4160
 5005SOL    HW126477   4.093   0.281   2.545  0.1282  1.1348  0.4612
 5005SOL    HW226478   4.083   0.276   2.402  1.8841 -3.7713  3.0188
 5006SOL     OW26479   4.275   0.287   5.217 -0.0624  0.3396 -0.1844
 5006SOL    HW126480   4.311   0.309   5.131  1.1131  0.4528  0.3350
 5006SOL    HW226481   4.182   0.289   5.194 -0.0229  0.9905 -0.2665
 5007SOL     OW26482   4.410   0.304   3.878 -0.1420  0.7107 -0.4577
 5007SOL    HW126483   4.413   0.302   3.783  1.1641  2.8707 -0.4630
 5007SOL    HW226484   4.465   0.380   3.898 -1.2386  0.8839  1.9565
 5008SOL     OW26485   3.048   2.126   5.640  0.6781 -0.0719 -0.3034
 5008SOL    HW126486   2.990   2.177   5.584  2.3913  3.1480  0.8528
 5008SOL    HW226487   3.117   2.185   5.671  0.0600  0.6423 -0.2854
 5009SOL     OW26488   2.320   2.540   5.607  0.1966 -0.7324  0.3939
 5009SOL    HW126489   2.379   2.529   5.682  0.8083 -0.7007 -0.0875
 5009SOL    HW226490   2.348   2.628   5.583 -1.1282 -0.9594 -1.9065
 5010SOL     OW26491   4.464   3.405  14.523  0.5436 -0.5361 -0.1722
 5010SOL    HW126492   4.394   3.410  14.457  2.8203 -1.3087 -2.6642
 5010SOL    HW226493   4.495   3.320  14.494 -0.4970 -0.3627 -1.8067
 5011SOL     OW26494   1.789   1.027   4.276 -0.0002  0.1684 -0.3874
 5011SOL    HW126495   1.798   1.113   4.319  0.4871  0.4072 -0.9663
 5011SOL    HW226496   1.753   1.057   4.193  0.6418  1.6782 -0.1252
 5012SOL     OW26497   0.388   2.778  12.458  0.0329 -0.3365  0.1848
 5012SOL    HW126498   0.389   2.818  12.371  3.0876 -2.6857 -0.8427
 5012SOL    HW226499   0.422   2.689  12.446 -0.2523 -0.5397  0.9026
 5013SOL     OW26500   4.343   0.637   1.771  0.4500 -0.4767  0.0784
 5013SOL    HW126501   4.388   0.651   1.688 -0.1605  1.0424  0.0108
 5013SOL    HW226502   4.398   0.699   1.818 -0.2409 -0.7176  1.2029
 5014SOL     OW26503   0.509   3.337   2.969  0.0140  0.4855  0.0288
 5014SOL    HW126504   0.538   3.342   2.878  0.3303 -0.6810  0.0613
 5014SOL    HW226505   0.417   3.362   2.966 -0.0889  0.1834  0.7271
 5015SOL     OW26506   2.527   3.033  17.154 -0.1421 -0.3223 -0.5903
 5015SOL    HW126507   2.470   2.972  17.201 -0.2013  0.1954  0.0069
 5015SOL    HW226508   2.574   3.076  17.225 -0.7688 -1.6860  0.6508
 5016SOL     OW26509   3.050   4.624   4.453  0.5112  0.0459  0.0576
 5016SOL    HW126510   3.115   4.665   4.396  1.4700 -1.1352  0.2857
 5016SOL    HW226511   3.021   4.693   4.513 -0.1182 -1.8956  1.9998
 5017SOL     OW26512   2.073   4.329   3.123  0.3706  0.3467  0.0130
 5017SOL    HW126513   2.154   4.314   3.172  0.3006  0.4751  0.1695
 5017SOL    HW226514   2.079   4.273   3.046 -0.7575  2.2369 -1.4343
 5018SOL     OW26515   4.090   1.928   3.117 -0.4104 -0.1689  0.1248
 5018SOL    HW126516   4.049   2.011   3.140  0.6577  0.5097 -0.4620
 5018SOL    HW226517   4.168   1.971   3.084 -0.1004 -0.8308 -0.0030
 5019SOL     OW26518   1.756   2.335  16.861 -1.0792 -0.1288 -0.2776
 5019SOL    HW126519   1.824   2.392  16.824 -0.8290 -0.3758 -0.2031
 5019SOL    HW226520   1.811   2.257  16.869  1.9392  1.9368 -0.6613
 5020SOL     OW26521   4.175   3.922   8.397 -0.2961  0.5177  0.8115
 5020SOL    HW126522   4.144   3.979   8.467 -1.1491 -0.0449  0.8889
 5020SOL    HW226523   4.173   3.979   8.320 -2.9105 -0.5393  0.0929
 5021SOL     OW26524   0.752   2.227  13.317 -1.0269 -0.1413  0.2704
 5021SOL    HW126525   0.699   2.189  13.247  0.1021 -2.7047  0.7900
 5021SOL    HW226526   0.771   2.306  13.267 -0.7751 -1.0506 -1.0601
 5022SOL     OW26527   0.756   0.167   4.187 -0.1908  0.2765  0.3980
 5022SOL    HW126528   0.832   0.115   4.213  0.3540  0.6559 -0.4565
 5022SOL    HW226529   0.775   0.252   4.227 -0.5740 -0.4198  2.0834
 5023SOL     OW26530   0.239   2.558   6.251  0.2010  0.0176 -0.4938
 5023SOL    HW126531   0.302   2.493   6.220  0.4553  0.2902 -0.5427
 5023SOL    HW226532   0.279   2.644   6.244  0.8099 -0.2379 -0.0826
 5024SOL     OW26533   3.029   3.982   5.211  0.4397 -0.2530  0.4129
 5024SOL    HW126534   2.941   4.016   5.193 -0.4490 -2.7421  0.0121
 5024SOL    HW226535   3.048   3.924   5.137 -0.7972 -3.4776  2.6393
 5025SOL     OW26536   1.024   3.749   6.924 -0.1643 -0.5865 -0.4187
 5025SOL    HW126537   1.029   3.739   7.019 -2.7010  4.7074  0.2783
 5025SOL    HW226538   0.962   3.685   6.891  0.1729 -2.2202  2.1424
 5026SOL     OW26539   2.144   3.190   4.703 -0.4872  0.9831 -0.4370
 5026SOL    HW126540   2.205   3.121   4.675  0.4202  1.0466  1.4038
 5026SOL    HW226541   2.197   3.260   4.739  0.2628 -0.4923  1.3550
 5027SOL     OW26542   3.062   0.332   4.380  0.2477 -0.0126 -0.0502
 5027SOL    HW126543   3.027   0.305   4.295  1.1808  1.2221 -0.8318
 5027SOL    HW226544   3.111   0.252   4.401 -0.1574 -0.3851 -0.5098
 5028SOL     OW26545   2.646   0.129   7.268  0.4562  0.0617  0.0123
 5028SOL    HW126546   2.722   0.127   7.209  1.4017 -1.8307  1.2892
 5028SOL    HW226547   2.632   0.223   7.256 -1.2532 -0.0141  1.5955
 5029SOL     OW26548   2.793   3.094  10.100  0.4204  0.1236  0.4612
 5029SOL    HW126549   2.729   3.165  10.114 -0.5966 -0.4398 -1.4367
 5029SOL    HW226550   2.865   3.110  10.161  0.8581 -0.0881 -0.0012
 5030SOL     OW26551   3.768   4.439   9.887  0.2970  0.3615 -0.0942
 5030SOL    HW126552   3.767   4.357   9.838 -0.6575  0.3321 -0.0397
 5030SOL    HW226553   3.862   4.456   9.884  0.2802  0.7185  1.1846
 5031SOL     OW26554   2.528   4.696   5.232  0.0082 -0.0176  0.4621
 5031SOL    HW126555   2.440   4.699   5.270 -0.5929  0.4408 -0.9830
 5031SOL    HW226556   2.522   0.012   5.145  1.5927  1.7469  1.1476
 5032SOL     OW26557   1.533   2.389   3.777 -0.0072  0.2354 -0.0818
 5032SOL    HW126558   1.537   2.452   3.706 -0.6845  1.5981  1.0897
 5032SOL    HW226559   1.439   2.377   3.788  0.3064 -0.0835  2.3172
 5033SOL     OW26560   3.290   4.505  12.621  0.0910  0.3882 -0.1148
 5033SOL    HW126561   3.369   4.459  12.649 -1.5891 -1.8770  0.8954
 5033SOL    HW226562   3.253   4.541  12.701 -0.4843 -0.8248  0.1596
 5034SOL     OW26563   4.255   4.582   2.318  0.7937 -0.1977  0.4290
 5034SOL    HW126564   4.328   4.556   2.261  0.8468 -0.5138  0.6400
 5034SOL    HW226565   4.196   4.512   2.292 -0.5149 -0.1415  3.2816
 5035SOL     OW26566   0.302   2.279   5.606  0.0278 -0.7996  0.0548
 5035SOL    HW126567   0.330   2.287   5.515  0.7752 -1.2197  0.2460
 5035SOL    HW226568   0.229   2.217   5.593 -0.9517  0.2414  0.6516
 5036SOL     OW26569   2.302   3.400  12.968  0.2515  0.5264  0.0046
 5036SOL    HW126570   2.333   3.402  13.059 -3.2660 -0.8259  1.2706
 5036SOL    HW226571   2.363   3.459  12.925  1.1498 -0.6508 -0.3245
 5037SOL     OW26572   1.585   3.724  13.592  0.6281 -0.7918 -0.0255
 5037SOL    HW126573   1.679   3.718  13.578  1.0405  0.9617  1.9085
 5037SOL    HW226574   1.554   3.649  13.542 -1.3962 -0.4710  0.7530
 5038SOL     OW26575   1.976   4.249   2.850  0.7360  0.2733 -0.0527
 5038SOL    HW126576   2.034   4.319   2.820  1.0909  0.6540  1.5241
 5038SOL    HW226577   2.031   4.172   2.832  0.3356  0.1905 -0.9264
 5039SOL     OW26578   2.405   1.007  17.387  0.1382  0.2179 -0.4831
 5039SOL    HW126579   2.381   1.072  17.453  0.6141 -0.4932  0.3927
 5039SOL    HW226580   2.338   0.940  17.400 -0.2546  1.3233  3.2723
 5040SOL     OW26581   4.033   3.482   2.901 -0.1324 -0.3408  0.0446
 5040SOL    HW126582   4.047   3.515   2.812 -0.6273  0.9792  0.4551
 5040SOL    HW226583   4.036   3.389   2.878 -1.0760 -0.2316 -0.5080
 5041SOL     OW26584   0.481   4.477  15.882 -0.1828  0.3691 -0.5712
 5041SOL    HW126585   0.550   4.544  15.881 -0.1524  0.3315 -1.0734
 5041SOL    HW226586   0.443   4.493  15.795 -3.6248  2.3440  1.2958
 5042SOL     OW26587   2.191   0.783   5.129 -0.1081  0.0088 -0.1302
 5042SOL    HW126588   2.195   0.696   5.168  3.1089  0.3196  0.2665
 5042SOL    HW226589   2.125   0.831   5.178 -1.3747 -1.9878  0.0989
 5043SOL     OW26590   0.155   3.487   4.118  0.2470 -0.4854 -0.2159
 5043SOL    HW126591   0.099   3.477   4.195  0.2849  3.4442  0.3057
 5043SOL    HW226592   0.207   3.565   4.136 -1.8945  1.0330 -0.6576
 5044SOL     OW26593   0.210   0.659  10.857  0.1375 -0.0966 -0.5156
 5044SOL    HW126594   0.163   0.645  10.775 -0.6748  0.8309 -0.2172
 5044SOL    HW226595   0.296   0.673  10.817  0.5388 -0.6968  0.1598
 5045SOL     OW26596   1.935   1.164   6.577  0.2436 -0.1111  0.0024
 5045SOL    HW126597   1.975   1.250   6.586  1.0365 -0.2270 -2.4276
 5045SOL    HW226598   1.968   1.136   6.492 -1.9239  0.0676 -0.8800
 5046SOL     OW26599   1.079   1.893   2.206 -0.4052  0.3985 -0.2915
 5046SOL    HW126600   1.104   1.838   2.280 -3.8622 -1.6106 -0.6332
 5046SOL    HW226601   1.111   1.976   2.243  0.3145 -0.2683  0.5961
 5047SOL     OW26602   3.192   3.496   1.978 -0.4844 -0.1470 -0.0212
 5047SOL    HW126603   3.116   3.537   1.936  1.2029 -0.5270 -3.5059
 5047SOL    HW226604   3.155   3.416   2.013 -3.0898  0.0885 -2.2670
 5048SOL     OW26605   0.025   0.136   6.414  0.2008 -0.6694 -0.4308
 5048SOL    HW126606   4.667   0.186   6.422  1.2509  1.1429 -1.3713
 5048SOL    HW226607   0.054   0.165   6.328 -3.6164  4.0610 -0.0859
 5049SOL     OW26608   1.338   0.825   8.681 -0.6141 -0.1817 -0.2588
 5049SOL    HW126609   1.356   0.904   8.732  1.1903  1.2934 -3.2022
 5049SOL    HW226610   1.243   0.819   8.679 -0.5760 -0.9450  0.0242
 5050SOL     OW26611   0.175   1.418  13.748  0.1676 -0.0904  0.4640
 5050SOL    HW126612   0.205   1.328  13.740 -0.0248  0.0057 -1.2890
 5050SOL    HW226613   0.090   1.404  13.707  0.4631  0.3298 -0.2999
 5051SOL     OW26614   3.353   0.845   3.834  0.2191 -1.1228 -0.0903
 5051SOL    HW126615   3.425   0.908   3.832 -0.9785  0.1531 -3.1508
 5051SOL    HW226616   3.386   0.786   3.901 -2.1124 -1.4350  0.7545
 5052SOL     OW26617   1.974   4.624   1.312 -0.0799 -0.3800  0.5047
 5052SOL    HW126618   2.005   4.534   1.302 -0.4161 -0.4868  0.4104
 5052SOL    HW226619   1.890   4.602   1.352 -1.2650  1.6245 -0.8534
 5053SOL     OW26620   0.172   3.763  10.023  0.3524  0.0518 -0.4604
 5053SOL    HW126621   0.170   3.822  10.099 -1.1607 -1.3282  0.5578
 5053SOL    HW226622   0.248   3.709  10.043  0.3223  0.2339  0.1636
 5054SOL     OW26623   0.417   2.951   8.191 -0.2497  0.0128  0.4060
 5054SOL    HW126624   0.485   2.931   8.256 -0.0608  2.3592  0.9088
 5054SOL    HW226625   0.436   2.888   8.121 -1.4315  0.0381  0.0519
 5055SOL     OW26626   1.251   1.322   7.893 -0.2582 -0.8605  0.4052
 5055SOL    HW126627   1.257   1.417   7.902 -1.1647 -0.9864  2.1684
 5055SOL    HW226628   1.222   1.307   7.803  1.4543  1.5473 -0.5552
 5056SOL     OW26629   3.155   1.632  10.123  0.4557  0.1021 -0.2312
 5056SOL    HW126630   3.082   1.687  10.093 -1.0894 -4.3717 -4.6648
 5056SOL    HW226631   3.220   1.701  10.138  0.5019 -0.2224  1.0522
 5057SOL     OW26632   3.573   3.898   3.451 -0.6377  0.2127 -0.1530
 5057SOL    HW126633   3.479   3.910   3.440 -0.7761  0.4321  1.2065
 5057SOL    HW226634   3.582   3.886   3.546  0.2258  1.1066 -0.1176
 5058SOL     OW26635   2.129   1.030  12.162  0.0729  0.0646  0.2525
 5058SOL    HW126636   2.114   1.050  12.069 -0.6331  0.8335  0.5315
 5058SOL    HW226637   2.219   0.997  12.169 -0.5330 -1.5809  0.3789
 5059SOL     OW26638   0.743   0.315   6.273 -0.0371  0.1241  0.4217
 5059SOL    HW126639   0.800   0.239   6.261 -0.3524  0.0194 -0.4100
 5059SOL    HW226640   0.757   0.367   6.194 -0.2210 -2.2109 -1.1243
 5060SOL     OW26641   0.064   3.626   6.946  0.7117  0.3710 -0.9591
 5060SOL    HW126642   0.050   3.718   6.965 -1.3007 -0.6157  2.3931
 5060SOL    HW226643   0.119   3.624   6.868  1.2448  0.5653 -0.5901
 5061SOL     OW26644   2.840   0.983   6.188  0.1975 -0.5931  0.9093
 5061SOL    HW126645   2.901   0.941   6.248  1.7995  1.5943  0.8012
 5061SOL    HW226646   2.783   1.025   6.253 -2.6779 -0.9487 -1.3520
 5062SOL     OW26647   0.311   2.333   0.474  0.1433 -0.2726  0.2329
 5062SOL    HW126648   0.275   2.420   0.490  0.9094 -0.1696  1.3188
 5062SOL    HW226649   0.286   2.300   0.560 -2.2217 -0.0001 -0.3451
 5063SOL     OW26650   0.321   4.219   6.650 -0.2178 -0.0608  0.1901
 5063SOL    HW126651   0.235   4.260   6.662  0.1475  1.3223 -1.9164
 5063SOL    HW226652   0.362   4.242   6.734 -1.9428 -0.2074  1.0835
 5064SOL     OW26653   3.580   0.429   8.652  0.3412  0.3435  0.2414
 5064SOL    HW126654   3.524   0.503   8.677  0.9459  0.5066  1.1188
 5064SOL    HW226655   3.626   0.411   8.734  2.5653  0.3963 -1.0073
 5065SOL     OW26656   0.473   1.432   6.154  0.0028  0.3665 -0.3585
 5065SOL    HW126657   0.454   1.526   6.161 -1.8937 -0.1454  1.3772
 5065SOL    HW226658   0.542   1.431   6.088 -0.4796  0.3115 -0.8593
 5066SOL     OW26659   1.613   1.982   3.811  0.2056  0.3523  0.1244
 5066SOL    HW126660   1.684   1.944   3.758  0.1887  0.1192  0.2724
 5066SOL    HW226661   1.560   1.999   3.733 -0.8185 -2.9050  0.1318
 5067SOL     OW26662   1.296   0.858   6.066 -0.5836 -0.8181 -0.1429
 5067SOL    HW126663   1.351   0.936   6.070  0.0472 -1.1090 -3.1286
 5067SOL    HW226664   1.292   0.841   6.160 -0.1896  0.5061  0.1103
 5068SOL     OW26665   4.136   1.497   8.016  0.4820 -0.3746 -0.2474
 5068SOL    HW126666   4.043   1.477   8.017  0.1188  1.2616 -1.2175
 5068SOL    HW226667   4.144   1.592   8.027 -1.7754 -0.0265 -1.5853
 5069SOL     OW26668   1.912   3.647   5.472 -0.1109 -0.2522 -0.3358
 5069SOL    HW126669   1.911   3.738   5.502 -2.9819 -1.6308  3.7634
 5069SOL    HW226670   1.840   3.647   5.409  0.0726 -1.4554 -0.5401
 5070SOL     OW26671   1.701   3.839   1.326  0.1564 -0.2208  0.0706
 5070SOL    HW126672   1.727   3.761   1.376  2.5265 -0.3104 -1.3185
 5070SOL    HW226673   1.786   3.882   1.338  0.8270 -2.1764  2.3001
 5071SOL     OW26674   1.191   2.046   2.728  0.1952  0.8466  0.3284
 5071SOL    HW126675   1.220   2.114   2.788 -0.4252  0.6946  0.8093
 5071SOL    HW226676   1.129   2.102   2.680 -0.9286 -1.2044 -0.6300
 5072SOL     OW26677   2.452   3.998   1.347 -0.3604 -0.4833  0.5101
 5072SOL    HW126678   2.491   3.925   1.298 -0.2117 -1.4667  2.0835
 5072SOL    HW226679   2.523   4.008   1.410  0.2391  0.5319 -0.3333
 5073SOL     OW26680   2.576   0.498   2.226  0.0954 -0.6844  0.0158
 5073SOL    HW126681   2.627   0.438   2.172  0.4176 -1.0336  0.7046
 5073SOL    HW226682   2.623   0.579   2.207 -0.7907 -0.1549  0.0760
 5074SOL     OW26683   2.387   1.673   4.620 -0.6357  0.4982  0.1764
 5074SOL    HW126684   2.350   1.751   4.580  1.1669  1.6898  0.8377
 5074SOL    HW226685   2.469   1.718   4.641 -0.2909 -0.5095  1.0034
 5075SOL     OW26686   2.586   1.117   1.618  0.0357  0.4324 -0.1328
 5075SOL    HW126687   2.624   1.202   1.637  0.0316  0.2337  0.7715
 5075SOL    HW226688   2.585   1.136   1.525  0.1572 -3.4415 -0.9526
 5076SOL     OW26689   2.826   4.337  13.729 -0.5514  0.2101  0.2666
 5076SOL    HW126690   2.815   4.351  13.823  1.6510  0.1658  0.5322
 5076SOL    HW226691   2.871   4.252  13.729 -2.0824 -0.6033 -1.1815
 5077SOL     OW26692   2.518   3.948   5.564  0.3386  0.3172  0.4381
 5077SOL    HW126693   2.444   3.979   5.511  1.3171  0.7007 -0.6974
 5077SOL    HW226694   2.514   4.005   5.641 -2.4369  1.8143 -0.8118
 5078SOL     OW26695   4.492   1.526   2.453 -0.0837 -0.1476 -0.0536
 5078SOL    HW126696   4.521   1.560   2.538 -0.0625  2.2097 -1.0010
 5078SOL    HW226697   4.570   1.490   2.411  0.9206 -0.0491  1.7514
 5079SOL     OW26698   4.523   4.668   7.458 -0.1469 -0.1631 -0.0607
 5079SOL    HW126699   4.497   0.005   7.528 -0.9545 -0.9794  0.3332
 5079SOL    HW226700   4.512   4.580   7.493  0.9262  1.1552  3.6871
 5080SOL     OW26701   3.257   1.581  11.846 -0.2688 -0.6678 -0.4092
 5080SOL    HW126702   3.342   1.626  11.852  1.7287 -4.7233  1.3742
 5080SOL    HW226703   3.233   1.616  11.932 -0.4887  0.7003 -1.0131
 5081SOL     OW26704   2.056   2.429  13.248  0.4147 -0.1324  0.4487
 5081SOL    HW126705   2.026   2.345  13.212  0.3170 -0.0931  0.4385
 5081SOL    HW226706   2.149   2.407  13.247  0.6733  0.9670  0.7288
 5082SOL     OW26707   2.205   2.310   7.825 -0.1644 -0.3480  0.2006
 5082SOL    HW126708   2.184   2.253   7.750 -0.5293 -1.8641  1.4583
 5082SOL    HW226709   2.126   2.363   7.835  1.8234  2.8807 -1.3698
 5083SOL     OW26710   3.489   2.292   9.988 -0.0318  0.4745  0.0405
 5083SOL    HW126711   3.570   2.315  10.033 -0.4959 -0.3449  1.2894
 5083SOL    HW226712   3.436   2.251  10.056  0.7301  0.0783  0.4041
 5084SOL     OW26713   3.996   0.670  13.076 -0.0153 -0.0110 -0.7573
 5084SOL    HW126714   4.031   0.582  13.084  0.3657  0.1703 -0.4629
 5084SOL    HW226715   4.072   0.721  13.102 -1.0298  0.5195  1.1375
 5085SOL     OW26716   3.768   2.852   5.403  0.0972 -0.3182 -0.3382
 5085SOL    HW126717   3.686   2.901   5.399  0.7416  0.5895 -2.4437
 5085SOL    HW226718   3.831   2.917   5.434 -0.6933  1.0688 -1.6540
 5086SOL     OW26719   2.777   2.732  11.267 -0.2727 -0.0335 -0.4012
 5086SOL    HW126720   2.726   2.794  11.320  2.2254 -0.7498  2.8607
 5086SOL    HW226721   2.844   2.792  11.233 -1.3996  1.7584  0.5280
 5087SOL     OW26722   3.297   4.523  10.522  0.2456 -0.1104 -0.7599
 5087SOL    HW126723   3.293   4.606  10.476  0.2231  0.7870  0.8634
 5087SOL    HW226724   3.318   4.549  10.612 -1.7080 -0.7451 -0.1205
 5088SOL     OW26725   0.622   0.536   5.148  0.3308  0.0969  0.5995
 5088SOL    HW126726   0.672   0.594   5.090 -0.5947  0.3005  0.0101
 5088SOL    HW226727   0.682   0.462   5.159  0.4306  0.0940  0.0357
 5089SOL     OW26728   1.229   0.083   8.484 -0.0475 -0.1816 -0.2139
 5089SOL    HW126729   1.325   0.083   8.485 -0.0676 -2.3712  0.8729
 5089SOL    HW226730   1.213   0.147   8.553 -0.5947  0.5197 -0.9844
 5090SOL     OW26731   1.034   0.343   2.748  0.2664  0.0340 -0.2047
 5090SOL    HW126732   0.976   0.417   2.732  0.2454 -0.1881 -1.1428
 5090SOL    HW226733   1.020   0.287   2.672  0.0961  2.3361 -1.8584
 5091SOL     OW26734   3.763   4.135   9.835  0.5487 -0.1766  0.1977
 5091SOL    HW126735   3.692   4.106   9.893  0.8725 -0.7018  0.3240
 5091SOL    HW226736   3.792   4.057   9.789  1.9113  0.9108 -0.7982
 5092SOL     OW26737   0.153   3.021   6.037 -0.4324 -0.0389 -0.1563
 5092SOL    HW126738   0.208   2.946   6.060 -0.4792 -0.0235  0.0094
 5092SOL    HW226739   0.155   3.017   5.942 -2.4122  0.3910 -0.2200
 5093SOL     OW26740   0.632   2.117   9.954  0.2503  0.4527 -0.2396
 5093SOL    HW126741   0.587   2.110  10.038 -2.6286 -0.7412 -1.8963
 5093SOL    HW226742   0.593   2.042   9.908 -2.1519  2.1030 -0.8760
 5094SOL     OW26743   0.673   0.937  14.186  0.1928  0.2975  0.1648
 5094SOL    HW126744   0.672   0.891  14.270  0.0902  0.4733  0.2604
 5094SOL    HW226745   0.584   0.930  14.154  0.0440  1.3417  0.3416
 5095SOL     OW26746   4.157   2.613   3.531 -0.2045 -0.3844 -0.4960
 5095SOL    HW126747   4.134   2.522   3.551  1.6073 -0.6366  0.4103
 5095SOL    HW226748   4.229   2.625   3.593 -2.0382 -1.5063  1.8436
 5096SOL     OW26749   1.444   2.669   8.192 -0.0229  0.1220  0.1016
 5096SOL    HW126750   1.415   2.578   8.195 -1.2134  0.4087 -2.7159
 5096SOL    HW226751   1.489   2.660   8.109  0.4096 -2.4793  0.5996
 5097SOL     OW26752   1.002   0.835   7.293 -0.0815 -0.1161  0.2830
 5097SOL    HW126753   1.016   0.753   7.246 -0.7271 -0.6893  1.0991
 5097SOL    HW226754   0.910   0.846   7.269  0.7090  2.0147 -1.6822
 5098SOL     OW26755   2.130   1.118   5.814 -0.2839  0.0342  0.3800
 5098SOL    HW126756   2.071   1.047   5.839 -0.0780 -1.4275 -3.3181
 5098SOL    HW226757   2.218   1.083   5.798 -0.5289 -0.9182  1.0887
 5099SOL     OW26758   3.825   2.031   0.681 -0.0010  0.0577 -0.1190
 5099SOL    HW126759   3.738   2.028   0.641 -0.1385  0.1288  0.1724
 5099SOL    HW226760   3.850   1.946   0.716  0.1900 -0.0853 -0.6013
 5100SOL     OW26761   1.867   3.210   5.558  0.6413  0.3960 -0.7837
 5100SOL    HW126762   1.912   3.292   5.576  1.8177 -0.8124  1.8188
 5100SOL    HW226763   1.942   3.151   5.555  0.6955  0.3742  1.1301
 5101SOL     OW26764   3.081   3.652   2.668 -0.2496 -0.3619 -1.3017
 5101SOL    HW126765   3.146   3.653   2.598  1.0130  0.9582 -0.1081
 5101SOL    HW226766   3.051   3.563   2.651 -0.4952 -0.5605  0.1651
 5102SOL     OW26767   4.573   4.646   3.164 -0.5106 -0.5525 -0.3620
 5102SOL    HW126768   4.646   4.671   3.107 -0.3519 -0.2686 -0.0352
 5102SOL    HW226769   4.597   4.558   3.193 -1.2514 -0.7339 -0.2906
 5103SOL     OW26770   0.383   0.458  13.624  0.5197 -1.0902  0.4275
 5103SOL    HW126771   0.347   0.471  13.712  1.5940  1.8387  0.4417
 5103SOL    HW226772   0.457   0.519  13.630 -0.4268  0.0934  0.0977
 5104SOL     OW26773   2.277   0.893   6.079 -0.2786 -0.0521 -0.4896
 5104SOL    HW126774   2.351   0.832   6.078 -0.3655 -0.1385 -1.2923
 5104SOL    HW226775   2.315   0.978   6.101 -2.6773  0.6194  1.0886
 5105SOL     OW26776   3.748   0.113   8.153 -0.0698 -0.1104 -0.4272
 5105SOL    HW126777   3.769   0.046   8.218 -3.3516 -0.4911  0.2306
 5105SOL    HW226778   3.784   0.057   8.084  1.0116 -0.0007  0.0468
 5106SOL     OW26779   1.135   1.249   6.221  0.1947 -0.1425  0.8815
 5106SOL    HW126780   1.079   1.179   6.254 -0.9912  1.0038  1.2803
 5106SOL    HW226781   1.182   1.274   6.301 -1.0957 -0.8392  1.8642
 5107SOL     OW26782   3.981   0.354   8.689 -0.2795 -0.2394  0.0566
 5107SOL    HW126783   3.932   0.367   8.771  0.4270  1.1905  0.2394
 5107SOL    HW226784   3.932   0.409   8.628  0.2192  0.9148  0.6958
 5108SOL     OW26785   2.638   1.902   8.079  0.4306 -0.6384 -0.6397
 5108SOL    HW126786   2.584   1.877   8.154  0.4038  0.1258 -0.4075
 5108SOL    HW226787   2.617   1.829   8.021  1.1563  0.6346 -2.5059
 5109SOL     OW26788   4.085   4.194   4.107 -0.3293  0.4230  0.3102
 5109SOL    HW126789   4.038   4.119   4.144 -2.6453  1.8853  0.3343
 5109SOL    HW226790   4.066   4.262   4.172 -3.6669  0.6943 -0.9496
 5110SOL     OW26791   2.502   2.708   7.740 -0.4316 -0.0085  0.2613
 5110SOL    HW126792   2.503   2.633   7.799 -1.8068 -0.4870 -0.3523
 5110SOL    HW226793   2.481   2.778   7.802 -2.5406  0.2464 -0.7704
 5111SOL     OW26794   2.033   0.492   7.284  0.0807  0.2152 -0.2902
 5111SOL    HW126795   2.093   0.418   7.284 -0.0615  0.0993 -0.5555
 5111SOL    HW226796   2.073   0.543   7.213 -2.1773 -0.9112 -2.3862
 5112SOL     OW26797   4.249   1.728   4.013 -0.0371  0.0168 -0.3174
 5112SOL    HW126798   4.308   1.720   4.088 -1.2675  1.8319  0.8179
 5112SOL    HW226799   4.223   1.636   4.006  0.0488 -0.2588  3.0765
 5113SOL     OW26800   4.617   0.411   6.114  0.5682 -0.0824 -0.2315
 5113SOL    HW126801   4.568   0.345   6.065  0.2973 -0.3052  0.3385
 5113SOL    HW226802   4.588   0.392   6.203  0.1928  1.8605  0.0616
 5114SOL     OW26803   0.590   3.081   4.265  0.1859  0.4992 -0.5174
 5114SOL    HW126804   0.558   3.029   4.191  0.8212  0.1119 -0.5212
 5114SOL    HW226805   0.543   3.162   4.245  1.1304  0.9074 -1.1211
 5115SOL     OW26806   0.127   4.447  11.571  0.6818  0.0789  0.0238
 5115SOL    HW126807   0.126   4.496  11.489  2.8952 -0.3260 -0.2523
 5115SOL    HW226808   0.054   4.485  11.619 -0.0775 -0.6511 -0.5529
 5116SOL     OW26809   0.121   2.418  15.057 -0.2917  0.2795  0.4535
 5116SOL    HW126810   0.177   2.470  15.115  0.7259 -2.1052  1.6236
 5116SOL    HW226811   0.189   2.390  14.996  0.1052  1.2637  0.4474
 5117SOL     OW26812   4.241   2.635   8.226  0.4428  0.1899  0.0439
 5117SOL    HW126813   4.324   2.683   8.221  0.9324 -0.2786  3.9984
 5117SOL    HW226814   4.187   2.703   8.265  1.1075  0.3792  0.6332
 5118SOL     OW26815   0.565   0.480   9.893 -0.3868  0.1088 -0.3814
 5118SOL    HW126816   0.489   0.522   9.933 -0.6197 -1.2655  0.6269
 5118SOL    HW226817   0.593   0.417   9.960  2.0302 -1.7918 -3.1942
 5119SOL     OW26818   4.123   2.009   2.762  0.2413  0.3413  0.3874
 5119SOL    HW126819   4.175   2.020   2.841 -0.8346  0.1147  1.1294
 5119SOL    HW226820   4.188   2.005   2.692  0.1185  3.7035  0.0652
 5120SOL     OW26821   3.622   4.242   1.585  0.2012  0.3150  0.0016
 5120SOL    HW126822   3.540   4.212   1.625  0.3434  1.4945  1.1780
 5120SOL    HW226823   3.612   4.188   1.507  0.0824  0.8141 -0.3241
 5121SOL     OW26824   4.418   2.008   9.306 -0.2346  0.3705 -0.0572
 5121SOL    HW126825   4.322   2.013   9.307 -0.2841 -0.5351 -0.2987
 5121SOL    HW226826   4.448   2.095   9.281  1.0613 -0.7195 -2.2868
 5122SOL     OW26827   2.680   4.576   1.838  0.2966 -0.0930  0.0069
 5122SOL    HW126828   2.694   4.554   1.930 -0.4773  0.7041  0.3100
 5122SOL    HW226829   2.732   4.654   1.819 -0.5166  0.4989  0.2381
 5123SOL     OW26830   1.033   2.810  10.962 -0.0600 -0.1655 -0.0079
 5123SOL    HW126831   0.966   2.781  11.023  0.4040  0.8592  0.9732
 5123SOL    HW226832   0.986   2.868  10.902 -0.8647 -1.0250 -0.2102
 5124SOL     OW26833   1.904   4.374   4.528 -0.6109 -0.6010  0.1113
 5124SOL    HW126834   1.896   4.284   4.558 -1.8837 -0.8375 -0.9411
 5124SOL    HW226835   1.840   4.376   4.456 -1.5209 -0.6744  0.9161
 5125SOL     OW26836   1.327   4.217   9.013  0.2884  0.9700  0.4703
 5125SOL    HW126837   1.369   4.135   8.988 -1.2529  0.2209  0.3717
 5125SOL    HW226838   1.271   4.190   9.086 -0.5115  1.9629  0.2291
 5126SOL     OW26839   2.872   2.761   2.084  0.6784 -0.0785 -0.0527
 5126SOL    HW126840   2.834   2.701   2.148 -0.5367  1.5776  0.7705
 5126SOL    HW226841   2.938   2.702   2.047 -1.1743 -1.3609 -1.3447
 5127SOL     OW26842   0.140   0.903   7.210 -0.3975  0.1104 -0.4022
 5127SOL    HW126843   0.076   0.945   7.267  0.1634  1.9059 -1.0852
 5127SOL    HW226844   0.194   0.980   7.188 -0.9697 -0.1457 -2.7730
 5128SOL     OW26845   2.418   0.916   8.910  0.3630 -0.1839 -0.2371
 5128SOL    HW126846   2.359   0.991   8.907  1.5986  0.7849 -0.6252
 5128SOL    HW226847   2.500   0.956   8.940  0.8376 -2.9530  2.2206
 5129SOL     OW26848   2.695   2.159   4.628 -0.0050  0.2585 -0.5054
 5129SOL    HW126849   2.711   2.152   4.534  1.2960 -0.5544 -0.2167
 5129SOL    HW226850   2.783   2.172   4.664 -1.2647  0.2294  2.5636
 5130SOL     OW26851   3.623   1.408   0.773  0.0066  0.1767  0.2832
 5130SOL    HW126852   3.713   1.380   0.789 -0.6109 -1.4149  1.0185
 5130SOL    HW226853   3.627   1.480   0.836 -1.3084  0.1991  0.3379
 5131SOL     OW26854   1.627   4.475   5.939 -0.5457  0.5096 -0.0845
 5131SOL    HW126855   1.637   4.406   6.005 -1.9201  0.3634 -0.0336
 5131SOL    HW226856   1.684   4.543   5.976  0.4254  0.3129 -1.1993
 5132SOL     OW26857   3.983   2.491   5.797  0.0777  0.2575 -0.2638
 5132SOL    HW126858   3.952   2.582   5.799  0.6058  0.4926 -2.1947
 5132SOL    HW226859   4.061   2.488   5.852 -1.6317  1.5164  2.2253
 5133SOL     OW26860   4.519   4.169   0.166 -0.2306 -0.5157 -0.4807
 5133SOL    HW126861   4.455   4.098   0.156  0.5942 -1.0346 -2.0570
 5133SOL    HW226862   4.602   4.122   0.158  0.9808  1.3693  0.9338
 5134SOL     OW26863   3.691   2.882   2.742 -0.1349  0.0279  0.1641
 5134SOL    HW126864   3.647   2.813   2.792  1.1018 -1.3353 -0.6110
 5134SOL    HW226865   3.624   2.886   2.674 -1.1166 -1.8549  1.0198
 5135SOL     OW26866   0.728   0.203  13.103  0.2036 -0.2625  0.1425
 5135SOL    HW126867   0.787   0.203  13.179 -1.3270  2.3249  1.3605
 5135SOL    HW226868   0.687   0.288  13.118  0.1072 -0.3380  0.3046
 5136SOL     OW26869   4.433   2.730   7.702  0.0725  0.2007 -0.4444
 5136SOL    HW126870   4.454   2.643   7.667 -0.8581  0.4045 -1.5080
 5136SOL    HW226871   4.474   2.784   7.635  0.7857  0.7015  0.3999
 5137SOL     OW26872   1.977   2.880   5.607 -0.5386 -0.2674  0.1193
 5137SOL    HW126873   2.022   2.797   5.621  1.5545  0.5982 -1.5502
 5137SOL    HW226874   1.964   2.875   5.512  4.5923 -2.2899 -0.4751
 5138SOL     OW26875   4.434   1.564   2.098 -0.2455  0.4761  0.0616
 5138SOL    HW126876   4.449   1.632   2.032 -1.6766  0.7661  0.0242
 5138SOL    HW226877   4.512   1.510   2.090  1.6195  3.0837  0.8086
 5139SOL     OW26878   1.432   2.540   2.017 -0.3153 -0.1618  0.1828
 5139SOL    HW126879   1.505   2.523   1.957 -0.3512 -0.0340  0.1030
 5139SOL    HW226880   1.372   2.485   1.966 -0.5275 -0.1819  0.4561
 5140SOL     OW26881   0.384   1.418   3.153  0.5588 -0.3799 -0.2250
 5140SOL    HW126882   0.342   1.355   3.096 -0.2454  0.1301 -0.1985
 5140SOL    HW226883   0.407   1.493   3.098 -1.6658  0.3668 -0.1255
 5141SOL     OW26884   3.836   4.173   7.631 -0.2468 -0.3887  0.8303
 5141SOL    HW126885   3.848   4.200   7.540  0.1295  1.2249  1.3597
 5141SOL    HW226886   3.894   4.241   7.667  0.5673 -1.1649  0.9955
 5142SOL     OW26887   1.926   3.986   1.398 -0.2986 -0.0122  0.6773
 5142SOL    HW126888   2.016   4.015   1.388 -0.0181 -1.0704  0.1489
 5142SOL    HW226889   1.885   4.066   1.431  0.6620  0.4991  0.6439
 5143SOL     OW26890   3.477   0.467  17.393 -0.6007 -0.3211  0.0111
 5143SOL    HW126891   3.496   0.417  17.314  1.2095 -1.8042  1.3815
 5143SOL    HW226892   3.564   0.489  17.426 -0.2140  0.9131 -1.8448
 5144SOL     OW26893   1.804   3.563   4.484 -0.4721  0.0944 -0.2116
 5144SOL    HW126894   1.899   3.553   4.490 -0.4717  0.7229  0.8334
 5144SOL    HW226895   1.782   3.489   4.428 -0.1310 -1.5040  1.7357
 5145SOL     OW26896   1.066   1.616   3.304 -0.1585 -0.5410  0.3772
 5145SOL    HW126897   1.149   1.619   3.351  0.0159 -2.1653  0.1596
 5145SOL    HW226898   1.096   1.667   3.228 -2.6203  0.9884  0.4269
 5146SOL     OW26899   2.441   1.357   2.470 -0.7933 -0.4664  0.4449
 5146SOL    HW126900   2.471   1.380   2.383  0.5947 -1.1941  0.7405
 5146SOL    HW226901   2.455   1.445   2.504  0.8630 -0.8339  0.6877
 5147SOL     OW26902   3.184   1.667   7.348  0.3882 -0.5310  0.1577
 5147SOL    HW126903   3.222   1.615   7.418 -0.8340 -1.3980  0.1801
 5147SOL    HW226904   3.091   1.645   7.352 -0.2612  2.1258  0.0186
 5148SOL     OW26905   2.867   3.077   1.111 -0.1169  0.7688  0.1528
 5148SOL    HW126906   2.907   3.058   1.196 -2.0564 -0.8533  0.6962
 5148SOL    HW226907   2.822   2.996   1.089  1.7409  0.1248 -1.3689
 5149SOL     OW26908   2.515   4.347   2.276 -0.6416  0.0600  0.0246
 5149SOL    HW126909   2.524   4.273   2.217  1.9627  1.2228 -1.0708
 5149SOL    HW226910   2.421   4.360   2.268 -0.6548 -0.4621 -0.6318
 5150SOL     OW26911   2.741   4.455  16.317 -0.4368 -0.8125  0.0854
 5150SOL    HW126912   2.708   4.374  16.279 -0.4392 -1.4244  1.3667
 5150SOL    HW226913   2.752   4.515  16.244 -0.1684 -0.8669  0.0799
 5151SOL     OW26914   1.109   1.102   9.329  0.1105  0.1290 -0.7257
 5151SOL    HW126915   1.048   1.043   9.373  1.8462 -1.5507 -0.5658
 5151SOL    HW226916   1.188   1.082   9.380 -1.2739  0.5730  1.5672
 5152SOL     OW26917   3.250   4.016  17.581  0.1234  0.0947 -0.0434
 5152SOL    HW126918   3.176   4.006  17.521 -1.2126  0.6596  1.5117
 5152SOL    HW226919   3.249   3.930  17.623  0.8124  0.4641  0.7278
 5153SOL     OW26920   1.524   0.698  12.549  0.3636  0.3798 -0.4250
 5153SOL    HW126921   1.545   0.760  12.619 -0.1042 -1.2144  1.1577
 5153SOL    HW226922   1.613   0.663  12.547  1.1031  2.2628  0.0157
 5154SOL     OW26923   4.606   2.529   8.032  0.7194  0.5075  0.0537
 5154SOL    HW126924   4.661   2.488   8.099  1.2150  1.7371  0.3943
 5154SOL    HW226925   4.574   2.605   8.081  0.3758  0.9530 -0.8528
 5155SOL     OW26926   1.378   3.245   4.766  0.0775 -0.1077  0.2137
 5155SOL    HW126927   1.422   3.290   4.694  1.8224 -1.1737  0.6268
 5155SOL    HW226928   1.448   3.211   4.822  0.1730 -1.4141 -0.6979
 5156SOL     OW26929   3.297   3.782   6.798  0.2534  0.2650  0.1053
 5156SOL    HW126930   3.208   3.814   6.782  0.2770 -0.1430 -0.8453
 5156SOL    HW226931   3.286   3.762   6.891  0.6132  3.1554  0.7709
 5157SOL     OW26932   4.195   0.640   8.916  0.2044 -0.2475  0.0565
 5157SOL    HW126933   4.225   0.666   9.003  0.9423 -0.9778  0.0136
 5157SOL    HW226934   4.179   0.728   8.883 -0.2427  0.5311  2.3373
 5158SOL     OW26935   2.471   0.606   7.904 -0.6716  0.2646  0.0664
 5158SOL    HW126936   2.546   0.595   7.961 -0.5557 -0.6093 -0.2597
 5158SOL    HW226937   2.418   0.528   7.920 -0.7218 -0.3741 -3.1123
 5159SOL     OW26938   1.562   3.206  15.793  0.2025  0.0689 -0.3987
 5159SOL    HW126939   1.555   3.281  15.852  0.2078 -0.2725  0.0316
 5159SOL    HW226940   1.489   3.228  15.735 -0.9052  0.0519  0.9939
 5160SOL     OW26941   3.807   4.616   5.787  0.8119 -0.1793  0.7079
 5160SOL    HW126942   3.853   4.698   5.770  0.0481 -0.4871 -3.0359
 5160SOL    HW226943   3.834   4.567   5.709  1.0270  0.1493  0.5741
 5161SOL     OW26944   2.526   0.941  16.830  0.0458  0.1911 -0.1506
 5161SOL    HW126945   2.581   1.001  16.881 -1.0807  1.4256 -0.3772
 5161SOL    HW226946   2.474   0.897  16.897 -0.2339  1.8358  0.7137
 5162SOL     OW26947   0.146   2.306   2.532 -0.1518  0.0891  0.9135
 5162SOL    HW126948   0.230   2.342   2.505 -0.6385 -0.4515 -1.4180
 5162SOL    HW226949   0.080   2.370   2.504 -1.7419 -1.5832  0.8366
 5163SOL     OW26950   2.269   4.633  10.030 -0.3463  0.4952  1.3351
 5163SOL    HW126951   2.363   4.621  10.046 -0.0777  1.6953  0.7092
 5163SOL    HW226952   2.243   4.633  10.122  0.8509 -1.7063  1.6850
 5164SOL     OW26953   0.640   2.915   6.166 -0.1959  0.0986  0.1151
 5164SOL    HW126954   0.587   2.922   6.088 -1.9478  1.2121  1.4189
 5164SOL    HW226955   0.627   3.004   6.198 -1.7924  0.1359 -0.6715
 5165SOL     OW26956   4.270   3.279   8.020 -0.6738  0.1487 -0.5619
 5165SOL    HW126957   4.356   3.314   8.042 -1.2194  0.2583  1.4014
 5165SOL    HW226958   4.272   3.287   7.925  0.9294 -0.7388 -0.6028
 5166SOL     OW26959   3.266   3.689  13.302 -0.0101 -0.9620  0.2420
 5166SOL    HW126960   3.269   3.781  13.275  0.3181 -0.2311  2.7744
 5166SOL    HW226961   3.179   3.672  13.337 -0.2166 -1.4535 -0.5069
 5167SOL     OW26962   3.822   2.183   4.624  0.4819  0.3676 -0.2624
 5167SOL    HW126963   3.743   2.134   4.599  1.1342 -0.5930 -0.4341
 5167SOL    HW226964   3.872   2.121   4.678  0.5666 -0.7711 -1.6402
 5168SOL     OW26965   3.367   4.271   2.069  0.4973  0.3993 -0.2845
 5168SOL    HW126966   3.319   4.189   2.067 -0.8669  1.0970  3.1306
 5168SOL    HW226967   3.452   4.234   2.045  0.9988 -0.1429  2.2259
 5169SOL     OW26968   2.824   3.460   6.967 -0.2090 -0.6681 -0.2569
 5169SOL    HW126969   2.774   3.424   7.040  4.1005  1.0737  3.5362
 5169SOL    HW226970   2.826   3.376   6.920 -1.0904 -1.4623  1.1208
 5170SOL     OW26971   4.107   0.834   5.009 -0.4527 -0.5173 -0.1425
 5170SOL    HW126972   4.136   0.839   5.100  3.2249  2.7505 -1.4589
 5170SOL    HW226973   4.108   0.926   4.981  1.1591 -0.3381  0.4879
 5171SOL     OW26974   0.287   3.079   1.842  0.2168  0.1703 -0.4536
 5171SOL    HW126975   0.321   3.132   1.770  1.4302  0.6652  0.4734
 5171SOL    HW226976   0.201   3.058   1.805  0.4696  0.7879 -1.4048
 5172SOL     OW26977   2.643   2.340   9.707 -0.0743 -0.4788  0.1078
 5172SOL    HW126978   2.693   2.283   9.765  0.8476  1.3013  1.0549
 5172SOL    HW226979   2.702   2.332   9.632 -0.9990 -4.0253 -0.2402
 5173SOL     OW26980   1.995   0.493   3.939 -0.3833  0.6108 -0.0964
 5173SOL    HW126981   1.957   0.579   3.957  1.7504  1.0469  2.4073
 5173SOL    HW226982   1.942   0.468   3.863 -0.9678 -0.8111  0.7643
 5174SOL     OW26983   1.896   1.445   5.869 -0.3628 -0.1970 -0.3023
 5174SOL    HW126984   1.937   1.400   5.795  0.0212  1.6493 -1.2102
 5174SOL    HW226985   1.873   1.531   5.833  0.1297  0.0643  0.0022
 5175SOL     OW26986   4.581   4.592   1.813  0.2665  0.0573 -0.3119
 5175SOL    HW126987   4.669   4.622   1.790  1.1811 -2.6771 -0.3933
 5175SOL    HW226988   4.578   4.507   1.769 -2.0815  0.8168 -1.6228
 5176SOL     OW26989   2.755   3.555   4.914 -0.7577 -0.5665  0.0480
 5176SOL    HW126990   2.792   3.643   4.913  0.3983 -1.0636 -0.3467
 5176SOL    HW226991   2.673   3.575   4.960  0.5576 -0.9280  2.5276
 5177SOL     OW26992   3.550   2.916   6.359  0.0067 -0.1809 -0.1736
 5177SOL    HW126993   3.480   2.929   6.294 -0.5264  0.2788  0.4932
 5177SOL    HW226994   3.622   2.975   6.337 -0.5656  0.4097 -0.4627
 5178SOL     OW26995   3.081   3.888  14.209  0.1868 -0.2931  0.3185
 5178SOL    HW126996   3.106   3.823  14.274 -2.0044  0.5848  2.0652
 5178SOL    HW226997   3.127   3.960  14.252 -1.0430  0.3872  0.5041
 5179SOL     OW26998   0.412   2.562   3.814 -0.5851 -0.1404  0.8294
 5179SOL    HW126999   0.494   2.562   3.863  0.6340 -0.7195 -1.1945
 5179SOL    HW227000   0.354   2.521   3.878  2.2885  0.6883  3.9449
 5180SOL     OW27001   2.977   2.705   1.775 -0.5188 -0.4959 -0.2576
 5180SOL    HW127002   2.914   2.703   1.704 -0.1364 -1.5067 -0.5588
 5180SOL    HW227003   3.000   2.798   1.768 -0.4675 -0.4329  0.6450
 5181SOL     OW27004   1.250   4.595   2.811  0.0106 -0.0486  0.5263
 5181SOL    HW127005   1.218   4.679   2.778  2.8250  0.8101  0.0127
 5181SOL    HW227006   1.191   4.535   2.764 -0.1283 -0.6587  1.4760
 5182SOL     OW27007   2.349   4.716  16.979 -0.2603  0.2776 -0.2699
 5182SOL    HW127008   2.415   0.053  17.016  1.8599 -1.7278 -0.8254
 5182SOL    HW227009   2.396   4.690  16.900  0.6953  1.7599 -0.1870
 5183SOL     OW27010   2.496   1.230  13.176  0.6572  0.4672 -0.1666
 5183SOL    HW127011   2.585   1.258  13.200  0.5345 -0.9164  1.9093
 5183SOL    HW227012   2.497   1.135  13.172 -1.1919  0.4642 -0.6007
 5184SOL     OW27013   3.574   2.153   2.985  1.0936 -0.1326 -0.0487
 5184SOL    HW127014   3.516   2.221   3.020 -1.0613 -1.8905 -0.1763
 5184SOL    HW227015   3.561   2.164   2.891  1.3885 -0.1684 -0.0908
 5185SOL     OW27016   4.700   2.771   7.392  0.2399 -0.7647  0.2262
 5185SOL    HW127017   0.036   2.843   7.369 -1.7952  1.2110  1.2759
 5185SOL    HW227018   4.680   2.724   7.311 -0.1924  0.0182 -0.1160
 5186SOL     OW27019   0.706   1.233   8.219  0.3049  0.1760 -0.1120
 5186SOL    HW127020   0.778   1.209   8.162  0.6035  1.4199 -0.2639
 5186SOL    HW227021   0.702   1.328   8.211 -0.9576  0.1817  0.4973
 5187SOL     OW27022   1.262   3.498  16.797  0.3307  0.6423  1.0338
 5187SOL    HW127023   1.352   3.494  16.829  0.9594 -0.1423 -0.8247
 5187SOL    HW227024   1.252   3.431  16.729  0.0993  1.5517  0.1777
 5188SOL     OW27025   2.722   3.322   8.419  0.5779 -0.6060  0.0353
 5188SOL    HW127026   2.679   3.250   8.464  0.0552 -1.0179 -1.1438
 5188SOL    HW227027   2.686   3.308   8.332 -0.2870 -1.6000  0.5643
 5189SOL     OW27028   0.463   4.332  10.243 -0.3959  0.0087  0.3843
 5189SOL    HW127029   0.530   4.364  10.303 -0.2320  0.1873  0.1057
 5189SOL    HW227030   0.504   4.274  10.178  0.5863 -0.2874  1.2659
 5190SOL     OW27031   1.826   0.398   2.144  0.0552  0.0956  0.4271
 5190SOL    HW127032   1.835   0.439   2.230  2.2000  3.5838 -1.4680
 5190SOL    HW227033   1.736   0.365   2.146  0.5116 -1.2045 -0.1986
 5191SOL     OW27034   1.482   1.952   2.932 -0.2867 -0.5404  0.4768
 5191SOL    HW127035   1.472   1.888   2.861  0.1215 -1.4715  1.2575
 5191SOL    HW227036   1.417   2.018   2.911  0.8451 -0.0823 -1.6496
 5192SOL     OW27037   1.349   1.408   4.906 -0.2519 -0.0964  0.0830
 5192SOL    HW127038   1.293   1.330   4.913  0.6230 -0.9363 -2.2062
 5192SOL    HW227039   1.333   1.433   4.815 -1.7063 -1.6616 -0.0865
 5193SOL     OW27040   3.660   0.876   8.924  0.0387 -0.0532 -0.4955
 5193SOL    HW127041   3.637   0.783   8.928 -1.8303  0.4726  0.4576
 5193SOL    HW227042   3.602   0.913   8.989  0.1918 -0.1413 -0.3075
 5194SOL     OW27043   0.644   4.076   6.385 -0.5673 -0.9060 -1.0099
 5194SOL    HW127044   0.630   4.170   6.396  0.5547 -0.6922 -1.3972
 5194SOL    HW227045   0.584   4.042   6.451  1.9913 -1.6007  0.9833
 5195SOL     OW27046   0.879   2.557   9.274  0.1254 -0.1690 -0.4669
 5195SOL    HW127047   0.845   2.575   9.186 -3.3548  0.6704  1.0855
 5195SOL    HW227048   0.919   2.640   9.298 -1.4163  0.2681  0.5216
 5196SOL     OW27049   2.765   3.051   1.493  0.0833 -0.3670 -0.3008
 5196SOL    HW127050   2.830   2.980   1.488  0.3583 -0.1766  0.6359
 5196SOL    HW227051   2.717   3.040   1.411 -1.6726  0.9959  0.5443
 5197SOL     OW27052   3.747   3.055   3.833  0.1968  0.3647 -0.4274
 5197SOL    HW127053   3.724   3.148   3.843 -0.4642 -0.0133  1.5822
 5197SOL    HW227054   3.805   3.055   3.909 -0.6808 -0.2564  0.2481
 5198SOL     OW27055   1.140   0.056  16.311  0.4347  0.8247 -0.2902
 5198SOL    HW127056   1.153   0.081  16.402  0.9699 -1.3397  0.2147
 5198SOL    HW227057   1.220   0.020  16.273  0.2241 -1.1862  1.2055
 5199SOL     OW27058   4.631   0.760  14.970  0.2382  0.0869 -0.0438
 5199SOL    HW127059   4.641   0.735  15.062 -0.9105  0.6825  0.2397
 5199SOL    HW227060   4.720   0.743  14.938  0.0069  1.2581 -1.2659
 5200SOL     OW27061   3.604   1.836   6.896  0.1453  0.5272  0.2925
 5200SOL    HW127062   3.641   1.923   6.881 -1.4211  1.3857  1.4367
 5200SOL    HW227063   3.634   1.819   6.985  0.2192  2.2679  0.6007
 5201SOL     OW27064   1.859   3.620   5.861  0.0553  0.0359  0.6061
 5201SOL    HW127065   1.846   3.634   5.954  2.5823  1.5798  0.7273
 5201SOL    HW227066   1.794   3.681   5.826  0.9805  0.6025 -0.1527
 5202SOL     OW27067   4.331   1.962  11.328 -0.1494 -0.4467 -0.0498
 5202SOL    HW127068   4.376   1.958  11.244  0.3281 -1.3924  0.2529
 5202SOL    HW227069   4.255   2.015  11.305 -0.5124 -1.0398 -0.2137
 5203SOL     OW27070   3.099   2.796   6.299  0.5434 -0.0911  0.0511
 5203SOL    HW127071   3.161   2.770   6.367 -1.2776  1.4056  2.2893
 5203SOL    HW227072   3.115   2.891   6.296 -3.6841  0.5411 -2.1597
 5204SOL     OW27073   0.621   2.465   5.994 -0.4187 -0.1406  0.7990
 5204SOL    HW127074   0.702   2.419   5.970 -1.8414 -0.8296 -2.6084
 5204SOL    HW227075   0.650   2.530   6.057 -1.2069 -1.2715  2.3287
 5205SOL     OW27076   3.443   3.189   7.998  0.6191  0.4298  0.4980
 5205SOL    HW127077   3.364   3.169   7.948  0.3967  0.7817  0.7048
 5205SOL    HW227078   3.424   3.122   8.063 -0.5618  0.5090  0.2383
 5206SOL     OW27079   3.255   3.925   3.385 -0.2259  0.5875  0.3993
 5206SOL    HW127080   3.188   3.994   3.380 -1.0534 -0.3055 -0.8953
 5206SOL    HW227081   3.241   3.874   3.305  3.3687 -0.0082  0.1734
 5207SOL     OW27082   0.559   1.376   5.776  0.1258 -0.0936 -0.0220
 5207SOL    HW127083   0.622   1.444   5.755 -0.9480  0.6777 -0.7475
 5207SOL    HW227084   0.487   1.435   5.796  0.3038  0.4159 -0.9050
 5208SOL     OW27085   1.653   1.028   2.756 -0.0653 -0.2687  0.5037
 5208SOL    HW127086   1.631   0.974   2.832 -2.9907 -1.0199 -0.9151
 5208SOL    HW227087   1.620   1.110   2.794  2.7432  0.9648  0.3269
 5209SOL     OW27088   0.777   4.082   3.811  0.4650  0.0511 -0.0067
 5209SOL    HW127089   0.797   4.170   3.842 -2.1370 -0.0079  1.8760
 5209SOL    HW227090   0.687   4.070   3.842 -0.2378  2.9404 -0.9268
 5210SOL     OW27091   1.277   1.683  13.970 -0.4838 -0.4850 -0.1254
 5210SOL    HW127092   1.280   1.587  13.964  1.3240 -0.4922  0.8074
 5210SOL    HW227093   1.343   1.711  13.907 -0.2667 -0.6554  0.0237
 5211SOL     OW27094   4.246   2.206  10.286  0.2931 -0.4577  0.0013
 5211SOL    HW127095   4.164   2.253  10.298 -0.8466 -2.0240 -1.7036
 5211SOL    HW227096   4.219   2.115  10.276  1.2804 -0.9814  1.9694
 5212SOL     OW27097   3.699   4.385   3.686  0.2622 -0.0608 -0.3680
 5212SOL    HW127098   3.771   4.416   3.740 -1.6052  2.0341  0.8878
 5212SOL    HW227099   3.717   4.292   3.671  1.6008  0.4247 -1.7327
 5213SOL     OW27100   1.709   0.013   0.261 -0.6042  0.1328  0.3701
 5213SOL    HW127101   1.787   0.002   0.317 -0.0281  0.2361 -0.4056
 5213SOL    HW227102   1.654   0.052   0.329  1.3140  0.7447  1.5746
 5214SOL     OW27103   1.952   2.910   8.280  0.5971 -0.0146 -0.5755
 5214SOL    HW127104   1.978   2.953   8.362  0.5490 -2.6952  0.8311
 5214SOL    HW227105   2.031   2.859   8.266 -0.8689 -2.3076 -0.5453
 5215SOL     OW27106   1.004   2.823   3.374  0.1817 -0.2938 -0.0147
 5215SOL    HW127107   0.957   2.846   3.454  0.7938  0.0807  0.2357
 5215SOL    HW227108   0.962   2.883   3.312  0.6786 -0.4548 -0.5062
 5216SOL     OW27109   1.607   2.753  10.887  0.0322 -0.3401  0.0644
 5216SOL    HW127110   1.554   2.755  10.807  1.2260  0.2514 -0.7064
 5216SOL    HW227111   1.554   2.717  10.958 -0.1569  2.4329  1.3335
 5217SOL     OW27112   2.619   3.417   3.592  0.1201  0.3005  0.4622
 5217SOL    HW127113   2.705   3.379   3.612  0.2567  0.2087 -0.3034
 5217SOL    HW227114   2.607   3.379   3.505 -0.5772  0.4440  0.4946
 5218SOL     OW27115   1.504   3.645   6.079 -0.2071 -0.2263 -0.0515
 5218SOL    HW127116   1.508   3.740   6.069  0.1970 -0.3741 -1.3408
 5218SOL    HW227117   1.590   3.615   6.048  0.0939 -0.0564  0.6206
 5219SOL     OW27118   3.816   1.957   6.391 -0.5185  0.4349  0.1651
 5219SOL    HW127119   3.871   1.961   6.313  0.5832 -0.3180  0.9142
 5219SOL    HW227120   3.798   1.864   6.403  0.0271  0.1822 -1.0450
 5220SOL     OW27121   1.346   0.881  14.734  0.5318  0.1224  0.4267
 5220SOL    HW127122   1.302   0.798  14.753  0.9151 -0.3487 -0.7748
 5220SOL    HW227123   1.321   0.887  14.642 -1.0858  0.9799  0.9258
 5221SOL     OW27124   4.006   3.615   2.009  0.5088 -0.5625  0.8190
 5221SOL    HW127125   3.953   3.694   1.999 -1.7937 -2.6851 -3.5426
 5221SOL    HW227126   4.089   3.644   1.971 -0.1774 -1.3098 -1.2608
 5222SOL     OW27127   2.908   0.309   4.651  0.3277 -0.4722  0.3238
 5222SOL    HW127128   2.948   0.296   4.564  0.0650  1.5713 -0.1085
 5222SOL    HW227129   2.973   0.277   4.713  0.8991 -3.1921 -1.6866
 5223SOL     OW27130   0.202   0.897   3.135 -0.0649 -0.3042  0.0033
 5223SOL    HW127131   0.142   0.970   3.121 -0.6895 -0.3037  2.6220
 5223SOL    HW227132   0.144   0.821   3.137 -1.9367  1.0578 -3.6563
 5224SOL     OW27133   1.197   3.228  13.460 -0.0054 -0.3115  0.5299
 5224SOL    HW127134   1.197   3.309  13.408  1.8639 -0.5816  0.1013
 5224SOL    HW227135   1.186   3.264  13.548 -2.0788  1.3319 -0.3987
 5225SOL     OW27136   0.890   0.835  12.430  0.0999 -0.1484 -0.2531
 5225SOL    HW127137   0.903   0.837  12.335 -0.0904  0.1460 -0.2743
 5225SOL    HW227138   0.796   0.851  12.426 -0.3671 -2.3927  1.8496
 5226SOL     OW27139   0.630   3.143   8.742  0.3815 -0.0934 -0.4116
 5226SOL    HW127140   0.550   3.195   8.736  1.6134  1.7669 -0.4232
 5226SOL    HW227141   0.592   3.061   8.710 -0.8163  0.9858 -1.7418
 5227SOL     OW27142   3.600   1.300  13.882  0.3344 -1.3817  0.1503
 5227SOL    HW127143   3.591   1.386  13.923  1.0688 -0.9510 -0.5709
 5227SOL    HW227144   3.543   1.314  13.806 -0.1890  2.3324  1.2169
 5228SOL     OW27145   2.188   1.746   7.433 -0.2291 -0.2126  0.2876
 5228SOL    HW127146   2.123   1.676   7.424 -1.6001  0.8722  1.8026
 5228SOL    HW227147   2.201   1.740   7.527 -4.5984  2.1130  1.0384
 5229SOL     OW27148   0.647   4.700   6.403 -0.1001 -0.0741  0.6026
 5229SOL    HW127149   0.573   4.646   6.432 -0.6335  1.0230  1.2437
 5229SOL    HW227150   0.600   0.060   6.400 -1.3662 -0.7526  1.4870
 5230SOL     OW27151   1.007   3.206   7.328  0.5056 -0.1918 -0.1144
 5230SOL    HW127152   0.945   3.276   7.347  1.0664  0.2036  0.2606
 5230SOL    HW227153   1.085   3.229   7.379 -1.3965  0.4344  2.5258
 5231SOL     OW27154   1.333   3.987   5.289  0.1897  0.1474 -0.0519
 5231SOL    HW127155   1.396   4.002   5.218  0.2050  0.2058 -0.0264
 5231SOL    HW227156   1.367   3.902   5.317  0.9770  0.0157 -1.4099
 5232SOL     OW27157   0.468   2.247   2.360 -0.0188  0.1316 -0.0926
 5232SOL    HW127158   0.428   2.169   2.322 -0.6353  0.5613 -0.3290
 5232SOL    HW227159   0.483   2.299   2.281  0.1085 -0.6636 -0.5928
 5233SOL     OW27160   3.422   3.030   9.601  0.0010 -0.0379  0.2963
 5233SOL    HW127161   3.516   3.015   9.592  0.1517  1.7165 -1.2375
 5233SOL    HW227162   3.402   3.093   9.532 -1.9133 -0.7474  0.2182
 5234SOL     OW27163   1.156   4.426   8.898 -0.1830 -0.3292 -0.1323
 5234SOL    HW127164   1.065   4.408   8.877  0.3184 -2.1605 -0.8122
 5234SOL    HW227165   1.193   4.341   8.924  0.3730  0.1706  0.7086
 5235SOL     OW27166   0.762   3.507   8.982 -0.0756  0.5130  0.5140
 5235SOL    HW127167   0.826   3.494   8.912  0.0973  6.0249 -0.3468
 5235SOL    HW227168   0.772   3.601   8.996  0.2087  0.9099 -2.2651
 5236SOL     OW27169   3.854   2.786   5.860 -0.1257  0.0516 -0.6798
 5236SOL    HW127170   3.827   2.819   5.945 -0.6982 -3.6517  0.5799
 5236SOL    HW227171   3.942   2.824   5.860  0.8277 -2.1115 -1.1764
 5237SOL     OW27172   1.091   4.089   5.185  0.0603 -0.0005 -0.6594
 5237SOL    HW127173   1.109   4.174   5.144  0.1902  0.9150  1.2603
 5237SOL    HW227174   1.169   4.057   5.230  1.1709  0.9672 -1.9054
 5238SOL     OW27175   2.713   0.824   7.966  0.0859 -0.1830  0.0704
 5238SOL    HW127176   2.726   0.735   7.932  1.7580  0.4313 -0.8534
 5238SOL    HW227177   2.795   0.836   8.014  1.4772 -2.3879 -1.7651
 5239SOL     OW27178   2.520   3.412   7.919  0.2103  0.6503  0.5460
 5239SOL    HW127179   2.485   3.341   7.865  0.3081  1.6449 -0.8101
 5239SOL    HW227180   2.461   3.480   7.887 -0.5921 -0.3507 -0.1018
 5240SOL     OW27181   4.687   2.612   3.600  0.4325 -0.7129  0.1083
 5240SOL    HW127182   4.684   2.671   3.675 -1.9609 -0.6815  0.0035
 5240SOL    HW227183   0.004   2.537   3.644 -0.0718 -0.2979  1.2736
 5241SOL     OW27184   1.658   1.449   1.938  0.0357 -0.1582 -0.0283
 5241SOL    HW127185   1.570   1.484   1.949 -1.1282 -2.9893 -0.2325
 5241SOL    HW227186   1.658   1.422   1.846  0.4858  0.8785 -0.3290
 5242SOL     OW27187   0.430   0.989  14.572 -0.0126 -0.9240 -0.3146
 5242SOL    HW127188   0.525   0.996  14.580 -0.1678  0.7592  0.1016
 5242SOL    HW227189   0.399   1.064  14.520  0.0202 -0.5253  0.2437
 5243SOL     OW27190   3.689   1.055   5.682  1.1111  0.3389 -0.0656
 5243SOL    HW127191   3.669   0.962   5.686 -0.2029  0.5957 -0.8011
 5243SOL    HW227192   3.612   1.098   5.719  1.0029 -0.5657  0.7503
 5244SOL     OW27193   2.713   3.062  10.978 -0.0504  0.1133 -0.2304
 5244SOL    HW127194   2.632   3.057  10.926 -0.6368 -0.9408  0.7903
 5244SOL    HW227195   2.675   3.025  11.058 -0.2185  1.6661  0.4019
 5245SOL     OW27196   1.816   3.067  17.455 -0.0294 -0.8790 -0.4131
 5245SOL    HW127197   1.740   3.125  17.446  2.1485  1.7225 -2.2121
 5245SOL    HW227198   1.780   2.999  17.511 -0.0833 -0.6638 -0.1872
 5246SOL     OW27199   2.177   0.876   2.980  0.4188 -0.1735 -0.0613
 5246SOL    HW127200   2.242   0.807   2.972  0.2903 -0.5624  2.1562
 5246SOL    HW227201   2.210   0.937   2.914  3.0501 -0.1778  1.2543
 5247SOL     OW27202   3.197   1.008   2.815 -0.0318 -0.4161 -0.2843
 5247SOL    HW127203   3.274   0.973   2.859  0.8546 -1.5557 -2.7117
 5247SOL    HW227204   3.169   0.931   2.766  0.7146 -1.4300  0.8887
 5248SOL     OW27205   4.127   2.374   1.317 -0.3760 -0.8304  0.2609
 5248SOL    HW127206   4.173   2.447   1.275 -0.2234 -1.4830 -0.7254
 5248SOL    HW227207   4.112   2.414   1.402 -0.9599 -0.5553  0.0297
 5249SOL     OW27208   2.334   3.731   1.956 -0.6280  0.4522  0.6684
 5249SOL    HW127209   2.308   3.661   1.896 -0.3797  1.4509 -0.5993
 5249SOL    HW227210   2.327   3.689   2.042 -1.1379 -0.3498  0.2354
 5250SOL     OW27211   4.510   1.492   1.671 -0.0962 -0.3208  0.3574
 5250SOL    HW127212   4.471   1.576   1.696  1.0736  0.9082 -2.0100
 5250SOL    HW227213   4.599   1.495   1.706  0.9239  0.7489 -2.2972
 5251SOL     OW27214   4.244   0.218   9.637  0.6640  0.1970 -0.6448
 5251SOL    HW127215   4.207   0.176   9.560  4.4129 -2.4566 -0.9955
 5251SOL    HW227216   4.198   0.184   9.714  1.8445  1.6583  0.7171
 5252SOL     OW27217   0.588   2.133  11.941  0.3032 -0.0427  0.0656
 5252SOL    HW127218   0.596   2.213  11.993  1.6722 -0.2048  0.1078
 5252SOL    HW227219   0.592   2.076  12.018  1.6199  2.6697  1.9854
 5253SOL     OW27220   0.861   3.273  10.905  0.1891 -0.7478  0.1293
 5253SOL    HW127221   0.820   3.193  10.938 -0.5742 -0.3429  0.1604
 5253SOL    HW227222   0.928   3.239  10.847 -0.5094 -0.5192 -0.8082
 5254SOL     OW27223   1.038   0.771  15.203 -0.5431  0.3444  0.2390
 5254SOL    HW127224   1.124   0.800  15.174  0.1822 -2.0320  0.0431
 5254SOL    HW227225   1.033   0.678  15.181  2.0113  0.8228 -2.4587
 5255SOL     OW27226   2.256   0.545   9.074  0.4526 -0.0906  0.1774
 5255SOL    HW127227   2.319   0.600   9.027  1.1303 -1.6163 -0.6870
 5255SOL    HW227228   2.312   0.474   9.105  1.4660  0.8712  0.5639
 5256SOL     OW27229   0.572   3.874   7.828  0.3813  0.0483 -0.3880
 5256SOL    HW127230   0.554   3.964   7.801  1.8048  0.4108 -0.1562
 5256SOL    HW227231   0.510   3.836   7.765 -0.7508  0.0335  0.7484
 5257SOL     OW27232   2.250   0.770   4.026  0.2884  0.0283 -0.6471
 5257SOL    HW127233   2.326   0.811   3.985  2.8056 -0.4031  3.5287
 5257SOL    HW227234   2.204   0.850   4.050 -0.7547 -0.2929 -1.5989
 5258SOL     OW27235   1.349   0.095   9.021  0.4740 -0.1663 -0.4980
 5258SOL    HW127236   1.280   0.099   8.955 -0.7898  0.5789  0.8739
 5258SOL    HW227237   1.431   0.104   8.971  0.6536 -1.6846 -0.4650
 5259SOL     OW27238   2.530   4.658   6.441 -0.0708  0.3306 -0.2402
 5259SOL    HW127239   2.521   4.642   6.535 -2.0955 -1.5826 -0.7410
 5259SOL    HW227240   2.599   4.596   6.418  0.7589  1.1084  0.1749
 5260SOL     OW27241   2.508   0.647   5.840  0.1151  0.1019  0.3016
 5260SOL    HW127242   2.498   0.730   5.792 -0.3366 -0.4788 -0.5977
 5260SOL    HW227243   2.527   0.595   5.762 -1.3939 -1.1985  0.7963
 5261SOL     OW27244   4.394   3.914   7.990  0.0475  0.0988 -0.0466
 5261SOL    HW127245   4.462   3.947   7.932  1.6347  0.3332  1.9540
 5261SOL    HW227246   4.392   3.823   7.960  0.8775  0.4539 -1.1709
 5262SOL     OW27247   0.744   2.549   8.276  0.5786  0.1393  0.3455
 5262SOL    HW127248   0.778   2.522   8.191  1.7200 -0.2754  0.9279
 5262SOL    HW227249   0.819   2.538   8.335 -0.7569 -1.2940  1.8141
 5263SOL     OW27250   3.933   0.394   7.837  0.0394  0.2046  0.0199
 5263SOL    HW127251   3.961   0.331   7.771  1.5857  0.4123  0.4757
 5263SOL    HW227252   3.984   0.367   7.913 -0.4250 -0.1101  0.2186
 5264SOL     OW27253   2.726   3.533   7.474  0.8228 -0.2929  0.2408
 5264SOL    HW127254   2.748   3.623   7.454  0.3387 -0.1725  0.2513
 5264SOL    HW227255   2.730   3.531   7.569  1.2033 -2.1845  0.1885
 5265SOL     OW27256   2.962   2.172   1.935  0.5190  0.0923 -0.1408
 5265SOL    HW127257   3.023   2.105   1.966 -2.7697 -1.8850  2.0838
 5265SOL    HW227258   2.937   2.149   1.845 -0.8702  1.0995 -0.0120
 5266SOL     OW27259   3.294   0.353   6.444  0.1453 -0.4163 -0.0952
 5266SOL    HW127260   3.320   0.355   6.352 -1.5210  0.7240 -0.5250
 5266SOL    HW227261   3.243   0.272   6.446 -0.4742 -0.0291 -0.3197
 5267SOL     OW27262   3.300   0.902   5.729  0.1185 -0.1276 -0.2921
 5267SOL    HW127263   3.329   0.849   5.803 -2.5363 -0.8238  0.2475
 5267SOL    HW227264   3.359   0.977   5.722 -1.6392  1.3051  0.0702
 5268SOL     OW27265   1.732   0.123   2.723 -0.1872 -0.0960 -0.1745
 5268SOL    HW127266   1.737   0.034   2.689 -0.4966 -0.2388  0.1547
 5268SOL    HW227267   1.821   0.131   2.758 -0.8569  1.1102  1.3035
 5269SOL     OW27268   1.189   2.076   9.106  0.3549 -0.0494  0.2000
 5269SOL    HW127269   1.229   2.057   9.021 -2.1655  0.1623 -1.0426
 5269SOL    HW227270   1.247   2.148   9.129  2.0918 -0.7183 -2.0215
 5270SOL     OW27271   4.607   2.965  10.004 -0.2280 -0.3309 -0.1436
 5270SOL    HW127272   4.632   3.030   9.938  1.2551  0.2134  0.9787
 5270SOL    HW227273   4.621   3.014  10.084  0.8106  0.9177 -1.0857
 5271SOL     OW27274   2.560   4.287   9.605 -0.6561  0.2413 -0.0683
 5271SOL    HW127275   2.548   4.231   9.529  2.1818  0.8386 -0.9679
 5271SOL    HW227276   2.581   4.369   9.561  0.1631  0.2438  0.3108
 5272SOL     OW27277   2.619   3.383   3.015  0.2039  0.1563  0.2912
 5272SOL    HW127278   2.666   3.438   2.953  3.1227 -1.5305  1.0058
 5272SOL    HW227279   2.661   3.416   3.094 -1.3409 -1.2327  1.6944
 5273SOL     OW27280   3.679   1.102   2.825 -0.1198 -0.4970 -0.5705
 5273SOL    HW127281   3.722   1.142   2.749  0.1407  0.7443  0.2350
 5273SOL    HW227282   3.591   1.131   2.803 -0.7857 -2.4915 -0.5466
 5274SOL     OW27283   0.838   2.735   0.732  0.3247  0.2774  0.0617
 5274SOL    HW127284   0.781   2.689   0.670 -0.5120  1.4360 -0.0139
 5274SOL    HW227285   0.772   2.780   0.784 -0.1032 -1.6634  1.1762
 5275SOL     OW27286   1.756   0.405  12.594 -0.5282 -0.2744  0.0211
 5275SOL    HW127287   1.787   0.495  12.605  0.2471 -0.7618  1.8917
 5275SOL    HW227288   1.669   0.415  12.556  0.1748  0.5465 -1.3728
 5276SOL     OW27289   1.310   1.419   3.062 -0.0925 -0.6355 -0.2959
 5276SOL    HW127290   1.370   1.345   3.068  0.0269 -0.6536 -1.6242
 5276SOL    HW227291   1.268   1.410   2.976 -0.0291 -2.8413 -0.1011
 5277SOL     OW27292   2.882   3.029   5.950 -0.0881  0.6716  0.3722
 5277SOL    HW127293   2.810   3.091   5.957  0.7033  1.6266 -0.0595
 5277SOL    HW227294   2.864   3.012   5.858  0.0947  0.8450  0.3052
 5278SOL     OW27295   2.705   0.738   2.147  0.2936 -0.1011  0.2446
 5278SOL    HW127296   2.799   0.747   2.134 -0.1074 -0.6673 -3.1284
 5278SOL    HW227297   2.672   0.822   2.114  2.5225  0.7134  0.1194
 5279SOL     OW27298   1.405   3.865   6.940  0.2618 -0.0126 -0.0230
 5279SOL    HW127299   1.476   3.923   6.914  0.4921 -0.9165 -1.4133
 5279SOL    HW227300   1.371   3.846   6.853 -1.7169  0.8209  0.5690
 5280SOL     OW27301   0.074   3.902   6.990  0.5146 -0.1751 -0.0535
 5280SOL    HW127302   4.702   3.906   7.005  0.6422 -0.1104  0.7029
 5280SOL    HW227303   0.099   3.993   6.972  1.4258  0.1068  2.6379
 5281SOL     OW27304   2.333   3.284   7.262 -0.0728 -0.1241  0.6883
 5281SOL    HW127305   2.376   3.361   7.298 -0.5913 -0.2906  1.6504
 5281SOL    HW227306   2.340   3.221   7.334  0.9208  0.9834  1.5557
 5282SOL     OW27307   4.542   3.447   4.966 -0.3716  0.0658 -0.0677
 5282SOL    HW127308   4.541   3.526   4.912  2.1889 -1.5010 -2.3979
 5282SOL    HW227309   4.625   3.447   5.014 -0.6232  0.4652  0.3692
 5283SOL     OW27310   4.187   3.819   8.710 -0.3339  0.3015  0.2370
 5283SOL    HW127311   4.162   3.752   8.646  1.3323  0.3089 -0.4170
 5283SOL    HW227312   4.272   3.788   8.741 -0.3250  0.5575  0.4709
 5284SOL     OW27313   2.113   3.800   7.863  0.1920  0.5326 -0.3509
 5284SOL    HW127314   2.190   3.844   7.826  0.8379 -0.3565 -0.0611
 5284SOL    HW227315   2.101   3.720   7.813  0.5945 -0.4696  1.1734
 5285SOL     OW27316   2.430   3.351   1.355 -0.6144 -0.0898 -0.2987
 5285SOL    HW127317   2.398   3.292   1.423  0.4911 -2.1427 -1.5560
 5285SOL    HW227318   2.398   3.438   1.381 -1.8985 -0.6468 -0.0415
 5286SOL     OW27319   4.205   4.055   9.240  0.4841 -0.3768  0.0939
 5286SOL    HW127320   4.213   3.965   9.271  1.0791 -1.0652 -2.0916
 5286SOL    HW227321   4.255   4.107   9.304  1.2677 -0.7698 -0.2073
 5287SOL     OW27322   3.937   4.550  12.179  0.8029  0.4040 -0.1180
 5287SOL    HW127323   3.977   4.536  12.265 -1.2253 -0.9098  0.5861
 5287SOL    HW227324   3.884   4.629  12.193  1.0262  0.7949 -1.4726
 5288SOL     OW27325   0.825   4.498   8.916  0.0663 -0.0271  0.1501
 5288SOL    HW127326   0.750   4.486   8.976  1.1281  0.0092  1.4873
 5288SOL    HW227327   0.812   4.433   8.848 -0.3713  0.5635 -0.3306
 5289SOL     OW27328   1.272   3.177   7.848  0.1249  0.1812 -0.4234
 5289SOL    HW127329   1.206   3.107   7.851  1.6376 -1.2979 -1.6583
 5289SOL    HW227330   1.217   3.255   7.848  1.8261  1.3693  1.0549
 5290SOL     OW27331   4.083   1.671   4.532  0.5945  0.0038 -0.0876
 5290SOL    HW127332   4.002   1.704   4.491  0.6629  1.5026  0.9956
 5290SOL    HW227333   4.070   1.578   4.512 -1.0996  0.2188  0.0214
 5291SOL     OW27334   2.366   3.188   8.822 -0.5657  0.5147  0.7770
 5291SOL    HW127335   2.397   3.101   8.799 -1.0183  0.3519  0.7740
 5291SOL    HW227336   2.366   3.191   8.918  0.4216  1.4984  0.7467
 5292SOL     OW27337   2.738   3.078   7.188 -0.3458  0.1278 -0.1351
 5292SOL    HW127338   2.699   3.036   7.112  2.3042 -1.1883 -0.7729
 5292SOL    HW227339   2.698   3.165   7.188 -1.4562 -0.3810 -0.4012
 5293SOL     OW27340   2.091   0.975   8.087 -0.2528  0.3889  0.3237
 5293SOL    HW127341   2.019   0.915   8.069 -0.4479  0.3005  1.4327
 5293SOL    HW227342   2.162   0.938   8.033 -1.7030 -1.8132 -0.0725
 5294SOL     OW27343   1.921   1.164  16.244 -0.3884  0.2068 -0.0658
 5294SOL    HW127344   1.891   1.082  16.282 -0.5735 -0.6579 -2.1010
 5294SOL    HW227345   1.896   1.160  16.152 -2.1998  1.4267  0.3727
 5295SOL     OW27346   2.116   2.092   4.177  0.6435 -0.5678 -0.4722
 5295SOL    HW127347   2.165   2.140   4.110 -0.1358 -0.4950 -0.9971
 5295SOL    HW227348   2.122   2.003   4.141  0.3303  0.4870 -3.1512
 5296SOL     OW27349   1.664   1.020  16.888  0.1873  0.4250 -0.3169
 5296SOL    HW127350   1.581   1.062  16.910  0.4461  1.7553 -1.8699
 5296SOL    HW227351   1.677   0.961  16.962  1.3913 -1.4160 -1.9961
 5297SOL     OW27352   1.974   0.078   6.314  0.4592 -0.6425  0.5071
 5297SOL    HW127353   1.992   4.721   6.262  0.6559  0.1155 -0.5914
 5297SOL    HW227354   1.902   0.116   6.263 -1.1116 -1.6427  1.9801
 5298SOL     OW27355   1.117   3.245   5.076 -0.0399  0.0587  0.3648
 5298SOL    HW127356   1.179   3.270   5.144  0.9534 -2.2387  0.3091
 5298SOL    HW227357   1.051   3.203   5.132 -1.7404 -1.7643 -2.9722
 5299SOL     OW27358   1.398   3.022   0.014 -0.2079 -0.0522 -0.4930
 5299SOL    HW127359   1.354   2.960  17.648 -2.7548  1.5361 -0.2535
 5299SOL    HW227360   1.390   2.985   0.101  0.8479 -0.7852 -0.7158
 5300SOL     OW27361   4.599   4.064   1.838  0.1421  0.2111  0.6177
 5300SOL    HW127362   4.529   4.091   1.897 -0.6109  0.0836 -0.2132
 5300SOL    HW227363   4.545   4.024   1.769  0.5490 -1.0281  1.0183
 5301SOL     OW27364   0.392   3.943   5.486  0.3151 -0.1517 -0.0182
 5301SOL    HW127365   0.440   3.891   5.421  0.0742  0.0115 -0.3223
 5301SOL    HW227366   0.455   3.937   5.558  0.6352  1.0914 -0.2032
 5302SOL     OW27367   3.101   3.310  15.488 -0.1614  0.3773  0.2153
 5302SOL    HW127368   3.031   3.260  15.447  0.5093 -0.0621 -0.3988
 5302SOL    HW227369   3.160   3.324  15.414 -3.2141 -1.6119 -2.5896
 5303SOL     OW27370   1.294   4.192   8.392 -0.2173  0.3943  1.0036
 5303SOL    HW127371   1.215   4.234   8.358 -0.9006 -1.4574  0.2666
 5303SOL    HW227372   1.275   4.101   8.368  1.6839  0.0675  0.7215
 5304SOL     OW27373   1.584   0.067   4.750  0.3488 -0.2227 -0.0188
 5304SOL    HW127374   1.615   4.708   4.710 -0.9102 -0.8178  0.2267
 5304SOL    HW227375   1.619   0.062   4.839 -0.9883  1.4156  0.5808
 5305SOL     OW27376   0.587   0.237   2.865  0.1720  0.4674  0.6643
 5305SOL    HW127377   0.588   0.327   2.898  0.0038  0.7559 -0.1326
 5305SOL    HW227378   0.623   0.253   2.778  0.5451  1.3201  0.9807
 5306SOL     OW27379   4.225   0.288   2.924  0.1848  0.5959 -0.1556
 5306SOL    HW127380   4.180   0.263   3.005 -1.9133  0.0672 -1.5000
 5306SOL    HW227381   4.260   0.374   2.946  3.5321 -0.3540 -1.6676
 5307SOL     OW27382   2.355   4.436  14.095 -0.6802 -0.3298  0.2763
 5307SOL    HW127383   2.321   4.483  14.171 -1.2475 -1.6898  0.8678
 5307SOL    HW227384   2.393   4.512  14.052 -0.0704 -1.5057 -1.2423
 5308SOL     OW27385   1.520   3.318   4.540 -0.0471 -0.6465 -0.0026
 5308SOL    HW127386   1.586   3.252   4.562  0.0580 -0.4332  0.3139
 5308SOL    HW227387   1.555   3.404   4.564 -2.1785 -0.0868  1.1336
 5309SOL     OW27388   3.510   2.887  10.106 -0.3966 -0.1962 -0.4141
 5309SOL    HW127389   3.595   2.867  10.146  0.1196  0.5885 -1.1240
 5309SOL    HW227390   3.452   2.885  10.182  1.5423  0.7276  1.1083
 5310SOL     OW27391   2.854   0.910  16.796 -0.3804 -0.5240  0.5810
 5310SOL    HW127392   2.865   0.995  16.755  0.6369 -0.5324  0.8477
 5310SOL    HW227393   2.824   0.934  16.884 -1.5043  1.2184 -0.2824
 5311SOL     OW27394   0.868   4.041   7.892 -0.2222 -0.7011  0.1300
 5311SOL    HW127395   0.838   3.997   7.812  1.7059 -1.1366 -0.3729
 5311SOL    HW227396   0.788   4.055   7.942  0.1451  0.2860  0.4506
 5312SOL     OW27397   4.007   0.241   7.629 -0.5209 -0.3604 -0.2510
 5312SOL    HW127398   3.945   0.188   7.579  0.1872 -0.9885 -0.4518
 5312SOL    HW227399   4.092   0.240   7.585  0.2003 -0.1613  1.1177
 5313SOL     OW27400   0.065   4.211   4.178  0.4756  0.1279  0.4938
 5313SOL    HW127401   0.059   4.274   4.250  1.1473  1.1097 -0.3107
 5313SOL    HW227402   0.140   4.171   4.222  1.6477  2.0125  0.2368
 5314SOL     OW27403   3.647   3.464   8.386 -0.0402  0.3872  0.0474
 5314SOL    HW127404   3.631   3.520   8.462 -1.2013 -1.9796  1.5166
 5314SOL    HW227405   3.564   3.467   8.338 -1.8750  0.4345  3.2306
 5315SOL     OW27406   4.399   4.716  11.916  0.5347  0.5925  0.0568
 5315SOL    HW127407   4.456   4.714  11.839 -0.4834 -1.0844 -0.6607
 5315SOL    HW227408   4.318   4.687  11.875  0.8494 -0.8713  0.4807
 5316SOL     OW27409   3.464   3.028   5.938 -0.0634 -0.1215  0.0883
 5316SOL    HW127410   3.506   3.106   5.972 -0.9813  0.3288  0.1737
 5316SOL    HW227411   3.409   2.991   6.006  0.5382 -2.5967 -0.7498
 5317SOL     OW27412   3.162   2.757   7.891 -0.0332 -0.5512 -0.2334
 5317SOL    HW127413   3.087   2.802   7.852 -0.8502 -2.2357 -0.5894
 5317SOL    HW227414   3.152   2.786   7.981  2.2163 -2.3963  0.6169
 5318SOL     OW27415   2.992   3.844  10.515  0.0093 -0.2644  0.6416
 5318SOL    HW127416   3.037   3.927  10.505 -1.2729  0.2878 -0.5552
 5318SOL    HW227417   3.052   3.785  10.468 -0.1267  1.3455 -1.5504
 5319SOL     OW27418   1.886   3.258   2.567  0.5317  0.1916  0.2233
 5319SOL    HW127419   1.858   3.213   2.487  2.5279  0.3112 -0.5476
 5319SOL    HW227420   1.980   3.259   2.550  0.5202 -2.1237 -0.0271
 5320SOL     OW27421   3.323   0.035   3.472  0.3561 -0.2327  0.1508
 5320SOL    HW127422   3.371   4.709   3.539  0.1814  1.2793  1.3833
 5320SOL    HW227423   3.392   0.086   3.430  0.2859  1.1352  1.7054
 5321SOL     OW27424   4.443   1.002   1.871  0.4775 -0.3661  0.0987
 5321SOL    HW127425   4.488   0.927   1.909  1.2577 -0.2046 -0.5123
 5321SOL    HW227426   4.437   1.059   1.948 -0.0802  2.7580 -2.2470
 5322SOL     OW27427   2.879   1.038   5.073 -0.2115  0.3866 -0.0157
 5322SOL    HW127428   2.917   0.997   4.996  0.5486 -1.7367  1.4684
 5322SOL    HW227429   2.956   1.056   5.128  0.4734 -0.6381 -0.6346
 5323SOL     OW27430   1.044   2.600   6.601 -0.0958 -0.3839 -0.3026
 5323SOL    HW127431   1.077   2.547   6.529  2.7060  1.1607 -0.1681
 5323SOL    HW227432   1.072   2.691   6.589 -0.9985  0.1985  1.9606
 5324SOL     OW27433   2.252   3.494   2.489 -0.5776 -0.5080  0.2109
 5324SOL    HW127434   2.158   3.498   2.507  0.0771  0.5317  3.3166
 5324SOL    HW227435   2.276   3.426   2.552 -0.7368  0.6874  1.5679
 5325SOL     OW27436   2.173   0.414  16.340  0.1364 -0.2484  0.6290
 5325SOL    HW127437   2.141   0.442  16.426 -0.6376  0.3004  0.1641
 5325SOL    HW227438   2.250   0.361  16.362 -0.3583 -1.7431 -1.1958
 5326SOL     OW27439   1.190   3.330  10.506  0.1205  0.2538 -0.5966
 5326SOL    HW127440   1.112   3.280  10.482  0.2820  0.5522 -1.7498
 5326SOL    HW227441   1.192   3.391  10.433 -1.1120 -0.6331 -1.3634
 5327SOL     OW27442   4.339   3.971   1.559  0.3880 -0.1738  0.3994
 5327SOL    HW127443   4.373   3.951   1.647  0.5936 -0.5518  0.2386
 5327SOL    HW227444   4.281   4.044   1.577  0.3532  0.2059 -1.2718
 5328SOL     OW27445   0.157   2.780   8.210  0.4434  0.2253  0.3430
 5328SOL    HW127446   0.126   2.824   8.289  3.1080  1.8344  0.4906
 5328SOL    HW227447   0.218   2.714   8.243  0.0695 -1.4200 -2.2052
 5329SOL     OW27448   3.704   1.990   2.738  0.1441 -0.9246 -0.3600
 5329SOL    HW127449   3.774   2.029   2.790 -1.0005 -0.4630  0.8209
 5329SOL    HW227450   3.662   1.942   2.809  0.4710 -2.4967 -1.2230
 5330SOL     OW27451   2.177   2.584  12.096 -0.2374 -0.1302 -0.0249
 5330SOL    HW127452   2.183   2.519  12.027  1.5105  1.8998 -1.8134
 5330SOL    HW227453   2.267   2.586  12.129 -0.3593 -1.7167  0.3660
 5331SOL     OW27454   1.884   0.273   4.859 -0.1722 -0.5652  0.2533
 5331SOL    HW127455   1.970   0.259   4.899  0.9618  0.8667 -1.6611
 5331SOL    HW227456   1.837   0.190   4.852 -2.2496  0.6447 -0.0403
 5332SOL     OW27457   4.681   3.971   4.196  0.1535 -0.3995  0.5652
 5332SOL    HW127458   4.588   3.971   4.219  0.1387  0.0342  0.4936
 5332SOL    HW227459   4.705   4.062   4.182  0.0361  0.1310  3.8298
 5333SOL     OW27460   2.017   3.115   8.047  0.2606  0.1540 -0.7446
 5333SOL    HW127461   1.978   3.085   8.129 -1.3089  3.8996 -0.0896
 5333SOL    HW227462   1.944   3.125   7.987 -0.1915 -0.8883 -0.3566
 5334SOL     OW27463   2.529   2.661  12.350 -0.2628 -0.5644 -0.3770
 5334SOL    HW127464   2.515   2.567  12.365 -0.9093 -0.5031 -0.5874
 5334SOL    HW227465   2.591   2.692  12.415  0.4494 -1.2429 -0.7354
 5335SOL     OW27466   4.227   3.425  13.047  0.1983 -0.4308  0.3444
 5335SOL    HW127467   4.165   3.359  13.016  0.6038  0.6887 -2.8490
 5335SOL    HW227468   4.275   3.431  12.965 -1.3791  1.3448 -0.4577
 5336SOL     OW27469   3.458   3.669   6.638  0.6280  0.0906  0.2833
 5336SOL    HW127470   3.386   3.696   6.695 -0.7116  0.2529 -1.5006
 5336SOL    HW227471   3.518   3.742   6.656  1.0343  0.3338 -2.0893
 5337SOL     OW27472   0.115   1.442   4.000 -0.2839 -0.3398 -0.6597
 5337SOL    HW127473   0.077   1.483   4.078  1.2042  0.9521 -0.6047
 5337SOL    HW227474   0.144   1.525   3.960 -1.4453 -0.0380 -0.8928
 5338SOL     OW27475   0.344   0.600   9.178  0.4040 -0.4427 -0.5330
 5338SOL    HW127476   0.285   0.652   9.123  0.7233 -0.5369 -0.9646
 5338SOL    HW227477   0.418   0.660   9.193 -1.8242  2.3026 -0.4107
 5339SOL     OW27478   3.471   1.589   6.100  0.3232  0.0926 -0.1559
 5339SOL    HW127479   3.499   1.657   6.161 -1.2511  0.7774 -0.1864
 5339SOL    HW227480   3.544   1.529   6.089  0.1567 -0.4867  1.8561
 5340SOL     OW27481   2.727   3.706  10.093 -0.7199 -0.5754  0.2504
 5340SOL    HW127482   2.782   3.664  10.027 -3.0936 -0.9936 -1.4468
 5340SOL    HW227483   2.768   3.672  10.173  0.0394 -0.7654 -0.2174
 5341SOL     OW27484   3.863   1.319   0.877 -0.0882 -0.6792 -0.7254
 5341SOL    HW127485   3.886   1.395   0.930  1.1845 -0.7003 -1.2679
 5341SOL    HW227486   3.944   1.277   0.850  1.5154  3.7774 -2.7047
 5342SOL     OW27487   3.049   1.504   2.200 -0.5490 -0.3826 -0.2881
 5342SOL    HW127488   3.066   1.415   2.229  0.7652  0.5131  1.6860
 5342SOL    HW227489   3.083   1.500   2.111 -0.3459 -0.3853 -0.2109
 5343SOL     OW27490   0.773   3.408   6.098  1.4148 -0.0298 -0.4823
 5343SOL    HW127491   0.857   3.368   6.121  0.1826 -2.3494 -0.0032
 5343SOL    HW227492   0.778   3.492   6.143  0.7275 -0.3933  0.2618
 5344SOL     OW27493   4.553   4.403   7.595  0.2605  0.7309 -0.1190
 5344SOL    HW127494   4.544   4.308   7.595 -1.4116  0.8832 -3.4917
 5344SOL    HW227495   4.642   4.413   7.627 -0.0437 -0.2853  1.0100
 5345SOL     OW27496   1.632   2.773   1.711  0.7124  0.6203  0.6204
 5345SOL    HW127497   1.569   2.762   1.640  1.8342  0.2445 -0.3218
 5345SOL    HW227498   1.691   2.698   1.701  0.4359  0.8189 -2.5027
 5346SOL     OW27499   1.897   3.897   1.681  0.7391  0.3214 -0.3174
 5346SOL    HW127500   1.818   3.950   1.693 -0.0183 -0.6742 -0.8997
 5346SOL    HW227501   1.908   3.900   1.586 -0.5733  1.7563 -0.4169
 5347SOL     OW27502   1.308   4.353   3.537 -0.0043 -0.4527  0.1378
 5347SOL    HW127503   1.393   4.389   3.510  0.1048 -1.5171 -0.9121
 5347SOL    HW227504   1.312   4.262   3.507 -1.1435 -0.1975 -0.7657
 5348SOL     OW27505   3.420   0.226  10.029  0.7879 -0.0829  0.1044
 5348SOL    HW127506   3.412   0.141  10.071  1.8037  0.4164  1.3039
 5348SOL    HW227507   3.437   0.190   9.941 -1.2591 -1.4240  0.2575
 5349SOL     OW27508   3.625   3.819   4.628 -0.6646 -0.6865  0.0627
 5349SOL    HW127509   3.562   3.890   4.634  1.0639  0.8810 -0.2598
 5349SOL    HW227510   3.670   3.811   4.712 -2.0834 -2.4812  0.6542
 5350SOL     OW27511   1.271   0.600  14.663  0.3757  0.3500 -0.3002
 5350SOL    HW127512   1.299   0.561  14.580 -0.2439  0.5505 -0.6110
 5350SOL    HW227513   1.192   0.547  14.677  0.0771  0.9961  0.3884
 5351SOL     OW27514   2.929   0.467   8.563 -0.1235 -0.4626  0.8125
 5351SOL    HW127515   2.971   0.542   8.603 -2.3286  1.5962 -0.7438
 5351SOL    HW227516   2.948   0.490   8.472 -0.2347 -1.7192  0.4689
 5352SOL     OW27517   2.454   2.326   3.733  0.5083 -0.4453 -0.4542
 5352SOL    HW127518   2.404   2.257   3.775  0.0850 -0.7116 -1.3844
 5352SOL    HW227519   2.396   2.399   3.758  0.9476  0.3468 -1.7055
 5353SOL     OW27520   4.665   0.037  14.062  0.0226 -0.0327 -0.0579
 5353SOL    HW127521   4.579   0.001  14.086  1.5772 -1.9898  2.5257
 5353SOL    HW227522   4.674   4.721  13.975  0.2930  2.9323 -1.3487
 5354SOL     OW27523   2.080   2.335   9.690 -0.6289 -0.0898  0.1876
 5354SOL    HW127524   2.065   2.305   9.600  2.0227 -1.5511  0.2096
 5354SOL    HW227525   2.172   2.313   9.706 -1.0041 -0.8739  1.2922
 5355SOL     OW27526   1.933   1.323   1.552  0.0859 -0.4650 -0.1781
 5355SOL    HW127527   1.928   1.274   1.470  1.4259 -2.7334  1.1124
 5355SOL    HW227528   2.006   1.275   1.590  1.4273  0.0844 -2.0489
 5356SOL     OW27529   2.542   1.030   9.600 -0.2377 -0.5335  0.5704
 5356SOL    HW127530   2.551   1.116   9.643  0.0021 -0.5965  0.6473
 5356SOL    HW227531   2.468   1.048   9.542 -0.3786 -0.1188  0.8724
 5357SOL     OW27532   1.453   3.653  14.128  0.8905  0.3258 -0.1679
 5357SOL    HW127533   1.529   3.711  14.127  0.3220  1.0767  0.5025
 5357SOL    HW227534   1.418   3.659  14.039  1.1504 -1.6652 -0.4196
 5358SOL     OW27535   3.288   3.030   3.602 -0.0592  0.4877 -0.9254
 5358SOL    HW127536   3.317   3.003   3.515 -1.5263 -1.5586 -0.7833
 5358SOL    HW227537   3.359   2.992   3.653  0.1619  0.8288 -0.9842
 5359SOL     OW27538   0.280   2.002   4.914 -0.0784  0.1159  0.0855
 5359SOL    HW127539   0.238   2.003   5.000 -0.0562  1.5814  0.0789
 5359SOL    HW227540   0.372   2.022   4.930 -0.6004  1.7487  1.0736
 5360SOL     OW27541   1.141   1.404   3.907 -0.0912  0.1597 -0.1881
 5360SOL    HW127542   1.114   1.495   3.891 -0.5971 -0.0561 -0.5354
 5360SOL    HW227543   1.056   1.363   3.891 -0.6220  0.8474  0.7779
 5361SOL     OW27544   3.228   0.225   5.227 -0.3442  0.2768 -0.1820
 5361SOL    HW127545   3.227   0.308   5.179 -3.4329  0.3389  0.0160
 5361SOL    HW227546   3.135   0.204   5.222  0.2235 -1.9182 -1.8112
 5362SOL     OW27547   3.392   4.045  12.716 -0.3769  0.2031 -0.1811
 5362SOL    HW127548   3.463   3.985  12.739 -2.0614 -0.7015  2.6758
 5362SOL    HW227549   3.338   3.993  12.657  0.9537 -0.8255 -0.4998
 5363SOL     OW27550   0.816   0.416   4.273  0.0170 -0.1255  0.1542
 5363SOL    HW127551   0.899   0.463   4.261  0.0947 -0.2467  0.2175
 5363SOL    HW227552   0.770   0.482   4.325 -1.3340  1.0672 -2.5385
 5364SOL     OW27553   3.832   2.595   6.848  0.1119  0.5110 -0.3064
 5364SOL    HW127554   3.784   2.551   6.778 -0.4292 -0.9094  0.9631
 5364SOL    HW227555   3.826   2.533   6.920 -2.4894  1.7062  0.5146
 5365SOL     OW27556   2.321   3.701   8.523 -0.8233 -0.4657  0.3451
 5365SOL    HW127557   2.397   3.750   8.492 -1.1151  0.0388  0.4136
 5365SOL    HW227558   2.278   3.768   8.577  3.0869  3.6790 -1.7393
 5366SOL     OW27559   3.855   1.594   1.529 -0.1234  0.3291 -0.1885
 5366SOL    HW127560   3.908   1.594   1.448 -0.4243 -0.3967 -0.3828
 5366SOL    HW227561   3.828   1.685   1.529  0.3326  0.4657 -0.9871
 5367SOL     OW27562   4.104   0.638   7.271  0.4637  0.3266 -1.1573
 5367SOL    HW127563   4.099   0.700   7.199 -1.7038 -0.2032 -1.4598
 5367SOL    HW227564   4.014   0.630   7.302  0.0826 -0.4017 -2.4485
 5368SOL     OW27565   3.471   3.434   1.965  0.1720 -0.0712  0.1045
 5368SOL    HW127566   3.490   3.368   1.898 -1.4117 -0.5016  0.0933
 5368SOL    HW227567   3.383   3.444   1.931  0.0904  1.6494  0.7952
 5369SOL     OW27568   2.025   3.473   2.831  0.7897  0.1940  0.3299
 5369SOL    HW127569   1.972   3.441   2.904 -0.3661  2.2842  0.4202
 5369SOL    HW227570   2.108   3.498   2.873 -0.0553  0.9866  1.5167
 5370SOL     OW27571   4.712   3.591  10.139 -0.0185  0.4269 -0.0427
 5370SOL    HW127572   0.051   3.648  10.094 -2.0118  1.6559 -1.2196
 5370SOL    HW227573   4.638   3.641  10.175 -0.2953 -1.9414  2.7357
 5371SOL     OW27574   0.260   1.716   5.868 -0.3010  0.6472  0.1083
 5371SOL    HW127575   0.183   1.767   5.840  1.2829  1.8855 -1.9880
 5371SOL    HW227576   0.205   1.662   5.924  2.1720 -1.7901  0.1576
 5372SOL     OW27577   0.228   1.128  17.656  0.0779 -0.5911 -0.2284
 5372SOL    HW127578   0.263   1.039  17.648 -1.2715 -1.0860 -0.5708
 5372SOL    HW227579   0.302   1.173   0.004  0.0055  1.8117 -2.7493
 5373SOL     OW27580   0.682   2.585  17.431 -0.4652  0.0075 -0.7747
 5373SOL    HW127581   0.770   2.556  17.455 -0.0780  2.9594  1.4650
 5373SOL    HW227582   0.644   2.517  17.376 -3.2943 -0.3197  1.5492
 5374SOL     OW27583   3.455   0.296   6.645  0.0937 -0.5435 -0.1776
 5374SOL    HW127584   3.410   0.333   6.569  2.8974 -0.3810 -1.7797
 5374SOL    HW227585   3.434   0.357   6.716  0.1407 -1.9947  1.0899
 5375SOL     OW27586   0.721   1.092   4.876  0.5349 -0.2040 -0.0303
 5375SOL    HW127587   0.653   1.085   4.809  0.3609 -3.0087  0.4263
 5375SOL    HW227588   0.669   1.140   4.940  2.2218 -0.6226  1.6445
 5376SOL     OW27589   3.900   3.043  12.837 -0.3261  0.6746 -0.4580
 5376SOL    HW127590   3.858   2.990  12.769  1.2490 -0.4148 -0.5976
 5376SOL    HW227591   3.929   2.976  12.899 -2.7991  1.6320  1.7293
 5377SOL     OW27592   2.761   4.593  10.637  0.2557  0.0498 -0.3001
 5377SOL    HW127593   2.790   4.632  10.555 -0.4322 -0.5176 -0.8166
 5377SOL    HW227594   2.784   4.655  10.705 -0.9428 -1.7943  1.8057
 5378SOL     OW27595   2.293   2.959   5.671 -0.3691 -0.0620  0.1418
 5378SOL    HW127596   2.300   2.912   5.589 -1.0088  0.7974 -0.3997
 5378SOL    HW227597   2.240   3.036   5.652 -0.0475  0.8191  2.6981
 5379SOL     OW27598   0.318   1.920   2.573 -0.3284 -0.4070  0.6522
 5379SOL    HW127599   0.294   1.897   2.483 -1.2224  0.8282  0.5704
 5379SOL    HW227600   0.400   1.966   2.558 -0.7315 -1.3762 -4.4083
 5380SOL     OW27601   0.971   2.981   8.468  0.0364 -0.0455 -0.1067
 5380SOL    HW127602   1.004   2.904   8.422 -1.8966 -0.5938 -0.5921
 5380SOL    HW227603   0.895   2.945   8.514  0.0466 -0.2218 -0.2251
 5381SOL     OW27604   4.615   0.943   4.580 -0.1700 -0.7657 -0.7039
 5381SOL    HW127605   4.554   1.012   4.553 -1.3585 -1.0488  1.2522
 5381SOL    HW227606   4.557   0.867   4.574 -2.6776  1.1058  0.0238
 5382SOL     OW27607   1.071   0.994   5.843  0.0840  0.3438  0.0613
 5382SOL    HW127608   1.007   1.048   5.889 -0.7969  1.8805 -2.9982
 5382SOL    HW227609   1.051   0.907   5.879 -2.5315  1.1285  0.4974
 5383SOL     OW27610   0.704   1.675  10.390 -0.5026  0.2083 -0.3691
 5383SOL    HW127611   0.736   1.585  10.388 -0.2685  0.3029 -1.0235
 5383SOL    HW227612   0.776   1.725  10.428 -2.0568  1.4223  1.0023
 5384SOL     OW27613   0.132   0.175  14.457  0.9284 -0.0795 -0.3887
 5384SOL    HW127614   0.218   0.204  14.488  1.0353 -0.7677 -0.0447
 5384SOL    HW227615   0.132   0.200  14.364 -0.0010  0.2046 -0.3147
 5385SOL     OW27616   2.190   0.427   8.094 -0.6469  0.5242 -0.3222
 5385SOL    HW127617   2.253   0.387   8.035 -0.1028  0.4362  0.3170
 5385SOL    HW227618   2.155   0.348   8.136  0.6148  0.8880  1.4083
 5386SOL     OW27619   1.955   1.718   5.765 -0.0630  0.2589 -0.1433
 5386SOL    HW127620   2.018   1.659   5.724  0.0289  0.6642 -0.5886
 5386SOL    HW227621   1.964   1.798   5.713  1.5694 -1.0733 -1.8731
 5387SOL     OW27622   0.031   2.632  14.000 -0.2348  0.4714  0.4946
 5387SOL    HW127623   0.124   2.649  14.016  0.5158 -1.0319 -2.2544
 5387SOL    HW227624   4.705   2.692  14.056 -1.3882  0.9212 -0.9836
 5388SOL     OW27625   3.591   1.553   2.985  0.3306  0.1699 -0.0974
 5388SOL    HW127626   3.680   1.552   2.951  0.4461 -1.3864  0.2205
 5388SOL    HW227627   3.562   1.461   2.983  1.5133 -0.2620  1.7654
 5389SOL     OW27628   1.757   2.874   7.375  0.2499 -0.0060 -0.4664
 5389SOL    HW127629   1.848   2.901   7.364  0.3688 -0.7094 -1.1759
 5389SOL    HW227630   1.715   2.906   7.295  1.0599 -0.6620 -1.1580
 5390SOL     OW27631   0.906   2.322   2.768  0.2308 -0.1506 -0.6807
 5390SOL    HW127632   0.848   2.264   2.818 -1.6767  0.8792 -1.6819
 5390SOL    HW227633   0.917   2.379   2.845 -2.3247 -1.7228  0.8517
 5391SOL     OW27634   0.589   4.514  11.056 -0.1279  0.3333  0.5645
 5391SOL    HW127635   0.574   4.472  11.141 -2.0293  0.0955  0.1232
 5391SOL    HW227636   0.579   4.442  10.993 -0.3736 -0.7187  1.7832
 5392SOL     OW27637   4.503   0.691   6.051 -0.4237  0.0954 -0.5183
 5392SOL    HW127638   4.503   0.639   5.971  3.5441  1.9320 -1.7135
 5392SOL    HW227639   4.441   0.649   6.111  0.2869 -1.9350 -1.2197
 5393SOL     OW27640   1.063   4.528   7.940 -0.0835 -0.3267  0.6082
 5393SOL    HW127641   1.135   4.510   8.000  2.2303  0.2950 -1.9398
 5393SOL    HW227642   1.071   4.623   7.934 -2.7684  0.1068  3.6529
 5394SOL     OW27643   3.736   3.900   6.983 -0.3250 -0.1880 -0.1687
 5394SOL    HW127644   3.758   3.884   6.891 -3.9832 -0.7522 -0.9593
 5394SOL    HW227645   3.643   3.923   6.978  0.2271  1.8659 -0.8639
 5395SOL     OW27646   2.050   1.120   5.040  0.2246  0.0864  0.4216
 5395SOL    HW127647   2.062   1.212   5.020  1.2538 -0.0268  0.5529
 5395SOL    HW227648   2.109   1.103   5.113 -1.5618  1.3247  2.1627
 5396SOL     OW27649   2.526   3.851   8.408  0.8743 -0.3473  0.1946
 5396SOL    HW127650   2.596   3.906   8.373 -2.2142  2.0313 -2.2642
 5396SOL    HW227651   2.566   3.773   8.369  3.6160  1.0731  0.2296
 5397SOL     OW27652   0.279   2.961   7.024 -0.6265  0.5986 -0.7639
 5397SOL    HW127653   0.279   2.895   7.094  0.2317  2.9565  1.4646
 5397SOL    HW227654   0.256   3.028   7.088  1.8402 -0.3777  1.1623
 5398SOL     OW27655   4.555   3.541   1.921  0.4952 -0.0686 -0.1803
 5398SOL    HW127656   4.539   3.450   1.895  1.8700 -0.1258 -0.8153
 5398SOL    HW227657   4.620   3.524   1.989  0.2444 -0.4106 -0.0257
 5399SOL     OW27658   2.623   2.937   9.288 -0.2897 -0.1285 -1.0325
 5399SOL    HW127659   2.646   2.908   9.200 -0.3592 -0.0145 -1.0874
 5399SOL    HW227660   2.614   2.848   9.324 -0.7389  0.5842  0.6227
 5400SOL     OW27661   1.559   3.093   6.754  0.2003 -0.3722  0.0921
 5400SOL    HW127662   1.642   3.057   6.785  0.6422  0.6513  0.0998
 5400SOL    HW227663   1.523   3.139   6.830 -2.2430 -0.9487 -0.7042
 5401SOL     OW27664   2.750   0.125  16.406  0.1850 -0.3497 -0.2859
 5401SOL    HW127665   2.692   0.184  16.357  0.3339  0.0069 -0.0309
 5401SOL    HW227666   2.829   0.144  16.356 -1.8399  1.0736 -2.9649
 5402SOL     OW27667   0.117   2.532  10.990  0.2195  0.0045 -0.1312
 5402SOL    HW127668   0.158   2.455  10.950  2.0349  0.2813  1.2289
 5402SOL    HW227669   0.198   2.568  11.025 -0.3582 -0.6332  1.8404
 5403SOL     OW27670   2.294   2.863   1.750  0.0981  0.3015 -0.4684
 5403SOL    HW127671   2.222   2.853   1.688 -1.3229 -0.6855  1.3553
 5403SOL    HW227672   2.352   2.791   1.726  0.1218 -0.9007  3.2585
 5404SOL     OW27673   3.591   1.617   5.699 -0.1917  0.4051  0.5521
 5404SOL    HW127674   3.656   1.631   5.630 -0.3813  1.0332  0.5043
 5404SOL    HW227675   3.616   1.689   5.757 -1.4286  0.1796  1.3596
 5405SOL     OW27676   3.314   0.231   0.814 -0.0553 -0.3320  0.2159
 5405SOL    HW127677   3.395   0.276   0.836 -0.2775  1.2158 -2.1945
 5405SOL    HW227678   3.244   0.287   0.848  1.2533  0.7220  1.1863
 5406SOL     OW27679   0.322   2.596   3.372 -0.5244 -0.1734 -0.3561
 5406SOL    HW127680   0.356   2.633   3.454  1.7778 -0.3949 -1.2101
 5406SOL    HW227681   0.390   2.609   3.306 -0.4790 -0.0070 -0.2777
 5407SOL     OW27682   2.729   3.558   8.073  0.3208 -0.0340  0.0778
 5407SOL    HW127683   2.664   3.525   8.011  2.3062 -0.0035 -2.0002
 5407SOL    HW227684   2.706   3.651   8.074 -2.8473 -0.8194  1.3593
 5408SOL     OW27685   4.329   3.196   6.156  0.1780  0.0959  0.3012
 5408SOL    HW127686   4.300   3.174   6.067 -0.0928 -1.0631  0.6748
 5408SOL    HW227687   4.402   3.255   6.135  0.3222  0.2773  1.3345
 5409SOL     OW27688   2.529   2.860   5.172  0.4042 -0.4799  0.1384
 5409SOL    HW127689   2.579   2.885   5.249  0.8160  0.3587 -0.3966
 5409SOL    HW227690   2.458   2.925   5.173  1.7958  0.9650  3.1177
 5410SOL     OW27691   2.385   2.058   4.986 -0.7765  0.8964 -0.2293
 5410SOL    HW127692   2.356   2.095   5.069 -2.1558 -0.9571  0.1239
 5410SOL    HW227693   2.450   2.124   4.962 -0.5949  0.4399 -1.0086
 5411SOL     OW27694   4.317   2.207   2.341 -0.1773 -0.4371  0.3992
 5411SOL    HW127695   4.289   2.200   2.249  0.8423  0.9221 -0.0227
 5411SOL    HW227696   4.261   2.281   2.363  1.9783  2.4882 -3.8772
 5412SOL     OW27697   2.111   3.871  12.857 -0.3330 -0.4997  0.3827
 5412SOL    HW127698   2.075   3.840  12.775 -3.5119  0.1899  1.5341
 5412SOL    HW227699   2.046   3.838  12.918 -0.0771  0.5313  1.2284
 5413SOL     OW27700   0.130   4.257   4.586  0.3767  0.4003 -0.4949
 5413SOL    HW127701   0.080   4.188   4.630  1.8921 -0.2268  0.2442
 5413SOL    HW227702   0.167   4.301   4.663  1.0045 -0.3830 -0.3503
 5414SOL     OW27703   4.356   2.058   0.905 -0.0607 -0.3711 -0.0004
 5414SOL    HW127704   4.326   2.117   0.975  1.2051  1.2085 -0.7696
 5414SOL    HW227705   4.325   2.112   0.832  2.3137 -0.2937 -0.9637
 5415SOL     OW27706   3.409   4.068   6.316 -0.2512 -0.1009 -0.1625
 5415SOL    HW127707   3.360   4.148   6.336  1.6161  0.1681  3.2919
 5415SOL    HW227708   3.344   4.017   6.269  0.5252 -2.6754  1.5653
 5416SOL     OW27709   2.737   0.598   8.339 -0.6533 -0.2743 -0.4197
 5416SOL    HW127710   2.665   0.626   8.396 -1.5875 -2.2418 -0.6389
 5416SOL    HW227711   2.795   0.672   8.325  1.8960 -2.3135 -0.4949
 5417SOL     OW27712   0.538   3.039   5.204  0.2735  0.4181  0.2943
 5417SOL    HW127713   0.490   2.972   5.252  0.5799  0.1788  0.2586
 5417SOL    HW227714   0.600   3.058   5.274 -0.0444 -3.2877  1.5551
 5418SOL     OW27715   3.685   3.687   1.868 -0.0362  0.2252 -0.4186
 5418SOL    HW127716   3.591   3.701   1.878 -0.3503 -1.0874 -1.5841
 5418SOL    HW227717   3.703   3.670   1.776  1.8846  0.2504 -0.0613
 5419SOL     OW27718   0.354   2.596   8.224 -0.1119 -0.5878  0.4904
 5419SOL    HW127719   0.431   2.584   8.280 -0.8178  0.4015  1.6618
 5419SOL    HW227720   0.348   2.504   8.199 -1.6935 -0.8523  1.8466
 5420SOL     OW27721   4.195   4.194   1.657 -0.0624  0.1881 -0.4657
 5420SOL    HW127722   4.253   4.261   1.694  0.9644 -1.2858  0.5698
 5420SOL    HW227723   4.151   4.168   1.738 -0.1035  0.7731 -0.2969
 5421SOL     OW27724   2.976   1.434  14.635 -0.7275 -0.2784 -0.6008
 5421SOL    HW127725   3.040   1.500  14.663 -1.9271 -0.3900  2.4389
 5421SOL    HW227726   2.995   1.415  14.543  1.3374 -2.6575  0.3023
 5422SOL     OW27727   3.537   2.786   2.538 -0.4918 -0.1315 -0.2019
 5422SOL    HW127728   3.570   2.696   2.530 -2.1872 -0.8115  0.4094
 5422SOL    HW227729   3.501   2.812   2.453 -1.0606  0.4698  0.2269
 5423SOL     OW27730   0.627   1.194   3.288  0.4561  0.3414  0.3613
 5423SOL    HW127731   0.635   1.133   3.215  0.7701  1.7561 -0.7976
 5423SOL    HW227732   0.660   1.269   3.237 -0.2161  0.9036  0.7485
 5424SOL     OW27733   2.762   3.160   9.179  0.0131  0.6295 -0.5621
 5424SOL    HW127734   2.706   3.090   9.213  2.0721 -1.2093 -0.9199
 5424SOL    HW227735   2.756   3.220   9.252  0.0404 -0.9006  0.7004
 5425SOL     OW27736   3.258   4.063   7.503  0.0738  0.6574 -0.0415
 5425SOL    HW127737   3.325   4.096   7.563 -0.1471 -0.9876  1.1107
 5425SOL    HW227738   3.315   4.047   7.428  1.0542 -1.4758  1.1666
 5426SOL     OW27739   2.636   4.325   1.227 -0.2591 -0.4888  0.1910
 5426SOL    HW127740   2.559   4.299   1.174 -0.0469  0.7225 -0.7079
 5426SOL    HW227741   2.699   4.268   1.183  0.5869 -2.0859  3.5029
 5427SOL     OW27742   1.205   4.034   3.879 -0.3106  0.4768 -0.5643
 5427SOL    HW127743   1.297   4.018   3.859 -0.5228  1.6460 -2.4511
 5427SOL    HW227744   1.175   4.041   3.789  0.6928 -0.5383 -0.9673
 5428SOL     OW27745   4.171   1.664  11.689 -0.4263  0.4078 -0.4921
 5428SOL    HW127746   4.119   1.648  11.768  2.4493  0.4489  1.3984
 5428SOL    HW227747   4.100   1.693  11.631 -1.4965 -0.5333  0.3470
 5429SOL     OW27748   3.343   1.577  11.524 -0.3246 -0.1718 -0.3038
 5429SOL    HW127749   3.299   1.539  11.600  1.8551 -1.2788  0.4264
 5429SOL    HW227750   3.372   1.657  11.567 -0.3546  0.4510 -1.4438
 5430SOL     OW27751   4.379   1.466   7.691 -0.2165 -0.0265 -0.1531
 5430SOL    HW127752   4.345   1.399   7.632 -0.7529 -0.2697  0.4330
 5430SOL    HW227753   4.457   1.490   7.640 -0.0345  1.9536  1.0453
 5431SOL     OW27754   0.266   0.677   6.507  0.0978  0.4189 -0.2309
 5431SOL    HW127755   0.345   0.724   6.535  0.3583  0.1013 -0.4381
 5431SOL    HW227756   0.242   0.612   6.573  3.3610  0.0562  0.5797
 5432SOL     OW27757   0.559   0.251   7.799 -0.0474 -0.1405 -0.2144
 5432SOL    HW127758   0.481   0.218   7.753 -0.8176  1.1363  0.1652
 5432SOL    HW227759   0.523   0.284   7.881  1.7614  0.8003  0.2104
 5433SOL     OW27760   1.464   3.264   9.272 -0.3850 -0.2708 -0.2132
 5433SOL    HW127761   1.379   3.227   9.249  0.3183 -0.8723 -1.7815
 5433SOL    HW227762   1.482   3.324   9.200  1.2224  1.0784  1.3098
 5434SOL     OW27763   4.669   2.414  13.366  0.1154 -0.2652  0.1597
 5434SOL    HW127764   4.672   2.361  13.445  2.3342 -0.3677  0.0172
 5434SOL    HW227765   0.024   2.374  13.326  1.2497  0.6612  1.4362
 5435SOL     OW27766   3.064   0.350   6.973 -0.5484  0.2654  0.0701
 5435SOL    HW127767   3.144   0.399   6.959 -0.8838  0.4452 -1.2541
 5435SOL    HW227768   3.061   0.298   6.892 -0.3825  2.6817 -1.4983
 5436SOL     OW27769   3.931   0.740   2.131 -1.0973 -0.1740  0.6496
 5436SOL    HW127770   3.938   0.833   2.152 -1.4546 -0.1183  0.5259
 5436SOL    HW227771   3.937   0.696   2.215 -3.3611  1.2628  1.5544
 5437SOL     OW27772   1.613   0.432  11.843 -0.7017 -0.5554 -0.2529
 5437SOL    HW127773   1.637   0.398  11.930 -1.9577  1.7821  1.0069
 5437SOL    HW227774   1.544   0.496  11.859  0.4392  0.2146  1.7018
 5438SOL     OW27775   3.740   1.829   7.314 -0.1858 -0.1242 -0.1039
 5438SOL    HW127776   3.803   1.895   7.343 -0.7215  0.4600 -0.2748
 5438SOL    HW227777   3.801   1.766   7.275 -1.9781 -1.6682 -0.4202
 5439SOL     OW27778   0.064   4.122   2.948 -0.3082 -0.0276  0.2830
 5439SOL    HW127779   0.110   4.170   2.879  0.7835  0.6331  1.4663
 5439SOL    HW227780   0.098   4.036   2.923 -0.9462 -0.5546  1.2361
 5440SOL     OW27781   3.953   2.504   5.110 -0.0186  0.1098 -0.2346
 5440SOL    HW127782   3.994   2.532   5.192 -0.7401 -1.4623  0.6784
 5440SOL    HW227783   3.890   2.575   5.098  0.0059  0.1571 -0.0880
 5441SOL     OW27784   4.161   1.241   3.560 -0.1790 -0.0251  0.2183
 5441SOL    HW127785   4.247   1.217   3.595  0.0425  1.4151  0.6904
 5441SOL    HW227786   4.191   1.290   3.483 -0.2766  0.7107  0.6427
 5442SOL     OW27787   1.637   0.854   3.006  0.2618 -0.1425  0.5359
 5442SOL    HW127788   1.614   0.889   3.092  1.8000  0.9664  0.4986
 5442SOL    HW227789   1.732   0.847   3.004  0.3703  1.8719 -1.0569
 5443SOL     OW27790   1.427   2.330  16.452  0.7431 -0.1927  0.6320
 5443SOL    HW127791   1.332   2.332  16.462  0.6859 -1.0896  0.2628
 5443SOL    HW227792   1.435   2.339  16.357 -0.6293  2.1368  0.7573
 5444SOL     OW27793   2.536   3.998   0.993  0.4912 -0.7658  0.2352
 5444SOL    HW127794   2.597   3.959   0.930  2.4730  0.2543  1.5327
 5444SOL    HW227795   2.596   4.012   1.066  1.1607 -1.2949 -0.2161
 5445SOL     OW27796   4.703   4.032   3.416  0.1409 -0.2341 -0.0511
 5445SOL    HW127797   4.664   4.073   3.339 -0.4779 -1.3035 -0.3155
 5445SOL    HW227798   0.060   3.993   3.379 -0.7652 -1.2986 -0.8724
 5446SOL     OW27799   3.139   4.611   5.221 -0.4102  0.7090 -0.7058
 5446SOL    HW127800   3.111   4.529   5.263  0.5556 -0.1731 -1.7626
 5446SOL    HW227801   3.067   4.667   5.250 -2.3629 -1.0990 -1.9717
 5447SOL     OW27802   1.575   2.401   6.321  0.4233 -0.6520  0.8616
 5447SOL    HW127803   1.604   2.486   6.354  0.1096  0.0051 -0.5469
 5447SOL    HW227804   1.532   2.424   6.239  1.3589  1.0117  0.8399
 5448SOL     OW27805   1.688   1.747   5.559  0.3840  0.8894  0.0007
 5448SOL    HW127806   1.612   1.697   5.529 -1.1874  2.6248  1.0967
 5448SOL    HW227807   1.762   1.692   5.533  0.4553  0.9832  0.0048
 5449SOL     OW27808   0.379   1.325   4.740  0.5315 -0.1786  0.0207
 5449SOL    HW127809   0.426   1.408   4.735 -0.6896  0.6500  2.3096
 5449SOL    HW227810   0.426   1.256   4.694  0.7784  0.3080 -0.4560
 5450SOL     OW27811   3.069   1.249  11.014 -0.2639  0.4185 -0.3631
 5450SOL    HW127812   3.147   1.298  10.989 -0.7623  0.6245 -1.5127
 5450SOL    HW227813   3.016   1.254  10.934  0.6316 -0.0246 -0.9907
 5451SOL     OW27814   4.140   1.995   9.323 -0.3214  0.4417 -0.0664
 5451SOL    HW127815   4.129   1.900   9.315 -0.7431  0.5837 -1.1932
 5451SOL    HW227816   4.124   2.033   9.237 -0.3773  2.4886  0.8703
 5452SOL     OW27817   3.897   4.487   0.562 -0.0727  0.4202 -0.1069
 5452SOL    HW127818   3.951   4.418   0.524  0.1353  1.2501 -1.3249
 5452SOL    HW227819   3.808   4.451   0.565  0.3042 -0.7043 -2.9112
 5453SOL     OW27820   0.098   0.523  15.187 -0.2596  0.1190  0.0007
 5453SOL    HW127821   0.187   0.545  15.161 -0.4480  1.9089  0.8079
 5453SOL    HW227822   0.060   0.611  15.196 -0.7138 -0.0836  0.1167
 5454SOL     OW27823   2.662   4.095   8.926  0.5794 -0.1650 -0.0569
 5454SOL    HW127824   2.754   4.106   8.902  0.9145 -1.8117  0.5026
 5454SOL    HW227825   2.629   4.035   8.859  0.4239  0.1153 -0.2335
 5455SOL     OW27826   0.402   1.567   8.187  0.0833 -0.6025 -0.2940
 5455SOL    HW127827   0.347   1.492   8.206  0.1675 -0.5199  0.2849
 5455SOL    HW227828   0.488   1.528   8.174  0.5300 -0.0271  0.9169
 5456SOL     OW27829   2.011   1.689  12.571 -0.0415 -0.0179 -0.3933
 5456SOL    HW127830   2.081   1.663  12.511  1.4109  1.0635  0.7837
 5456SOL    HW227831   2.055   1.753  12.628  0.1246  0.3937 -0.9894
 5457SOL     OW27832   2.187   0.416   7.659  0.7614 -0.2939 -0.0778
 5457SOL    HW127833   2.266   0.426   7.607 -0.3916 -0.5614 -1.8881
 5457SOL    HW227834   2.228   0.426   7.745  0.3478 -2.3062  0.3575
 5458SOL     OW27835   1.285   2.840   3.282  0.2714 -0.2978  0.0874
 5458SOL    HW127836   1.205   2.815   3.329  0.0660  3.0133  1.5510
 5458SOL    HW227837   1.240   2.890   3.213  1.8952  1.2886  0.1926
 5459SOL     OW27838   2.571   1.378   1.391  0.0904 -0.1143 -0.0741
 5459SOL    HW127839   2.563   1.301   1.335  1.0437 -0.7774  0.6963
 5459SOL    HW227840   2.666   1.382   1.401  0.0651 -1.8543  0.8052
 5460SOL     OW27841   3.676   4.634   9.449 -0.5119 -0.2470 -0.3761
 5460SOL    HW127842   3.635   4.556   9.411 -1.2509  0.5316 -1.1901
 5460SOL    HW227843   3.653   4.700   9.383  0.1231  0.4777  0.1267
 5461SOL     OW27844   3.859   0.176   1.834  0.6502  0.1347 -0.3688
 5461SOL    HW127845   3.939   0.143   1.794 -0.0789 -2.5211  0.3587
 5461SOL    HW227846   3.796   0.113   1.799 -0.7361  0.6714  1.1566
 5462SOL     OW27847   4.298   4.423   9.300  0.5637  0.4195  0.5306
 5462SOL    HW127848   4.371   4.479   9.273  0.4687 -0.1165 -0.8675
 5462SOL    HW227849   4.346   4.377   9.369 -1.9497 -0.0918  1.9336
 5463SOL     OW27850   1.399   1.155   3.095 -0.2868 -0.1220 -0.0829
 5463SOL    HW127851   1.484   1.131   3.130 -1.3103  0.1786  2.5850
 5463SOL    HW227852   1.343   1.079   3.113  3.8407 -2.9228  0.6972
 5464SOL     OW27853   3.744   0.666  10.206  0.1847  0.0011  0.1842
 5464SOL    HW127854   3.736   0.648  10.112  0.0834 -0.7155  0.3276
 5464SOL    HW227855   3.659   0.638  10.240 -0.0348 -0.0046 -0.3766
 5465SOL     OW27856   3.993   3.098  13.941  0.9825  0.1532 -0.1859
 5465SOL    HW127857   3.986   3.003  13.932 -1.8063  0.3897 -0.3857
 5465SOL    HW227858   4.018   3.104  14.033  1.0877  0.9916 -0.2689
 5466SOL     OW27859   0.894   3.919  13.210 -0.1890  0.0465  0.9743
 5466SOL    HW127860   0.981   3.879  13.215  0.3309  0.8109 -2.1622
 5466SOL    HW227861   0.857   3.871  13.137  0.2910 -0.2868  0.9492
 5467SOL     OW27862   0.777   3.171   8.387 -0.6819  0.2213 -0.2985
 5467SOL    HW127863   0.842   3.136   8.447 -0.2036  0.4680 -0.6801
 5467SOL    HW227864   0.704   3.109   8.390  0.6989 -1.3423  0.7901
 5468SOL     OW27865   1.283   2.180   2.931  0.4822  0.1906  0.2606
 5468SOL    HW127866   1.368   2.215   2.955  0.3222 -0.6887  2.1043
 5468SOL    HW227867   1.223   2.237   2.978 -0.5377 -1.1304  0.5605
 5469SOL     OW27868   2.059   1.506   1.241  0.3390  0.0172  0.0876
 5469SOL    HW127869   2.111   1.585   1.234  1.1326 -0.4351  0.8251
 5469SOL    HW227870   2.039   1.516   1.334  1.3800 -2.4315  0.5930
 5470SOL     OW27871   0.661   1.331   2.574 -0.4230  0.1552  0.1095
 5470SOL    HW127872   0.718   1.307   2.501 -2.4071  0.4354 -1.5141
 5470SOL    HW227873   0.705   1.415   2.591 -1.3090  0.1647  2.3821
 5471SOL     OW27874   2.055   0.131  15.663  0.5992 -0.1533  0.0266
 5471SOL    HW127875   2.130   0.126  15.604  0.0352 -1.5974 -0.5840
 5471SOL    HW227876   2.007   0.205  15.627 -1.2051  0.1263  3.0146
 5472SOL     OW27877   3.050   4.041  17.414 -0.2869 -0.3643  0.5097
 5472SOL    HW127878   2.966   4.084  17.400 -0.4456 -0.7506  0.2557
 5472SOL    HW227879   3.027   3.961  17.365 -0.8872  0.0657  0.0832
 5473SOL     OW27880   2.543   1.962   5.678 -0.0942 -0.1054  0.4361
 5473SOL    HW127881   2.611   2.024   5.651 -0.0959 -0.0948  0.4562
 5473SOL    HW227882   2.499   2.005   5.751 -0.4955 -1.8170  1.2118
 5474SOL     OW27883   0.868   1.242  13.934 -0.3185 -0.0030 -0.4807
 5474SOL    HW127884   0.941   1.301  13.914 -1.0551  1.1779  0.3702
 5474SOL    HW227885   0.808   1.237  13.860  0.8981  0.2788 -1.4816
 5475SOL     OW27886   1.263   3.764   0.700  0.0089  0.5420 -0.3387
 5475SOL    HW127887   1.293   3.717   0.778  0.2650  1.4627  0.1168
 5475SOL    HW227888   1.169   3.773   0.720  0.5950  2.8409  1.2758
 5476SOL     OW27889   3.723   0.172   5.982 -0.2196  0.0872 -0.1845
 5476SOL    HW127890   3.780   0.166   5.905 -0.6468  0.2890 -0.5166
 5476SOL    HW227891   3.651   0.231   5.959  2.0149  2.4585 -1.0257
 5477SOL     OW27892   1.471   4.074   2.486  0.1808 -0.1743 -0.1293
 5477SOL    HW127893   1.501   4.104   2.572  0.7885 -1.5017  0.1175
 5477SOL    HW227894   1.536   4.009   2.458 -0.5175 -0.5105 -0.9689
 5478SOL     OW27895   4.183   0.979   4.591 -0.6927 -0.0772 -0.1028
 5478SOL    HW127896   4.249   1.047   4.593 -1.2835  0.4772  0.7075
 5478SOL    HW227897   4.118   1.034   4.634  0.4841  1.6868 -0.5900
 5479SOL     OW27898   4.166   4.325   2.289  0.0202  0.0782 -0.1387
 5479SOL    HW127899   4.252   4.284   2.298 -0.1302  0.1098  1.5352
 5479SOL    HW227900   4.110   4.247   2.295  0.4077 -0.1560  0.3889
 5480SOL     OW27901   1.972   2.373   1.871  0.5639  0.6025  0.0552
 5480SOL    HW127902   1.919   2.313   1.819  1.7276 -0.2627 -0.1295
 5480SOL    HW227903   2.054   2.326   1.887  0.7513  0.8684 -0.1429
 5481SOL     OW27904   2.855   4.015   9.442  0.5145  0.0866  0.1351
 5481SOL    HW127905   2.875   4.099   9.483  1.8229 -0.4993  0.6858
 5481SOL    HW227906   2.862   3.945   9.507 -0.4767  1.6273  1.9023
 5482SOL     OW27907   0.917   2.016   0.109 -0.6607  0.6390  0.2375
 5482SOL    HW127908   1.009   1.988   0.112 -0.5095  1.0965 -0.2865
 5482SOL    HW227909   0.910   2.003   0.204  0.1759 -0.0425  0.2101
 5483SOL     OW27910   4.583   3.771   6.434 -0.6657  0.7253  0.7833
 5483SOL    HW127911   4.630   3.713   6.494 -0.1646  0.3284  0.0042
 5483SOL    HW227912   4.528   3.708   6.388  2.2042 -2.1946  1.3274
 5484SOL     OW27913   1.688   1.378   4.199  0.2835  0.0761  0.0983
 5484SOL    HW127914   1.709   1.312   4.133 -2.4471 -1.3586  0.6494
 5484SOL    HW227915   1.601   1.403   4.170 -0.1252 -0.6123  0.7241
 5485SOL     OW27916   2.473   1.585   1.233 -0.4228  0.1339 -1.0620
 5485SOL    HW127917   2.475   1.554   1.143  1.8245  1.5733 -1.4963
 5485SOL    HW227918   2.505   1.518   1.292 -1.3806  0.9981  0.4629
 5486SOL     OW27919   3.236   3.163   1.162 -0.3692  0.5090 -0.1009
 5486SOL    HW127920   3.192   3.221   1.100  0.9241  1.0130 -0.5397
 5486SOL    HW227921   3.172   3.100   1.196  1.2403 -1.2510 -0.3230
 5487SOL     OW27922   3.306   2.522   6.062  0.0391 -0.1032 -0.5238
 5487SOL    HW127923   3.337   2.596   6.010 -0.8083  0.6115 -0.0339
 5487SOL    HW227924   3.215   2.547   6.079 -0.0647 -0.1793 -0.9792
 5488SOL     OW27925   4.417   0.978   6.931  0.4469  0.0961 -0.2704
 5488SOL    HW127926   4.379   1.020   6.854 -3.3420 -0.0578  1.5202
 5488SOL    HW227927   4.468   0.905   6.895  0.1378  0.5277 -1.6058
 5489SOL     OW27928   3.892   4.411  16.710 -0.3277  0.2291  0.6085
 5489SOL    HW127929   3.896   4.495  16.755  0.7429 -0.0878  1.0973
 5489SOL    HW227930   3.819   4.375  16.760  0.2915  0.0325  1.3723
 5490SOL     OW27931   1.962   1.150   5.420 -0.1067 -0.5198  0.1967
 5490SOL    HW127932   2.046   1.128   5.380 -0.5184  1.2662 -1.6344
 5490SOL    HW227933   1.944   1.232   5.375 -1.0495 -0.2964  0.9739
 5491SOL     OW27934   3.848   2.905   6.380 -0.2872 -0.7085 -0.0058
 5491SOL    HW127935   3.785   2.875   6.445  0.7954  0.0115  1.3649
 5491SOL    HW227936   3.921   2.847   6.402  2.2029  2.5709  0.3392
 5492SOL     OW27937   1.793   3.473   6.302  0.6819  0.3012  0.4710
 5492SOL    HW127938   1.800   3.568   6.316  2.7499  0.1262  0.5524
 5492SOL    HW227939   1.699   3.456   6.291  0.3831  2.5385 -0.5536
 5493SOL     OW27940   1.385   4.001   8.873 -1.2944 -0.5430 -0.5214
 5493SOL    HW127941   1.352   3.924   8.920 -1.1395  0.3658  1.0764
 5493SOL    HW227942   1.449   3.959   8.815 -0.8250  1.8839 -1.7796
 5494SOL     OW27943   2.444   2.736  12.105  0.2607  0.0169  0.0281
 5494SOL    HW127944   2.420   2.825  12.132 -1.4696 -0.1588 -0.9655
 5494SOL    HW227945   2.492   2.716  12.185 -0.3448  1.4965  0.7553
 5495SOL     OW27946   3.337   0.506   5.617  0.7933  0.1757 -0.6864
 5495SOL    HW127947   3.356   0.590   5.576  0.8260 -0.0085 -1.0492
 5495SOL    HW227948   3.381   0.518   5.702  0.0066 -1.1213 -0.0988
 5496SOL     OW27949   3.630   4.259   6.875  0.3036 -0.2759  0.0913
 5496SOL    HW127950   3.613   4.166   6.893  1.1974 -0.5953 -0.7094
 5496SOL    HW227951   3.720   4.259   6.843  0.4168  1.6152  0.3999
 5497SOL     OW27952   3.121   0.360  11.800 -0.7267  0.1400 -0.1573
 5497SOL    HW127953   3.028   0.363  11.776 -0.8869  1.7370  0.7029
 5497SOL    HW227954   3.117   0.414  11.878  1.0387 -1.2665  0.9021
 5498SOL     OW27955   3.477   1.467   0.130 -0.5506 -0.2460  0.2438
 5498SOL    HW127956   3.414   1.499   0.066  2.8386 -1.6646 -3.7615
 5498SOL    HW227957   3.435   1.504   0.208  1.5277  0.3569  1.0850
 5499SOL     OW27958   4.639   1.626   4.192 -0.5805  0.5606 -0.3148
 5499SOL    HW127959   4.559   1.623   4.244 -1.8790 -1.2008 -2.3810
 5499SOL    HW227960   4.592   1.618   4.109  0.7099  3.7727 -1.3525
 5500SOL     OW27961   2.654   4.028   2.971  0.0989 -0.1247  0.5316
 5500SOL    HW127962   2.636   4.091   2.901  1.2313 -0.2683  0.1057
 5500SOL    HW227963   2.571   3.980   2.973 -0.1004  0.2502  1.1394
 5501SOL     OW27964   2.905   3.380  10.460 -0.2241  0.7807  0.0163
 5501SOL    HW127965   2.910   3.456  10.518 -1.5973 -1.3745  2.9789
 5501SOL    HW227966   2.914   3.302  10.514 -0.8697  1.2204  0.7726
 5502SOL     OW27967   4.488   0.180   5.344 -0.1792  0.0274  0.4179
 5502SOL    HW127968   4.414   0.202   5.288  1.9133 -0.7815 -2.6673
 5502SOL    HW227969   4.555   0.209   5.282 -1.2541  0.1506 -0.6909
 5503SOL     OW27970   3.650   1.808  10.246  0.5194  0.0887  0.4212
 5503SOL    HW127971   3.600   1.876  10.289 -0.2188 -1.3185  1.7801
 5503SOL    HW227972   3.705   1.863  10.190  0.0871 -3.0344 -3.1479
 5504SOL     OW27973   4.453   0.910   8.643  0.0357  0.2167  0.0979
 5504SOL    HW127974   4.515   0.913   8.716 -1.1901  1.7561  1.0738
 5504SOL    HW227975   4.431   1.003   8.632 -1.9725 -0.1814  0.7266
 5505SOL     OW27976   4.412   4.676   5.173 -0.0594 -0.0030 -0.1784
 5505SOL    HW127977   4.360   4.598   5.187  0.3163 -0.0899  0.7244
 5505SOL    HW227978   4.341   0.012   5.199 -0.2170  1.3828 -3.6245
 5506SOL     OW27979   3.530   2.421   7.741  0.0737 -0.1488  0.7298
 5506SOL    HW127980   3.560   2.331   7.752  0.9496 -0.1341 -1.5956
 5506SOL    HW227981   3.608   2.478   7.736  0.2156 -0.4517 -0.3984
 5507SOL     OW27982   2.880   1.129  11.172 -0.6373 -0.3892  0.0363
 5507SOL    HW127983   2.954   1.125  11.111  0.1077 -1.9997  1.0285
 5507SOL    HW227984   2.843   1.211  11.141 -1.9479 -0.9613  0.0815
 5508SOL     OW27985   2.373   4.296  11.258 -0.5645 -0.8286 -0.1026
 5508SOL    HW127986   2.376   4.205  11.229 -2.4298 -0.6290 -0.9482
 5508SOL    HW227987   2.298   4.303  11.317 -1.2244  0.4093 -1.1029
 5509SOL     OW27988   0.059   2.281   6.006  0.2493  0.3486 -0.2468
 5509SOL    HW127989   0.153   2.281   5.987  0.4720  1.0208  0.8569
 5509SOL    HW227990   0.050   2.307   6.098  1.6802 -2.9042  0.8220
 5510SOL     OW27991   3.671   3.786   0.739  0.3375  0.2083 -0.2383
 5510SOL    HW127992   3.718   3.775   0.821  0.4628 -0.4382 -0.3946
 5510SOL    HW227993   3.632   3.868   0.766  1.0656  0.7462 -0.8080
 5511SOL     OW27994   1.185   1.173  11.087 -0.2931 -0.4389 -0.0221
 5511SOL    HW127995   1.234   1.114  11.029 -1.1488 -0.8701 -0.3189
 5511SOL    HW227996   1.157   1.115  11.158  1.3754 -2.7275 -1.2271
 5512SOL     OW27997   1.482   0.633   6.838  0.1127  0.6882 -0.1489
 5512SOL    HW127998   1.461   0.541   6.822  1.5141  0.9386 -3.3699
 5512SOL    HW227999   1.510   0.671   6.754 -1.3866  2.2622  0.0605
 5513SOL     OW28000   1.447   0.978   4.151  0.3018  0.1933  0.0461
 5513SOL    HW128001   1.446   1.013   4.062 -1.1044  1.5086  0.5817
 5513SOL    HW228002   1.362   0.998   4.189  0.0814 -0.8361  0.1153
 5514SOL     OW28003   1.764   0.368  12.083  0.2646 -0.1012 -0.2901
 5514SOL    HW128004   1.729   0.450  12.117 -0.1266 -0.2401 -0.3662
 5514SOL    HW228005   1.856   0.383  12.106 -0.6224  3.6554  0.7516
 5515SOL     OW28006   3.960   0.002   2.990 -0.2526  0.0734 -0.4682
 5515SOL    HW128007   3.967   0.079   3.047  0.7351  0.8474 -1.6552
 5515SOL    HW228008   3.936   4.656   3.052 -0.1808  0.1438 -0.3611
 5516SOL     OW28009   3.712   2.615   7.734 -0.4396  0.4340  0.0874
 5516SOL    HW128010   3.800   2.591   7.764 -0.0604  1.1862 -0.4331
 5516SOL    HW228011   3.692   2.672   7.808  2.3481  2.3649 -0.6790
 5517SOL     OW28012   0.166   2.738   7.947  0.7640  0.3055 -0.3275
 5517SOL    HW128013   0.137   2.772   8.032 -0.1099 -0.6710 -0.2317
 5517SOL    HW228014   0.105   2.789   7.894 -1.2141 -0.7837  0.9127
 5518SOL     OW28015   3.844   2.071   9.097 -0.0460  0.2076 -0.0279
 5518SOL    HW128016   3.774   2.131   9.120  0.0127 -0.0013  0.7086
 5518SOL    HW228017   3.812   2.052   9.009 -0.1374 -2.4426  0.5568
 5519SOL     OW28018   1.610   1.566  13.659  0.3301 -0.1162  0.4652
 5519SOL    HW128019   1.586   1.476  13.641 -0.0776  0.0050  0.4008
 5519SOL    HW228020   1.587   1.598  13.572  0.5562 -1.9948 -0.2735
 5520SOL     OW28021   1.290   1.795   9.696  0.8208 -0.6697  0.4547
 5520SOL    HW128022   1.370   1.748   9.670  0.8118 -0.6694  0.4259
 5520SOL    HW228023   1.248   1.821   9.614 -0.0247 -1.7579  0.5450
 5521SOL     OW28024   0.613   1.466  15.220  0.4797 -0.1483 -0.1359
 5521SOL    HW128025   0.607   1.548  15.270  3.8829  1.1827 -1.8901
 5521SOL    HW228026   0.593   1.397  15.283 -1.5323  1.3482  0.8392
 5522SOL     OW28027   3.924   0.012   4.276 -0.0368  0.1727 -0.0582
 5522SOL    HW128028   3.841   0.031   4.320 -1.0863 -1.6550 -1.2591
 5522SOL    HW228029   3.959   0.101   4.280  0.1481  0.0456  1.1037
 5523SOL     OW28030   2.199   3.677  11.665 -0.7212 -0.0811  0.4716
 5523SOL    HW128031   2.133   3.738  11.632  0.6220  1.5956  0.8965
 5523SOL    HW228032   2.231   3.725  11.742  0.5971  0.1733 -0.2452
 5524SOL     OW28033   0.567   4.354   3.772 -0.1749  0.3359  0.9327
 5524SOL    HW128034   0.489   4.309   3.740  0.5791 -0.3148  0.0087
 5524SOL    HW228035   0.616   4.350   3.690 -1.7719 -1.4690  0.0653
 5525SOL     OW28036   1.042   2.282  10.572 -0.2718  0.0598  0.6746
 5525SOL    HW128037   1.085   2.328  10.643 -2.1169  1.2159  1.0378
 5525SOL    HW228038   0.960   2.257  10.614 -0.7736 -1.0406 -0.9298
 5526SOL     OW28039   2.164   2.064   2.618  0.2333  0.6398 -0.3093
 5526SOL    HW128040   2.138   2.148   2.656 -0.1154  0.4004 -0.0316
 5526SOL    HW228041   2.237   2.093   2.561  1.2335  0.4756  0.8933
 5527SOL     OW28042   4.448   3.818  13.673 -0.0912  0.3491  0.1183
 5527SOL    HW128043   4.422   3.770  13.752  2.2095  0.8961  1.2302
 5527SOL    HW228044   4.441   3.757  13.600 -1.1115  1.8565 -1.0432
 5528SOL     OW28045   3.929   1.744   7.149  0.2187 -0.1330 -0.3579
 5528SOL    HW128046   3.925   1.787   7.064 -0.4675  0.3325 -0.0938
 5528SOL    HW228047   4.012   1.772   7.189 -0.8038  0.0792  1.6010
 5529SOL     OW28048   2.456   2.334   4.248  0.0612 -0.3950  0.4961
 5529SOL    HW128049   2.382   2.316   4.190  1.7962  2.4436 -2.5369
 5529SOL    HW228050   2.496   2.414   4.213 -1.0789  0.1343  0.4046
 5530SOL     OW28051   1.581   1.449   6.821 -0.5624  0.0406 -0.3933
 5530SOL    HW128052   1.509   1.506   6.847  1.2174  2.4507 -0.7781
 5530SOL    HW228053   1.635   1.441   6.900  1.1610 -0.1164 -1.5669
 5531SOL     OW28054   3.503   2.517   6.274 -0.2681  0.5103  0.2594
 5531SOL    HW128055   3.577   2.562   6.232 -0.7604 -0.0361 -1.1825
 5531SOL    HW228056   3.429   2.541   6.219 -2.0318 -1.6761  1.7351
 5532SOL     OW28057   1.557   3.797   1.089 -0.1769  0.0379 -0.4501
 5532SOL    HW128058   1.593   3.869   1.038 -3.0211 -0.1428 -2.7216
 5532SOL    HW228059   1.610   3.802   1.168  0.1306 -0.9088 -0.5916
 5533SOL     OW28060   2.923   3.159   2.721  0.6422  0.4534  0.1324
 5533SOL    HW128061   2.967   3.140   2.638  0.6688 -0.8682  0.4541
 5533SOL    HW228062   2.913   3.073   2.761 -2.2643  0.3495 -0.8129
 5534SOL     OW28063   0.389   1.343   7.226  0.1514  0.2777 -0.0219
 5534SOL    HW128064   0.418   1.399   7.298  2.3649  0.1246 -0.8095
 5534SOL    HW228065   0.451   1.270   7.225  0.4601  0.5371  0.2879
 5535SOL     OW28066   3.891   0.773   3.436  0.3537  0.2044  0.3325
 5535SOL    HW128067   3.974   0.728   3.426  0.3960  0.5950 -1.0271
 5535SOL    HW228068   3.927   0.860   3.452  0.6131  0.1024  0.2907
 5536SOL     OW28069   0.263   2.881   7.525  0.2614 -0.3839 -0.0249
 5536SOL    HW128070   0.327   2.943   7.559  1.3508 -1.5271  0.0418
 5536SOL    HW228071   0.198   2.946   7.500  2.0334  1.3422 -0.1518
 5537SOL     OW28072   3.706   0.783   6.205  0.3386  0.1540  0.0211
 5537SOL    HW128073   3.769   0.732   6.257  1.9754  3.4379  1.2658
 5537SOL    HW228074   3.669   0.827   6.282 -0.5056 -1.2308  0.4153
 5538SOL     OW28075   2.287   1.598  15.552 -0.1510  0.5205  0.7952
 5538SOL    HW128076   2.289   1.693  15.557 -0.1615  0.6077 -0.8852
 5538SOL    HW228077   2.233   1.591  15.473 -0.2150 -2.1075  1.0541
 5539SOL     OW28078   1.550   3.527   4.185 -0.3631  0.9197 -0.0831
 5539SOL    HW128079   1.482   3.523   4.117  0.2187 -0.7170 -0.5639
 5539SOL    HW228080   1.528   3.442   4.224  0.9517 -0.7166 -2.9408
 5540SOL     OW28081   4.483   1.152   3.043 -0.6615  0.3745 -0.0055
 5540SOL    HW128082   4.424   1.213   3.087 -1.1683 -0.0671 -0.0774
 5540SOL    HW228083   4.430   1.073   3.055 -0.1391 -0.0451 -0.4748
 5541SOL     OW28084   1.840   2.821   0.918 -0.1369  0.5732  0.4038
 5541SOL    HW128085   1.934   2.832   0.934  0.3771 -0.7542 -1.8287
 5541SOL    HW228086   1.818   2.763   0.991  1.3531 -0.2881  0.1739
 5542SOL     OW28087   0.504   2.517  12.317  0.1596 -0.1580  0.3408
 5542SOL    HW128088   0.482   2.547  12.229  1.6369  0.9333  0.3473
 5542SOL    HW228089   0.450   2.438  12.316 -2.9165  1.9536  0.6941
 5543SOL     OW28090   0.781   0.286   7.055 -0.4096  0.8034 -0.6673
 5543SOL    HW128091   0.731   0.254   7.131  1.7510  2.0886  1.3100
 5543SOL    HW228092   0.710   0.343   7.025 -1.3515  1.3782  2.6153
 5544SOL     OW28093   1.234   3.061   4.607 -0.3054 -0.3549  0.1771
 5544SOL    HW128094   1.276   3.130   4.659 -1.6857  0.4249  0.2407
 5544SOL    HW228095   1.310   3.033   4.556 -0.5176  0.0896 -0.3724
 5545SOL     OW28096   1.457   4.575   0.070  0.4810  0.2258 -0.6601
 5545SOL    HW128097   1.481   4.551   0.160  0.9876 -0.3087 -0.9361
 5545SOL    HW228098   1.396   4.645   0.091  1.8175  1.4748 -0.9294
 5546SOL     OW28099   3.652   2.251   9.199 -0.0013  0.3378 -0.3990
 5546SOL    HW128100   3.635   2.223   9.288 -0.7727 -1.7595 -1.2127
 5546SOL    HW228101   3.683   2.339   9.221 -1.0986  0.6670 -0.1923
 5547SOL     OW28102   4.712   3.468   3.779 -0.7592 -0.1559  0.4466
 5547SOL    HW128103   0.020   3.380   3.760  0.4636 -0.4405  3.7556
 5547SOL    HW228104   0.067   3.523   3.794 -0.5853 -0.2446 -0.1270
 5548SOL     OW28105   3.337   3.107   4.526 -0.5833  0.0021 -0.3914
 5548SOL    HW128106   3.250   3.132   4.559 -0.8038 -0.7656 -0.3970
 5548SOL    HW228107   3.377   3.193   4.536  0.1389 -0.5615  1.5513
 5549SOL     OW28108   3.777   1.345   4.492  0.4138  0.5891 -0.5538
 5549SOL    HW128109   3.712   1.276   4.475  0.3639  0.8137 -1.2478
 5549SOL    HW228110   3.751   1.369   4.581  0.0151  0.0440 -0.5176
 5550SOL     OW28111   0.344   0.820  14.367  0.4661  0.1814 -0.0861
 5550SOL    HW128112   0.288   0.747  14.395 -0.4644  0.8705 -0.1514
 5550SOL    HW228113   0.367   0.871  14.444  2.3410 -3.4902  1.8258
 5551SOL     OW28114   0.482   3.963   2.112  0.6287  0.1728  0.5745
 5551SOL    HW128115   0.570   3.955   2.074  0.1286 -1.7652 -0.1899
 5551SOL    HW228116   0.432   3.895   2.067  1.4084  0.1853 -0.3188
 5552SOL     OW28117   4.241   1.579  16.297  0.0025  0.1833 -0.5624
 5552SOL    HW128118   4.247   1.605  16.205 -0.4643 -0.2858 -0.7224
 5552SOL    HW228119   4.216   1.664  16.334 -1.0368 -0.0449 -0.7641
 5553SOL     OW28120   2.475   3.233   5.812  0.4414  0.5530  0.3564
 5553SOL    HW128121   2.429   3.238   5.728  0.7170  3.2243  0.3761
 5553SOL    HW228122   2.519   3.148   5.806  0.5329  0.5154  1.5639
 5554SOL     OW28123   0.008   1.150   8.455  0.3617 -0.8055  0.2414
 5554SOL    HW128124   0.060   1.084   8.410  0.1261 -1.3227  0.7199
 5554SOL    HW228125   4.722   1.205   8.377  0.1925 -0.9894  0.1334
 5555SOL     OW28126   2.176   0.586   2.342  0.1839 -0.6414  0.1255
 5555SOL    HW128127   2.098   0.588   2.287 -0.1253 -0.5660  0.5710
 5555SOL    HW228128   2.143   0.650   2.404  0.5047  1.2986 -1.7008
 5556SOL     OW28129   3.835   0.529   8.526  0.1231  0.3590  0.1836
 5556SOL    HW128130   3.741   0.514   8.511 -0.0189 -0.1186  1.5459
 5556SOL    HW228131   3.850   0.602   8.586 -1.5267 -0.7905  1.9922
 5557SOL     OW28132   2.912   1.826   8.985 -0.2285  0.0587  0.0022
 5557SOL    HW128133   2.979   1.762   8.962  0.3943  1.8112 -2.9888
 5557SOL    HW228134   2.906   1.879   8.906 -1.0074 -1.8779 -1.2348
 5558SOL     OW28135   0.356   0.275   7.233 -0.0556  0.3505 -0.0510
 5558SOL    HW128136   0.396   0.341   7.289 -0.8766  0.8728 -0.0888
 5558SOL    HW228137   0.381   0.193   7.277  0.2321 -0.4005 -1.6137
 5559SOL     OW28138   4.027   3.052   3.148  0.4256  0.0883 -0.4532
 5559SOL    HW128139   4.028   3.044   3.243  1.5065 -0.8837 -0.5438
 5559SOL    HW228140   3.934   3.069   3.134 -0.1535 -1.2667  1.7636
 5560SOL     OW28141   0.597   3.329  17.133 -0.0153  0.0434  0.2127
 5560SOL    HW128142   0.553   3.294  17.055 -0.9220  1.7715 -0.0459
 5560SOL    HW228143   0.649   3.396  17.090 -0.2299  0.6628  0.9213
 5561SOL     OW28144   0.164   1.830   4.471  0.2633 -0.3406 -0.0103
 5561SOL    HW128145   0.128   1.914   4.502 -0.0845 -1.1500  1.7701
 5561SOL    HW228146   0.228   1.808   4.538  0.3395 -0.2855 -0.0650
 5562SOL     OW28147   4.466   2.461   7.593 -0.1498  0.3337  0.2755
 5562SOL    HW128148   4.423   2.379   7.618 -2.2949  1.6034  0.7785
 5562SOL    HW228149   4.480   2.451   7.499 -1.8233 -0.2500  0.0819
 5563SOL     OW28150   1.002   0.080  11.375  0.0326  0.2404 -0.4510
 5563SOL    HW128151   0.917   0.038  11.383  1.3924 -2.3539  0.3575
 5563SOL    HW228152   1.060   0.009  11.347 -0.4677 -0.3481  0.0378
 5564SOL     OW28153   3.379   0.497   4.902 -0.2620 -0.3778 -0.0441
 5564SOL    HW128154   3.451   0.553   4.930  0.7251 -0.5905 -2.1431
 5564SOL    HW228155   3.320   0.496   4.977 -0.4064  1.5691 -0.1332
 5565SOL     OW28156   2.746   0.706   7.599  0.6385  0.0010 -0.3192
 5565SOL    HW128157   2.825   0.748   7.633  0.1026  1.4365 -0.8556
 5565SOL    HW228158   2.770   0.672   7.513 -2.8980  1.4802 -1.8741
 5566SOL     OW28159   3.548   3.756  16.805  0.3387 -0.0596 -0.5646
 5566SOL    HW128160   3.508   3.836  16.839  0.5126  1.4473 -3.8945
 5566SOL    HW228161   3.490   3.689  16.841  0.5984  0.9941  1.8127
 5567SOL     OW28162   1.999   0.678  12.200 -0.2598 -0.0749 -0.1922
 5567SOL    HW128163   1.963   0.715  12.280  0.9663  1.3625 -0.3048
 5567SOL    HW228164   2.013   0.757  12.147  0.2024 -0.1741 -0.2185
 5568SOL     OW28165   3.134   3.829  12.798 -0.4794 -0.3881 -0.7046
 5568SOL    HW128166   3.106   3.888  12.868 -0.2898 -1.0266 -0.0919
 5568SOL    HW228167   3.100   3.748  12.836 -2.2448 -0.3647 -2.2263
 5569SOL     OW28168   1.594   2.929   2.555  0.6809  0.1053 -0.7899
 5569SOL    HW128169   1.621   2.837   2.555 -0.1479 -0.1348 -2.0557
 5569SOL    HW228170   1.499   2.929   2.547  0.5530  0.6790  0.8213
 5570SOL     OW28171   3.210   3.944  13.182  0.4359  0.1240  0.5066
 5570SOL    HW128172   3.229   4.037  13.179 -0.5136  0.3439  1.2859
 5570SOL    HW228173   3.264   3.911  13.110 -1.2394 -0.0464 -0.6708
 5571SOL     OW28174   1.048   4.599   9.062 -0.4316 -0.6744 -0.9954
 5571SOL    HW128175   1.114   4.551   9.012  1.0689 -0.5382  0.8546
 5571SOL    HW228176   0.972   4.579   9.007 -0.2363  0.1021 -1.5528
 5572SOL     OW28177   1.399   0.522   3.444 -0.1990 -0.4582 -0.3009
 5572SOL    HW128178   1.393   0.490   3.534 -1.1325 -0.1775 -0.2680
 5572SOL    HW228179   1.456   0.455   3.406 -1.1680 -0.3404 -1.9596
 5573SOL     OW28180   4.359   0.582   5.622 -0.5003  0.2457 -0.5834
 5573SOL    HW128181   4.437   0.635   5.636 -0.3334  0.7221 -3.3998
 5573SOL    HW228182   4.360   0.572   5.527  0.2820 -0.4088 -0.5103
 5574SOL     OW28183   3.430   1.034  12.797  0.4073  0.2422  0.7931
 5574SOL    HW128184   3.483   0.957  12.778 -2.0504 -0.7586 -2.1276
 5574SOL    HW228185   3.484   1.103  12.760  1.6279 -0.1854  1.7903
 5575SOL     OW28186   3.074   4.001   2.547 -0.1870  0.1068  0.5187
 5575SOL    HW128187   3.121   4.073   2.589  1.8457 -0.1644 -1.2941
 5575SOL    HW228188   3.039   3.956   2.624 -0.8504  0.4839  0.4379
 5576SOL     OW28189   3.159   1.264   6.333  0.0059 -0.0891  0.2078
 5576SOL    HW128190   3.081   1.279   6.279 -1.4499 -0.5796  2.1550
 5576SOL    HW228191   3.210   1.342   6.313  1.0780 -0.2914  2.1929
 5577SOL     OW28192   0.457   0.121   9.172  0.2453  0.1676 -0.4912
 5577SOL    HW128193   0.408   0.201   9.153 -1.0907 -0.7842 -1.0908
 5577SOL    HW228194   0.439   0.075   9.089 -0.6561 -0.2952 -0.0450
 5578SOL     OW28195   1.860   3.822   2.525  0.2895 -0.1541  0.9518
 5578SOL    HW128196   1.814   3.768   2.589 -0.9278  0.9594  1.0068
 5578SOL    HW228197   1.781   3.830   2.472 -0.7919  0.6518  2.7031
 5579SOL     OW28198   3.451   4.702  11.096  0.1798 -0.1660  0.2951
 5579SOL    HW128199   3.408   4.711  11.181  1.4036  1.3215  0.7616
 5579SOL    HW228200   3.406   0.053  11.055 -1.2560 -0.4184  1.4037
 5580SOL     OW28201   4.022   3.366  16.343 -0.2112  0.5374 -0.5264
 5580SOL    HW128202   4.091   3.423  16.312 -1.4306  2.4008  0.1870
 5580SOL    HW228203   3.980   3.419  16.411  0.3009  0.1016  0.1305
 5581SOL     OW28204   0.276   3.496   6.750 -0.1009  0.3970  0.2205
 5581SOL    HW128205   0.366   3.529   6.753 -0.1066  0.5186 -1.1051
 5581SOL    HW228206   0.271   3.432   6.821 -0.0468 -0.2249 -0.3320
 5582SOL     OW28207   0.169   1.504   9.087  0.0126 -0.5196  0.0737
 5582SOL    HW128208   0.237   1.566   9.060 -0.5432 -0.3355 -0.8793
 5582SOL    HW228209   0.086   1.545   9.065  1.3738  0.2558 -3.6966
 5583SOL     OW28210   2.559   1.105   0.886 -0.1482 -0.2085  0.2260
 5583SOL    HW128211   2.624   1.073   0.824 -2.9394 -0.5045 -2.5457
 5583SOL    HW228212   2.565   1.040   0.956 -2.9126 -0.4701  0.2377
 5584SOL     OW28213   1.238   0.875  15.862  0.3730 -0.0810  0.0534
 5584SOL    HW128214   1.197   0.961  15.868 -1.8473 -1.1680  0.5888
 5584SOL    HW228215   1.311   0.884  15.923  0.2741  1.5840 -0.0754
 5585SOL     OW28216   3.312   3.411  15.302  0.0831  0.2325 -0.0084
 5585SOL    HW128217   3.308   3.506  15.310 -1.9980  0.1319  0.1616
 5585SOL    HW228218   3.386   3.392  15.360  0.2988  0.8969 -0.0756
 5586SOL     OW28219   2.672   0.162  12.000  0.0128  0.1055 -0.9160
 5586SOL    HW128220   2.670   0.230  12.068 -0.8082 -1.4416  0.6292
 5586SOL    HW228221   2.591   0.112  12.014 -0.6371  1.3832 -0.1523
 5587SOL     OW28222   4.581   4.198   8.646 -0.3519 -0.3964 -0.2228
 5587SOL    HW128223   4.495   4.226   8.617  0.4750  0.3174 -2.0182
 5587SOL    HW228224   4.551   4.150   8.723  2.1087  1.3356  1.8313
 5588SOL     OW28225   3.591   1.283  10.829 -0.5010  0.2073 -0.1683
 5588SOL    HW128226   3.558   1.367  10.860 -1.5225 -0.9814  1.9630
 5588SOL    HW228227   3.588   1.294  10.734  0.5937  1.4088 -0.0514
 5589SOL     OW28228   2.465   0.740   7.030  0.2327 -0.0042  0.7645
 5589SOL    HW128229   2.468   0.807   7.098 -1.9999  1.3158 -0.4264
 5589SOL    HW228230   2.432   0.797   6.961  2.0254  0.6962  0.4780
 5590SOL     OW28231   1.943   2.523   2.472 -0.0118 -0.3470  0.2164
 5590SOL    HW128232   1.849   2.537   2.478 -0.0668 -0.8494  0.5215
 5590SOL    HW228233   1.977   2.602   2.514 -1.4592  1.3427 -1.7645
 5591SOL     OW28234   2.793   3.730   1.624 -0.5240  0.1654  0.8899
 5591SOL    HW128235   2.781   3.640   1.656 -4.7494  0.3693 -0.0568
 5591SOL    HW228236   2.794   3.730   1.528 -1.1152  1.8969  0.8834
 5592SOL     OW28237   3.742   2.427   3.023 -0.0696 -0.3130  0.5294
 5592SOL    HW128238   3.733   2.340   2.984  0.0909 -0.4032  0.6975
 5592SOL    HW228239   3.672   2.424   3.088  0.6717 -1.2240  1.2670
 5593SOL     OW28240   0.699   3.237   7.793  0.2988  0.4039  0.4072
 5593SOL    HW128241   0.720   3.324   7.827  1.9407 -0.9331  2.9302
 5593SOL    HW228242   0.726   3.179   7.865 -2.9758  0.9349  2.0833
 5594SOL     OW28243   4.467   4.395   0.316  0.0800 -0.4563 -0.0537
 5594SOL    HW128244   4.500   4.351   0.395  0.5047 -0.9026 -0.4734
 5594SOL    HW228245   4.494   4.331   0.250 -2.3334 -1.6425  0.1299
 5595SOL     OW28246   2.104   0.071   7.441  0.4439  0.2554  0.0237
 5595SOL    HW128247   2.022   0.029   7.414 -0.3705  1.5390  0.4932
 5595SOL    HW228248   2.071   0.130   7.509  0.4172  1.2972 -0.8963
 5596SOL     OW28249   3.330   0.847   2.974  0.1031 -0.4433 -0.3457
 5596SOL    HW128250   3.405   0.876   3.026  0.4928 -0.7042 -0.7697
 5596SOL    HW228251   3.279   0.818   3.050  1.0047 -0.8441  0.1104
 5597SOL     OW28252   4.034   4.659   0.734  0.2006  0.2259  0.0849
 5597SOL    HW128253   4.127   4.669   0.710  0.1307 -0.1846 -0.3605
 5597SOL    HW228254   3.994   4.599   0.672 -2.9234  0.6486  1.7197
 5598SOL     OW28255   0.617   3.214   6.223 -0.6470 -0.4416 -0.1045
 5598SOL    HW128256   0.708   3.212   6.253 -1.2797  1.4109  1.9209
 5598SOL    HW228257   0.609   3.292   6.168  0.9673 -0.1683  0.0430
 5599SOL     OW28258   1.869   0.634   8.493 -0.4780 -0.3454  0.5072
 5599SOL    HW128259   1.807   0.631   8.420 -0.1398  0.1207  0.1990
 5599SOL    HW228260   1.953   0.598   8.462 -1.0426  0.2030 -1.6138
 5600SOL     OW28261   0.752   4.049   4.537  0.5008 -0.2745  0.1482
 5600SOL    HW128262   0.671   4.050   4.486  0.6540 -1.6352 -0.1063
 5600SOL    HW228263   0.816   4.033   4.467  0.3186 -0.6724  0.0769
 5601SOL     OW28264   0.425   0.566   7.222 -0.0916 -0.0157 -0.1511
 5601SOL    HW128265   0.455   0.656   7.207  1.6558 -0.6385 -0.3235
 5601SOL    HW228266   0.461   0.518   7.148  0.3143 -0.9706  0.6652
 5602SOL     OW28267   1.202   1.601   2.160 -0.4702 -0.6367  0.0599
 5602SOL    HW128268   1.160   1.663   2.220  1.1760 -0.7082  1.2893
 5602SOL    HW228269   1.276   1.570   2.212 -0.2793 -0.5347 -0.1538
 5603SOL     OW28270   0.595   0.024   8.023  0.3342  0.0153  0.0240
 5603SOL    HW128271   0.513   0.037   8.070 -0.6547 -0.9775 -1.4486
 5603SOL    HW228272   0.643   0.106   8.031 -0.9414  0.8332 -0.7993
 5604SOL     OW28273   2.946   3.467   3.363  0.0922  0.1475 -0.3577
 5604SOL    HW128274   2.932   3.460   3.458 -0.3343 -3.2915 -0.6610
 5604SOL    HW228275   3.041   3.475   3.366  0.1236 -0.5275  0.4295
 5605SOL     OW28276   4.147   1.303   5.319 -0.3627 -0.0481  0.0873
 5605SOL    HW128277   4.187   1.302   5.232 -1.6602  1.1276 -0.5082
 5605SOL    HW228278   4.228   1.302   5.372 -0.8238 -2.9229  0.7480
 5606SOL     OW28279   3.958   2.326   9.231 -0.5754  0.2163 -0.2349
 5606SOL    HW128280   3.950   2.278   9.148  1.3313 -1.2492  0.4097
 5606SOL    HW228281   3.981   2.415   9.204  1.8287  0.2684  1.9751
 5607SOL     OW28282   3.312   0.388   1.865 -0.0979  0.1440  0.6879
 5607SOL    HW128283   3.371   0.413   1.937  1.5061  0.3197 -0.6721
 5607SOL    HW228284   3.241   0.449   1.879  1.0192  0.9041  3.0900
 5608SOL     OW28285   0.647   4.229  14.350  0.2445 -0.1923  0.1697
 5608SOL    HW128286   0.619   4.157  14.294 -0.2839  0.6150 -0.6214
 5608SOL    HW228287   0.644   4.300  14.285  1.3553  1.8676  2.3588
 5609SOL     OW28288   2.369   1.328   7.033 -0.5781  0.3995 -0.7888
 5609SOL    HW128289   2.281   1.358   7.007 -1.7353 -1.2100  1.2754
 5609SOL    HW228290   2.421   1.407   7.044 -3.5598  2.1410  1.0050
 5610SOL     OW28291   3.236   2.068   3.655  0.5063  0.3265  0.0138
 5610SOL    HW128292   3.304   2.015   3.612 -0.2557  1.2103 -2.2952
 5610SOL    HW228293   3.280   2.080   3.739  0.6308  1.0539 -0.1574
 5611SOL     OW28294   3.271   0.079   2.089  0.2771 -0.6846 -0.5191
 5611SOL    HW128295   3.179   0.068   2.062  0.2440  1.9101 -1.4236
 5611SOL    HW228296   3.298   4.710   2.089 -0.5207 -0.9105  1.4505
 5612SOL     OW28297   3.207   3.775  15.041  0.1453 -0.0203  0.3143
 5612SOL    HW128298   3.218   3.870  15.043  0.8979 -0.1004  0.2257
 5612SOL    HW228299   3.250   3.744  14.961  0.0546  2.6416 -0.7646
 5613SOL     OW28300   0.790   3.440   8.292  0.0906  0.1965  0.2541
 5613SOL    HW128301   0.735   3.493   8.350 -0.4028  1.6058 -1.5178
 5613SOL    HW228302   0.756   3.357   8.326 -1.2919 -0.2634 -2.2614
 5614SOL     OW28303   4.568   0.320  14.085  0.4394  0.4159 -0.3220
 5614SOL    HW128304   4.611   0.237  14.063  0.6414  0.5560 -0.4514
 5614SOL    HW228305   4.555   0.309  14.179  0.9170  3.0754  0.0428
 5615SOL     OW28306   4.034   0.275   5.099  0.2363  0.2204 -0.4710
 5615SOL    HW128307   4.005   0.335   5.030  2.0969  2.7558  0.9318
 5615SOL    HW228308   3.954   0.232   5.128  0.9932 -1.1697 -0.4631
 5616SOL     OW28309   2.088   0.525  17.233 -0.5438  0.3595  0.3209
 5616SOL    HW128310   2.139   0.458  17.279 -0.6050  1.9353  2.6833
 5616SOL    HW228311   2.001   0.487  17.243  1.0027 -3.3247  0.0594
 5617SOL     OW28312   1.977   1.877  17.479  0.3021 -0.1052  0.5072
 5617SOL    HW128313   1.890   1.863  17.442  0.2726  0.0694  0.5102
 5617SOL    HW228314   2.009   1.951  17.427  0.2749  0.3567  1.1454
 5618SOL     OW28315   2.684   3.533   0.347 -0.0010 -0.1519 -0.0990
 5618SOL    HW128316   2.720   3.522   0.259 -1.3252  0.6320 -0.7347
 5618SOL    HW228317   2.734   3.603   0.388  0.0544 -1.0917  1.4626
 5619SOL     OW28318   1.645   0.651   8.325 -0.5471 -0.1436  0.1009
 5619SOL    HW128319   1.610   0.666   8.237  0.2130  3.1482  0.3667
 5619SOL    HW228320   1.590   0.715   8.369  0.1553 -1.8528  3.4580
 5620SOL     OW28321   3.056   1.221   3.277 -0.1205  0.1439 -0.2336
 5620SOL    HW128322   3.106   1.214   3.196  0.8153  0.3427  0.3309
 5620SOL    HW228323   3.097   1.298   3.316 -0.1258  1.2548 -2.3881
 5621SOL     OW28324   1.049   2.197   6.418  0.8025  0.2429  0.3191
 5621SOL    HW128325   1.080   2.286   6.401 -1.0260  0.9831  0.8780
 5621SOL    HW228326   1.120   2.166   6.475  0.0617 -0.8111  0.6544
 5622SOL     OW28327   0.472   0.813   3.162  0.2055 -0.3116  0.8341
 5622SOL    HW128328   0.529   0.835   3.235  0.3349 -0.9706  0.9349
 5622SOL    HW228329   0.385   0.845   3.186  0.0247 -0.7208  0.7300
 5623SOL     OW28330   0.697   1.348   5.391  0.4046  0.3612  0.3647
 5623SOL    HW128331   0.711   1.272   5.334 -1.0888  1.8392 -1.9656
 5623SOL    HW228332   0.627   1.397   5.347 -1.2516  0.1063  2.6652
 5624SOL     OW28333   2.331   4.154  16.677  0.1673  0.3401 -0.0464
 5624SOL    HW128334   2.422   4.176  16.657  0.4708 -1.9199 -1.1221
 5624SOL    HW228335   2.340   4.115  16.764 -0.0975  2.3555  0.8934
 5625SOL     OW28336   3.328   0.776  15.319  0.2488 -0.8475  0.0648
 5625SOL    HW128337   3.359   0.792  15.231  0.1984  1.4801  0.4865
 5625SOL    HW228338   3.392   0.826  15.370 -0.0325  0.8633 -1.2707
 5626SOL     OW28339   0.560   1.800   7.715  0.1295  0.0366 -0.6763
 5626SOL    HW128340   0.515   1.786   7.632 -0.7227  0.3798 -0.2752
 5626SOL    HW228341   0.497   1.859   7.758  2.5001  2.7188 -0.8945
 5627SOL     OW28342   2.356   3.293   3.264 -0.0429  0.5104  1.0560
 5627SOL    HW128343   2.449   3.314   3.270 -0.1194  0.7946  1.2916
 5627SOL    HW228344   2.371   3.205   3.230 -0.2010  0.2268  1.7265
 5628SOL     OW28345   0.640   3.631   2.976 -0.0343  0.0482  0.0561
 5628SOL    HW128346   0.621   3.614   2.883 -0.3583  0.4680  0.0447
 5628SOL    HW228347   0.558   3.610   3.020  0.6633  0.2110  1.4256
 5629SOL     OW28348   2.503   3.873   4.177  0.0347  0.7460 -0.0534
 5629SOL    HW128349   2.485   3.779   4.177 -0.8878  0.9255  0.0554
 5629SOL    HW228350   2.416   3.904   4.203 -0.5958 -0.9541 -0.1748
 5630SOL     OW28351   2.539   3.289   7.667  0.0640  0.2559  0.2038
 5630SOL    HW128352   2.536   3.225   7.596  1.7545 -0.7872  1.0759
 5630SOL    HW228353   2.562   3.374   7.629  0.9736 -0.2638 -0.3864
 5631SOL     OW28354   3.429   1.775   8.403  0.6340  0.1198 -0.2781
 5631SOL    HW128355   3.367   1.748   8.335 -0.4000 -0.5692  0.9299
 5631SOL    HW228356   3.501   1.712   8.406  0.3915 -0.1737 -0.6868
 5632SOL     OW28357   1.942   3.128   3.600  0.1715  0.4401 -1.0609
 5632SOL    HW128358   1.876   3.086   3.655  1.2664  1.2448  0.8555
 5632SOL    HW228359   1.912   3.216   3.620 -3.1847 -1.0196  0.4027
 5633SOL     OW28360   2.952   4.497   6.036  0.1135 -0.5284 -0.4937
 5633SOL    HW128361   3.024   4.546   6.074 -0.5323 -0.2180  0.3452
 5633SOL    HW228362   2.935   4.558   5.965  0.2667 -1.4893 -1.3586
 5634SOL     OW28363   3.350   3.884   8.789  0.0888 -0.6592  0.0571
 5634SOL    HW128364   3.306   3.820   8.846 -0.6978  0.0855  0.2990
 5634SOL    HW228365   3.309   3.968   8.810  0.4641  0.0010 -1.9329
 5635SOL     OW28366   0.395   3.899   0.202  0.5055  0.3534  0.3378
 5635SOL    HW128367   0.443   3.982   0.197  0.7070  0.1865 -0.5488
 5635SOL    HW228368   0.396   3.863   0.113  1.2219  0.5357  0.2692
 5636SOL     OW28369   2.092   2.822   8.738 -0.4613  0.2151 -0.7986
 5636SOL    HW128370   2.117   2.898   8.791  2.3370  0.6913 -2.8212
 5636SOL    HW228371   2.093   2.755   8.806  1.8778  0.2065 -0.8351
 5637SOL     OW28372   4.039   3.882   9.549 -0.4065 -0.8247  0.4055
 5637SOL    HW128373   4.102   3.937   9.595  0.6130 -2.7878  1.3834
 5637SOL    HW228374   3.956   3.886   9.598 -0.3840 -0.9381  0.4543
 5638SOL     OW28375   3.909   3.657   7.582  0.4404 -0.1427 -0.1515
 5638SOL    HW128376   3.871   3.738   7.548 -0.7860 -1.2321 -1.4085
 5638SOL    HW228377   3.883   3.665   7.674  1.0007 -0.1756  0.0110
 5639SOL     OW28378   4.711   4.522  13.293  0.2174  0.2563 -0.7412
 5639SOL    HW128379   4.623   4.538  13.259 -0.2486  0.3212  0.4924
 5639SOL    HW228380   0.023   4.491  13.209 -0.8005  0.4027 -1.2204
 5640SOL     OW28381   0.420   1.114   8.182  0.6392  0.0413  0.0535
 5640SOL    HW128382   0.503   1.102   8.227  0.1765  1.6792  1.3391
 5640SOL    HW228383   0.394   1.026   8.154  1.0233 -0.0965  0.1268
 5641SOL     OW28384   3.486   1.538  10.899 -0.6056 -0.3656  0.3232
 5641SOL    HW128385   3.526   1.577  10.821  2.6767  0.0791  2.2326
 5641SOL    HW228386   3.469   1.612  10.957 -0.7436 -1.3236  1.4988
 5642SOL     OW28387   1.433   2.911   9.104 -0.1938  0.5956  0.3978
 5642SOL    HW128388   1.476   2.869   9.178 -0.2235  2.3335  1.3838
 5642SOL    HW228389   1.343   2.915   9.134 -0.7512  0.6402 -1.2500
 5643SOL     OW28390   1.648   3.631  11.717 -0.0032 -0.3821 -0.0891
 5643SOL    HW128391   1.576   3.686  11.749  1.6259  2.1564 -0.7866
 5643SOL    HW228392   1.642   3.555  11.775  0.3316 -1.5537 -1.5864
 5644SOL     OW28393   1.578   3.854   4.567  0.6293 -0.0338  0.0590
 5644SOL    HW128394   1.553   3.817   4.482 -1.1057 -2.2590  1.5512
 5644SOL    HW228395   1.515   3.926   4.569  1.1795  0.5073 -1.5228
 5645SOL     OW28396   3.243   2.708  15.510  0.0250  0.2649 -0.6361
 5645SOL    HW128397   3.192   2.772  15.460 -0.0358  0.3235 -0.5000
 5645SOL    HW228398   3.208   2.626  15.475 -1.7170  0.5504  0.4101
 5646SOL     OW28399   0.136   2.023   8.507  0.2560  0.0909  0.3353
 5646SOL    HW128400   0.155   2.098   8.563 -1.8823  0.7632  0.1641
 5646SOL    HW228401   0.218   1.973   8.512  0.1054  0.0425  2.4017
 5647SOL     OW28402   2.770   2.263   4.386 -0.1872 -0.5306  0.3844
 5647SOL    HW128403   2.798   2.348   4.355 -2.0082 -0.3227 -0.6778
 5647SOL    HW228404   2.757   2.222   4.301  0.2629 -0.2734  0.1975
 5648SOL     OW28405   4.481   2.175  16.065  0.2976  0.2932 -0.5327
 5648SOL    HW128406   4.514   2.256  16.027 -0.5916  0.3062 -1.2723
 5648SOL    HW228407   4.389   2.196  16.049  0.6327  0.4435 -2.2544
 5649SOL     OW28408   1.574   1.181  12.172  0.5998 -0.5566 -0.5998
 5649SOL    HW128409   1.601   1.119  12.105 -0.0157  0.4081 -1.7312
 5649SOL    HW228410   1.526   1.250  12.127  0.4077 -0.7580 -0.6992
 5650SOL     OW28411   2.594   4.289   9.144 -0.2055  0.1326  0.2511
 5650SOL    HW128412   2.589   4.206   9.098 -0.4180 -0.5693  1.5350
 5650SOL    HW228413   2.609   4.254   9.232 -1.9884 -0.0286  0.4873
 5651SOL     OW28414   2.268   0.647   6.828 -0.2054 -0.4910 -0.0481
 5651SOL    HW128415   2.362   0.639   6.844 -0.2270 -1.1933 -0.2733
 5651SOL    HW228416   2.257   0.740   6.812  1.8595 -0.0520  1.2294
 5652SOL     OW28417   3.020   1.274   9.402 -0.0813 -0.4068  0.1843
 5652SOL    HW128418   3.093   1.228   9.442  1.8328  4.3586  2.2242
 5652SOL    HW228419   2.954   1.267   9.472  0.7573 -0.0125  1.0171
 5653SOL     OW28420   2.938   3.388   4.801 -0.3429 -0.2765  1.0271
 5653SOL    HW128421   2.867   3.449   4.820 -0.7384  0.0343 -1.3659
 5653SOL    HW228422   2.976   3.381   4.888  1.8384  1.9511  0.2672
 5654SOL     OW28423   2.061   0.790   2.477 -0.2927  0.4896 -0.6389
 5654SOL    HW128424   2.078   0.752   2.563 -0.7143  1.2075 -0.2343
 5654SOL    HW228425   2.114   0.870   2.472  2.0324 -0.8523  2.8039
 5655SOL     OW28426   4.463   0.705   2.240  0.2110 -0.1009 -0.0859
 5655SOL    HW128427   4.400   0.735   2.175 -0.7132 -2.3556 -0.2432
 5655SOL    HW228428   4.412   0.645   2.295  2.6324 -1.8338  0.2515
 5656SOL     OW28429   2.896   1.892   7.532  0.4724 -0.2838  0.7722
 5656SOL    HW128430   2.989   1.889   7.555  1.4779 -1.1464 -3.3938
 5656SOL    HW228431   2.901   1.862   7.441  0.7950 -1.9799  1.3473
 5657SOL     OW28432   4.513   1.677   3.953 -0.3782  0.5563 -0.3162
 5657SOL    HW128433   4.420   1.677   3.930 -0.5978  0.1625  0.5547
 5657SOL    HW228434   4.544   1.642   3.869 -1.8402  0.0692 -0.6630
 5658SOL     OW28435   2.188   3.178   8.596  0.2101  0.2240 -0.2671
 5658SOL    HW128436   2.200   3.256   8.542 -0.3828  0.2518 -0.3587
 5658SOL    HW228437   2.228   3.192   8.682 -1.8758 -1.8533  1.0376
 5659SOL     OW28438   1.337   0.480   9.391 -0.1218 -0.1526 -0.3061
 5659SOL    HW128439   1.293   0.395   9.386  0.0128 -0.1234 -1.9976
 5659SOL    HW228440   1.265   0.541   9.409 -1.9367 -2.1865 -0.6240
 5660SOL     OW28441   4.511   2.840   5.413  0.3870  0.6703 -0.1668
 5660SOL    HW128442   4.579   2.805   5.471  1.5509  0.1672 -1.8408
 5660SOL    HW228443   4.545   2.928   5.396 -1.5468  1.6206  0.8290
 5661SOL     OW28444   0.542   1.756   1.639  0.0251 -0.6920  0.0427
 5661SOL    HW128445   0.449   1.760   1.616  0.1594 -1.4721 -0.6667
 5661SOL    HW228446   0.590   1.788   1.562 -1.6057 -1.4646 -1.2793
 5662SOL     OW28447   4.568   1.295   2.832  0.2664  0.1559 -0.0683
 5662SOL    HW128448   4.545   1.234   2.902 -1.7020 -0.3764 -1.2013
 5662SOL    HW228449   4.519   1.261   2.758  1.4527  0.7593 -1.1259
 5663SOL     OW28450   3.710   2.402   5.735 -0.1532  0.0887 -0.1323
 5663SOL    HW128451   3.688   2.365   5.820 -0.3526  0.1858 -0.1421
 5663SOL    HW228452   3.788   2.450   5.763  0.3219 -1.2322  0.7765
 5664SOL     OW28453   4.453   2.052   6.743 -0.2402  0.4320  0.0064
 5664SOL    HW128454   4.481   2.122   6.801 -1.2641  0.1436  0.8358
 5664SOL    HW228455   4.408   2.103   6.676 -0.6414 -0.9742 -0.8012
 5665SOL     OW28456   1.177   1.920   0.103  0.2805 -0.3598  0.1526
 5665SOL    HW128457   1.241   1.892   0.169  0.1800 -3.5287 -1.1029
 5665SOL    HW228458   1.235   1.975   0.050  0.3986 -0.8712 -0.2545
 5666SOL     OW28459   2.888   2.967   5.663  0.2205  0.0883 -0.0807
 5666SOL    HW128460   2.828   3.017   5.607  0.1076  0.9215  0.7713
 5666SOL    HW228461   2.971   3.002   5.632 -1.1552  2.1457 -1.5001
 5667SOL     OW28462   3.599   0.191   6.270  0.4872 -0.6915  0.1220
 5667SOL    HW128463   3.636   0.146   6.346  0.7575 -2.7361 -1.1891
 5667SOL    HW228464   3.592   0.125   6.201 -0.7418 -1.0384  0.5834
 5668SOL     OW28465   1.660   1.492   2.972  0.4761  0.0824  0.0354
 5668SOL    HW128466   1.618   1.547   3.038 -1.5683 -1.7271  0.2374
 5668SOL    HW228467   1.749   1.529   2.965  0.9605 -1.1446 -0.2976
 5669SOL     OW28468   4.110   2.306   9.460 -0.1878  0.5026  0.5323
 5669SOL    HW128469   4.100   2.212   9.471  1.5144  0.5465  2.4301
 5669SOL    HW228470   4.060   2.307   9.378  1.7721 -0.9160 -0.6727
 5670SOL     OW28471   2.714   4.176  15.648  0.5606 -0.1930 -0.1985
 5670SOL    HW128472   2.636   4.155  15.597  2.2514 -1.9350 -2.0739
 5670SOL    HW228473   2.779   4.118  15.610  0.6393 -1.0800  1.2655
 5671SOL     OW28474   0.697   3.375   5.835 -0.2191 -0.3451  0.5150
 5671SOL    HW128475   0.627   3.439   5.847  0.2905  0.0588  1.2842
 5671SOL    HW228476   0.737   3.387   5.921  0.3465 -0.3588  0.2497
 5672SOL     OW28477   0.884   4.049  14.959 -0.0587  0.3176  0.0913
 5672SOL    HW128478   0.950   3.988  14.925 -2.3002 -0.7454 -2.3235
 5672SOL    HW228479   0.933   4.059  15.040 -3.3530  0.6061  2.0350
 5673SOL     OW28480   4.315   3.509   7.045  0.1153  0.3520 -0.7197
 5673SOL    HW128481   4.271   3.501   7.130 -1.7344 -1.8355 -1.8523
 5673SOL    HW228482   4.362   3.588   7.068  1.0286 -0.2101 -0.6702
 5674SOL     OW28483   2.920   2.969  17.200  0.0172  0.0950  0.2304
 5674SOL    HW128484   2.981   2.903  17.167 -0.9406 -0.2310 -0.8976
 5674SOL    HW228485   2.876   2.992  17.118 -0.7787 -1.9885  0.0778
 5675SOL     OW28486   2.161   3.407   7.522  0.3041 -0.2221 -0.7313
 5675SOL    HW128487   2.104   3.413   7.446  1.5878 -0.1642 -1.6845
 5675SOL    HW228488   2.195   3.319   7.512  2.4569  0.4400  0.6606
 5676SOL     OW28489   0.566   3.809  16.861  0.3023  0.3192  0.3809
 5676SOL    HW128490   0.626   3.872  16.821 -0.1273  1.7765  2.0383
 5676SOL    HW228491   0.479   3.848  16.863  0.2116  0.1765 -1.1040
 5677SOL     OW28492   3.331   1.112  10.816  0.2452 -0.1571 -0.6508
 5677SOL    HW128493   3.353   1.030  10.859 -0.7005 -0.0576  0.0163
 5677SOL    HW228494   3.411   1.157  10.840  0.3756 -0.1553 -1.0738
 5678SOL     OW28495   3.357   4.692   6.374 -0.4430 -0.7356  0.6530
 5678SOL    HW128496   3.391   4.651   6.454  1.0651 -2.0902 -0.6739
 5678SOL    HW228497   3.428   4.717   6.316 -0.6847 -0.3021  0.5486
 5679SOL     OW28498   2.571   3.312   1.825  0.0585 -0.2917 -0.2956
 5679SOL    HW128499   2.635   3.300   1.895 -0.0940 -0.8570 -0.2598
 5679SOL    HW228500   2.557   3.222   1.797  1.6508  0.0816 -2.2555
 5680SOL     OW28501   0.391   2.421  11.244  0.0318  0.5386  0.3126
 5680SOL    HW128502   0.313   2.366  11.246  0.1606  0.4275  2.2345
 5680SOL    HW228503   0.439   2.387  11.168  1.3695  0.6815  1.0960
 5681SOL     OW28504   2.344   0.214  11.353  0.4837 -0.2990 -0.3400
 5681SOL    HW128505   2.275   0.277  11.374  0.7008  0.0807 -0.7783
 5681SOL    HW228506   2.410   0.266  11.306 -0.2731 -0.1763 -1.2519
 5682SOL     OW28507   1.554   1.571   5.862 -0.2679 -0.0456 -0.4179
 5682SOL    HW128508   1.593   1.520   5.933  2.2845  0.8564 -1.1741
 5682SOL    HW228509   1.556   1.501   5.797  0.2722  0.4478 -0.9332
 5683SOL     OW28510   0.729   3.511   6.842  0.1805  0.0092  0.0955
 5683SOL    HW128511   0.662   3.519   6.909  0.6637  1.0563  0.4541
 5683SOL    HW228512   0.682   3.535   6.762  1.6786  1.4660 -0.3457
 5684SOL     OW28513   0.576   2.983  16.639 -0.1723  0.2198 -0.1761
 5684SOL    HW128514   0.601   2.902  16.683  0.3207  0.2641 -0.3677
 5684SOL    HW228515   0.649   2.977  16.577 -0.7516 -0.7570 -0.7729
 5685SOL     OW28516   0.243   0.063   3.589  0.1956  0.4329  0.8858
 5685SOL    HW128517   0.281   0.118   3.521  2.1431 -0.9477  0.8575
 5685SOL    HW228518   0.324   0.060   3.640  0.7719 -1.0684 -0.1354
 5686SOL     OW28519   1.300   4.515   8.087 -0.0589 -0.0402 -0.2761
 5686SOL    HW128520   1.256   4.547   8.165 -1.5688 -2.1883 -0.2604
 5686SOL    HW228521   1.350   4.439   8.116 -0.0277  0.5467  1.2141
 5687SOL     OW28522   0.256   1.343   8.189  0.2291  0.1836  0.0718
 5687SOL    HW128523   0.310   1.268   8.164  0.5692  0.2827  0.4870
 5687SOL    HW228524   0.177   1.300   8.219  0.4332 -0.2125  0.0384
 5688SOL     OW28525   1.652   0.380   2.848  0.1542  0.3600  0.0269
 5688SOL    HW128526   1.648   0.449   2.782  0.4062  1.4917  1.2093
 5688SOL    HW228527   1.696   0.307   2.804  1.5265  1.1761  0.0473
 5689SOL     OW28528   4.593   0.556   8.528  0.4672  0.0634  0.3398
 5689SOL    HW128529   4.500   0.539   8.543  0.9652 -0.9110  2.2481
 5689SOL    HW228530   4.622   0.487   8.588 -0.1114 -1.0503 -0.6368
 5690SOL     OW28531   2.560   0.437   4.857 -0.2504 -0.1095 -0.5115
 5690SOL    HW128532   2.576   0.521   4.901  0.7116 -1.4544  1.6900
 5690SOL    HW228533   2.637   0.383   4.874  1.1900  2.5140  1.2014
 5691SOL     OW28534   0.710   1.255  10.357 -0.0089 -0.2329  0.4745
 5691SOL    HW128535   0.670   1.318  10.297  0.0773  1.7689  2.4953
 5691SOL    HW228536   0.782   1.310  10.388 -0.4660  0.6235  0.0194
 5692SOL     OW28537   0.707   1.933   4.796 -0.0427 -0.1395 -0.1750
 5692SOL    HW128538   0.677   1.893   4.714 -0.5760  1.1538 -0.6285
 5692SOL    HW228539   0.794   1.960   4.768  0.3043 -0.1013  0.9735
 5693SOL     OW28540   1.564   3.979   7.393 -0.1541 -0.1823 -0.3300
 5693SOL    HW128541   1.560   3.969   7.488  1.1861  1.5223 -0.0984
 5693SOL    HW228542   1.655   4.009   7.389 -0.6240  1.3017 -0.0489
 5694SOL     OW28543   3.709   2.121   8.860  0.1382  0.0172  0.1355
 5694SOL    HW128544   3.717   2.215   8.846  1.0268 -0.6254 -3.4532
 5694SOL    HW228545   3.615   2.118   8.843 -0.4443  1.0244  3.1556
 5695SOL     OW28546   2.706   1.059   8.825 -0.2002  0.7555  0.0504
 5695SOL    HW128547   2.665   1.059   8.738  0.3598  1.8703 -0.2021
 5695SOL    HW228548   2.659   1.134   8.862  0.7896  1.8190 -0.8362
 5696SOL     OW28549   1.036   2.903   5.518 -0.0012 -0.3384  0.0074
 5696SOL    HW128550   0.985   2.898   5.438 -1.2527  0.4105  0.7534
 5696SOL    HW228551   1.093   2.827   5.506 -0.8247 -1.2702  2.0431
 5697SOL     OW28552   1.086   2.578   5.637  0.1849 -0.7966  0.4220
 5697SOL    HW128553   1.079   2.495   5.591 -2.6254 -0.3757  0.0651
 5697SOL    HW228554   1.138   2.631   5.576  0.3327 -1.4781 -0.0335
 5698SOL     OW28555   0.066   1.103   2.741  0.4629 -0.3511 -0.0215
 5698SOL    HW128556   0.068   1.195   2.766  0.2572 -0.6515  1.0962
 5698SOL    HW228557   0.037   1.059   2.821  1.3164 -0.5462  0.1825
 5699SOL     OW28558   2.045   1.616  15.934 -0.4440 -0.4190 -0.3785
 5699SOL    HW128559   1.981   1.551  15.961  2.4711 -3.8087 -1.5810
 5699SOL    HW228560   2.109   1.558  15.892 -0.8406  0.7145 -2.5470
 5700SOL     OW28561   3.193   4.696   1.708 -1.1063  0.7806 -0.5641
 5700SOL    HW128562   3.214   4.609   1.674 -1.1121  0.4401  0.3180
 5700SOL    HW228563   3.226   0.019   1.630 -0.3300  1.7097  0.3119
 5701SOL     OW28564   3.324   4.574   7.372  0.1533  0.0420 -0.2162
 5701SOL    HW128565   3.319   4.540   7.282  1.0249  0.2036 -0.3238
 5701SOL    HW228566   3.361   4.502   7.423 -0.3408 -0.0121  0.0737
 5702SOL     OW28567   2.526   4.207   8.594 -0.3348  0.0941 -0.0367
 5702SOL    HW128568   2.539   4.136   8.657 -2.0800  0.2786  0.5320
 5702SOL    HW228569   2.525   4.274   8.663  2.4990  0.7009 -0.5624
 5703SOL     OW28570   2.308   4.010  11.189  0.2265 -0.2785  0.3255
 5703SOL    HW128571   2.303   3.955  11.267 -0.6082 -0.6633  0.0049
 5703SOL    HW228572   2.282   3.956  11.114  0.0305 -0.5714  0.6063
 5704SOL     OW28573   1.427   2.946   4.446 -0.0407 -0.4745  0.5173
 5704SOL    HW128574   1.503   2.898   4.479  1.2435 -0.0232 -1.8075
 5704SOL    HW228575   1.413   2.926   4.354  0.5293  1.0684  0.1044
 5705SOL     OW28576   1.592   0.613   8.818 -0.3613 -0.6267 -0.1255
 5705SOL    HW128577   1.657   0.678   8.793  1.8854 -1.2213  4.1670
 5705SOL    HW228578   1.615   0.539   8.762  1.5348  0.0241 -0.2097
 5706SOL     OW28579   0.483   0.606   8.049  0.1938  0.4349  0.4365
 5706SOL    HW128580   0.553   0.656   8.007  1.4218 -2.6997 -1.2989
 5706SOL    HW228581   0.526   0.520   8.053 -1.7033 -0.5003  0.6922
 5707SOL     OW28582   0.364   0.851   8.138 -0.0985 -0.2184 -0.5797
 5707SOL    HW128583   0.371   0.856   8.043  1.5394  0.9560 -0.3967
 5707SOL    HW228584   0.373   0.757   8.155  1.6171 -0.0911 -0.8096
 5708SOL     OW28585   1.511   0.168  15.029  0.1425 -0.1436  0.6278
 5708SOL    HW128586   1.553   0.254  15.038 -2.3501  1.1069  0.3718
 5708SOL    HW228587   1.423   0.180  15.066  0.4652 -0.6699  1.5710
 5709SOL     OW28588   2.594   2.378   7.497  0.0790 -0.0566  0.2044
 5709SOL    HW128589   2.613   2.317   7.425  1.0424  0.7922 -0.2582
 5709SOL    HW228590   2.533   2.326   7.549  0.0350  0.7177  0.9089
 5710SOL     OW28591   1.150   3.485   5.825 -0.1106 -0.1280  0.2270
 5710SOL    HW128592   1.244   3.469   5.839 -0.1697 -1.1903 -0.5780
 5710SOL    HW228593   1.122   3.551   5.888 -2.8766  0.2216 -1.3917
 5711SOL     OW28594   0.732   1.245   6.243 -0.1328 -0.1517 -0.0302
 5711SOL    HW128595   0.792   1.309   6.207 -0.7702  0.3830 -0.1433
 5711SOL    HW228596   0.656   1.303   6.253  0.6269  0.9993 -1.0358
 5712SOL     OW28597   1.404   0.708   5.357  0.0050  0.3448 -0.0006
 5712SOL    HW128598   1.390   0.685   5.265  1.1379  1.4180 -0.4440
 5712SOL    HW228599   1.365   0.795   5.355 -1.3594 -0.2711 -0.2712
 5713SOL     OW28600   0.612   0.484   2.191  0.5207  0.4149  0.2297
 5713SOL    HW128601   0.681   0.467   2.255  0.7710 -0.4706 -0.2852
 5713SOL    HW228602   0.649   0.449   2.111  1.5265 -1.8625  1.7040
 5714SOL     OW28603   1.924   0.978  11.073  0.0254  0.5240 -0.1332
 5714SOL    HW128604   1.911   1.071  11.051 -0.0148  1.0612  2.1812
 5714SOL    HW228605   2.015   0.975  11.045 -0.2981 -0.3356 -1.0784
 5715SOL     OW28606   0.753   0.124   8.983  0.5223 -0.3574 -0.4331
 5715SOL    HW128607   0.814   0.105   9.054  0.6610 -0.5094 -0.5928
 5715SOL    HW228608   0.763   0.219   8.985 -0.9277 -0.2570  2.0470
 5716SOL     OW28609   1.089   0.545   5.262  0.3385 -0.2499 -0.0672
 5716SOL    HW128610   1.118   0.632   5.288 -1.1144  0.1872  0.0700
 5716SOL    HW228611   1.023   0.527   5.328 -1.1899  0.2455 -1.4503
 5717SOL     OW28612   0.471   1.681   3.688  0.6122  0.9125 -0.1906
 5717SOL    HW128613   0.480   1.750   3.754 -0.8544  1.6485 -0.7612
 5717SOL    HW228614   0.414   1.623   3.738  2.2501  0.8326  1.5931
 5718SOL     OW28615   3.739   1.570  14.960 -0.4825 -0.2783 -0.2496
 5718SOL    HW128616   3.656   1.523  14.957 -0.2911 -0.6399  0.1112
 5718SOL    HW228617   3.782   1.527  15.035 -1.5327 -1.1989 -0.1791
 5719SOL     OW28618   2.236   1.770   7.078  0.3375 -0.8749 -0.0516
 5719SOL    HW128619   2.219   1.823   7.157  1.5505 -1.6097  0.6929
 5719SOL    HW228620   2.229   1.829   7.003 -0.7917 -2.3564 -1.0916
 5720SOL     OW28621   0.007   4.702   4.872  0.1464 -0.1979  0.2979
 5720SOL    HW128622   0.012   0.047   4.804  0.6251  0.1697  0.7067
 5720SOL    HW228623   4.635   4.686   4.868 -0.2692  2.3037 -0.3149
 5721SOL     OW28624   0.885   3.725   4.601  0.5176  0.1426  0.2390
 5721SOL    HW128625   0.933   3.791   4.551 -1.3102  1.4508  0.2066
 5721SOL    HW228626   0.943   3.662   4.642  0.6554  1.3348  1.8956
 5722SOL     OW28627   4.660   1.278  13.672 -0.9518  0.1993 -0.2682
 5722SOL    HW128628   4.688   1.191  13.645 -2.2164  0.7415 -3.3743
 5722SOL    HW228629   4.690   1.278  13.762 -0.6545  0.5071 -0.3684
 5723SOL     OW28630   3.099   1.985   0.219  0.2065 -0.1175  0.2000
 5723SOL    HW128631   3.120   1.897   0.190  0.8215  0.3911 -0.8940
 5723SOL    HW228632   3.168   2.010   0.281  0.8576 -1.1002 -0.1393
 5724SOL     OW28633   0.579   0.767  16.299 -0.2013  1.3561  0.2657
 5724SOL    HW128634   0.558   0.860  16.311 -3.0169  0.7329  0.2061
 5724SOL    HW228635   0.675   0.768  16.300 -0.1582  0.3799 -2.5513
 5725SOL     OW28636   3.378   1.576   4.110 -0.2431  0.8246  0.0211
 5725SOL    HW128637   3.442   1.589   4.040 -0.5235  1.6391 -0.0870
 5725SOL    HW228638   3.422   1.497   4.140  2.9333  3.5165  2.3503
 5726SOL     OW28639   4.218   2.211  16.036 -0.3684 -0.8681  0.1778
 5726SOL    HW128640   4.224   2.117  16.018 -1.1580 -1.1140  1.1944
 5726SOL    HW228641   4.128   2.204  16.068 -0.8138 -2.8684 -1.4654
 5727SOL     OW28642   3.641   0.672   5.257  0.5927  0.0274  0.1366
 5727SOL    HW128643   3.708   0.730   5.294  1.0604 -1.2788  1.3122
 5727SOL    HW228644   3.563   0.719   5.285  0.4114 -1.2182  1.6707
 5728SOL     OW28645   1.586   3.673   1.969  0.6532 -0.3151  0.3794
 5728SOL    HW128646   1.643   3.601   1.943  1.3201  1.2119 -2.4292
 5728SOL    HW228647   1.503   3.638   1.937 -0.3323 -0.0745  2.6973
 5729SOL     OW28648   2.088   3.611   1.121  0.4522  0.1285  0.2016
 5729SOL    HW128649   2.149   3.669   1.075 -1.4558  0.5484 -1.7943
 5729SOL    HW228650   2.131   3.525   1.122  1.3017  0.5365 -1.4080
 5730SOL     OW28651   0.580   2.695   6.675 -0.4311 -0.3438  0.1674
 5730SOL    HW128652   0.526   2.764   6.637 -0.6354  0.8434  2.6066
 5730SOL    HW228653   0.659   2.721   6.627 -0.7096  0.8211  0.3346
 5731SOL     OW28654   0.828   4.585   0.145 -0.7885  0.3140  0.7135
 5731SOL    HW128655   0.802   4.669   0.107 -1.4285 -0.5647 -0.7852
 5731SOL    HW228656   0.788   4.531   0.076  1.0511 -0.6748  0.4190
 5732SOL     OW28657   2.096   3.978   5.657  0.8637 -0.0283 -0.2968
 5732SOL    HW128658   2.142   4.041   5.602 -0.0574  0.2529 -0.7471
 5732SOL    HW228659   2.019   3.964   5.601  1.3263 -2.7116 -0.2635
 5733SOL     OW28660   2.484   3.448   6.726 -0.3911 -0.3615 -0.1354
 5733SOL    HW128661   2.475   3.511   6.798  1.1882 -0.1026 -0.1802
 5733SOL    HW228662   2.424   3.490   6.664 -0.3399  0.6500  0.4875
 5734SOL     OW28663   4.477   3.119  15.507 -0.2993  0.5715 -0.2939
 5734SOL    HW128664   4.505   3.195  15.457  3.0423 -1.1077 -0.9852
 5734SOL    HW228665   4.382   3.126  15.505 -0.3997 -0.5504  0.4984
 5735SOL     OW28666   0.404   2.477  13.128 -0.4837  0.0916  0.3311
 5735SOL    HW128667   0.340   2.496  13.058  2.8891  0.7385 -2.5758
 5735SOL    HW228668   0.387   2.555  13.181  0.1407 -0.8805  1.9628
 5736SOL     OW28669   2.080   4.387   5.933  0.6616 -0.4736 -0.6234
 5736SOL    HW128670   2.130   4.461   5.899 -0.7294  1.1382  0.8551
 5736SOL    HW228671   2.123   4.371   6.017 -1.5250 -1.6204  0.2991
 5737SOL     OW28672   2.622   1.016   2.102  0.4601 -0.0087 -0.0575
 5737SOL    HW128673   2.654   1.008   2.012 -1.1264 -0.2118 -0.6185
 5737SOL    HW228674   2.672   1.090   2.137  1.2848 -0.2230 -0.7769
 5738SOL     OW28675   2.290   0.006   5.381 -0.1699  0.3410 -0.0070
 5738SOL    HW128676   2.239   4.656   5.345 -1.4675  0.5686  1.3692
 5738SOL    HW228677   2.309   4.699   5.470 -0.2643  0.3971  0.0319
 5739SOL     OW28678   0.991   4.125  15.209 -0.0017  0.0833 -0.1730
 5739SOL    HW128679   0.900   4.119  15.238 -0.0064  0.2274 -0.1539
 5739SOL    HW228680   1.001   4.220  15.201 -1.2800  0.1248 -1.2518
 5740SOL     OW28681   0.259   3.302  17.389 -0.1032  0.4609 -0.4929
 5740SOL    HW128682   0.279   3.376  17.446  2.2628 -1.2583  0.8928
 5740SOL    HW228683   0.329   3.301  17.323 -0.1445  0.4728 -0.5369
 5741SOL     OW28684   2.456   4.131  15.477 -0.4949  0.4371 -0.1601
 5741SOL    HW128685   2.373   4.101  15.440 -0.8812  3.4559 -1.7587
 5741SOL    HW228686   2.493   4.173  15.400  1.0567 -0.2738  0.1800
 5742SOL     OW28687   1.900   2.320  10.876 -0.5433  1.0292  0.7966
 5742SOL    HW128688   1.885   2.254  10.944 -0.8435 -0.0779 -0.3460
 5742SOL    HW228689   1.994   2.333  10.884 -0.2683 -0.3037 -0.2176
 5743SOL     OW28690   2.615   1.385  10.740  0.0930  0.4349 -0.3834
 5743SOL    HW128691   2.710   1.379  10.751 -0.0154 -0.5892  0.0160
 5743SOL    HW228692   2.594   1.474  10.766 -0.2236  1.1062 -2.9366
 5744SOL     OW28693   2.275   3.379   3.523  0.7513  0.1330 -0.1815
 5744SOL    HW128694   2.248   3.291   3.494 -0.7173  0.8600 -0.9892
 5744SOL    HW228695   2.334   3.386   3.448  1.2604 -1.7256  0.0247
 5745SOL     OW28696   0.486   3.810  14.104  0.2141 -0.0035 -0.1868
 5745SOL    HW128697   0.454   3.721  14.112  0.4453 -0.2988 -2.4866
 5745SOL    HW228698   0.525   3.808  14.016 -0.8043  1.0523 -0.6607
 5746SOL     OW28699   1.957   0.096   5.186 -0.5804 -0.1873 -0.5578
 5746SOL    HW128700   1.893   0.167   5.194  0.5050  0.6068  1.0863
 5746SOL    HW228701   1.999   0.092   5.272 -2.5804  1.3749  0.4862
 5747SOL     OW28702   2.292   2.065   1.285  0.0752 -0.4087  0.0105
 5747SOL    HW128703   2.373   2.018   1.266 -0.7419 -1.4643 -0.9108
 5747SOL    HW228704   2.295   2.054   1.380  2.3556  1.5182  0.1421
 5748SOL     OW28705   1.499   3.264  17.660  0.7135 -0.0457 -0.8607
 5748SOL    HW128706   1.519   3.253  17.567 -0.1969  2.7056 -1.4008
 5748SOL    HW228707   1.467   3.177  17.684 -0.4866  0.2363 -1.3854
 5749SOL     OW28708   3.923   3.447   3.741 -0.4577 -0.0518  0.8178
 5749SOL    HW128709   3.874   3.528   3.732  2.3224  1.5564  0.0095
 5749SOL    HW228710   3.971   3.461   3.823 -0.8099  2.9269  0.5059
 5750SOL     OW28711   0.672   4.104   8.768  0.4084 -0.3110  0.6855
 5750SOL    HW128712   0.725   4.087   8.846  1.7897 -0.6962 -0.3494
 5750SOL    HW228713   0.681   4.199   8.754  0.6039 -1.0090 -3.7568
 5751SOL     OW28714   1.794   0.492  10.366  0.4584  0.0527 -0.4023
 5751SOL    HW128715   1.778   0.414  10.313  1.3906 -0.2307 -0.2773
 5751SOL    HW228716   1.890   0.498  10.366  0.3559  1.8022  0.0894
 5752SOL     OW28717   0.158   1.517   7.258 -0.7638  0.4245 -0.3389
 5752SOL    HW128718   0.078   1.481   7.219 -1.9858  0.9538  1.6656
 5752SOL    HW228719   0.146   1.477   7.344 -0.6861  0.8158 -0.1449
 5753SOL     OW28720   3.873   0.316   3.767  0.3333 -0.1741  0.2817
 5753SOL    HW128721   3.807   0.254   3.736 -0.2824  1.6030 -1.9473
 5753SOL    HW228722   3.857   0.392   3.710 -0.2460 -0.5964 -0.1136
 5754SOL     OW28723   2.140   2.848   2.270  0.0552 -0.0290 -0.0163
 5754SOL    HW128724   2.092   2.829   2.189 -2.9419 -0.3690  1.8341
 5754SOL    HW228725   2.194   2.922   2.244 -1.0951  0.8059 -0.0576
 5755SOL     OW28726   1.878   0.550   0.328  0.3308 -0.1783 -0.3034
 5755SOL    HW128727   1.829   0.479   0.370 -0.6640  1.0202  0.5594
 5755SOL    HW228728   1.922   0.591   0.402  0.7543  1.0186 -1.2165
 5756SOL     OW28729   1.236   1.166   3.384 -0.6756 -0.1839  0.0076
 5756SOL    HW128730   1.167   1.217   3.341  0.7216  0.3110 -1.6688
 5756SOL    HW228731   1.269   1.111   3.312 -1.5642 -1.0266  0.2409
 5757SOL     OW28732   0.002   1.107   3.913 -0.2736 -0.1749  0.0796
 5757SOL    HW128733   0.090   1.140   3.896  0.2312 -0.8382  1.3222
 5757SOL    HW228734   4.718   1.027   3.861 -0.1976 -0.6435  0.7801
 5758SOL     OW28735   1.766   2.567   5.615  0.1529  0.0363 -0.1143
 5758SOL    HW128736   1.861   2.578   5.619  0.1787  0.7602 -2.3807
 5758SOL    HW228737   1.769   2.510   5.538 -0.0531 -1.2216  0.8122
 5759SOL     OW28738   3.396   0.755   1.297 -0.4813 -0.0084 -0.2317
 5759SOL    HW128739   3.442   0.702   1.362  2.9944  1.2387 -1.6735
 5759SOL    HW228740   3.466   0.808   1.260 -0.2619 -0.8493 -1.0044
 5760SOL     OW28741   2.016   0.860   7.132  0.4491 -0.2550 -0.1863
 5760SOL    HW128742   2.045   0.771   7.152  0.5857  0.0193  0.8464
 5760SOL    HW228743   2.074   0.900   7.197 -0.7264  2.1897 -0.6428
 5761SOL     OW28744   0.267   1.750  10.678 -0.0022 -0.0647  0.2788
 5761SOL    HW128745   0.271   1.727  10.585 -1.8610 -1.9988  0.6953
 5761SOL    HW228746   0.289   1.663  10.712  1.2781  0.9804  2.1629
 5762SOL     OW28747   1.315   3.567   0.527 -0.6089 -0.1139  0.6023
 5762SOL    HW128748   1.281   3.620   0.599  0.6736 -1.3893  2.1321
 5762SOL    HW228749   1.363   3.637   0.483 -1.4421 -0.3256 -0.6742
 5763SOL     OW28750   4.309   4.578   5.897 -0.9836 -0.3354  0.5521
 5763SOL    HW128751   4.236   4.523   5.868  0.5152 -1.6965 -0.5952
 5763SOL    HW228752   4.374   4.550   5.832 -1.5958  0.1190 -0.2691
 5764SOL     OW28753   4.567   4.142  12.196 -0.4146 -0.1322 -0.0407
 5764SOL    HW128754   4.537   4.079  12.261  0.3420  0.4269  0.8643
 5764SOL    HW228755   4.526   4.217  12.240 -0.5957 -0.0738 -0.3077
 5765SOL     OW28756   1.741   3.136   6.556  0.1401  0.1889  0.1353
 5765SOL    HW128757   1.660   3.165   6.598  0.2783 -0.1409  0.6307
 5765SOL    HW228758   1.805   3.161   6.622  0.2700  0.5449 -0.1293
 5766SOL     OW28759   1.161   2.747  12.825  0.3507 -0.0200  0.1982
 5766SOL    HW128760   1.104   2.815  12.790 -0.0452 -0.4069  0.0993
 5766SOL    HW228761   1.187   2.705  12.743 -0.1153  1.9218 -0.9444
 5767SOL     OW28762   0.424   3.109  15.779  0.2310 -0.1877 -0.0463
 5767SOL    HW128763   0.452   3.021  15.805  0.3384 -0.3504 -0.7020
 5767SOL    HW228764   0.330   3.092  15.775  0.1355  0.5179 -0.6721
 5768SOL     OW28765   1.511   1.075   5.021  0.8985  0.6663 -0.2793
 5768SOL    HW128766   1.576   1.026   4.970  0.9718 -0.1491  0.5939
 5768SOL    HW228767   1.454   1.105   4.950  1.3651 -0.6953 -1.2138
 5769SOL     OW28768   4.610   3.817   8.664 -0.2426  0.5411 -0.3607
 5769SOL    HW128769   4.602   3.744   8.602 -1.3701  0.7716 -0.4971
 5769SOL    HW228770   4.520   3.823   8.697  0.7444  3.2579  1.7893
 5770SOL     OW28771   4.250   3.199  13.624 -0.1045 -0.5472 -0.2975
 5770SOL    HW128772   4.322   3.247  13.664 -0.4527 -0.0468 -0.2807
 5770SOL    HW228773   4.178   3.214  13.686 -0.1001  2.1544 -0.9720
 5771SOL     OW28774   2.647   3.706   8.642 -0.4173 -0.0524  0.0458
 5771SOL    HW128775   2.611   3.618   8.639  2.3772 -1.1663 -0.9430
 5771SOL    HW228776   2.643   3.722   8.548  2.0226  0.2935  0.0086
 5772SOL     OW28777   3.879   0.164   5.762  0.2439  0.2407 -0.4672
 5772SOL    HW128778   3.955   0.179   5.707  0.8658  1.0200  0.5950
 5772SOL    HW228779   3.806   0.196   5.709  0.4192 -0.3130 -1.0301
 5773SOL     OW28780   0.568   2.010   4.539 -0.3135  0.3901  0.0453
 5773SOL    HW128781   0.550   2.091   4.586  1.2665  0.5751  0.3330
 5773SOL    HW228782   0.650   2.033   4.496 -1.6786  1.0844 -2.2213
 5774SOL     OW28783   4.475   0.445   2.786 -0.7265 -0.2339  0.0289
 5774SOL    HW128784   4.569   0.459   2.791 -0.8917  0.4717  1.3869
 5774SOL    HW228785   4.472   0.386   2.711  1.0722 -2.3382  1.6195
 5775SOL     OW28786   3.126   1.020   0.944  0.6589 -0.3838  0.2597
 5775SOL    HW128787   3.087   1.101   0.977 -0.3902 -0.6863 -0.2261
 5775SOL    HW228788   3.207   1.014   0.995  0.2324  0.1099  0.9969
 5776SOL     OW28789   0.216   0.042   1.846  0.4202  0.2309 -0.3406
 5776SOL    HW128790   0.136   0.074   1.887 -0.5944 -0.8880 -1.4627
 5776SOL    HW228791   0.185   0.015   1.760 -0.4036  1.7711 -0.5278
 5777SOL     OW28792   2.326   3.105   7.800  0.0283 -0.5857  0.1660
 5777SOL    HW128793   2.399   3.141   7.749 -0.1838  1.1050  1.0559
 5777SOL    HW228794   2.253   3.153   7.761 -0.0937  0.6316  1.8699
 5778SOL     OW28795   4.270   0.653   6.813  0.5862  0.4349 -0.2651
 5778SOL    HW128796   4.355   0.627   6.776 -0.1111 -0.9982 -0.8684
 5778SOL    HW228797   4.227   0.716   6.755  1.2453 -0.7062 -1.9927
 5779SOL     OW28798   4.079   4.589   4.648 -0.5599 -1.1085  1.2213
 5779SOL    HW128799   4.083   4.496   4.630  0.8586 -0.6528 -0.7827
 5779SOL    HW228800   4.087   4.628   4.561  1.0728  0.2646  1.9636
 5780SOL     OW28801   3.153   0.953   8.460 -0.3727  0.3657 -0.1092
 5780SOL    HW128802   3.230   1.002   8.490  0.7794 -1.6264  0.1869
 5780SOL    HW228803   3.079   0.986   8.510  0.3312  0.2155  1.0470
 5781SOL     OW28804   3.801   0.765   8.662  0.1708 -0.6823 -0.0883
 5781SOL    HW128805   3.757   0.844   8.694  1.8295 -0.2332  1.0529
 5781SOL    HW228806   3.854   0.800   8.590  0.8141 -1.5752 -0.0416
 5782SOL     OW28807   1.373   2.817   4.152  0.5069 -0.3638  0.2239
 5782SOL    HW128808   1.423   2.737   4.135 -0.3448 -0.6149 -1.1112
 5782SOL    HW228809   1.432   2.891   4.141  1.3474 -0.8401  1.4751
 5783SOL     OW28810   3.564   1.578   3.916  0.2633 -0.4487  0.0632
 5783SOL    HW128811   3.534   1.600   3.827  0.4832  2.6726  0.7483
 5783SOL    HW228812   3.647   1.627   3.913  0.8685 -1.4225  0.9627
 5784SOL     OW28813   2.958   0.320  14.773  0.5122  0.2388 -0.0183
 5784SOL    HW128814   3.001   0.260  14.713  1.2102 -0.0997  0.8222
 5784SOL    HW228815   2.873   0.315  14.729 -0.8674  2.1014  2.4114
 5785SOL     OW28816   3.701   1.592  16.865 -0.2615  0.4296  0.2222
 5785SOL    HW128817   3.714   1.529  16.795 -1.3004  0.3032  0.1414
 5785SOL    HW228818   3.678   1.676  16.826 -1.3501 -0.2814 -0.6401
 5786SOL     OW28819   1.104   2.871   6.588  0.1183  0.1563 -0.5566
 5786SOL    HW128820   1.101   2.892   6.495  1.6445  0.2529 -0.5730
 5786SOL    HW228821   1.186   2.910   6.618  0.0173 -1.2905  1.6114
 5787SOL     OW28822   4.370   1.360   0.313  0.0824 -0.7351 -0.0715
 5787SOL    HW128823   4.327   1.277   0.295  1.0056 -1.4933  1.1432
 5787SOL    HW228824   4.425   1.356   0.235 -0.8997  1.8756 -0.9134
 5788SOL     OW28825   1.748   3.013  15.842  0.1749  0.1628 -0.6245
 5788SOL    HW128826   1.668   3.065  15.828 -0.5158 -0.5103  0.7922
 5788SOL    HW228827   1.803   3.050  15.773  1.5948  2.5470  1.7770
 5789SOL     OW28828   2.373   0.854  12.145  0.0223 -0.3148  0.0133
 5789SOL    HW128829   2.454   0.818  12.107 -0.5564 -0.6911 -0.8675
 5789SOL    HW228830   2.408   0.874  12.232  0.9004  2.5692 -1.0021
 5790SOL     OW28831   0.226   0.988  14.766  1.0544 -0.2846 -0.0966
 5790SOL    HW128832   0.302   0.960  14.715  1.6340 -1.8799  1.6188
 5790SOL    HW228833   0.265   1.062  14.814 -0.4245  0.3717  0.1026
 5791SOL     OW28834   1.789   2.851   3.373 -0.3463 -0.6644 -0.5022
 5791SOL    HW128835   1.698   2.826   3.390 -0.3873  1.0332  1.6522
 5791SOL    HW228836   1.783   2.945   3.360 -1.0810 -0.5400  0.7907
 5792SOL     OW28837   1.671   4.102   8.286  0.1632  0.6652 -1.2251
 5792SOL    HW128838   1.643   4.013   8.305  0.6216  0.7837  0.0195
 5792SOL    HW228839   1.765   4.086   8.287  0.3106  1.4979 -1.2355
 5793SOL     OW28840   1.577   1.505  11.591  0.4419 -0.4219  0.0351
 5793SOL    HW128841   1.655   1.562  11.589  1.3129 -1.6247 -0.6510
 5793SOL    HW228842   1.627   1.423  11.588 -1.6408 -1.6101 -1.6895
 5794SOL     OW28843   2.609   1.152   4.822 -0.2137  0.1746  0.1076
 5794SOL    HW128844   2.666   1.087   4.863  0.7690  0.3154 -1.0384
 5794SOL    HW228845   2.597   1.220   4.888  1.7485  1.6336 -1.0478
 5795SOL     OW28846   3.127   1.740   5.396  0.1676 -0.3990 -0.0908
 5795SOL    HW128847   3.197   1.772   5.452  0.1307 -0.2488 -0.1309
 5795SOL    HW228848   3.133   1.647   5.416  1.2933 -0.5218 -0.9992
 5796SOL     OW28849   3.534   1.767   4.448 -1.3246 -0.0911 -0.0811
 5796SOL    HW128850   3.488   1.714   4.513 -1.0311 -0.1627  0.0639
 5796SOL    HW228851   3.534   1.705   4.375 -2.3442 -0.5368  0.2949
 5797SOL     OW28852   2.822   2.523   6.701  0.1926  0.1702 -0.6416
 5797SOL    HW128853   2.859   2.587   6.640  0.2336 -1.2295 -2.0773
 5797SOL    HW228854   2.756   2.486   6.642  1.2315 -0.5112 -1.3792
 5798SOL     OW28855   4.353   3.113   9.130 -0.1021 -0.6691  0.4834
 5798SOL    HW128856   4.436   3.087   9.170 -0.2507  1.1669  1.9539
 5798SOL    HW228857   4.380   3.192   9.084 -0.3797 -2.2671 -2.4280
 5799SOL     OW28858   2.237   0.960  11.894  0.8066  0.3216 -0.0235
 5799SOL    HW128859   2.284   1.043  11.888  0.8116  0.3941  1.1351
 5799SOL    HW228860   2.272   0.932  11.978 -0.4841 -1.7016 -0.1663
 5800SOL     OW28861   1.662   1.395  12.558  0.2072  0.5341  0.1688
 5800SOL    HW128862   1.742   1.346  12.537  0.1120  0.1804  0.6368
 5800SOL    HW228863   1.590   1.332  12.558  0.3832  0.3334  1.6813
 5801SOL     OW28864   1.592   3.200   4.907 -0.1476 -0.1020  0.1795
 5801SOL    HW128865   1.667   3.245   4.866 -0.0093 -1.3266 -0.9259
 5801SOL    HW228866   1.618   3.108   4.913 -0.8331 -0.2789  0.3418
 5802SOL     OW28867   0.827   0.789   6.125 -0.6909 -0.1271  0.8423
 5802SOL    HW128868   0.833   0.710   6.178  1.0306 -0.0298  0.7714
 5802SOL    HW228869   0.897   0.777   6.061 -2.6322 -1.8817 -1.0007
 5803SOL     OW28870   1.889   1.478   7.535 -0.4598  0.4545 -0.3648
 5803SOL    HW128871   1.908   1.404   7.477  0.1278 -0.4481  0.9789
 5803SOL    HW228872   1.857   1.430   7.611  0.0324 -0.4605 -0.7400
 5804SOL     OW28873   0.854   2.117   6.273  0.6268  0.2965  0.0519
 5804SOL    HW128874   0.925   2.158   6.323  1.5958 -0.3862 -0.7543
 5804SOL    HW228875   0.784   2.093   6.334  0.8068 -0.6836 -0.1300
 5805SOL     OW28876   2.347   4.196   7.817  0.3393 -0.2440 -0.2788
 5805SOL    HW128877   2.409   4.268   7.812 -1.5171  1.3971  0.0534
 5805SOL    HW228878   2.335   4.185   7.911 -2.1039 -0.6235 -0.6257
 5806SOL     OW28879   2.857   1.508  10.747  0.1931 -0.2344  0.0639
 5806SOL    HW128880   2.903   1.578  10.794 -0.2342  0.2459 -0.2233
 5806SOL    HW228881   2.894   1.505  10.659 -3.3708  1.4475 -1.4991
 5807SOL     OW28882   1.170   0.483  12.596  0.1189  0.1963  0.0288
 5807SOL    HW128883   1.076   0.476  12.614  0.2911  0.5038  1.0387
 5807SOL    HW228884   1.202   0.402  12.636  1.5325  1.5374  1.6204
 5808SOL     OW28885   3.608   4.452   3.080 -0.3220  0.8545 -0.2164
 5808SOL    HW128886   3.519   4.476   3.055  0.4786  4.2264  0.1308
 5808SOL    HW228887   3.622   4.514   3.152 -2.8791 -2.5213  3.1327
 5809SOL     OW28888   0.834   3.073  17.513  0.0231  0.1374  0.1179
 5809SOL    HW128889   0.853   3.149  17.458 -0.5221  0.6549  0.6500
 5809SOL    HW228890   0.820   3.006  17.446  1.1578 -1.2928  1.3129
 5810SOL     OW28891   1.759   4.032   4.282  0.0995 -0.7378  0.0430
 5810SOL    HW128892   1.806   4.032   4.199  2.0732 -0.7103  1.1566
 5810SOL    HW228893   1.702   3.956   4.267 -2.2419  1.7537 -3.7227
 5811SOL     OW28894   3.310   4.342   4.350  0.5722  0.0904  0.2361
 5811SOL    HW128895   3.243   4.313   4.411  0.0713  1.9740  0.5717
 5811SOL    HW228896   3.311   4.438   4.349 -1.6813  0.0790 -1.6837
 5812SOL     OW28897   3.964   0.335   1.392 -0.1522 -0.2300 -0.0086
 5812SOL    HW128898   3.895   0.276   1.423  1.6147 -2.1172  0.3346
 5812SOL    HW228899   3.963   0.310   1.300 -1.0935  0.2403 -0.1220
 5813SOL     OW28900   2.768   0.661   5.509 -0.5211  0.1840  0.4337
 5813SOL    HW128901   2.694   0.718   5.532  1.3855  3.7758 -2.2282
 5813SOL    HW228902   2.831   0.666   5.581  1.6214 -1.7172 -1.3205
 5814SOL     OW28903   4.045   4.682   9.225  0.6288 -0.2599 -0.1445
 5814SOL    HW128904   4.085   4.675   9.138  1.9193  1.4654  0.3211
 5814SOL    HW228905   3.951   4.677   9.204  1.0021  0.3409 -1.9320
 5815SOL     OW28906   3.983   2.050   8.597 -0.0346  0.2064 -0.1613
 5815SOL    HW128907   3.901   2.054   8.548 -0.0723  0.5416 -0.0737
 5815SOL    HW228908   4.012   2.140   8.578 -0.1729 -0.2685 -2.6171
 5816SOL     OW28909   3.684   3.173   6.197  0.3717 -0.1663 -0.1736
 5816SOL    HW128910   3.601   3.205   6.161  0.7856  0.1727 -0.8151
 5816SOL    HW228911   3.727   3.251   6.230 -0.0094  0.3074 -0.7918
 5817SOL     OW28912   2.912   0.196   9.305 -0.1088 -0.6977 -0.0133
 5817SOL    HW128913   2.934   0.175   9.215 -0.4515 -1.0176 -0.0214
 5817SOL    HW228914   2.996   0.230   9.336  0.8502 -0.6016 -2.7339
 5818SOL     OW28915   0.174   1.653  10.452  0.4784  0.6028  0.3646
 5818SOL    HW128916   0.208   1.606  10.375  1.2262 -1.9996  2.2957
 5818SOL    HW228917   0.083   1.625  10.451  0.7711 -0.3441  0.5737
 5819SOL     OW28918   1.910   3.138  13.645  0.6126 -0.2633  0.6880
 5819SOL    HW128919   1.917   3.066  13.709 -2.6298 -0.3033  1.0056
 5819SOL    HW228920   1.847   3.100  13.584 -0.2784  0.9499  0.8553
 5820SOL     OW28921   0.987   1.690   0.610  0.5081 -0.2319 -0.3916
 5820SOL    HW128922   0.971   1.645   0.693 -0.9447 -0.4237 -0.7868
 5820SOL    HW228923   0.905   1.695   0.562 -0.0516  0.0310  0.5807
 5821SOL     OW28924   3.870   3.962   6.736  0.4000 -0.2756 -0.0095
 5821SOL    HW128925   3.874   4.053   6.765 -1.0319  0.0607 -0.8469
 5821SOL    HW228926   3.962   3.944   6.720 -0.0463  0.1435 -3.0822
 5822SOL     OW28927   1.505   2.867   6.354 -0.6938  0.0220  0.6297
 5822SOL    HW128928   1.600   2.869   6.368 -0.8035 -0.0310  1.3472
 5822SOL    HW228929   1.473   2.857   6.443  0.7512  0.5388  1.2204
 5823SOL     OW28930   2.760   2.678   3.605  0.7731 -0.0128 -0.2464
 5823SOL    HW128931   2.731   2.714   3.521  1.6164 -0.0381 -0.5516
 5823SOL    HW228932   2.674   2.661   3.643 -0.3298  2.5210 -1.6333
 5824SOL     OW28933   3.388   3.158   2.825  0.1773  0.0261  0.4184
 5824SOL    HW128934   3.369   3.079   2.773 -0.0096  0.0177  0.4988
 5824SOL    HW228935   3.399   3.226   2.759 -1.0527  0.2799  0.4808
 5825SOL     OW28936   3.691   3.118   2.478 -0.4504 -0.4618  0.1967
 5825SOL    HW128937   3.600   3.106   2.505 -0.6987  0.8092 -0.0586
 5825SOL    HW228938   3.674   3.185   2.411 -0.3876  0.0498  0.6926
 5826SOL     OW28939   4.197   4.681   8.619  0.3126  0.2513 -0.0232
 5826SOL    HW128940   4.267   4.635   8.572  0.0667  0.8608 -0.9721
 5826SOL    HW228941   4.242   0.017   8.679 -1.4384  0.6798  0.8721
 5827SOL     OW28942   4.427   2.838   8.738 -0.0989  0.0435 -0.1802
 5827SOL    HW128943   4.424   2.926   8.775 -0.5487 -0.6876  1.5032
 5827SOL    HW228944   4.503   2.860   8.684 -0.0696  0.9071  0.2196
 5828SOL     OW28945   3.246   4.163   2.703 -0.5618  0.0570  0.2535
 5828SOL    HW128946   3.339   4.139   2.694 -0.5965  0.4701 -1.2659
 5828SOL    HW228947   3.251   4.258   2.701 -2.6378  0.1595  0.1603
 5829SOL     OW28948   0.832   4.049   7.517  0.7268  0.5483 -0.4439
 5829SOL    HW128949   0.801   4.137   7.542  0.8697  0.8591 -1.3580
 5829SOL    HW228950   0.922   4.069   7.491  0.1321  2.4525 -1.0744
 5830SOL     OW28951   3.373   1.837  11.372 -0.1649 -0.3760  0.3557
 5830SOL    HW128952   3.447   1.795  11.329  0.9011  2.7562 -0.8721
 5830SOL    HW228953   3.393   1.813  11.462 -2.3016 -1.2682  0.5797
 5831SOL     OW28954   1.669   2.368   4.208  0.3350 -0.1316  0.0265
 5831SOL    HW128955   1.715   2.330   4.133  0.1936 -1.0357  0.4015
 5831SOL    HW228956   1.692   2.310   4.280 -0.9602 -1.1345 -0.3538
 5832SOL     OW28957   0.615   4.334   7.884  0.1546 -0.2436  0.2872
 5832SOL    HW128958   0.709   4.349   7.873  0.1599  0.0827  0.8047
 5832SOL    HW228959   0.593   4.271   7.815 -0.2976  2.8327 -2.4057
 5833SOL     OW28960   2.606   4.532   8.085 -0.2388  0.0048  0.4591
 5833SOL    HW128961   2.557   4.613   8.096 -1.2042 -0.3426 -1.2298
 5833SOL    HW228962   2.669   4.554   8.154 -1.0570  0.1493  1.1497
 5834SOL     OW28963   4.634   4.706  15.689  0.1761 -0.1869 -0.1183
 5834SOL    HW128964   4.574   0.020  15.753 -0.5649  1.0555 -1.5121
 5834SOL    HW228965   4.720   0.012  15.719 -0.2745  0.6351  0.3595
 5835SOL     OW28966   3.044   1.235   5.928 -0.0081 -0.3905 -0.0410
 5835SOL    HW128967   3.021   1.283   6.008 -0.8610  0.1212 -0.5915
 5835SOL    HW228968   3.066   1.311   5.874  1.5063  1.1313  2.7470
 5836SOL     OW28969   4.488   3.494   2.235  0.5424 -0.1043 -0.0208
 5836SOL    HW128970   4.445   3.580   2.226  0.6318 -0.1819 -1.1835
 5836SOL    HW228971   4.422   3.438   2.195 -0.1032 -0.3712  1.3945
 5837SOL     OW28972   3.562   3.430   6.857  0.1157  0.0233  0.1765
 5837SOL    HW128973   3.606   3.346   6.849 -1.0964 -0.6380  0.5145
 5837SOL    HW228974   3.608   3.488   6.796  0.3765 -0.1986  0.1610
 5838SOL     OW28975   0.359   1.707  13.618  0.1550  0.6973  0.0333
 5838SOL    HW128976   0.372   1.650  13.693  0.4119  0.2217 -0.3681
 5838SOL    HW228977   0.276   1.746  13.644 -0.4922  0.4406 -1.6705
 5839SOL     OW28978   3.690   4.643   3.895  0.3405  0.6738 -0.1137
 5839SOL    HW128979   3.768   4.695   3.875  0.2672  1.6049  1.9420
 5839SOL    HW228980   3.728   4.607   3.976 -0.4172 -2.3522 -1.1047
 5840SOL     OW28981   3.814   4.408   8.879  0.2850  0.1921 -0.4104
 5840SOL    HW128982   3.900   4.442   8.855  0.7054 -0.1748  0.5587
 5840SOL    HW228983   3.807   4.442   8.969  2.1887  2.2547 -1.0492
 5841SOL     OW28984   1.167   4.290   2.078  0.2342 -0.4891 -0.4412
 5841SOL    HW128985   1.124   4.359   2.027 -0.1107 -1.3218 -1.2637
 5841SOL    HW228986   1.157   4.212   2.024  2.9482 -1.8325  1.0297
 5842SOL     OW28987   2.490   3.971   4.954  0.1516 -0.0954 -0.0061
 5842SOL    HW128988   2.479   4.020   4.872  0.6863 -0.1702 -0.1216
 5842SOL    HW228989   2.416   4.008   5.003  1.4397  2.7419 -0.1981
 5843SOL     OW28990   4.439   1.343  13.520 -0.5069  0.3564  0.4997
 5843SOL    HW128991   4.517   1.338  13.575 -1.3624 -0.1313  1.6677
 5843SOL    HW228992   4.366   1.307  13.571  0.1285 -0.3854  0.8847
 5844SOL     OW28993   0.279   2.605   0.594 -0.7061 -0.4642 -0.7867
 5844SOL    HW128994   0.360   2.610   0.543 -1.2732 -2.4084 -1.8704
 5844SOL    HW228995   0.309   2.659   0.666  1.0289  0.0135 -1.8720
 5845SOL     OW28996   4.086   4.689   1.175  0.2861 -0.2103  0.6762
 5845SOL    HW128997   4.042   0.045   1.142  1.0863  0.4574  1.1880
 5845SOL    HW228998   4.094   4.708   1.268 -1.6244 -3.0965  1.4124
 5846SOL     OW28999   4.480   1.527   2.735 -0.1559  0.0384 -0.3123
 5846SOL    HW129000   4.499   1.443   2.776 -3.0129 -0.1175  0.6737
 5846SOL    HW229001   4.552   1.576   2.775 -0.7657  0.8017 -0.1550
 5847SOL     OW29002   1.504   4.038  12.845  0.2888  0.3244  0.5235
 5847SOL    HW129003   1.443   3.964  12.854  1.4873 -0.3828  2.8303
 5847SOL    HW229004   1.580   3.996  12.805  1.2970  0.3292  2.4286
 5848SOL     OW29005   3.684   3.704  10.250  0.8696  0.6012  0.1441
 5848SOL    HW129006   3.773   3.683  10.277  0.9346  0.9728  0.2114
 5848SOL    HW229007   3.664   3.781  10.302  1.3164 -0.3923  1.7823
 5849SOL     OW29008   2.980   4.302   2.690  0.7143  0.2204 -0.2513
 5849SOL    HW129009   2.962   4.362   2.763 -2.1398 -0.7279 -0.1759
 5849SOL    HW229010   3.031   4.232   2.730 -1.8169 -0.6989  1.3591
 5850SOL     OW29011   2.782   1.584   4.431 -0.0173  0.3658  0.0712
 5850SOL    HW129012   2.767   1.575   4.337 -1.5408  0.3022  0.3220
 5850SOL    HW229013   2.864   1.632   4.423  0.9500 -1.0723  1.5196
 5851SOL     OW29014   4.669   3.596  13.646 -0.2125 -0.0838  0.1237
 5851SOL    HW129015   4.614   3.617  13.571  0.0915 -0.1887 -0.1322
 5851SOL    HW229016   0.004   3.533  13.602  1.9649  2.1685 -0.2880
 5852SOL     OW29017   2.427   3.890   3.063 -0.4731  0.1855  0.0498
 5852SOL    HW129018   2.380   3.854   2.988  1.1637  0.3033 -1.0180
 5852SOL    HW229019   2.420   3.825   3.132 -1.2947  0.3254  0.1002
 5853SOL     OW29020   2.038   2.280   5.321 -0.9675  0.0007 -0.1495
 5853SOL    HW129021   2.065   2.202   5.369 -1.8281 -1.0429 -1.3844
 5853SOL    HW229022   2.122   2.326   5.315 -0.9783 -0.1066 -1.0758
 5854SOL     OW29023   2.442   2.291   6.647 -0.2896  0.6044 -0.2547
 5854SOL    HW129024   2.513   2.226   6.645  0.2960  1.3067 -1.8680
 5854SOL    HW229025   2.417   2.283   6.739 -1.3925  0.8235 -0.5303
 5855SOL     OW29026   0.907   2.559   5.015  0.5588  0.4830 -0.3039
 5855SOL    HW129027   0.969   2.632   5.019 -1.6835  2.5175 -2.1467
 5855SOL    HW229028   0.886   2.537   5.105 -1.9770  1.5104 -0.6572
 5856SOL     OW29029   4.278   1.762  13.737 -0.1460  0.1164 -0.1204
 5856SOL    HW129030   4.306   1.682  13.692 -0.9387 -0.4633  0.4107
 5856SOL    HW229031   4.189   1.775  13.705 -0.0991  1.8493  0.4283
 5857SOL     OW29032   0.755   2.244   2.988 -0.0439  0.0463 -0.0210
 5857SOL    HW129033   0.667   2.208   2.978 -0.1241  0.6322 -1.3905
 5857SOL    HW229034   0.739   2.338   2.996 -0.1374  0.1024 -0.9247
 5858SOL     OW29035   0.834   2.482   7.192 -0.2622  0.0300  0.5768
 5858SOL    HW129036   0.808   2.546   7.126  0.1287 -1.6229 -1.1790
 5858SOL    HW229037   0.912   2.526   7.227  0.3010  1.2562 -2.1993
 5859SOL     OW29038   4.042   1.279   8.871 -0.6295  0.2267  0.3096
 5859SOL    HW129039   4.101   1.203   8.860  0.9053  1.2815  1.2453
 5859SOL    HW229040   4.098   1.340   8.919  2.3803 -2.8251  0.6924
 5860SOL     OW29041   4.584   2.231  17.522  0.1760 -0.0244  0.3097
 5860SOL    HW129042   4.634   2.159  17.485 -0.8922 -0.9255  0.6190
 5860SOL    HW229043   4.585   2.305  17.461  1.4411 -1.1669 -1.0483
 5861SOL     OW29044   0.321   1.556   4.246 -0.3505 -0.5662 -0.6893
 5861SOL    HW129045   0.385   1.572   4.177  1.1511  1.1413  1.1010
 5861SOL    HW229046   0.271   1.637   4.235 -2.2606 -1.5984  0.2549
 5862SOL     OW29047   3.982   2.986  17.084 -0.3843  0.6670  0.5309
 5862SOL    HW129048   4.011   3.061  17.033  1.7219 -0.6333 -0.1828
 5862SOL    HW229049   3.894   2.970  17.050 -0.4865  2.8917 -0.1805
 5863SOL     OW29050   1.440   4.144  13.629 -0.2887  0.0479 -0.4736
 5863SOL    HW129051   1.532   4.122  13.616  0.6231  1.4544  3.6855
 5863SOL    HW229052   1.435   4.202  13.705 -1.3710 -1.3341  0.5029
 5864SOL     OW29053   0.682   4.326   3.508  0.3122  0.5812 -0.6956
 5864SOL    HW129054   0.754   4.348   3.448  1.5831  1.6224  1.2127
 5864SOL    HW229055   0.613   4.311   3.443 -0.7578 -1.0325  0.8273
 5865SOL     OW29056   4.689   3.202   4.604  0.3790 -0.0844 -0.3975
 5865SOL    HW129057   0.016   3.128   4.639 -1.2855 -0.9193  0.1739
 5865SOL    HW229058   4.616   3.195   4.665 -0.3350 -1.7192 -1.4373
 5866SOL     OW29059   3.211   4.220   8.490 -0.1942  0.5103  0.0535
 5866SOL    HW129060   3.187   4.300   8.538  4.5247  1.5233  0.7222
 5866SOL    HW229061   3.297   4.189   8.519  0.4422  1.5382 -0.7326
 5867SOL     OW29062   2.112   4.136   1.647  0.7162  0.1045 -0.2940
 5867SOL    HW129063   2.195   4.102   1.680  0.7258 -0.4604 -0.9058
 5867SOL    HW229064   2.133   4.121   1.555 -1.3625  1.1668 -0.9580
 5868SOL     OW29065   1.467   0.354   4.063  0.1507 -0.3064 -0.2345
 5868SOL    HW129066   1.468   0.345   4.158 -0.7228 -0.4959 -0.2418
 5868SOL    HW229067   1.377   0.326   4.042 -0.2861  1.6058 -0.8882
 5869SOL     OW29068   2.640   4.207   3.181  0.0635  0.5711  0.2590
 5869SOL    HW129069   2.570   4.207   3.246  0.3544 -2.9020  0.5943
 5869SOL    HW229070   2.634   4.122   3.136 -4.7035  0.4150  1.1788
 5870SOL     OW29071   3.387   2.266   7.498  0.6296  0.1102  0.1474
 5870SOL    HW129072   3.297   2.295   7.490  0.4456 -0.4278  0.2611
 5870SOL    HW229073   3.413   2.298   7.585  1.4069 -0.5291  0.1590
 5871SOL     OW29074   1.266   0.007   5.285  0.4201  0.1593 -0.3176
 5871SOL    HW129075   1.217   4.648   5.277 -0.3429  0.8370 -2.4223
 5871SOL    HW229076   1.257   0.036   5.376  0.5549  0.3671 -0.3719
 5872SOL     OW29077   0.160   0.651   1.668 -0.3162  0.0318  0.6235
 5872SOL    HW129078   0.109   0.691   1.597 -0.7212 -0.7941  0.4488
 5872SOL    HW229079   0.249   0.679   1.647 -0.5077 -0.8087 -1.4028
 5873SOL     OW29080   3.441   1.977   6.562 -0.5817 -0.0247 -0.0914
 5873SOL    HW129081   3.427   2.001   6.471  0.0042 -0.5207 -0.3135
 5873SOL    HW229082   3.532   2.004   6.576  0.2519 -2.3696 -0.9661
 5874SOL     OW29083   1.857   4.249   1.471 -0.1021 -0.2853 -0.1292
 5874SOL    HW129084   1.821   4.240   1.559  2.7579  2.3628  1.3023
 5874SOL    HW229085   1.817   4.332   1.446 -0.7695 -0.9238 -1.1815
 5875SOL     OW29086   3.602   0.593   3.766 -0.0607  0.0597  0.1584
 5875SOL    HW129087   3.676   0.544   3.729  0.1059  0.8287 -0.5414
 5875SOL    HW229088   3.528   0.535   3.782 -1.4493  1.3984 -1.3462
 5876SOL     OW29089   2.027   3.841  11.526 -0.3302 -0.4065 -0.0587
 5876SOL    HW129090   1.981   3.788  11.461 -0.5398 -0.9496  0.5284
 5876SOL    HW229091   1.985   3.927  11.514 -2.1312 -0.8073  3.2247
 5877SOL     OW29092   2.130   1.061  15.910  0.0241 -0.0379  0.1757
 5877SOL    HW129093   2.051   1.037  15.959  0.2902 -0.7423  0.2648
 5877SOL    HW229094   2.191   1.065  15.984  0.8761 -0.8989 -0.4707
 5878SOL     OW29095   2.210   2.892   5.934 -0.6128 -0.2251  0.4279
 5878SOL    HW129096   2.186   2.968   5.988 -0.4766 -0.2409  0.5092
 5878SOL    HW229097   2.245   2.927   5.852  1.6628  0.5689  1.7459
 5879SOL     OW29098   4.078   1.805   4.762 -0.3570 -0.5549 -0.2460
 5879SOL    HW129099   4.075   1.764   4.676  1.2830  0.9323 -1.0123
 5879SOL    HW229100   4.006   1.868   4.761 -0.8655 -1.1326 -0.2873
 5880SOL     OW29101   4.214   0.655   0.148 -0.3167 -0.6658 -0.6253
 5880SOL    HW129102   4.212   0.559   0.139 -0.3883 -0.9296  2.2340
 5880SOL    HW229103   4.177   0.688   0.067  1.7663  0.7882 -0.9883
 5881SOL     OW29104   2.360   2.506   8.770 -0.1095 -0.8000 -0.1660
 5881SOL    HW129105   2.273   2.531   8.738 -0.3012 -3.3723 -1.7216
 5881SOL    HW229106   2.381   2.442   8.702 -0.7722 -4.6618  3.2814
 5882SOL     OW29107   4.077   3.813   8.965 -0.2827  0.2303  0.0739
 5882SOL    HW129108   4.114   3.795   8.878  0.4538  3.1301 -0.2450
 5882SOL    HW229109   4.098   3.907   8.972 -3.3181  1.0229 -1.4585
 5883SOL     OW29110   3.961   4.682   7.015 -0.3387  0.0716  0.1705
 5883SOL    HW129111   4.043   4.644   7.047  0.9236  1.8015 -1.0646
 5883SOL    HW229112   3.964   0.049   7.048 -3.0590  0.7368 -1.3908
 5884SOL     OW29113   3.561   0.291   4.899  0.3359  0.1736  0.1578
 5884SOL    HW129114   3.477   0.332   4.879 -0.1587 -0.4030  1.0295
 5884SOL    HW229115   3.552   0.198   4.877  1.4056  0.4557 -1.4667
 5885SOL     OW29116   3.956   4.132   8.028  0.7338  0.6541 -0.1360
 5885SOL    HW129117   3.870   4.151   8.065 -0.2465  1.0391 -2.5600
 5885SOL    HW229118   4.011   4.171   8.095  0.2862 -0.3919  0.8332
 5886SOL     OW29119   3.463   2.427   2.524 -0.8603 -0.3603 -0.0431
 5886SOL    HW129120   3.504   2.380   2.451  0.3037 -0.7478  0.8780
 5886SOL    HW229121   3.534   2.461   2.577 -3.4168  2.0416  1.8703
 5887SOL     OW29122   3.550   1.339   7.734  0.0497  0.5479  0.3105
 5887SOL    HW129123   3.468   1.302   7.700 -1.0213  3.3485 -0.1493
 5887SOL    HW229124   3.517   1.362   7.821  3.4396 -0.1806  1.7796
 5888SOL     OW29125   2.983   1.651   8.552  0.4163  0.1137  0.0941
 5888SOL    HW129126   2.913   1.637   8.489 -0.3488 -1.4163  1.2824
 5888SOL    HW229127   2.971   1.743   8.576 -0.3459  0.1616 -0.4614
 5889SOL     OW29128   0.641   0.361  11.819  0.5357  0.0246 -0.1709
 5889SOL    HW129129   0.611   0.288  11.873 -0.9846  1.5528  1.0574
 5889SOL    HW229130   0.735   0.358  11.835  0.1458 -0.5711  1.9635
 5890SOL     OW29131   3.030   0.847   0.308 -0.5167 -0.1518 -0.2191
 5890SOL    HW129132   2.952   0.797   0.332 -0.7133  0.1997 -0.1288
 5890SOL    HW229133   3.066   0.796   0.236  0.0874  1.4878 -1.0931
 5891SOL     OW29134   4.686   3.178   9.835  0.3175 -0.1327  0.2213
 5891SOL    HW129135   0.001   3.266   9.834 -0.3647  0.1462 -0.2657
 5891SOL    HW229136   4.630   3.172   9.758  3.3626 -1.0556 -1.9207
 5892SOL     OW29137   0.702   1.179   7.543 -0.0024 -0.5578  0.4500
 5892SOL    HW129138   0.721   1.154   7.452  0.2140 -2.4465  1.0222
 5892SOL    HW229139   0.706   1.274   7.534  0.8732 -0.5718  0.6749
 5893SOL     OW29140   1.075   0.376   0.676 -0.0030 -0.3903 -0.1301
 5893SOL    HW129141   1.137   0.304   0.665  1.5556  0.3735  3.6081
 5893SOL    HW229142   1.093   0.414   0.763  2.3659  1.2044 -1.3130
 5894SOL     OW29143   1.132   2.731   0.694 -0.1784  0.0252  0.0725
 5894SOL    HW129144   1.160   2.811   0.650 -0.9837  0.3641  0.1776
 5894SOL    HW229145   1.042   2.759   0.713  0.0866  0.4605  0.7100
 5895SOL     OW29146   3.991   3.039   4.795 -0.0053  0.8907  0.2561
 5895SOL    HW129147   4.042   3.032   4.715 -0.4413  0.3735  0.0183
 5895SOL    HW229148   3.902   3.027   4.763 -0.6823  0.7596  2.1572
 5896SOL     OW29149   3.625   4.272  15.420 -0.0203 -0.2836  0.5303
 5896SOL    HW129150   3.555   4.206  15.419 -0.7798  0.5259  0.2554
 5896SOL    HW229151   3.608   4.311  15.335  0.4758  0.3670  0.7357
 5897SOL     OW29152   2.962   1.473   8.078  0.2854 -0.3167  0.3519
 5897SOL    HW129153   3.022   1.406   8.112 -1.1014 -1.5999  0.2594
 5897SOL    HW229154   2.918   1.422   8.011 -0.8038  2.6268 -1.1989
 5898SOL     OW29155   2.344   1.316   1.539 -0.4007 -0.0567 -0.4783
 5898SOL    HW129156   2.409   1.344   1.474  0.3182 -0.9037 -0.1255
 5898SOL    HW229157   2.275   1.281   1.482 -1.9391 -0.1906  1.4627
 5899SOL     OW29158   1.192   3.509   3.751  0.2135 -0.2633  0.0644
 5899SOL    HW129159   1.250   3.473   3.818  1.0896 -0.4026 -0.7633
 5899SOL    HW229160   1.250   3.571   3.708 -1.8834 -0.5782 -3.2758
 5900SOL     OW29161   0.643   3.589   2.672  0.1720  0.2794 -0.4952
 5900SOL    HW129162   0.691   3.643   2.609 -0.8333  0.3990 -1.1710
 5900SOL    HW229163   0.718   3.539   2.704 -0.4046 -1.0820 -1.2767
 5901SOL     OW29164   3.519   0.123  10.792 -0.1039  0.4052  0.7416
 5901SOL    HW129165   3.452   0.142  10.858  1.1192  0.3278  2.0081
 5901SOL    HW229166   3.465   0.130  10.713  1.1971  0.0226 -0.1760
 5902SOL     OW29167   3.264   2.887  15.870  0.3915 -0.4734 -0.1483
 5902SOL    HW129168   3.230   2.955  15.811 -1.9795  0.6274  2.4644
 5902SOL    HW229169   3.298   2.950  15.933  1.2045 -1.7160  0.6559
 5903SOL     OW29170   4.428   3.078   2.854 -0.1541 -0.2470 -0.2053
 5903SOL    HW129171   4.412   2.998   2.903  0.5331  0.8812  1.8799
 5903SOL    HW229172   4.466   3.030   2.780 -3.5547 -2.4879 -0.4612
 5904SOL     OW29173   0.769   0.974   1.731  0.0491 -0.1577  0.5440
 5904SOL    HW129174   0.705   1.046   1.724 -0.5803 -0.7538  0.1758
 5904SOL    HW229175   0.848   1.019   1.760  0.2088 -0.5045  0.6437
 5905SOL     OW29176   2.638   3.653   2.069  0.0198  0.4804  0.3082
 5905SOL    HW129177   2.632   3.720   2.137 -0.9420  0.4470  0.2563
 5905SOL    HW229178   2.561   3.678   2.018 -0.3178  1.6744  1.3956
 5906SOL     OW29179   1.424   2.294   9.574  0.2169  0.2169 -0.3798
 5906SOL    HW129180   1.381   2.209   9.562 -1.3474  0.6992  1.8645
 5906SOL    HW229181   1.351   2.354   9.559  0.8269  2.5802  6.2268
 5907SOL     OW29182   0.023   3.519   7.774 -0.1050 -0.1424  0.1160
 5907SOL    HW129183   0.067   3.567   7.704 -0.3898  0.0560  0.0713
 5907SOL    HW229184   0.095   3.495   7.832 -0.5944  0.5206  0.9854
 5908SOL     OW29185   0.147   0.613   7.203 -0.4652  0.5991 -0.3378
 5908SOL    HW129186   0.124   0.701   7.235 -3.2004 -0.5323  0.7755
 5908SOL    HW229187   0.242   0.623   7.200 -0.4516  0.6035  0.1267
 5909SOL     OW29188   2.365   3.523   8.187 -0.1701 -0.5745  0.2730
 5909SOL    HW129189   2.364   3.481   8.102 -0.1556  1.2526 -0.6286
 5909SOL    HW229190   2.313   3.601   8.167 -0.5548 -1.1713 -1.0511
 5910SOL     OW29191   1.276   1.006   6.733  0.0207  0.5834 -1.0776
 5910SOL    HW129192   1.250   1.096   6.751 -0.3560  0.2481  0.0367
 5910SOL    HW229193   1.195   0.955   6.742 -0.1854  0.7096 -2.1737
 5911SOL     OW29194   2.555   4.433   5.674 -0.0953 -0.0462 -0.4470
 5911SOL    HW129195   2.616   4.487   5.624 -1.9912  1.7889 -0.7685
 5911SOL    HW229196   2.535   4.488   5.750 -1.7774  0.7228 -1.4493
 5912SOL     OW29197   1.112   3.007   6.325 -0.3357  0.3759 -0.2959
 5912SOL    HW129198   1.106   2.970   6.237 -1.6490 -0.2035  0.0415
 5912SOL    HW229199   1.200   3.044   6.318  0.1328 -0.4952  1.0705
 5913SOL     OW29200   3.805   3.498   9.649 -0.3713 -0.0340  0.9250
 5913SOL    HW129201   3.803   3.534   9.561 -3.8192 -0.9261  0.6309
 5913SOL    HW229202   3.741   3.426   9.643 -1.0951  0.8006 -1.3445
 5914SOL     OW29203   3.298   4.028   8.239 -0.1477  0.0109 -0.3487
 5914SOL    HW129204   3.340   3.958   8.287  0.6304  0.8725  0.2287
 5914SOL    HW229205   3.360   4.099   8.255  0.0283 -0.2998  0.3399
 5915SOL     OW29206   1.394   2.981   6.143  0.5016  0.2710  0.6676
 5915SOL    HW129207   1.428   2.946   6.225  0.8498 -2.2935 -0.5450
 5915SOL    HW229208   1.467   2.969   6.082 -0.8111 -2.4590 -0.3866
 5916SOL     OW29209   2.906   1.778   6.319 -0.3746 -0.1923  0.3775
 5916SOL    HW129210   2.875   1.722   6.390  1.8492 -1.7473  0.0932
 5916SOL    HW229211   2.832   1.768   6.259  2.1374 -0.9099 -2.5773
 5917SOL     OW29212   0.615   0.266   2.597 -0.0930 -0.1325 -0.2424
 5917SOL    HW129213   0.650   0.352   2.575 -2.3209  1.0111  0.6197
 5917SOL    HW229214   0.677   0.211   2.549  0.2755  0.3872 -0.3620
 5918SOL     OW29215   3.105   2.131   8.561  0.8389  0.9508 -0.5249
 5918SOL    HW129216   3.131   2.107   8.472  0.8365  0.5655 -0.4186
 5918SOL    HW229217   3.193   2.140   8.598  0.6392  0.8816 -0.0314
 5919SOL     OW29218   3.818   3.666   4.789  0.4909  0.0651  0.5508
 5919SOL    HW129219   3.904   3.639   4.754  1.5966  2.3018  1.5599
 5919SOL    HW229220   3.859   3.746   4.821  0.9819 -0.4976  1.3281
 5920SOL     OW29221   2.193   0.452  15.035  0.0639 -0.2574  1.2313
 5920SOL    HW129222   2.127   0.518  15.016 -0.1093 -0.6825  0.3937
 5920SOL    HW229223   2.163   0.380  14.980 -1.4087  1.9610 -0.8779
 5921SOL     OW29224   2.048   3.664   8.692  0.4998 -0.3442 -0.5450
 5921SOL    HW129225   2.021   3.755   8.704 -0.5670 -0.7949  0.5250
 5921SOL    HW229226   2.124   3.668   8.750  0.7682 -0.3642 -0.8936
 5922SOL     OW29227   2.021   0.631   2.702  0.1099  0.1224  0.4521
 5922SOL    HW129228   2.050   0.545   2.671  2.1033  2.2753 -3.7807
 5922SOL    HW229229   2.039   0.623   2.795  1.3220 -2.2405  0.0285
 5923SOL     OW29230   0.104   0.970   6.081 -0.5153 -0.2479  0.2311
 5923SOL    HW129231   0.037   1.034   6.105  0.7417  0.4363  1.9163
 5923SOL    HW229232   0.119   0.947   6.172 -2.0231  1.2906  0.8531
 5924SOL     OW29233   4.488   3.783   0.242 -0.1198  0.2663  0.1849
 5924SOL    HW129234   4.511   3.739   0.160  0.2136  1.2710 -0.2539
 5924SOL    HW229235   4.428   3.849   0.206  0.5641  0.3752 -0.7497
 5925SOL     OW29236   2.425   4.659   2.986 -0.1650  0.2313  0.2710
 5925SOL    HW129237   2.412   4.670   2.892 -1.1503  1.3392  0.5391
 5925SOL    HW229238   2.446   4.567   2.977  1.6972  0.7334 -0.5067
 5926SOL     OW29239   0.188   2.548   5.903 -0.3027  1.1650 -0.3170
 5926SOL    HW129240   0.241   2.469   5.894 -3.6004 -0.9223 -1.6056
 5926SOL    HW229241   0.125   2.533   5.833  1.4160 -1.8536 -1.2448
 5927SOL     OW29242   1.807   2.553   7.059  0.1641 -0.2984  0.2639
 5927SOL    HW129243   1.876   2.487   7.049  1.0177  0.9202 -2.0414
 5927SOL    HW229244   1.753   2.512   7.126  1.4950 -1.0690  0.8696
 5928SOL     OW29245   1.981   3.583   2.291  0.1910  0.3982 -0.4695
 5928SOL    HW129246   1.888   3.596   2.274 -0.1133 -0.8405  0.2620
 5928SOL    HW229247   1.987   3.587   2.387  4.3671  1.5428 -0.7417
 5929SOL     OW29248   3.838   3.248  13.467  0.5908  0.5499  0.1303
 5929SOL    HW129249   3.816   3.237  13.559 -0.1417  1.4262  0.0671
 5929SOL    HW229250   3.773   3.194  13.420  1.2150 -0.1456  0.0677
 5930SOL     OW29251   3.631   0.782   6.737 -0.0713 -0.3980 -0.4069
 5930SOL    HW129252   3.560   0.732   6.777 -0.2453 -1.6625 -2.3066
 5930SOL    HW229253   3.664   0.712   6.681 -0.3322  0.3293 -1.4726
 5931SOL     OW29254   1.790   3.062  13.394  0.4737  0.7918 -0.2574
 5931SOL    HW129255   1.833   3.082  13.311  0.4551 -0.8399 -0.6546
 5931SOL    HW229256   1.761   2.971  13.388 -1.7786  1.4826  0.0628
 5932SOL     OW29257   2.560   3.196  11.497  0.0112  0.2237  0.0168
 5932SOL    HW129258   2.468   3.203  11.472  0.0821 -0.0771 -0.3420
 5932SOL    HW229259   2.541   3.195  11.591  1.2762  2.0113  0.2888
 5933SOL     OW29260   4.400   4.431  10.748 -0.2475 -0.0798  0.3727
 5933SOL    HW129261   4.459   4.357  10.762  0.4104  0.4759  0.6088
 5933SOL    HW229262   4.324   4.384  10.713 -0.8437  1.7307 -0.7714
 5934SOL     OW29263   2.833   2.902  11.665 -0.2622 -0.2063 -0.4958
 5934SOL    HW129264   2.832   2.981  11.719  0.6002 -1.7976  1.8753
 5934SOL    HW229265   2.839   2.833  11.732 -0.4931  0.9812  0.7479
 5935SOL     OW29266   0.740   1.133   2.763 -0.2163  0.6045 -0.1487
 5935SOL    HW129267   0.823   1.177   2.782  0.3804  0.1552 -1.7383
 5935SOL    HW229268   0.705   1.199   2.703  0.7878  1.3484  0.0872
 5936SOL     OW29269   2.659   0.419  15.808  0.3878  0.1329 -0.1717
 5936SOL    HW129270   2.614   0.342  15.774 -0.8610 -0.3398  2.5858
 5936SOL    HW229271   2.641   0.475  15.732  0.1968  2.3617  1.5148
 5937SOL     OW29272   0.840   2.503   8.015 -0.5858 -0.2410 -0.2205
 5937SOL    HW129273   0.767   2.506   7.953 -0.8728  0.2592  0.1378
 5937SOL    HW229274   0.885   2.428   7.977 -0.4406  1.0122 -2.5279
 5938SOL     OW29275   1.434   0.825   0.095  0.3249  0.1319  0.0404
 5938SOL    HW129276   1.458   0.809   0.187  0.0732  0.2802  0.1335
 5938SOL    HW229277   1.449   0.737   0.062  0.8784  0.5068 -0.7058
 5939SOL     OW29278   3.166   3.358   7.511 -0.3216  0.2548 -0.3671
 5939SOL    HW129279   3.244   3.410   7.527 -0.7680  1.3798 -1.8548
 5939SOL    HW229280   3.107   3.400   7.573  1.1984 -2.2964  2.8406
 5940SOL     OW29281   4.026   0.442   0.876  0.3268 -0.1339  0.0961
 5940SOL    HW129282   4.080   0.493   0.816 -1.6404  0.7830 -0.8858
 5940SOL    HW229283   4.086   0.372   0.901  0.0531 -0.1407  0.7397
 5941SOL     OW29284   1.582   2.721   4.563  0.1156  0.1453  0.0488
 5941SOL    HW129285   1.659   2.689   4.609 -0.0361 -0.2148  0.0608
 5941SOL    HW229286   1.609   2.709   4.472 -0.1418 -2.6858  0.3204
 5942SOL     OW29287   4.687   3.823   5.955  0.4979 -0.3060  0.6964
 5942SOL    HW129288   4.623   3.761   5.921  0.9090  0.5427 -1.6261
 5942SOL    HW229289   4.706   3.882   5.881 -3.2196  0.0056  0.0314
 5943SOL     OW29290   3.784   2.221   7.238 -1.0261  0.5670  0.2652
 5943SOL    HW129291   3.731   2.192   7.312 -0.6399  0.1288  0.3713
 5943SOL    HW229292   3.805   2.311   7.263 -1.3202  1.2590 -1.9655
 5944SOL     OW29293   0.800   0.688   3.254  0.7174  0.0871  0.2467
 5944SOL    HW129294   0.727   0.629   3.273  1.2368 -1.2299 -1.7941
 5944SOL    HW229295   0.794   0.690   3.158 -1.2897 -2.2753  0.3300
 5945SOL     OW29296   2.965   0.979   8.060 -0.1498 -0.6841  0.3254
 5945SOL    HW129297   2.994   0.925   8.133  2.3327 -2.1290 -1.7383
 5945SOL    HW229298   2.902   1.037   8.103  1.6091  2.1316 -0.9008
 5946SOL     OW29299   3.650   2.840  13.626  1.1031 -0.1885 -0.7892
 5946SOL    HW129300   3.645   2.926  13.668 -2.8722 -0.4061 -0.7964
 5946SOL    HW229301   3.728   2.797  13.661  0.3348 -0.3082  0.7622
 5947SOL     OW29302   3.737   3.329   9.302  0.0414  0.7432  0.1963
 5947SOL    HW129303   3.721   3.295   9.215  2.0463 -0.4945  0.3184
 5947SOL    HW229304   3.717   3.421   9.288  0.0683  0.3850 -2.2107
 5948SOL     OW29305   0.202   0.443  15.600 -0.4859  0.0843 -0.0534
 5948SOL    HW129306   0.143   0.405  15.535 -1.3149 -1.2394  1.4735
 5948SOL    HW229307   0.274   0.469  15.542 -0.6053 -0.3298 -0.3842
 5949SOL     OW29308   3.239   1.531   3.560  0.4021  0.1826 -0.1002
 5949SOL    HW129309   3.331   1.544   3.582  0.6784  2.0066 -2.4089
 5949SOL    HW229310   3.238   1.456   3.501 -0.8915 -0.2520  0.4786
 5950SOL     OW29311   4.303   0.732   4.660  0.1571  0.1849  0.0515
 5950SOL    HW129312   4.371   0.714   4.595 -0.9464 -0.3709 -0.9375
 5950SOL    HW229313   4.297   0.827   4.669 -0.7938  0.1943 -0.6844
 5951SOL     OW29314   3.801   2.581  16.641 -0.7940  0.8563  0.1233
 5951SOL    HW129315   3.763   2.494  16.641 -1.8802  1.3420  1.1930
 5951SOL    HW229316   3.882   2.578  16.590 -0.9022 -0.4538  0.0482
 5952SOL     OW29317   0.446   4.109  11.069  0.1819  0.5299 -0.4507
 5952SOL    HW129318   0.422   4.178  11.131 -1.2608 -1.2555  1.0097
 5952SOL    HW229319   0.375   4.109  11.006  1.5396 -2.7003 -2.0073
 5953SOL     OW29320   4.105   2.367   5.566 -0.1323 -0.6232 -0.6232
 5953SOL    HW129321   4.041   2.400   5.629  1.5477  0.0629  0.7166
 5953SOL    HW229322   4.050   2.364   5.487 -1.8503  1.7140  0.4698
 5954SOL     OW29323   2.261   4.405   2.245  0.0430  0.1015  0.2379
 5954SOL    HW129324   2.207   4.334   2.280  1.0303 -0.8380 -0.1587
 5954SOL    HW229325   2.225   4.409   2.156  0.8159  0.3961 -0.0648
 5955SOL     OW29326   2.534   4.326   3.949  0.0858  0.3040  0.2879
 5955SOL    HW129327   2.489   4.295   4.028 -1.0160  1.9410  0.3062
 5955SOL    HW229328   2.581   4.248   3.920 -1.4270  0.2971 -2.1930
 5956SOL     OW29329   1.236   0.810   3.356 -0.2962  0.2742  0.1032
 5956SOL    HW129330   1.151   0.766   3.353  0.0924 -0.3494 -2.1700
 5956SOL    HW229331   1.235   0.834   3.448 -1.4438 -0.0007  0.1629
 5957SOL     OW29332   0.104   4.170  11.548  0.1890 -0.3835  0.3592
 5957SOL    HW129333   0.016   4.159  11.513 -1.0492 -0.1811  3.4169
 5957SOL    HW229334   0.106   4.266  11.554  0.0341 -0.3341 -0.3144
 5958SOL     OW29335   3.732   0.336   8.300  0.2583  0.2720 -0.0621
 5958SOL    HW129336   3.822   0.367   8.293  0.6093 -0.2761  2.1023
 5958SOL    HW229337   3.740   0.243   8.280  0.1707  0.1165  0.6279
 5959SOL     OW29338   3.170   3.912   0.772 -0.0657 -0.1437 -0.2306
 5959SOL    HW129339   3.206   3.993   0.737 -0.7855 -0.0253 -0.6936
 5959SOL    HW229340   3.196   3.930   0.863  1.7259 -0.8120 -0.6113
 5960SOL     OW29341   2.828   2.942   2.873 -0.1127 -0.2677  0.0719
 5960SOL    HW129342   2.844   2.863   2.822  0.1186  0.2553 -0.6833
 5960SOL    HW229343   2.740   2.961   2.839 -0.5877 -0.9716  0.9239
 5961SOL     OW29344   3.752   1.584   2.218  0.8057  0.5677 -0.2142
 5961SOL    HW129345   3.808   1.660   2.203 -1.3614  2.4137  1.0243
 5961SOL    HW229346   3.723   1.568   2.128 -2.2986  0.8352  0.7133
 5962SOL     OW29347   3.818   0.460   2.844 -0.6336  0.1499 -0.0767
 5962SOL    HW129348   3.794   0.413   2.765  1.1336 -1.8735  0.5900
 5962SOL    HW229349   3.892   0.502   2.801 -0.0847 -2.1645 -1.3884
 5963SOL     OW29350   2.856   0.615   7.936 -0.0317  0.1296 -0.7181
 5963SOL    HW129351   2.938   0.612   7.986  0.7045  0.9289 -1.8672
 5963SOL    HW229352   2.844   0.527   7.901  0.8660 -0.0170 -0.6518
 5964SOL     OW29353   1.769   3.999  11.087  0.8230 -0.2333  0.0624
 5964SOL    HW129354   1.688   4.044  11.110  1.8646  0.5932  2.1310
 5964SOL    HW229355   1.759   3.913  11.128  0.5067 -2.4506 -4.5778
 5965SOL     OW29356   3.370   1.638   1.922 -0.5455  0.8897  0.1345
 5965SOL    HW129357   3.423   1.618   2.000 -2.7574  0.1560  1.4408
 5965SOL    HW229358   3.407   1.719   1.886  0.2073 -0.2862 -1.7533
 5966SOL     OW29359   1.902   2.524   8.535 -0.2497  0.0704  0.2183
 5966SOL    HW129360   1.818   2.500   8.573  0.6131 -1.7381  0.9607
 5966SOL    HW229361   1.882   2.615   8.513 -0.6065 -0.1522 -0.4054
 5967SOL     OW29362   1.196   2.120  15.143  0.4147  0.0772 -0.2038
 5967SOL    HW129363   1.147   2.202  15.134 -1.0222 -0.6697  0.8670
 5967SOL    HW229364   1.132   2.068  15.192 -0.9385  0.6864 -1.3346
 5968SOL     OW29365   3.897   3.704  10.064  0.1432 -0.1145 -0.2440
 5968SOL    HW129366   3.912   3.687  10.157 -0.6981  0.1144 -0.0743
 5968SOL    HW229367   3.931   3.793  10.051  1.0443 -0.5130 -0.7010
 5969SOL     OW29368   0.922   1.307   3.773 -0.0476  0.1139  0.0850
 5969SOL    HW129369   0.905   1.218   3.743  0.4131 -0.3303  1.1465
 5969SOL    HW229370   0.881   1.353   3.700  1.0642 -1.5891 -1.6095
 5970SOL     OW29371   4.572   1.108   1.562 -0.2985  0.0096  0.2603
 5970SOL    HW129372   4.497   1.063   1.601 -0.9736 -0.1494 -1.2127
 5970SOL    HW229373   4.536   1.176   1.505 -1.5169  0.1390  1.1796
 5971SOL     OW29374   1.503   4.348   7.237 -0.8525 -0.3605  0.7045
 5971SOL    HW129375   1.471   4.261   7.213 -1.8623  0.3832 -0.6813
 5971SOL    HW229376   1.539   4.326   7.323  0.4258  1.1643  0.5592
 5972SOL     OW29377   2.055   1.070   6.325 -0.0158 -0.4229 -0.0553
 5972SOL    HW129378   2.050   1.115   6.241 -1.1338 -0.3044  0.0763
 5972SOL    HW229379   2.023   0.984   6.299  0.2535 -0.9067  1.2209
 5973SOL     OW29380   2.628   3.955   1.562 -0.8340  0.3318  0.4636
 5973SOL    HW129381   2.676   3.964   1.644 -1.0453  4.3217  0.1294
 5973SOL    HW229382   2.561   3.888   1.579  0.6868 -1.4103 -0.4658
 5974SOL     OW29383   0.767   2.971   9.016 -0.2517 -0.0549 -0.4598
 5974SOL    HW129384   0.731   3.058   8.999  0.6031  0.0965 -1.5110
 5974SOL    HW229385   0.826   2.960   8.941 -0.0353  0.8958 -0.4308
 5975SOL     OW29386   3.023   3.942  11.355 -0.5920 -0.0366 -0.6094
 5975SOL    HW129387   3.044   4.012  11.417  1.1948 -0.1791 -1.0552
 5975SOL    HW229388   3.062   3.972  11.273 -0.6199 -2.6098 -1.5716
 5976SOL     OW29389   3.203   3.690   8.186  0.0464 -0.2509 -0.2354
 5976SOL    HW129390   3.119   3.648   8.205  0.1296 -2.4352 -4.6144
 5976SOL    HW229391   3.178   3.765   8.133  0.9753  0.0645 -0.2218
 5977SOL     OW29392   0.773   3.716   6.600  0.7983 -0.4784 -0.4738
 5977SOL    HW129393   0.821   3.797   6.615 -0.8865  0.3721  0.2625
 5977SOL    HW229394   0.834   3.688   6.532  1.6054 -1.3270  0.5780
 5978SOL     OW29395   1.503   3.425   0.690 -0.6067 -0.2141  0.1261
 5978SOL    HW129396   1.551   3.508   0.690  0.5374 -0.8786 -0.6267
 5978SOL    HW229397   1.427   3.443   0.635  0.4359  0.9146 -0.9598
 5979SOL     OW29398   2.939   1.027   9.233 -0.7278  0.2535 -0.1450
 5979SOL    HW129399   2.968   1.116   9.251 -0.0279  0.1250 -0.6071
 5979SOL    HW229400   2.908   1.013   9.322 -0.1119 -1.3079 -0.1742
 5980SOL     OW29401   1.965   1.283   3.857 -0.6959 -0.6986 -1.0359
 5980SOL    HW129402   2.007   1.361   3.894  0.6450 -3.0010  2.2942
 5980SOL    HW229403   1.977   1.301   3.764 -1.0490  1.3975 -0.6695
 5981SOL     OW29404   1.649   1.420  11.278 -0.1545  0.5108 -0.1758
 5981SOL    HW129405   1.585   1.349  11.282 -0.3257  0.7410  1.4186
 5981SOL    HW229406   1.603   1.497  11.311 -0.9202 -0.8580  1.9949
 5982SOL     OW29407   1.029   2.593   1.776  0.2341  0.2307 -0.0925
 5982SOL    HW129408   1.000   2.506   1.805  0.9284  0.1629  0.4035
 5982SOL    HW229409   1.060   2.634   1.856  1.7830 -1.7950  0.3402
 5983SOL     OW29410   2.051   4.232   7.944  0.3369 -0.2259 -0.4939
 5983SOL    HW129411   2.018   4.143   7.931 -1.6481  0.2689  1.0595
 5983SOL    HW229412   2.125   4.217   8.002  0.0441  0.0114 -0.0596
 5984SOL     OW29413   2.947   2.098   5.144 -0.0883 -0.1481  0.3158
 5984SOL    HW129414   3.019   2.044   5.177 -0.5699 -0.6427  0.5519
 5984SOL    HW229415   2.982   2.187   5.153  0.2639 -0.3293  0.7574
 5985SOL     OW29416   1.499   4.411   4.808  0.1009 -0.3056  0.2594
 5985SOL    HW129417   1.502   4.429   4.902 -0.0877 -1.8590  0.5652
 5985SOL    HW229418   1.413   4.450   4.790  0.2409 -0.1286 -0.0277
 5986SOL     OW29419   4.195   0.354   5.626 -0.0307 -0.3669 -0.1761
 5986SOL    HW129420   4.280   0.309   5.617  0.4807  1.0916 -2.5917
 5986SOL    HW229421   4.234   0.441   5.632 -1.3391  0.1995  0.0432
 5987SOL     OW29422   3.119   4.659  15.631 -0.1659  0.2633  0.2169
 5987SOL    HW129423   3.190   4.694  15.576 -1.5909  2.4594 -0.2050
 5987SOL    HW229424   3.135   4.565  15.618 -0.7645  0.5139 -2.4989
 5988SOL     OW29425   4.438   2.929  14.233  0.8297 -0.1468 -0.0732
 5988SOL    HW129426   4.465   2.879  14.310  1.2829 -1.8849 -1.3690
 5988SOL    HW229427   4.510   2.991  14.222  0.9974 -0.5676 -1.3099
 5989SOL     OW29428   0.815   2.290   1.514 -0.2532  0.0576  0.5286
 5989SOL    HW129429   0.881   2.260   1.577 -0.5743  0.3759  1.0200
 5989SOL    HW229430   0.760   2.213   1.500 -1.1743  0.9792 -0.9115
 5990SOL     OW29431   3.164   0.712   3.175  0.9972 -0.1343  0.5317
 5990SOL    HW129432   3.163   0.638   3.236  0.7605 -2.4329 -2.2744
 5990SOL    HW229433   3.070   0.730   3.167  0.5417 -1.4365  2.9256
 5991SOL     OW29434   0.944   1.171   6.002  0.1724 -0.1290  0.1362
 5991SOL    HW129435   0.959   1.242   5.939  1.7772  1.3685  2.1943
 5991SOL    HW229436   1.001   1.197   6.074 -0.4813 -0.3479  0.7187
 5992SOL     OW29437   4.112   2.574   7.159 -0.0755  0.5540 -0.4646
 5992SOL    HW129438   4.144   2.576   7.069  1.1630  0.4745 -0.0156
 5992SOL    HW229439   4.159   2.497   7.191 -1.5569  0.0801  0.6060
 5993SOL     OW29440   2.912   1.159  16.695  0.0989  0.1593  0.3491
 5993SOL    HW129441   2.952   1.229  16.644  1.8444 -1.4924 -0.5483
 5993SOL    HW229442   2.827   1.197  16.716  0.4867  1.7760 -1.0196
 5994SOL     OW29443   3.201   4.138   3.076 -0.4026 -0.1569  0.2500
 5994SOL    HW129444   3.188   4.233   3.070 -1.1335 -0.3577 -1.3586
 5994SOL    HW229445   3.279   4.127   3.130  2.4743  1.2407 -3.5467
 5995SOL     OW29446   0.092   2.698   2.168  0.5627 -0.3352 -0.0849
 5995SOL    HW129447   0.105   2.780   2.215  0.2767 -2.3981  3.6125
 5995SOL    HW229448   4.719   2.705   2.163  0.4208 -2.1059  0.0344
 5996SOL     OW29449   0.381   3.752   1.919  0.0112 -0.3600 -0.0281
 5996SOL    HW129450   0.434   3.764   1.840  0.1090  2.2457  0.4498
 5996SOL    HW229451   0.396   3.658   1.935 -0.8990 -0.3309  0.9892
 5997SOL     OW29452   4.128   1.249  14.769  0.0275 -0.0880 -0.5058
 5997SOL    HW129453   4.053   1.288  14.724 -1.3035  0.2543  2.0180
 5997SOL    HW229454   4.153   1.327  14.817 -0.0133 -0.3693 -0.0285
 5998SOL     OW29455   1.237   1.758   7.755  0.7793 -0.6883  0.1932
 5998SOL    HW129456   1.289   1.695   7.805 -0.0242 -0.5380  1.1930
 5998SOL    HW229457   1.299   1.828   7.733  0.6633 -0.8647 -0.7020
 5999SOL     OW29458   1.727   0.986   3.535  0.3711  0.4155  0.9979
 5999SOL    HW129459   1.747   0.936   3.614 -1.4269 -0.5400  0.8575
 5999SOL    HW229460   1.633   0.970   3.521  0.6652  0.9122 -1.6297
 6000SOL     OW29461   0.388   4.530   1.348 -0.1455  0.1522  0.0833
 6000SOL    HW129462   0.378   4.476   1.269 -1.6917  0.1079  0.3086
 6000SOL    HW229463   0.330   4.484   1.409 -0.2482  1.5366  1.0292
 6001SOL     OW29464   0.606   2.875  14.707 -0.2589  0.3704  0.4225
 6001SOL    HW129465   0.590   2.907  14.796 -0.2033  0.0225  0.5618
 6001SOL    HW229466   0.690   2.834  14.726 -0.6516 -0.8639 -0.4974
 6002SOL     OW29467   2.979   2.969   2.226  0.0613  0.0287  0.6411
 6002SOL    HW129468   2.926   3.046   2.204 -0.3787 -0.3559  0.3697
 6002SOL    HW229469   2.940   2.912   2.161 -0.0344  0.0042  0.7193
 6003SOL     OW29470   1.348   3.515  16.133 -0.1429 -0.6370 -0.2805
 6003SOL    HW129471   1.343   3.486  16.224 -3.4590 -0.3573 -0.3466
 6003SOL    HW229472   1.381   3.603  16.154  0.0140 -0.7449 -0.0706
 6004SOL     OW29473   1.247   3.405   6.343  0.0559 -0.2470 -0.9266
 6004SOL    HW129474   1.183   3.418   6.272 -0.7272 -0.0548 -0.1858
 6004SOL    HW229475   1.190   3.357   6.403  0.8053 -0.6153 -0.5165
 6005SOL     OW29476   0.827   2.141   4.122 -0.0641 -0.2306 -0.4206
 6005SOL    HW129477   0.766   2.215   4.131 -0.4598 -0.8680  2.1803
 6005SOL    HW229478   0.912   2.184   4.135 -0.7163  0.7594  0.5593
 6006SOL     OW29479   3.010   3.765   5.608  0.8719 -0.0011 -0.1832
 6006SOL    HW129480   2.918   3.771   5.582  1.3947 -2.4667 -2.5878
 6006SOL    HW229481   3.029   3.856   5.585  1.5532  0.2917  1.4906
 6007SOL     OW29482   2.907   3.903   0.669  0.6685 -0.8607 -0.1953
 6007SOL    HW129483   2.997   3.917   0.699 -0.4362  3.5363  1.1476
 6007SOL    HW229484   2.869   3.991   0.663 -0.6280 -1.4940 -1.2325
 6008SOL     OW29485   1.134   0.330   1.144  0.1068  0.5396 -0.0708
 6008SOL    HW129486   1.209   0.324   1.203  1.2957 -0.8833 -1.7036
 6008SOL    HW229487   1.087   0.410   1.168  3.0145  1.8923  1.0574
 6009SOL     OW29488   2.769   2.615  14.323 -0.1695 -0.2763 -0.2160
 6009SOL    HW129489   2.830   2.645  14.390  0.2119  0.9780 -1.1122
 6009SOL    HW229490   2.686   2.664  14.326 -0.5537 -0.9612  0.1773
 6010SOL     OW29491   1.441   4.539   0.353  0.0588 -0.1277  0.1061
 6010SOL    HW129492   1.385   4.462   0.352 -0.2825  0.0880  2.3696
 6010SOL    HW229493   1.409   4.572   0.437 -0.9840 -0.9352  0.0190
 6011SOL     OW29494   2.926   1.252   3.635  0.6418 -0.1996 -0.1357
 6011SOL    HW129495   3.013   1.222   3.609  0.3243 -2.7265  1.7392
 6011SOL    HW229496   2.939   1.345   3.615  0.1372 -0.1334 -0.1497
 6012SOL     OW29497   3.240   2.511   2.383  0.3022 -0.7595  0.8551
 6012SOL    HW129498   3.311   2.486   2.443  0.1513 -0.4119  1.1814
 6012SOL    HW229499   3.168   2.495   2.443 -0.1206  1.7648  1.0472
 6013SOL     OW29500   1.973   0.213   7.640 -0.7155 -0.5557 -0.3641
 6013SOL    HW129501   1.887   0.255   7.634 -0.0554  0.5004 -2.4206
 6013SOL    HW229502   2.033   0.286   7.653 -0.5348 -0.9088  0.7492
 6014SOL     OW29503   2.210   4.578  13.497  0.4823  0.2212  0.0031
 6014SOL    HW129504   2.279   4.515  13.474  0.4838  0.9303 -1.9583
 6014SOL    HW229505   2.189   4.564  13.589  1.0860  1.3467  0.3123
 6015SOL     OW29506   0.228   0.520  13.848 -0.0969 -0.2924  0.4644
 6015SOL    HW129507   0.204   0.429  13.832  1.0092 -0.6143  0.6600
 6015SOL    HW229508   0.183   0.541  13.930 -1.5361  0.7531 -0.5966
 6016SOL     OW29509   2.605   3.906   2.670 -0.1085 -0.0735 -0.0513
 6016SOL    HW129510   2.688   3.904   2.717 -0.0812  1.6474 -0.0208
 6016SOL    HW229511   2.572   3.818   2.690  0.1199 -1.3254 -5.1985
 6017SOL     OW29512   2.677   1.273   6.279  0.2349  0.1645 -0.7175
 6017SOL    HW129513   2.639   1.267   6.191  1.3545 -0.2825 -1.1602
 6017SOL    HW229514   2.630   1.206   6.329  0.7199  0.9253  0.7699
 6018SOL     OW29515   3.296   2.337  14.903  0.1224 -0.1451 -0.0469
 6018SOL    HW129516   3.370   2.397  14.887  2.7127 -3.0887  0.9992
 6018SOL    HW229517   3.336   2.269  14.956  0.5775  0.2607  0.1341
 6019SOL     OW29518   4.223   4.274  11.803  0.6574 -0.3076 -0.0920
 6019SOL    HW129519   4.244   4.258  11.895  1.9542 -0.6931 -0.4461
 6019SOL    HW229520   4.153   4.337  11.819  0.6016 -0.6006  0.8049
 6020SOL     OW29521   2.162   3.111   2.562 -0.2918  0.5206 -0.0638
 6020SOL    HW129522   2.096   3.067   2.508  1.4450 -1.4608 -0.5961
 6020SOL    HW229523   2.249   3.083   2.534 -0.7444 -2.5060  1.5107
 6021SOL     OW29524   4.354   3.875  16.080 -0.0653 -0.0812 -0.0706
 6021SOL    HW129525   4.363   3.863  16.175  0.0935  3.8793  0.4171
 6021SOL    HW229526   4.265   3.906  16.069  0.2134  0.0298 -2.0010
 6022SOL     OW29527   2.887   1.789   7.271  0.9473 -0.1071  0.0425
 6022SOL    HW129528   2.911   1.822   7.184 -1.0569 -0.0080 -0.4600
 6022SOL    HW229529   2.913   1.697   7.263 -0.1311 -0.2711 -1.4821
 6023SOL     OW29530   3.166   3.777   3.969 -0.0414  0.0250  0.3988
 6023SOL    HW129531   3.223   3.784   3.892 -0.9035 -0.4985 -0.2827
 6023SOL    HW229532   3.154   3.682   3.977  1.8799 -0.3343 -0.8448
 6024SOL     OW29533   2.086   2.733   4.240 -0.1116 -0.7101  0.4055
 6024SOL    HW129534   2.125   2.651   4.271 -1.6641 -0.8512  2.0099
 6024SOL    HW229535   2.060   2.714   4.149  1.3035 -0.3595 -0.0752
 6025SOL     OW29536   1.406   1.927   7.969  0.7070 -0.1331  0.0279
 6025SOL    HW129537   1.329   1.880   8.000  0.8690 -1.7617 -2.0562
 6025SOL    HW229538   1.362   1.978   7.901  1.6701 -0.7570 -1.0639
 6026SOL     OW29539   1.544   1.799  10.813  0.0033  0.5974 -0.4132
 6026SOL    HW129540   1.511   1.837  10.894 -0.6421 -0.2531 -0.2765
 6026SOL    HW229541   1.468   1.765  10.766 -1.4574  1.2716  1.4444
 6027SOL     OW29542   2.812   3.883  13.126 -0.2940  0.2203  0.0300
 6027SOL    HW129543   2.731   3.923  13.158 -1.4754 -1.4130 -0.8961
 6027SOL    HW229544   2.869   3.887  13.202 -0.6087 -0.4466  0.3024
 6028SOL     OW29545   1.600   0.950  15.772  0.1299 -0.6383 -0.4697
 6028SOL    HW129546   1.572   0.922  15.859  1.2381  0.3555  0.2124
 6028SOL    HW229547   1.692   0.924  15.778  0.3684  0.5597  1.1034
 6029SOL     OW29548   3.308   2.872  11.226 -0.0322 -0.0435 -0.2156
 6029SOL    HW129549   3.264   2.956  11.213  0.5814  0.0312 -1.8785
 6029SOL    HW229550   3.297   2.834  11.139 -0.0272 -0.3244 -0.0924
 6030SOL     OW29551   0.977   1.337  11.002 -1.0402 -0.2441  0.2557
 6030SOL    HW129552   1.042   1.272  10.975 -1.1069  0.6499 -2.0386
 6030SOL    HW229553   0.920   1.293  11.066 -1.1415  1.2979  1.2254
 6031SOL     OW29554   4.352   4.024   2.073  0.3189  0.1514  0.0519
 6031SOL    HW129555   4.371   4.118   2.068  0.6177  0.0522 -0.6604
 6031SOL    HW229556   4.351   4.013   2.168  1.6212  0.9253  0.1519
 6032SOL     OW29557   2.002   1.487   6.243 -0.1708  0.1110 -0.5777
 6032SOL    HW129558   1.917   1.443   6.246  1.0786 -2.2770 -0.2845
 6032SOL    HW229559   2.052   1.454   6.317 -0.8960  0.5994  0.1254
 6033SOL     OW29560   2.975   0.824   2.106  0.2668 -0.1901  0.6816
 6033SOL    HW129561   2.965   0.776   2.024 -0.6007 -0.0051  0.6750
 6033SOL    HW229562   2.990   0.912   2.072  1.1351 -1.1039 -1.2981
 6034SOL     OW29563   3.081   3.662   1.465 -0.2081 -0.0033  0.5255
 6034SOL    HW129564   2.986   3.656   1.460 -0.1773  2.3607 -2.6376
 6034SOL    HW229565   3.096   3.616   1.548 -1.8755 -0.6048  0.4835
 6035SOL     OW29566   0.512   3.771  12.417 -0.9277 -0.1193  0.3745
 6035SOL    HW129567   0.474   3.704  12.474  0.9238 -3.0013 -1.7498
 6035SOL    HW229568   0.599   3.780  12.454 -1.4191  1.4910  1.1293
 6036SOL     OW29569   3.678   0.385   1.024 -0.1177 -0.0314  0.3917
 6036SOL    HW129570   3.647   0.393   0.934  1.3449 -0.3716 -0.1451
 6036SOL    HW229571   3.661   0.292   1.036  1.8388 -0.3086  1.0857
 6037SOL     OW29572   2.772   1.041  17.024 -0.4322  0.4210 -0.2233
 6037SOL    HW129573   2.841   1.105  17.044 -1.6900  1.5724  0.4371
 6037SOL    HW229574   2.698   1.057  17.083  0.1142  0.8023  0.3573
 6038SOL     OW29575   3.785   2.718   2.979 -0.6017  0.6494  0.5974
 6038SOL    HW129576   3.797   2.640   3.033 -0.7503  0.6751  0.6698
 6038SOL    HW229577   3.859   2.718   2.918 -0.9270  0.4686  0.2010
 6039SOL     OW29578   2.654   2.436   8.386 -0.0582 -0.3985 -0.1313
 6039SOL    HW129579   2.701   2.502   8.334  1.3408 -0.9645  0.4084
 6039SOL    HW229580   2.571   2.422   8.341 -0.7413  1.4031  0.5789
 6040SOL     OW29581   0.931   2.436  17.498  0.0866  0.0088 -0.2081
 6040SOL    HW129582   0.899   2.357  17.543 -0.2321  0.6022  0.6136
 6040SOL    HW229583   0.976   2.399  17.422 -1.2663 -3.8897  0.9042
 6041SOL     OW29584   3.732   3.919   9.086  0.2280 -0.0630  0.2318
 6041SOL    HW129585   3.768   3.996   9.043 -3.1707 -0.5477 -3.4533
 6041SOL    HW229586   3.753   3.930   9.179  2.2303  0.5251 -0.2929
 6042SOL     OW29587   4.527   0.897   9.219 -0.5327  0.8040 -0.3298
 6042SOL    HW129588   4.470   0.974   9.212 -0.8798  0.4828 -1.0564
 6042SOL    HW229589   4.605   0.928   9.265 -0.5222  0.2482  0.0249
 6043SOL     OW29590   3.057   4.269   5.009 -0.0415 -0.3459  0.2026
 6043SOL    HW129591   3.060   4.198   5.072  1.9105  0.0124  0.5356
 6043SOL    HW229592   3.053   4.229   4.922  3.2188 -0.6614  0.1832
 6044SOL     OW29593   3.221   1.289  10.625 -0.0086  0.0441 -0.1670
 6044SOL    HW129594   3.217   1.384  10.636  0.5898 -0.2384  2.4124
 6044SOL    HW229595   3.226   1.265  10.717 -1.2265  1.8926  0.3636
 6045SOL     OW29596   1.812   1.031   2.219  0.0959 -0.7729 -0.3214
 6045SOL    HW129597   1.904   1.019   2.197  0.5858 -0.7058  1.6929
 6045SOL    HW229598   1.792   1.100   2.155  1.5366 -0.5166 -0.4896
 6046SOL     OW29599   2.388   0.836  17.053 -0.0601  0.0311  0.0401
 6046SOL    HW129600   2.328   0.761  17.055 -0.5382  0.4411  1.1067
 6046SOL    HW229601   2.369   0.888  17.132  2.1225 -0.7016  1.0459
 6047SOL     OW29602   1.315   1.715  13.047 -0.0576  0.5107 -0.3314
 6047SOL    HW129603   1.298   1.663  13.126 -2.1213  0.4495 -0.8217
 6047SOL    HW229604   1.340   1.802  13.079  3.1328 -0.6069  0.2921
 6048SOL     OW29605   2.768   0.289   0.117 -0.1513 -0.2857  0.0656
 6048SOL    HW129606   2.681   0.251   0.105  0.1662 -1.2412  0.7788
 6048SOL    HW229607   2.752   0.357   0.052  0.4765  0.4584  0.6998
 6049SOL     OW29608   0.739   0.117   4.543 -0.3888  0.2853  0.5809
 6049SOL    HW129609   0.744   0.064   4.623  2.0492  0.0311  0.2453
 6049SOL    HW229610   0.817   0.097   4.492 -0.0260  3.0098  0.0343
 6050SOL     OW29611   1.796   4.551   2.901 -0.3303  0.9320 -0.1133
 6050SOL    HW129612   1.851   4.587   2.971  0.0213 -0.4834  0.3482
 6050SOL    HW229613   1.824   4.459   2.893  0.9970  1.3292 -0.1059
 6051SOL     OW29614   3.854   0.850   1.579  0.0655  0.0855 -0.1872
 6051SOL    HW129615   3.869   0.759   1.552 -0.1452  0.1901 -0.6485
 6051SOL    HW229616   3.867   0.835   1.673  0.0441  2.5192  0.2063
 6052SOL     OW29617   0.601   1.785  14.486 -0.0730 -0.7964 -0.3153
 6052SOL    HW129618   0.603   1.828  14.401 -1.8606 -0.5592 -0.2394
 6052SOL    HW229619   0.665   1.715  14.469 -0.5948 -0.5570 -3.2784
 6053SOL     OW29620   3.800   2.699  10.038 -0.3823  0.0792  0.2738
 6053SOL    HW129621   3.770   2.772  10.093  2.0357  0.5908  0.9312
 6053SOL    HW229622   3.839   2.641  10.104  0.7617  0.1972 -0.2890
 6054SOL     OW29623   2.882   0.143   7.485  0.1704 -0.3186 -0.2072
 6054SOL    HW129624   2.973   0.136   7.513  0.2764  0.2131 -0.4094
 6054SOL    HW229625   2.843   0.080   7.545 -0.1140 -0.1655 -0.2299
 6055SOL     OW29626   0.595   0.538  11.556  0.3851  1.1217 -0.4336
 6055SOL    HW129627   0.630   0.506  11.639  0.1956  2.8577  0.3225
 6055SOL    HW229628   0.502   0.528  11.576  0.4630 -0.6965 -0.9646
 6056SOL     OW29629   2.956   2.828   3.732 -0.2864  0.1946 -0.2896
 6056SOL    HW129630   2.885   2.790   3.680  0.4754 -0.8245 -0.5988
 6056SOL    HW229631   2.927   2.797   3.818 -0.6658  0.6740 -0.2448
 6057SOL     OW29632   2.171   1.981  11.451  0.7300 -0.4076  0.0354
 6057SOL    HW129633   2.201   2.059  11.404  0.1794 -0.3532 -0.2207
 6057SOL    HW229634   2.139   2.018  11.534 -1.6906  0.6026 -1.3321
 6058SOL     OW29635   2.712   4.559   5.438 -0.7187  0.7502 -0.2870
 6058SOL    HW129636   2.652   4.614   5.388  1.0197  2.1838 -0.8132
 6058SOL    HW229637   2.729   4.607   5.519  0.7957  1.7061 -1.1641
 6059SOL     OW29638   1.543   1.760   2.710  0.7503  0.0692  0.1812
 6059SOL    HW129639   1.543   1.665   2.705  0.7185  0.1209 -0.8475
 6059SOL    HW229640   1.623   1.776   2.661  0.2618 -0.6300 -0.8313
 6060SOL     OW29641   0.443   1.619  14.212  0.0405 -0.1473 -0.1239
 6060SOL    HW129642   0.503   1.693  14.220 -1.1062  1.0567 -2.5389
 6060SOL    HW229643   0.493   1.553  14.163  0.3358  1.6361 -2.2402
 6061SOL     OW29644   3.553   2.425   9.671  0.1347  0.0934 -0.0753
 6061SOL    HW129645   3.532   2.419   9.764  2.1686 -0.1100  0.3694
 6061SOL    HW229646   3.646   2.403   9.672 -0.8031 -4.0949 -3.2742
 6062SOL     OW29647   4.706   0.019   7.239 -0.1201 -0.3675 -0.4449
 6062SOL    HW129648   4.722   4.666   7.295 -3.6334  0.0257  1.0867
 6062SOL    HW229649   4.627   4.715   7.192 -0.9185  0.0247  0.6884
 6063SOL     OW29650   4.516   2.871   4.478  0.0173  0.2721 -1.0660
 6063SOL    HW129651   4.458   2.923   4.534  2.3263  0.8415  0.8509
 6063SOL    HW229652   4.462   2.795   4.456 -1.1375  0.2891  1.6827
 6064SOL     OW29653   0.975   1.681  14.474  0.1390  0.2157 -0.1444
 6064SOL    HW129654   0.952   1.756  14.530  0.8832  2.0299 -2.2593
 6064SOL    HW229655   1.055   1.704  14.426  0.1384 -0.1630 -0.3247
 6065SOL     OW29656   2.488   4.630   5.850  0.0789 -0.6933 -0.4949
 6065SOL    HW129657   2.560   4.686   5.822 -0.2228 -0.4560 -0.7993
 6065SOL    HW229658   2.507   4.603   5.940  1.5316  0.9613 -0.3086
 6066SOL     OW29659   2.702   1.397  14.551  0.2365 -0.6309 -0.7793
 6066SOL    HW129660   2.672   1.357  14.632 -1.8696  0.7715 -0.8621
 6066SOL    HW229661   2.742   1.470  14.598  0.1057 -0.4859 -0.8943
 6067SOL     OW29662   0.616   3.015   3.803 -0.1575 -0.2740 -0.6356
 6067SOL    HW129663   0.659   3.082   3.857 -1.3939  0.7971 -0.9704
 6067SOL    HW229664   0.593   3.061   3.723  1.4958  1.8456  0.1237
 6068SOL     OW29665   2.946   3.316  16.779  0.0986 -0.1903  0.5888
 6068SOL    HW129666   2.967   3.405  16.751  1.6538 -0.2194  1.6568
 6068SOL    HW229667   2.968   3.267  16.699 -0.4998  1.8680 -0.8397
 6069SOL     OW29668   1.314   1.388  13.973 -0.0051  0.0998  0.5061
 6069SOL    HW129669   1.247   1.408  13.907  0.2023  1.7483  0.7895
 6069SOL    HW229670   1.259   1.328  14.024  0.7260  0.0235  1.2043
 6070SOL     OW29671   1.407   2.401   7.217 -0.1344 -0.5107  0.2298
 6070SOL    HW129672   1.498   2.385   7.192 -0.2976  0.0272 -0.7149
 6070SOL    HW229673   1.410   2.497   7.219  0.8425 -0.5792  1.9170
 6071SOL     OW29674   2.464   2.762   1.433 -0.1598  0.2774  0.4450
 6071SOL    HW129675   2.434   2.758   1.524 -1.2702 -0.3384  0.0564
 6071SOL    HW229676   2.451   2.674   1.399 -0.4996  1.1765 -1.7547
 6072SOL     OW29677   1.014   3.667   6.449 -0.0754 -0.1578 -0.3159
 6072SOL    HW129678   1.034   3.741   6.391  1.4596 -0.4157 -0.1142
 6072SOL    HW229679   1.031   3.583   6.405  0.7527 -0.5126  0.6876
 6073SOL     OW29680   1.149   1.726  15.722 -0.7447  0.1426  0.4626
 6073SOL    HW129681   1.162   1.692  15.811  2.7966 -0.2195 -0.1913
 6073SOL    HW229682   1.176   1.817  15.723 -4.5991  1.2729  0.5499
 6074SOL     OW29683   1.863   1.184   2.542 -0.9427  0.1484 -0.0161
 6074SOL    HW129684   1.935   1.161   2.600  0.4116  3.8345 -0.2413
 6074SOL    HW229685   1.796   1.137   2.592  0.1364  0.0975  1.3863
 6075SOL     OW29686   1.424   4.246   5.147 -0.1084  0.2421  0.5513
 6075SOL    HW129687   1.339   4.290   5.140 -0.2327 -0.3518 -1.5315
 6075SOL    HW229688   1.482   4.319   5.126 -0.0638  0.3494  1.0479
 6076SOL     OW29689   4.386   1.753   6.547 -0.0488  0.2395  0.0223
 6076SOL    HW129690   4.381   1.682   6.482 -0.1615  0.6662 -0.4341
 6076SOL    HW229691   4.454   1.798   6.496  0.9033  0.0115  1.0737
 6077SOL     OW29692   1.648   4.430   7.738  0.0791  0.1201 -0.5420
 6077SOL    HW129693   1.626   4.520   7.713  3.2167  0.8680 -0.5929
 6077SOL    HW229694   1.726   4.456   7.786  0.1772 -2.0011  0.4390
 6078SOL     OW29695   1.426   1.241   8.512 -0.0955 -0.2058 -0.0749
 6078SOL    HW129696   1.413   1.329   8.477  0.2904  0.2165  0.8339
 6078SOL    HW229697   1.410   1.185   8.436  0.9257 -1.0768  0.3437
 6079SOL     OW29698   2.539   3.020   2.853 -0.1034 -0.0081 -0.2259
 6079SOL    HW129699   2.512   3.105   2.887 -0.5452 -0.6096  0.9548
 6079SOL    HW229700   2.518   3.021   2.760  0.3785 -1.6349 -0.3525
 6080SOL     OW29701   1.565   1.880   2.333  0.1042  0.3312  0.5837
 6080SOL    HW129702   1.485   1.891   2.383  0.1862 -1.0233  1.0125
 6080SOL    HW229703   1.569   1.964   2.288 -0.0736 -0.5395 -1.0670
 6081SOL     OW29704   0.905   0.601  12.598  0.0472 -0.3256 -0.4405
 6081SOL    HW129705   0.820   0.588  12.555 -0.2511  0.6023 -0.1546
 6081SOL    HW229706   0.930   0.680  12.549 -1.2179 -1.1027 -2.3353
 6082SOL     OW29707   2.311   0.607   4.247  0.5781  0.1585  0.1036
 6082SOL    HW129708   2.303   0.654   4.164 -2.0202 -1.6091 -0.6431
 6082SOL    HW229709   2.227   0.627   4.288 -0.3394  0.2491 -1.8539
 6083SOL     OW29710   4.532   4.547   6.494 -0.0929  0.1849 -0.2335
 6083SOL    HW129711   4.506   4.539   6.402  2.1795 -0.0804 -0.8624
 6083SOL    HW229712   4.588   4.470   6.501  1.5159  1.5595  1.9754
 6084SOL     OW29713   1.880   2.239   8.198 -0.2383 -0.0883  0.9236
 6084SOL    HW129714   1.937   2.186   8.253 -2.7910  0.0480  3.6681
 6084SOL    HW229715   1.795   2.237   8.242 -0.1600  1.6675  1.1462
 6085SOL     OW29716   1.747   0.409   7.116  0.1701 -0.3609  0.6331
 6085SOL    HW129717   1.819   0.425   7.178  2.3718 -1.5062 -1.6216
 6085SOL    HW229718   1.764   0.478   7.053  2.3418 -1.7188 -0.3023
 6086SOL     OW29719   2.680   1.852  16.723  0.3277  0.5424  0.0802
 6086SOL    HW129720   2.771   1.831  16.744 -0.3547 -2.6808 -0.2164
 6086SOL    HW229721   2.639   1.883  16.804  0.8334 -0.4678  0.7204
 6087SOL     OW29722   4.033   0.041   6.633 -0.4322  0.1991  0.2761
 6087SOL    HW129723   4.118   4.721   6.639 -0.5720 -0.0699  0.3444
 6087SOL    HW229724   4.054   0.126   6.673 -0.0149  0.0433  0.3858
 6088SOL     OW29725   3.715   1.533   5.452  0.1265  0.1487  0.2628
 6088SOL    HW129726   3.805   1.509   5.476  0.4692 -0.9924 -2.1355
 6088SOL    HW229727   3.669   1.453   5.478  2.8988 -1.3011  0.6351
 6089SOL     OW29728   3.539   2.167  11.973  0.1895 -0.1144 -0.6985
 6089SOL    HW129729   3.596   2.092  11.989 -0.5099  0.0251  2.3031
 6089SOL    HW229730   3.461   2.114  11.990  1.9463 -1.8858  1.7845
 6090SOL     OW29731   1.034   1.428   5.158 -0.2690  0.2070 -0.3666
 6090SOL    HW129732   0.981   1.384   5.224  0.5954 -1.5795 -0.8651
 6090SOL    HW229733   0.993   1.393   5.079  0.8625 -0.5363 -0.6322
 6091SOL     OW29734   2.841   2.948   8.136 -0.3055  0.4794  0.2226
 6091SOL    HW129735   2.805   2.939   8.224  0.8048 -2.0832  0.4050
 6091SOL    HW229736   2.774   2.995   8.087 -0.6419 -0.5911 -0.3394
 6092SOL     OW29737   2.297   0.368  11.722 -0.0624  0.2935  0.2226
 6092SOL    HW129738   2.346   0.372  11.640  1.0530 -1.4538  0.7884
 6092SOL    HW229739   2.245   0.447  11.707 -0.0494 -0.3930 -3.4644
 6093SOL     OW29740   1.937   1.730   4.994 -0.0376 -0.2478  0.2879
 6093SOL    HW129741   1.876   1.779   4.939  0.0737  1.7896  1.9909
 6093SOL    HW229742   2.003   1.796   5.015 -1.0607  0.5577  0.9153
 6094SOL     OW29743   4.689   3.515  11.954 -0.1046 -0.2443  0.2362
 6094SOL    HW129744   4.653   3.584  12.009  1.8730  0.4618  0.6515
 6094SOL    HW229745   4.708   3.449  12.021  0.2726 -1.2021 -0.8024
 6095SOL     OW29746   2.684   2.047   1.864 -0.0675 -0.0603  0.3003
 6095SOL    HW129747   2.615   2.110   1.845  0.5387  0.6828  0.5421
 6095SOL    HW229748   2.651   1.963   1.831  0.8246  0.0463 -0.8871
 6096SOL     OW29749   1.589   2.458  17.026  0.2285 -0.0553 -0.0935
 6096SOL    HW129750   1.548   2.400  17.090 -1.4360  2.2860  0.9445
 6096SOL    HW229751   1.641   2.395  16.976  0.5327 -0.7061  1.0272
 6097SOL     OW29752   3.238   2.395  14.226  0.0809 -0.1818 -0.1238
 6097SOL    HW129753   3.305   2.458  14.202 -0.7059  1.5036  2.1740
 6097SOL    HW229754   3.241   2.330  14.155  2.6977  1.9787 -1.9648
 6098SOL     OW29755   4.390   0.463   3.076  0.3395  0.2386 -0.5200
 6098SOL    HW129756   4.450   0.473   3.151 -1.5651  1.4270  0.8366
 6098SOL    HW229757   4.442   0.430   3.003  1.0769 -3.2991  1.5752
 6099SOL     OW29758   3.861   4.696   4.744 -0.1932 -0.0862 -0.1016
 6099SOL    HW129759   3.939   4.648   4.718 -0.8217  0.0921 -2.3397
 6099SOL    HW229760   3.868   4.684   4.838  0.1993 -2.9470 -0.4813
 6100SOL     OW29761   0.585   4.067   6.652 -0.4098  0.0940 -0.5583
 6100SOL    HW129762   0.673   4.039   6.676 -0.4518 -0.7769 -1.4431
 6100SOL    HW229763   0.578   4.149   6.702  0.3837 -0.0872 -0.1508
 6101SOL     OW29764   3.644   4.500   2.455  0.1114 -0.3192 -0.1809
 6101SOL    HW129765   3.562   4.486   2.502 -0.7093  0.7173 -1.3332
 6101SOL    HW229766   3.613   4.568   2.396 -0.0255 -1.3769 -1.3279
 6102SOL     OW29767   3.841   1.084   6.966 -0.3944  0.0460 -0.2956
 6102SOL    HW129768   3.781   1.034   7.021  0.9004  0.5122  1.5295
 6102SOL    HW229769   3.793   1.167   6.960  0.4317  0.6545  1.6504
 6103SOL     OW29770   4.246   3.282   6.411 -0.2682  0.0200  0.1630
 6103SOL    HW129771   4.207   3.369   6.407 -1.1601 -0.3172  1.4959
 6103SOL    HW229772   4.276   3.260   6.323 -0.8380  0.8806 -0.2447
 6104SOL     OW29773   3.712   1.804   3.654  0.3949 -0.2865  0.4289
 6104SOL    HW129774   3.771   1.879   3.638 -0.0763 -0.0111 -0.0247
 6104SOL    HW229775   3.701   1.812   3.749 -1.2902 -0.7911  0.2732
 6105SOL     OW29776   1.299   2.342   4.004 -0.4821  0.6646 -0.5260
 6105SOL    HW129777   1.280   2.321   3.913 -0.7277  1.5166 -0.6681
 6105SOL    HW229778   1.337   2.258   4.029 -1.8934 -0.1120 -0.9937
 6106SOL     OW29779   3.361   4.711  16.772 -0.1622 -0.5656 -0.5232
 6106SOL    HW129780   3.332   0.025  16.689  0.6877  2.3680  0.4881
 6106SOL    HW229781   3.296   4.642  16.784 -0.3305 -0.0291  1.6884
 6107SOL     OW29782   0.326   0.482   7.619 -0.6883 -0.2042  0.2194
 6107SOL    HW129783   0.321   0.557   7.677 -0.2892  1.1465 -1.4757
 6107SOL    HW229784   0.237   0.447   7.614 -0.8494  0.1679  0.5459
 6108SOL     OW29785   3.468   1.218   5.773 -0.0475 -0.1103  0.0053
 6108SOL    HW129786   3.453   1.306   5.808  0.1674  0.1480 -0.5546
 6108SOL    HW229787   3.406   1.217   5.700  0.0630 -3.9038 -0.0382
 6109SOL     OW29788   3.407   4.028  16.059 -0.0302 -0.5194 -0.0268
 6109SOL    HW129789   3.361   3.961  16.111 -0.4701 -0.3100 -0.1431
 6109SOL    HW229790   3.498   4.017  16.084 -0.6516 -2.4355  1.4469
 6110SOL     OW29791   1.607   4.235   3.701 -0.0362 -0.3709 -0.0433
 6110SOL    HW129792   1.590   4.251   3.608  0.7923 -0.4992 -0.2119
 6110SOL    HW229793   1.676   4.172   3.717 -0.7359 -0.4323  2.7169
 6111SOL     OW29794   0.979   0.567   6.245  0.3982  0.0630 -0.1439
 6111SOL    HW129795   1.037   0.579   6.170  1.0594 -4.5211 -0.3670
 6111SOL    HW229796   0.995   0.474   6.261 -0.9106 -0.0980  0.2435
 6112SOL     OW29797   0.936   3.069   6.033  0.3410  0.6919 -0.4825
 6112SOL    HW129798   1.020   3.113   6.045 -1.9018  5.1705 -1.4027
 6112SOL    HW229799   0.896   3.078   6.120 -1.6126 -0.2327 -1.2833
 6113SOL     OW29800   4.462   1.481   9.173  0.2024 -0.3820  0.0161
 6113SOL    HW129801   4.395   1.437   9.120  0.5222  0.2430 -0.8907
 6113SOL    HW229802   4.491   1.400   9.215  1.0344 -0.2476 -0.3105
 6114SOL     OW29803   0.447   3.209   5.941  0.5768  0.3975 -0.1101
 6114SOL    HW129804   0.530   3.256   5.930 -0.1180  1.3221 -1.3472
 6114SOL    HW229805   0.475   3.118   5.926 -0.8395  0.2816 -2.1480
 6115SOL     OW29806   3.111   2.870  15.081  0.0841 -0.0929  0.1296
 6115SOL    HW129807   3.173   2.942  15.070 -2.0059  1.5198 -1.3307
 6115SOL    HW229808   3.145   2.813  15.012  0.0533  0.7003 -0.5447
 6116SOL     OW29809   4.463   0.182  11.473  0.2334  0.5951 -0.3019
 6116SOL    HW129810   4.391   0.222  11.522 -0.7854  1.3998 -2.4530
 6116SOL    HW229811   4.483   0.112  11.535 -0.5881  0.1550 -0.5245
 6117SOL     OW29812   1.005   3.707   5.495 -0.0541  0.4775  0.2365
 6117SOL    HW129813   1.033   3.761   5.570 -1.0690  0.1801  0.8309
 6117SOL    HW229814   0.969   3.627   5.533 -1.3384  1.3315  0.8488
 6118SOL     OW29815   0.279   4.166  14.501 -0.7699  0.4766 -0.1554
 6118SOL    HW129816   0.273   4.076  14.531  2.1846 -0.2123 -1.6030
 6118SOL    HW229817   0.246   4.153  14.412 -2.7948 -1.0567  0.8402
 6119SOL     OW29818   2.243   3.727  11.384 -0.2770 -0.3305 -0.1042
 6119SOL    HW129819   2.285   3.710  11.469 -0.7137  2.6172  0.7130
 6119SOL    HW229820   2.168   3.776  11.416 -1.1310 -2.1087  0.6110
 6120SOL     OW29821   4.059   1.637   8.346 -0.1456 -0.9684 -0.0106
 6120SOL    HW129822   4.103   1.709   8.392  2.7313 -1.8004 -1.4694
 6120SOL    HW229823   4.060   1.666   8.254 -1.2214  0.8021  0.5183
 6121SOL     OW29824   2.802   4.438   1.083 -0.7221  0.3461  0.4184
 6121SOL    HW129825   2.766   4.417   0.997  0.7785 -0.0333 -0.1223
 6121SOL    HW229826   2.729   4.410   1.137 -0.5915  0.3847  0.6153
 6122SOL     OW29827   2.863   4.339   2.174  0.1443  0.0774  0.5645
 6122SOL    HW129828   2.953   4.369   2.157  0.3121 -0.1038  1.1301
 6122SOL    HW229829   2.880   4.305   2.262 -1.9880 -1.6108  0.3096
 6123SOL     OW29830   4.304   1.154   5.740  0.6388  0.0563 -0.0125
 6123SOL    HW129831   4.249   1.232   5.741 -1.3820 -1.3914  0.5601
 6123SOL    HW229832   4.372   1.197   5.792  1.3351  1.0913 -1.7518
 6124SOL     OW29833   1.686   3.315  16.278 -0.6568  0.0121 -0.1190
 6124SOL    HW129834   1.731   3.265  16.210 -0.1591 -0.5393  0.6242
 6124SOL    HW229835   1.729   3.400  16.272 -2.3675  0.7797 -1.4894
 6125SOL     OW29836   2.820   1.082   7.751  0.7125  0.2016  0.0140
 6125SOL    HW129837   2.746   1.042   7.798 -0.1327  2.8895  0.9429
 6125SOL    HW229838   2.884   1.014   7.729  0.3528 -0.0803 -0.1681
 6126SOL     OW29839   1.895   3.248  17.049  0.4745  0.0996  0.1122
 6126SOL    HW129840   1.920   3.336  17.020 -1.3782  0.2214 -1.1215
 6126SOL    HW229841   1.941   3.251  17.133  0.0698 -0.8590  0.3710
 6127SOL     OW29842   2.250   0.697  15.602 -0.1448 -0.8054  0.0068
 6127SOL    HW129843   2.278   0.783  15.634 -0.7087 -0.4783 -0.3792
 6127SOL    HW229844   2.157   0.718  15.589 -0.4417 -1.9581  0.2982
 6128SOL     OW29845   0.223   1.229   3.839  0.4148 -0.8968 -0.1297
 6128SOL    HW129846   0.214   1.287   3.915  1.4690  0.4733 -1.0395
 6128SOL    HW229847   0.275   1.283   3.779 -1.8069  1.2035 -0.1587
 6129SOL     OW29848   0.172   0.709  13.685  0.3777  0.3842  0.3118
 6129SOL    HW129849   0.205   0.637  13.739  0.7092 -0.5564 -1.1600
 6129SOL    HW229850   0.150   0.655  13.610  0.3466 -2.9618  2.7388
 6130SOL     OW29851   0.476   0.681   5.897  0.4766  0.6143  0.3737
 6130SOL    HW129852   0.568   0.703   5.883  1.6480 -2.8303  2.6924
 6130SOL    HW229853   0.450   0.716   5.982 -0.5023 -0.2686  0.4379
 6131SOL     OW29854   4.182   3.875  16.563  0.3247  1.1018  0.4182
 6131SOL    HW129855   4.107   3.870  16.623  1.5073  1.4974  1.9428
 6131SOL    HW229856   4.256   3.882  16.624  1.8811  3.1116 -1.6975
 6132SOL     OW29857   3.025   2.513   8.599  0.6479 -0.6254  0.6496
 6132SOL    HW129858   2.965   2.439   8.592 -0.7969  0.5926  0.0103
 6132SOL    HW229859   3.091   2.467   8.650  0.0730 -0.1070  1.8546
 6133SOL     OW29860   4.326   2.008   8.624 -0.1173 -0.4737 -0.3137
 6133SOL    HW129861   4.312   2.056   8.543  0.6133 -0.7711 -0.6145
 6133SOL    HW229862   4.270   1.934   8.602 -1.7672  1.0927 -1.3669
 6134SOL     OW29863   0.761   0.461  13.465 -0.3899 -0.0085 -0.0689
 6134SOL    HW129864   0.760   0.521  13.391 -1.0641 -1.9552 -1.6501
 6134SOL    HW229865   0.692   0.505  13.514  1.7955 -0.2990  3.2648
 6135SOL     OW29866   3.467   1.249  15.750  0.2278 -0.0543  0.0026
 6135SOL    HW129867   3.465   1.322  15.812 -0.7140 -0.6403  0.6571
 6135SOL    HW229868   3.484   1.291  15.666  0.6818  0.1479  0.1975
 6136SOL     OW29869   2.493   1.384  13.545 -0.1238 -0.3966 -0.0167
 6136SOL    HW129870   2.458   1.471  13.563 -1.1389 -0.7231 -0.3838
 6136SOL    HW229871   2.579   1.398  13.583  0.0742 -0.1070 -0.5710
 6137SOL     OW29872   0.966   0.756   4.666 -0.5040 -0.1944 -0.1821
 6137SOL    HW129873   0.917   0.758   4.584 -1.0497 -1.7036  0.0959
 6137SOL    HW229874   1.013   0.675   4.647 -0.3721 -0.2031  0.1869
 6138SOL     OW29875   2.173   1.739   1.292  0.1218 -0.5899  0.2763
 6138SOL    HW129876   2.123   1.766   1.369 -0.8419  2.4484 -1.4375
 6138SOL    HW229877   2.155   1.819   1.242  0.2092 -0.4730  0.4316
 6139SOL     OW29878   3.045   0.762  15.374  0.1722  0.1359 -0.6862
 6139SOL    HW129879   3.139   0.780  15.365 -0.3591  2.8045 -0.9160
 6139SOL    HW229880   3.038   0.675  15.336 -2.8600 -0.4295  1.2667
 6140SOL     OW29881   0.575   1.855  13.629  0.4014 -0.1125 -0.4687
 6140SOL    HW129882   0.631   1.811  13.692  0.4855  2.8038  1.4824
 6140SOL    HW229883   0.508   1.790  13.610 -0.0605 -0.1263  1.1976
 6141SOL     OW29884   1.599   0.160   8.874  0.1562  0.1343  0.4288
 6141SOL    HW129885   1.559   0.246   8.863  0.3136  0.0019 -1.1610
 6141SOL    HW229886   1.679   0.177   8.924  0.7467 -0.3318 -0.3657
 6142SOL     OW29887   2.406   1.489   8.182 -0.5095  0.2914 -0.8258
 6142SOL    HW129888   2.477   1.441   8.140  1.2191  1.2472  1.0262
 6142SOL    HW229889   2.334   1.438   8.145 -0.0468 -0.4091 -0.7658
 6143SOL     OW29890   0.885   4.316   3.914  0.2893 -0.2463  0.3236
 6143SOL    HW129891   0.909   4.409   3.919  0.4912 -0.2899  0.1858
 6143SOL    HW229892   0.804   4.318   3.965  0.8490  1.4065  1.1551
 6144SOL     OW29893   1.585   0.082   7.435 -0.3943  0.5046  0.4779
 6144SOL    HW129894   1.650   0.145   7.468 -0.2365  1.4862 -1.7255
 6144SOL    HW229895   1.543   0.134   7.367 -1.7171 -2.1531 -0.7034
 6145SOL     OW29896   2.782   4.115   1.118 -0.3243  0.2107 -0.8215
 6145SOL    HW129897   2.774   4.062   1.197  0.7686  2.3947  0.7814
 6145SOL    HW229898   2.837   4.064   1.058  1.3154  1.8737 -0.7417
 6146SOL     OW29899   4.722   1.858   6.467  0.1473 -0.4972  0.6077
 6146SOL    HW129900   4.692   1.948   6.483 -2.9357 -1.6097  1.2358
 6146SOL    HW229901   0.033   1.841   6.555  1.1314 -2.1837 -0.1003
 6147SOL     OW29902   4.250   1.409  12.182  0.1586  0.1897  0.0039
 6147SOL    HW129903   4.345   1.404  12.191  0.1421 -1.4400 -0.6812
 6147SOL    HW229904   4.251   1.499  12.149 -0.6796  0.3080  0.2884
 6148SOL     OW29905   0.450   1.749   3.402  0.0365  0.0590  0.1139
 6148SOL    HW129906   0.366   1.794   3.389  0.2253  0.2752 -0.3686
 6148SOL    HW229907   0.441   1.716   3.491 -1.3939 -0.1130 -0.0876
 6149SOL     OW29908   0.872   2.759   2.737 -0.8883  0.2076  0.1235
 6149SOL    HW129909   0.793   2.813   2.737 -0.4615  0.8224 -0.7489
 6149SOL    HW229910   0.838   2.676   2.702  2.2065 -0.9977  0.0143
 6150SOL     OW29911   3.455   2.578   9.951  0.3043  0.3991  0.1436
 6150SOL    HW129912   3.489   2.493   9.978  1.0581  0.6780  0.0902
 6150SOL    HW229913   3.367   2.573   9.987  0.0029 -0.2102 -0.6838
 6151SOL     OW29914   3.748   2.370   8.814 -0.0663  0.5314  0.3831
 6151SOL    HW129915   3.793   2.399   8.735 -1.2046  1.9935  0.2713
 6151SOL    HW229916   3.813   2.381   8.884  0.2273 -0.0454  0.2062
 6152SOL     OW29917   1.305   4.524   6.353 -0.0896  0.1711 -0.3930
 6152SOL    HW129918   1.344   4.607   6.328 -1.0498  0.4698 -0.9187
 6152SOL    HW229919   1.232   4.528   6.290  0.4369  0.8637 -0.9607
 6153SOL     OW29920   3.276   0.753   6.427  0.2209  0.0388  0.4151
 6153SOL    HW129921   3.319   0.699   6.361  0.6632  1.4620 -0.4565
 6153SOL    HW229922   3.307   0.830   6.380  0.7149  0.3894  1.3292
 6154SOL     OW29923   2.659   1.917   8.536 -0.6676  0.2014 -0.3349
 6154SOL    HW129924   2.678   1.996   8.486 -1.7213  0.1970 -0.7406
 6154SOL    HW229925   2.663   1.948   8.627  1.5319  0.6586 -0.5956
 6155SOL     OW29926   2.202   0.897   6.500  0.1378 -0.1748 -0.6433
 6155SOL    HW129927   2.157   0.964   6.447 -0.6407  0.2137  0.5164
 6155SOL    HW229928   2.126   0.857   6.542 -1.5104  1.2450 -2.2540
 6156SOL     OW29929   4.249   3.111   2.375  0.2018  0.4736  0.3658
 6156SOL    HW129930   4.249   3.174   2.447  1.1253 -0.2448  0.9892
 6156SOL    HW229931   4.157   3.086   2.384  0.8521 -2.5460 -1.4424
 6157SOL     OW29932   3.847   0.977  16.152  0.2789  0.1934  0.2008
 6157SOL    HW129933   3.894   0.923  16.089  1.4780  0.3209  0.9823
 6157SOL    HW229934   3.802   1.035  16.092  0.5301 -0.5481 -0.6998
 6158SOL     OW29935   0.490   0.801  16.822  0.0436 -0.2202 -0.0571
 6158SOL    HW129936   0.430   0.875  16.832  0.9323  0.3524  0.9340
 6158SOL    HW229937   0.438   0.736  16.775  0.3211 -1.1157  0.8718
 6159SOL     OW29938   1.645   1.882   3.513  0.6604 -0.7129 -0.6553
 6159SOL    HW129939   1.736   1.878   3.543  0.3391 -0.3847  0.3479
 6159SOL    HW229940   1.620   1.790   3.521  1.8051 -1.0976 -1.4691
 6160SOL     OW29941   0.990   1.989   4.730  0.6074 -0.0306 -0.4609
 6160SOL    HW129942   1.000   2.028   4.643 -0.9525  0.6171 -0.3419
 6160SOL    HW229943   1.067   2.022   4.776 -0.5029  3.0748 -0.8553
 6161SOL     OW29944   3.999   2.342   8.557  0.2042 -0.1034 -0.0180
 6161SOL    HW129945   4.082   2.377   8.588  0.4199 -2.3779  1.9319
 6161SOL    HW229946   4.020   2.332   8.464  0.4409 -2.0934  0.2507
 6162SOL     OW29947   0.173   0.127   5.999  0.0167 -0.0184 -0.1959
 6162SOL    HW129948   0.240   0.062   6.019 -0.4298 -1.3174 -2.9672
 6162SOL    HW229949   0.103   0.069   5.970 -0.8410 -0.1278  2.0545
 6163SOL     OW29950   2.507   4.575  13.340  0.2317  0.4108  0.0339
 6163SOL    HW129951   2.494   4.621  13.257 -3.2159 -0.6051 -0.0273
 6163SOL    HW229952   2.602   4.576  13.352  0.1848 -0.1270  0.4566
 6164SOL     OW29953   2.739   2.847   8.388  0.1697  0.1253  0.2070
 6164SOL    HW129954   2.658   2.889   8.416 -0.6256 -1.4911  0.3390
 6164SOL    HW229955   2.802   2.915   8.411  1.0088 -0.2978 -0.7845
 6165SOL     OW29956   1.063   2.274   4.123 -0.3685 -0.3229 -0.2551
 6165SOL    HW129957   1.115   2.330   4.065  0.5604 -0.1647  0.7284
 6165SOL    HW229958   1.063   2.329   4.201  2.1808 -0.8856  0.1417
 6166SOL     OW29959   4.192   1.382   5.794  0.4843 -0.2363 -0.1824
 6166SOL    HW129960   4.125   1.369   5.861 -0.4329 -2.7397 -1.5956
 6166SOL    HW229961   4.246   1.453   5.829  0.2598 -0.6918  1.0859
 6167SOL     OW29962   2.592   4.654   9.842 -0.5459 -0.3792 -0.1638
 6167SOL    HW129963   2.524   4.643   9.775 -1.8060 -1.4474  1.2783
 6167SOL    HW229964   2.573   4.573   9.891  1.3117 -0.4293  0.4851
 6168SOL     OW29965   2.097   4.433   4.249 -0.2173 -0.0672  0.7162
 6168SOL    HW129966   2.038   4.485   4.303 -2.8509 -0.3234 -1.8967
 6168SOL    HW229967   2.165   4.496   4.227 -2.4857  1.6568 -1.3713
 6169SOL     OW29968   2.567   0.370   4.304 -0.0366 -0.1676  0.5289
 6169SOL    HW129969   2.555   0.412   4.219  0.9811  1.3904  1.1623
 6169SOL    HW229970   2.479   0.370   4.343  0.2270 -1.2937  1.1032
 6170SOL     OW29971   1.132   4.617   8.296  0.6174  0.7651  0.2291
 6170SOL    HW129972   1.044   4.614   8.332  1.4347  1.4309  2.2543
 6170SOL    HW229973   1.177   4.671   8.361  0.0342  2.8124 -1.0555
 6171SOL     OW29974   1.605   3.662   7.822  0.0705 -0.4491 -0.2500
 6171SOL    HW129975   1.654   3.684   7.902  0.0165  1.0777 -0.6359
 6171SOL    HW229976   1.517   3.641   7.850  0.3899  2.3831  2.9343
 6172SOL     OW29977   0.883   3.445   5.282 -0.7724 -0.4599 -0.0664
 6172SOL    HW129978   0.885   3.450   5.187  2.0965  0.1135  0.0252
 6172SOL    HW229979   0.929   3.364   5.303 -0.3509 -0.1016  0.4176
 6173SOL     OW29980   0.004   1.186   8.015 -0.1383 -0.1639  0.4842
 6173SOL    HW129981   4.647   1.156   7.972 -1.0592  0.2677  1.8746
 6173SOL    HW229982   0.076   1.129   7.988 -1.6686 -1.9190  0.0825
 6174SOL     OW29983   0.082   0.920   9.325 -0.1594  0.3979 -0.1608
 6174SOL    HW129984   0.125   0.950   9.244  0.1624  1.7255  0.5107
 6174SOL    HW229985   0.157   0.902   9.382 -0.8150 -0.0398  0.5550
 6175SOL     OW29986   4.281   2.775  13.206  0.6845  0.2138 -0.0560
 6175SOL    HW129987   4.243   2.692  13.233 -1.3318  1.1247 -0.1256
 6175SOL    HW229988   4.289   2.759  13.112 -2.9129 -2.0154  0.0534
 6176SOL     OW29989   3.174   0.584   2.011  0.6476  0.2425  0.5593
 6176SOL    HW129990   3.213   0.660   2.055  0.6188  1.1084 -0.9001
 6176SOL    HW229991   3.114   0.632   1.953 -1.0062 -2.9887 -0.3759
 6177SOL     OW29992   4.393   3.076   5.599 -0.0317 -0.2594 -0.3592
 6177SOL    HW129993   4.365   2.991   5.632 -1.9796  1.0751  1.4268
 6177SOL    HW229994   4.306   3.114   5.594  1.3490  3.1744  0.9987
 6178SOL     OW29995   3.618   4.594  10.684 -0.0934  0.2636  0.1404
 6178SOL    HW129996   3.565   4.663  10.723 -0.8368 -0.3787  0.2591
 6178SOL    HW229997   3.669   4.565  10.759  2.4532 -1.0547 -2.0949
 6179SOL     OW29998   2.859   2.764  14.917  0.3867 -0.3088 -0.1654
 6179SOL    HW129999   2.947   2.802  14.922  0.1758 -0.0025  1.0461
 6179SOL    HW230000   2.858   2.698  14.987  0.3474  1.8879  1.8920
 6180SOL     OW30001   0.900   3.837   2.268  0.2787  0.7536  0.0090
 6180SOL    HW130002   0.910   3.744   2.248 -1.8779  1.0466 -2.3608
 6180SOL    HW230003   0.880   3.866   2.179 -0.4443  3.8676  1.1747
 6181SOL     OW30004   1.558   3.428  15.942  0.4165  0.4352  0.1458
 6181SOL    HW130005   1.481   3.472  15.978  1.7496  1.5904  1.5707
 6181SOL    HW230006   1.626   3.462  15.999 -0.6051  1.2889  0.8570
 6182SOL     OW30007   0.344   0.524  14.148 -0.2310  0.0225  0.3791
 6182SOL    HW130008   0.429   0.560  14.121  1.1045 -4.9515 -2.0021
 6182SOL    HW230009   0.346   0.445  14.095  0.2990 -1.5155  2.7056
 6183SOL     OW30010   2.466   3.002   0.808  0.1099  0.1039  0.1255
 6183SOL    HW130011   2.456   3.030   0.717  0.4455  0.3539  0.1661
 6183SOL    HW230012   2.510   2.919   0.792  0.1948  0.2245 -0.2602
 6184SOL     OW30013   4.556   0.801   8.113 -0.2771  0.3157  0.3368
 6184SOL    HW130014   4.646   0.779   8.089  0.1043  3.1993 -0.9187
 6184SOL    HW230015   4.561   0.816   8.207 -0.0574 -0.7237  0.4867
 6185SOL     OW30016   2.137   2.293   3.571  0.2423 -0.2763  0.3493
 6185SOL    HW130017   2.095   2.216   3.533  0.7264 -0.5848  0.4417
 6185SOL    HW230018   2.106   2.288   3.662 -0.4202  2.0854  0.2600
 6186SOL     OW30019   1.726   3.923   0.877 -0.7593  0.7417 -0.6997
 6186SOL    HW130020   1.713   3.999   0.934 -1.2064  1.3243 -1.5767
 6186SOL    HW230021   1.792   3.876   0.927 -0.5949  0.7538 -0.9054
 6187SOL     OW30022   3.543   0.587   9.519 -0.2274 -0.6032  0.2040
 6187SOL    HW130023   3.594   0.627   9.589 -0.3456  1.7658 -1.0320
 6187SOL    HW230024   3.521   0.501   9.554  1.0336 -0.3787  1.5221
 6188SOL     OW30025   2.382   1.918  10.922  0.2622  0.0359 -0.3883
 6188SOL    HW130026   2.424   1.917  11.008  0.1880  2.2796 -0.3345
 6188SOL    HW230027   2.456   1.963  10.882 -0.7721  2.1434  0.0514
 6189SOL     OW30028   3.292   2.115   7.752  0.4620 -0.5745  0.5083
 6189SOL    HW130029   3.219   2.171   7.726  0.9135 -0.2445 -0.0251
 6189SOL    HW230030   3.248   2.031   7.738  1.1123 -0.6940 -0.7854
 6190SOL     OW30031   0.546   3.035  15.222  0.3448  0.4347  0.9208
 6190SOL    HW130032   0.638   3.058  15.239  0.6276 -0.1203  0.1235
 6190SOL    HW230033   0.515   3.114  15.179  2.3193  0.3353 -0.6817
 6191SOL     OW30034   3.202   1.749   8.895  0.3253 -0.1840  0.1275
 6191SOL    HW130035   3.175   1.743   8.987 -2.2740  1.4737 -0.5083
 6191SOL    HW230036   3.290   1.717   8.911  0.4047  0.4951  1.0893
 6192SOL     OW30037   0.257   0.421   3.812 -0.3045  0.3545 -0.2755
 6192SOL    HW130038   0.197   0.358   3.773 -0.5873 -0.9155  2.2014
 6192SOL    HW230039   0.230   0.411   3.904  1.1582 -0.4290  0.0607
 6193SOL     OW30040   4.482   4.064  13.810  0.0361  0.5332  0.3741
 6193SOL    HW130041   4.468   3.988  13.753  2.7015  0.0317  0.3814
 6193SOL    HW230042   4.535   4.124  13.756  0.1520  1.0338  1.0463
 6194SOL     OW30043   3.475   1.392  17.293  0.5166 -0.6185  0.3688
 6194SOL    HW130044   3.526   1.334  17.236  0.4036 -1.8199  1.5018
 6194SOL    HW230045   3.519   1.477  17.293 -0.6703 -0.0029  2.0554
 6195SOL     OW30046   0.681   4.162   7.016  0.1528  0.2438 -0.0483
 6195SOL    HW130047   0.751   4.214   7.055 -0.1674 -0.5342  1.5847
 6195SOL    HW230048   0.729   4.080   7.013 -0.6518 -0.2605  0.9535
 6196SOL     OW30049   4.023   0.138  10.283 -0.2613  0.3738  0.1426
 6196SOL    HW130050   3.954   0.186  10.328 -1.8343 -3.8178  2.1444
 6196SOL    HW230051   4.001   0.138  10.189  0.3170  2.6718  0.0222
 6197SOL     OW30052   2.573   0.123  17.200 -0.3597  0.3830  0.1037
 6197SOL    HW130053   2.660   0.164  17.200  0.2435 -0.9121  2.2643
 6197SOL    HW230054   2.532   0.174  17.130  0.2208 -0.0785 -0.5779
 6198SOL     OW30055   2.982   2.211   2.768  0.1826  0.0433 -0.4986
 6198SOL    HW130056   2.922   2.157   2.716 -0.0129 -0.9579  0.7526
 6198SOL    HW230057   3.039   2.146   2.809 -0.7834 -1.6386 -1.8126
 6199SOL     OW30058   0.712   1.615  13.711  0.7781 -0.0374  0.4126
 6199SOL    HW130059   0.636   1.564  13.739  1.1677 -1.3473 -0.9214
 6199SOL    HW230060   0.724   1.577  13.624 -0.4572 -0.6892  0.5283
 6200SOL     OW30061   1.931   1.309   2.942  0.0750  0.1602  0.4855
 6200SOL    HW130062   1.979   1.247   2.888  0.1055  0.3591  0.2860
 6200SOL    HW230063   1.928   1.387   2.887  0.3127 -1.6129 -2.0158
 6201SOL     OW30064   0.637   4.603   4.069  0.5886  0.0270 -0.3364
 6201SOL    HW130065   0.625   4.546   3.993 -1.6368  0.8058 -0.5735
 6201SOL    HW230066   0.621   4.538   4.138 -1.7658  0.5089 -0.4281
 6202SOL     OW30067   1.589   2.904   7.575 -0.0615  0.0528 -0.1538
 6202SOL    HW130068   1.635   2.908   7.492  1.0205  1.6967  0.5390
 6202SOL    HW230069   1.563   2.996   7.574  0.5780  0.2284 -0.2833
 6203SOL     OW30070   4.230   0.898   9.388  0.1226 -0.0639  0.0046
 6203SOL    HW130071   4.198   0.988   9.382 -1.4334 -0.5677  0.4806
 6203SOL    HW230072   4.321   0.907   9.415  0.9354 -1.3752 -2.2952
 6204SOL     OW30073   3.998   1.023   3.462  0.5062 -0.7838 -0.2024
 6204SOL    HW130074   3.983   1.107   3.418  1.1980 -0.5683 -0.0332
 6204SOL    HW230075   4.068   1.053   3.520 -0.3290  1.5825 -0.3986
 6205SOL     OW30076   3.783   0.745   4.689 -0.2674  0.3979  0.1276
 6205SOL    HW130077   3.757   0.654   4.673 -0.6851  0.4552  0.4802
 6205SOL    HW230078   3.783   0.753   4.785  4.0739 -0.5003  0.2072
 6206SOL     OW30079   4.327   4.715   7.692 -0.6274  0.0776  0.0225
 6206SOL    HW130080   4.286   4.702   7.606 -0.0736  0.2803 -0.2681
 6206SOL    HW230081   4.291   0.072   7.729  1.8139  1.6211 -0.9319
 6207SOL     OW30082   0.520   3.911   7.186 -0.2532 -0.0322 -0.5550
 6207SOL    HW130083   0.502   3.834   7.133 -0.4340 -0.1049 -0.3882
 6207SOL    HW230084   0.483   3.972   7.122  2.1884  0.1367 -1.8002
 6208SOL     OW30085   2.446   3.906  13.056 -0.0736  0.0824 -0.3941
 6208SOL    HW130086   2.495   3.835  13.097  0.4519 -0.0856 -1.3115
 6208SOL    HW230087   2.362   3.906  13.102 -0.0027 -1.4922 -0.2611
 6209SOL     OW30088   2.133   3.133  14.521  0.1041 -0.3802  0.0775
 6209SOL    HW130089   2.127   3.076  14.445  1.6191  0.3520 -0.5936
 6209SOL    HW230090   2.048   3.121  14.564 -0.2479 -1.8684 -1.0529
 6210SOL     OW30091   1.093   2.978   7.890 -0.4641  0.6467  0.0507
 6210SOL    HW130092   1.117   2.911   7.954 -1.7771 -0.9027 -1.0667
 6210SOL    HW230093   1.015   2.936   7.853  0.1102 -0.5971  0.2479
 6211SOL     OW30094   0.223   2.853   3.821 -0.4351 -0.4642  0.1428
 6211SOL    HW130095   0.229   2.895   3.907  0.1518 -0.2662  0.0027
 6211SOL    HW230096   0.136   2.813   3.827 -0.3390 -0.9971 -1.9308
 6212SOL     OW30097   1.015   3.645   2.623 -0.0598  0.4843  0.4981
 6212SOL    HW130098   1.023   3.680   2.712 -0.6611  3.3511 -0.5912
 6212SOL    HW230099   0.955   3.711   2.588  0.0194 -0.8721 -2.1929
 6213SOL     OW30100   1.666   3.223   7.329 -0.5106  0.1346 -0.4655
 6213SOL    HW130101   1.614   3.268   7.263  1.5317  0.0523 -2.1536
 6213SOL    HW230102   1.639   3.134   7.308 -0.4958  0.0654 -0.1906
 6214SOL     OW30103   4.263   0.592   8.194  0.0812 -0.0255 -0.6763
 6214SOL    HW130104   4.219   0.677   8.202  1.0121  0.1085  2.9180
 6214SOL    HW230105   4.310   0.586   8.277 -3.0688 -0.9526  1.0413
 6215SOL     OW30106   4.573   1.115  11.321  0.4448 -0.1042  0.4492
 6215SOL    HW130107   4.615   1.149  11.242  1.2463  1.5221  1.5729
 6215SOL    HW230108   4.504   1.181  11.332 -1.2615 -1.8271  0.0018
 6216SOL     OW30109   4.154   3.530   5.398 -0.3337 -0.1104  0.1627
 6216SOL    HW130110   4.121   3.502   5.483  0.9482 -0.6596  0.4777
 6216SOL    HW230111   4.228   3.589   5.413 -0.6911  0.8399 -1.7657
 6217SOL     OW30112   0.347   1.682   7.177  0.2044  0.7959  0.6243
 6217SOL    HW130113   0.270   1.628   7.197  1.6853 -1.5216  0.1099
 6217SOL    HW230114   0.386   1.642   7.099  0.1056  0.2458  0.8611
 6218SOL     OW30115   3.983   1.618   6.242 -0.0124  0.4859  0.2322
 6218SOL    HW130116   3.993   1.527   6.269 -0.8365  0.5967  0.9256
 6218SOL    HW230117   4.069   1.656   6.257 -0.9173  2.5878  0.0465
 6219SOL     OW30118   4.115   0.081   2.331  0.5306  0.4180  0.2067
 6219SOL    HW130119   4.150   4.715   2.324 -0.6563 -0.0729  0.4901
 6219SOL    HW230120   4.030   0.063   2.370  0.4250 -0.6776 -0.5234
 6220SOL     OW30121   3.067   0.380  10.185 -0.6549 -0.1164 -0.0596
 6220SOL    HW130122   3.069   0.380  10.089 -1.8309 -2.3052 -0.0990
 6220SOL    HW230123   3.086   0.286  10.194  1.7081  0.4239  0.6286
 6221SOL     OW30124   4.322   0.558   1.255  0.2707  0.2496  0.1875
 6221SOL    HW130125   4.258   0.534   1.321 -0.4884  0.4836 -0.4695
 6221SOL    HW230126   4.301   0.652   1.252  0.7382  0.3637  0.4572
 6222SOL     OW30127   2.191   3.719   1.365 -0.1121 -0.0164 -0.3755
 6222SOL    HW130128   2.133   3.695   1.437  1.3183  1.0441  1.1255
 6222SOL    HW230129   2.134   3.689   1.294  0.1686 -1.8938  0.1937
 6223SOL     OW30130   2.359   2.541   3.874 -0.3326  0.9020 -0.0411
 6223SOL    HW130131   2.282   2.539   3.930  1.2941  1.9011  2.2496
 6223SOL    HW230132   2.362   2.628   3.833  1.7893  0.5347 -0.6946
 6224SOL     OW30133   0.486   3.224   8.171 -0.0186 -0.3252  0.1060
 6224SOL    HW130134   0.466   3.130   8.179 -2.4462  0.2055  0.2997
 6224SOL    HW230135   0.401   3.258   8.197 -0.6259 -0.7559 -1.3132
 6225SOL     OW30136   2.150   0.643   6.141  0.6556  0.1917 -0.4691
 6225SOL    HW130137   2.055   0.645   6.152  0.6416 -3.0518 -0.0692
 6225SOL    HW230138   2.173   0.733   6.164  0.6522 -0.3193  1.5578
 6226SOL     OW30139   3.869   2.108   9.782 -0.0404 -0.0758 -0.2425
 6226SOL    HW130140   3.936   2.073   9.723  1.0022  1.2548  0.1666
 6226SOL    HW230141   3.802   2.145   9.724 -1.1693 -0.2966  0.9343
 6227SOL     OW30142   4.634   0.544   0.645 -0.2135  0.3343 -0.2665
 6227SOL    HW130143   4.692   0.492   0.699 -0.2006  1.7903  1.1120
 6227SOL    HW230144   4.638   0.490   0.566  0.5306 -1.0280  0.6992
 6228SOL     OW30145   2.986   0.365   0.707 -0.0576  0.5244  0.4374
 6228SOL    HW130146   3.028   0.385   0.791 -1.5998  3.3312  0.5719
 6228SOL    HW230147   2.930   0.300   0.748 -1.9079  1.3518 -0.7968
 6229SOL     OW30148   0.706   2.392   1.869  0.2934  0.6085 -0.5211
 6229SOL    HW130149   0.708   2.487   1.857 -2.2729  0.6262 -0.8651
 6229SOL    HW230150   0.794   2.361   1.851 -0.5913 -1.3497 -1.5112
 6230SOL     OW30151   4.449   0.536   7.098  0.5061  0.5359 -0.1025
 6230SOL    HW130152   4.536   0.517   7.063  1.0181  1.1885  0.8158
 6230SOL    HW230153   4.421   0.607   7.040  1.8189  1.2496  0.1294
 6231SOL     OW30154   0.493   1.214   5.021 -0.1432 -0.2650  0.2349
 6231SOL    HW130155   0.477   1.270   5.097  1.5880 -0.2811  0.6272
 6231SOL    HW230156   0.420   1.230   4.963  0.0245  0.5417  0.2535
 6232SOL     OW30157   0.405   2.267   4.344  0.2032  0.0044  0.1235
 6232SOL    HW130158   0.314   2.279   4.370  0.1628  0.9371 -0.4560
 6232SOL    HW230159   0.444   2.274   4.432  0.4906 -1.3467  0.1045
 6233SOL     OW30160   1.440   0.261   3.637 -0.1014 -0.6356 -0.1454
 6233SOL    HW130161   1.368   0.232   3.693 -1.5591 -0.1221 -1.7352
 6233SOL    HW230162   1.405   0.240   3.550  1.6943  0.2916 -1.0859
 6234SOL     OW30163   1.750   3.155   7.609 -0.6297  0.3305 -0.1479
 6234SOL    HW130164   1.770   3.238   7.566  0.0142 -1.8226 -4.0345
 6234SOL    HW230165   1.811   3.100   7.560 -1.6905 -1.1937  0.2158
 6235SOL     OW30166   0.615   3.253  16.728 -0.9805  0.2785 -0.1629
 6235SOL    HW130167   0.629   3.168  16.686 -1.4271  1.1998 -2.1656
 6235SOL    HW230168   0.568   3.229  16.808  0.3695  0.4434  0.6708
 6236SOL     OW30169   3.670   2.549   9.144 -0.4032  0.0452  0.0444
 6236SOL    HW130170   3.607   2.516   9.080 -0.0663  0.3643 -0.4522
 6236SOL    HW230171   3.755   2.554   9.100 -1.3126 -0.3797 -1.7398
 6237SOL     OW30172   1.365   3.031   3.838  0.1930  0.1083 -0.0393
 6237SOL    HW130173   1.301   3.001   3.773  0.6811  0.5222 -0.7027
 6237SOL    HW230174   1.361   3.126   3.823  2.4254  0.2387  0.1897
 6238SOL     OW30175   0.825   3.369  16.454 -0.3332 -0.5118  0.0637
 6238SOL    HW130176   0.857   3.285  16.423 -3.4022 -1.3537 -0.7977
 6238SOL    HW230177   0.903   3.425  16.450  1.3049 -2.6196  2.5729
 6239SOL     OW30178   4.468   1.926   6.146  0.1115  0.5627  0.5665
 6239SOL    HW130179   4.465   1.990   6.074 -1.1196 -0.7155 -0.5155
 6239SOL    HW230180   4.450   1.977   6.224 -2.3922 -1.0330  1.0377
 6240SOL     OW30181   3.470   1.676  15.577  0.3375  0.4003 -0.1177
 6240SOL    HW130182   3.463   1.581  15.574  2.0152  0.2446  1.5570
 6240SOL    HW230183   3.562   1.687  15.556  0.2993 -3.0105 -2.0160
 6241SOL     OW30184   2.342   1.712   5.494  0.3449 -0.5980  0.5947
 6241SOL    HW130185   2.316   1.794   5.452 -1.6432 -1.2947  0.4505
 6241SOL    HW230186   2.366   1.658   5.419 -0.9625  0.5559 -0.6618
 6242SOL     OW30187   2.198   1.519   7.860 -0.1828  0.7767  0.6268
 6242SOL    HW130188   2.150   1.458   7.917  1.6453 -1.8870 -0.7224
 6242SOL    HW230189   2.186   1.467   7.780  0.5068  0.2748  0.8506
 6243SOL     OW30190   2.571   0.691   2.590 -0.4758 -1.0398 -0.5595
 6243SOL    HW130191   2.652   0.702   2.540 -0.5775  0.8243 -0.3090
 6243SOL    HW230192   2.535   0.618   2.539 -1.8109  0.1265 -1.2970
 6244SOL     OW30193   2.707   3.758  10.544 -0.2217  0.3407  0.2684
 6244SOL    HW130194   2.729   3.677  10.590  0.2219  0.4428  0.2346
 6244SOL    HW230195   2.795   3.786  10.520 -0.5032  0.7309 -0.3204
 6245SOL     OW30196   4.310   2.872   5.790  0.0991  0.5005 -0.0283
 6245SOL    HW130197   4.351   2.786   5.781 -0.8095  0.2714 -2.0255
 6245SOL    HW230198   4.219   2.847   5.772  0.0261 -1.4117  3.0739
 6246SOL     OW30199   2.402   2.883   7.928 -0.6995 -0.1715  0.0451
 6246SOL    HW130200   2.321   2.857   7.972 -0.5142  0.2311  0.6274
 6246SOL    HW230201   2.375   2.966   7.890 -0.1712 -0.1423 -0.2664
 6247SOL     OW30202   2.194   3.089   2.874 -0.0945 -0.1202 -0.4343
 6247SOL    HW130203   2.259   3.159   2.882  1.3280 -1.3081 -1.6756
 6247SOL    HW230204   2.184   3.082   2.779  0.1889  1.3402 -0.5774
 6248SOL     OW30205   0.526   1.642   5.953 -0.7375 -0.9125 -0.2186
 6248SOL    HW130206   0.591   1.711   5.969 -1.2711 -0.3673 -0.3958
 6248SOL    HW230207   0.444   1.687   5.936  1.3835  3.4588  0.9573
 6249SOL     OW30208   3.593   1.631  17.311 -0.3959 -0.0409  0.1467
 6249SOL    HW130209   3.545   1.714  17.299  2.0652  1.3371 -0.2047
 6249SOL    HW230210   3.671   1.662  17.356 -0.5076  0.4583  0.0041
 6250SOL     OW30211   4.101   2.195   3.114  0.0647 -0.1639  0.1631
 6250SOL    HW130212   4.066   2.277   3.080 -1.2258 -0.5452  0.5541
 6250SOL    HW230213   4.177   2.239   3.152 -0.9949  2.4054 -0.7098
 6251SOL     OW30214   4.642   3.013   8.645 -0.3581 -0.2670 -0.6856
 6251SOL    HW130215   4.640   3.107   8.627  0.7471 -0.0372  0.3506
 6251SOL    HW230216   0.011   3.006   8.672 -0.5499  0.5765  0.1929
 6252SOL     OW30217   3.860   4.416   3.393 -0.3785 -0.5242 -0.4387
 6252SOL    HW130218   3.855   4.490   3.454  1.4333  0.2939 -1.2754
 6252SOL    HW230219   3.786   4.360   3.415 -1.3643  0.8866 -0.1567
 6253SOL     OW30220   3.892   3.410   6.919  0.2091  0.3591  0.4116
 6253SOL    HW130221   3.958   3.363   6.970 -1.0376  0.0373  1.7233
 6253SOL    HW230222   3.820   3.347   6.925 -0.0938  1.1356  4.9178
 6254SOL     OW30223   0.322   0.536  11.597  0.2057  0.7797 -0.2812
 6254SOL    HW130224   0.281   0.456  11.566 -0.0117 -0.0847  2.3129
 6254SOL    HW230225   0.248   0.591  11.622  0.3677  0.6831  0.4013
 6255SOL     OW30226   2.266   0.474  14.414 -0.0972  0.2198  0.2176
 6255SOL    HW130227   2.206   0.528  14.361  0.8218 -0.2721 -1.3238
 6255SOL    HW230228   2.262   0.526  14.495 -0.4661  0.4783  0.0332
 6256SOL     OW30229   0.311   4.026   2.301 -0.8141 -0.4071 -0.1248
 6256SOL    HW130230   0.227   4.020   2.257 -0.2051 -1.3871 -1.1467
 6256SOL    HW230231   0.381   4.009   2.238  0.2392  2.2057  0.3548
 6257SOL     OW30232   1.396   3.390   9.025 -0.2486  0.3076  0.5081
 6257SOL    HW130233   1.472   3.387   8.967  0.2330 -0.2128  1.1646
 6257SOL    HW230234   1.334   3.327   8.989  0.7955  0.0947 -0.9089
 6258SOL     OW30235   2.861   0.695   5.263  0.0585 -0.2558  0.0330
 6258SOL    HW130236   2.821   0.662   5.344  1.1282 -2.5454 -0.3834
 6258SOL    HW230237   2.863   0.790   5.280  3.9814 -0.5801  1.4568
 6259SOL     OW30238   4.346   1.683  11.056 -0.1713 -0.1039 -0.4184
 6259SOL    HW130239   4.399   1.664  11.133  0.8217 -2.5259 -1.6757
 6259SOL    HW230240   4.371   1.774  11.044  0.4914 -0.3273 -0.7353
 6260SOL     OW30241   0.293   2.507  16.930  0.4870  0.9618  0.3084
 6260SOL    HW130242   0.209   2.516  16.975 -0.6668 -1.5009 -1.3296
 6260SOL    HW230243   0.338   2.452  16.994 -1.6464 -2.1810 -0.8719
 6261SOL     OW30244   1.747   3.588   4.890 -0.0663 -0.0889  0.3895
 6261SOL    HW130245   1.675   3.623   4.837 -0.3641 -2.1506 -0.5388
 6261SOL    HW230246   1.705   3.568   4.974 -1.4442 -0.8095 -0.4761
 6262SOL     OW30247   1.379   3.227   2.926  0.1090  0.2915 -0.0382
 6262SOL    HW130248   1.446   3.222   2.994 -1.1463  1.3175  1.2564
 6262SOL    HW230249   1.353   3.135   2.930  0.3235  0.1828 -0.9810
 6263SOL     OW30250   2.041   2.310   6.815 -0.1013 -0.1276 -0.2039
 6263SOL    HW130251   1.982   2.378   6.782  1.7040  0.4987 -2.1732
 6263SOL    HW230252   2.026   2.245   6.747 -1.7195 -0.1189  0.1461
 6264SOL     OW30253   1.794   2.886   1.492 -0.3838  0.1447 -0.0204
 6264SOL    HW130254   1.795   2.947   1.566  0.3530  0.6947 -0.4761
 6264SOL    HW230255   1.831   2.808   1.534  0.2659  1.1449  1.2546
 6265SOL     OW30256   3.424   0.936  10.184 -0.0282 -0.3428  0.1762
 6265SOL    HW130257   3.483   0.983  10.125  1.3430 -2.7861 -0.3835
 6265SOL    HW230258   3.462   0.850  10.203  0.6422 -0.0985 -0.0840
 6266SOL     OW30259   1.551   2.210   9.149  0.4029  0.5644  0.1498
 6266SOL    HW130260   1.461   2.244   9.147  0.4668  0.6191 -1.9803
 6266SOL    HW230261   1.543   2.141   9.215 -0.8735  0.5052 -0.0629
 6267SOL     OW30262   4.095   2.421   8.315 -0.9133  0.1750  0.2890
 6267SOL    HW130263   4.137   2.504   8.293 -0.6973 -0.0801 -0.2588
 6267SOL    HW230264   4.033   2.410   8.243 -0.6603 -2.0850  0.4120
 6268SOL     OW30265   2.637   0.437   6.355 -0.0290 -0.4294  0.3426
 6268SOL    HW130266   2.650   0.487   6.436 -0.0135 -0.1869  0.1895
 6268SOL    HW230267   2.650   0.348   6.386  2.1276 -0.4018 -0.4540
 6269SOL     OW30268   4.325   3.809  13.346 -0.1294  0.1333  0.1518
 6269SOL    HW130269   4.308   3.884  13.289 -0.2529 -1.3447 -1.7707
 6269SOL    HW230270   4.271   3.749  13.294  0.7757 -0.8134  0.3022
 6270SOL     OW30271   4.514   0.185   6.000 -0.6528  0.0057  0.0336
 6270SOL    HW130272   4.461   0.126   6.054 -1.1757 -0.0967 -0.5911
 6270SOL    HW230273   4.583   0.123   5.975 -2.2817 -0.5047 -3.1936
 6271SOL     OW30274   2.804   1.176   8.232 -0.8967 -0.4780 -0.0626
 6271SOL    HW130275   2.844   1.227   8.302 -4.5858 -0.3686  1.9855
 6271SOL    HW230276   2.777   1.244   8.171  0.5722  0.2232  0.0720
 6272SOL     OW30277   2.556   1.657  10.746 -0.1228 -0.1527 -0.3127
 6272SOL    HW130278   2.579   1.731  10.802  0.6276 -3.3103  3.5552
 6272SOL    HW230279   2.626   1.664  10.682  0.2692 -2.5134 -0.1695
 6273SOL     OW30280   2.750   3.198   2.478  0.0141  0.1254  0.0721
 6273SOL    HW130281   2.798   3.117   2.459 -1.2076 -0.3862 -0.8253
 6273SOL    HW230282   2.821   3.262   2.476 -0.2092  0.4145  1.2081
 6274SOL     OW30283   3.074   2.473  12.514 -0.1743  0.4584  0.8095
 6274SOL    HW130284   3.093   2.552  12.464 -0.4094 -1.0740 -1.6835
 6274SOL    HW230285   3.113   2.401  12.464  0.3625  1.7347 -0.6171
 6275SOL     OW30286   2.555   3.073  16.864 -0.5905  0.0573  0.3685
 6275SOL    HW130287   2.530   3.040  16.951  1.3429  0.1602  0.9658
 6275SOL    HW230288   2.506   3.154  16.852 -0.4570 -0.1940 -1.7953
 6276SOL     OW30289   3.975   2.836   2.781  0.0977  0.5728 -0.3931
 6276SOL    HW130290   3.913   2.901   2.814 -1.3325 -1.0706  0.1148
 6276SOL    HW230291   4.013   2.893   2.714 -2.2048  0.3877 -1.8618
 6277SOL     OW30292   2.745   1.274  15.832  0.1841  0.3249 -0.4613
 6277SOL    HW130293   2.658   1.300  15.801  0.6880  1.7982 -0.6294
 6277SOL    HW230294   2.811   1.333  15.798 -1.5614  2.4075 -0.2194
 6278SOL     OW30295   2.637   1.523   0.013 -1.2221  0.4746 -0.9215
 6278SOL    HW130296   2.629   1.429   0.026 -0.1603  0.5307  0.2344
 6278SOL    HW230297   2.546   1.552   0.014 -1.0070  1.0965  1.8767
 6279SOL     OW30298   3.155   0.148   4.027  0.0721 -0.2454  0.3397
 6279SOL    HW130299   3.146   0.054   4.045 -2.4809 -0.2934 -1.0961
 6279SOL    HW230300   3.220   0.144   3.957  1.1498 -0.5791  1.3641
 6280SOL     OW30301   1.572   3.369   2.309  0.1148 -0.1567 -0.2891
 6280SOL    HW130302   1.483   3.340   2.332  1.3346 -1.6259  2.5862
 6280SOL    HW230303   1.626   3.299   2.345  1.0664 -0.6041 -2.5458
 6281SOL     OW30304   2.697   2.440  14.621  0.2242  0.1438  0.2091
 6281SOL    HW130305   2.702   2.535  14.633  1.8493  0.1377 -0.3526
 6281SOL    HW230306   2.732   2.445  14.532  2.1057  1.0716  0.9949
 6282SOL     OW30307   2.973   3.805  17.282  0.5054 -1.0683 -0.3832
 6282SOL    HW130308   2.883   3.800  17.249  0.2046 -0.3102  0.3185
 6282SOL    HW230309   2.968   3.768  17.371  0.1594 -1.8960 -0.7476
 6283SOL     OW30310   4.022   1.301   5.980  0.0989  0.1144 -0.2282
 6283SOL    HW130311   3.938   1.286   5.938  0.8243  0.1744 -1.6927
 6283SOL    HW230312   3.987   1.324   6.066 -1.7796  0.0806 -1.0086
 6284SOL     OW30313   3.167   0.591   0.454 -0.3149 -0.3836 -0.2244
 6284SOL    HW130314   3.148   0.650   0.381  0.5057  1.6292  1.1922
 6284SOL    HW230315   3.139   0.637   0.533  2.0731 -0.2481  0.5501
 6285SOL     OW30316   2.566   4.671   3.732 -0.0012 -0.0174  0.1056
 6285SOL    HW130317   2.623   4.702   3.662 -0.6001  2.3970  0.6860
 6285SOL    HW230318   2.503   0.018   3.713  2.3316  1.8079 -0.8181
 6286SOL     OW30319   1.011   4.082   0.673 -0.1376 -0.4161 -0.0573
 6286SOL    HW130320   1.014   4.003   0.727  0.6106  0.3589  1.0316
 6286SOL    HW230321   0.976   4.049   0.590  0.1957  0.0760 -0.3990
 6287SOL     OW30322   3.409   2.219   7.174  0.2051 -0.1441 -0.0310
 6287SOL    HW130323   3.455   2.284   7.122  0.0272 -0.6048 -0.7705
 6287SOL    HW230324   3.404   2.257   7.262 -0.4655 -1.9044  0.7022
 6288SOL     OW30325   2.733   3.543   3.206  0.3274  0.5482 -0.0716
 6288SOL    HW130326   2.819   3.537   3.249  0.1252  1.6759  0.4953
 6288SOL    HW230327   2.678   3.531   3.283 -0.1204  2.1868 -0.1329
 6289SOL     OW30328   1.954   2.824   4.464  0.0267  0.2565  0.2847
 6289SOL    HW130329   1.996   2.823   4.378  1.5916 -2.3939  1.0657
 6289SOL    HW230330   1.933   2.734   4.487 -2.0917  0.9012  0.8580
 6290SOL     OW30331   2.684   2.007   4.210  0.4307 -0.0105  0.0070
 6290SOL    HW130332   2.666   1.976   4.122  0.1086  0.9406 -0.2682
 6290SOL    HW230333   2.775   1.982   4.226 -0.2490 -0.4064  3.2603
 6291SOL     OW30334   1.715   2.288   8.924 -0.8894  0.8752  0.4961
 6291SOL    HW130335   1.655   2.354   8.889 -0.3678  0.1919 -1.6926
 6291SOL    HW230336   1.657   2.240   8.982 -1.7438  0.4470 -0.7029
 6292SOL     OW30337   3.015   2.637  15.743 -0.5930 -0.2035 -0.3827
 6292SOL    HW130338   3.046   2.690  15.670  1.7038  0.5726  1.1427
 6292SOL    HW230339   3.035   2.548  15.712 -0.8267 -0.0422 -0.9735
 6293SOL     OW30340   0.014   1.873   5.884 -0.8164  0.3706 -0.1067
 6293SOL    HW130341   4.695   1.958   5.870 -0.7996  0.4713  0.4409
 6293SOL    HW230342   0.050   1.892   5.971 -0.9607  0.7196 -0.1258
 6294SOL     OW30343   3.637   1.103   5.310 -0.1700 -0.1652  0.6347
 6294SOL    HW130344   3.576   1.132   5.378 -1.1473 -0.3218 -0.1688
 6294SOL    HW230345   3.690   1.039   5.358  1.7056  1.3133  0.5187
 6295SOL     OW30346   2.719   3.675  13.373 -0.8742 -0.5389  0.1445
 6295SOL    HW130347   2.691   3.640  13.458  0.1720  0.3619  0.8553
 6295SOL    HW230348   2.703   3.769  13.372 -0.6032 -0.5078 -0.8628
 6296SOL     OW30349   0.823   0.491   7.582 -0.5262 -0.8778 -0.3293
 6296SOL    HW130350   0.917   0.495   7.566 -0.4905 -2.1539 -0.4154
 6296SOL    HW230351   0.793   0.482   7.492  0.9754 -3.1555 -0.6007
 6297SOL     OW30352   2.446   1.582   4.895 -0.0966 -0.0747  0.2675
 6297SOL    HW130353   2.435   1.632   4.815 -0.7395  1.6624  1.4394
 6297SOL    HW230354   2.469   1.650   4.958 -0.6535 -1.8151  2.3658
 6298SOL     OW30355   2.775   3.101   3.162  0.4221 -0.1270  0.0939
 6298SOL    HW130356   2.859   3.058   3.177  0.8633  0.1900 -1.5416
 6298SOL    HW230357   2.763   3.096   3.067  1.3026  0.1303 -0.0246
 6299SOL     OW30358   2.191   4.664   6.571  0.0822 -0.3207 -0.0837
 6299SOL    HW130359   2.122   4.600   6.586 -0.0413 -0.5867 -1.7901
 6299SOL    HW230360   2.201   4.671   6.476 -0.7839 -0.7914 -0.2016
 6300SOL     OW30361   2.679   1.754  11.021 -0.1727  0.8620 -0.6256
 6300SOL    HW130362   2.734   1.691  11.067  0.0333  1.9950  0.6540
 6300SOL    HW230363   2.744   1.811  10.981  2.1751 -0.8579  0.7903
 6301SOL     OW30364   2.754   1.709   8.433 -0.2279  0.2191 -0.3508
 6301SOL    HW130365   2.716   1.781   8.484 -0.3864 -0.4609  0.4837
 6301SOL    HW230366   2.702   1.637   8.468 -1.3032  0.4402 -1.4920
 6302SOL     OW30367   3.782   1.069   5.076 -0.1339 -0.2725 -0.0566
 6302SOL    HW130368   3.836   1.148   5.068 -2.3935  1.3328  0.7171
 6302SOL    HW230369   3.719   1.097   5.143  1.1347  3.4042 -0.3885
 6303SOL     OW30370   3.873   1.285  13.865 -0.0409  0.2432 -0.3949
 6303SOL    HW130371   3.905   1.197  13.851 -3.9863 -1.3531  0.5098
 6303SOL    HW230372   3.778   1.274  13.859 -0.0248 -0.1281  0.1060
 6304SOL     OW30373   1.836   0.643   5.100  0.1548  0.5141 -0.1679
 6304SOL    HW130374   1.753   0.620   5.058  0.2692 -0.0937 -0.0586
 6304SOL    HW230375   1.806   0.706   5.166  1.6702  0.9167  0.1383
 6305SOL     OW30376   2.336   0.245   8.392 -0.3757 -0.1433  0.2814
 6305SOL    HW130377   2.384   0.310   8.341  0.2672 -1.0795 -0.3137
 6305SOL    HW230378   2.407   0.223   8.452 -0.8039 -0.0608  0.8154
 6306SOL     OW30379   2.853   2.836   6.786  0.7099 -0.5460 -0.2302
 6306SOL    HW130380   2.888   2.880   6.863  1.8043  0.3738 -1.2476
 6306SOL    HW230381   2.928   2.781   6.762  0.2557 -0.1713 -2.5460
 6307SOL     OW30382   2.261   1.392   3.919 -0.1532  0.3684  0.0249
 6307SOL    HW130383   2.329   1.350   3.972 -0.2803 -0.3053 -0.3484
 6307SOL    HW230384   2.285   1.366   3.830 -2.3315  1.2161 -0.8127
 6308SOL     OW30385   3.964   2.076   9.488 -0.1201 -0.2728  0.2668
 6308SOL    HW130386   3.882   2.026   9.483 -0.3768  0.3289 -1.4145
 6308SOL    HW230387   4.013   2.042   9.414  0.7631  0.1715  0.6538
 6309SOL     OW30388   4.461   4.523   2.107  0.1520  0.8646  0.2344
 6309SOL    HW130389   4.414   4.596   2.068  0.2023  0.5202 -0.4638
 6309SOL    HW230390   4.548   4.537   2.067 -0.6701 -1.4006 -2.3500
 6310SOL     OW30391   2.970   2.909  11.231  0.5428  0.3363  0.3298
 6310SOL    HW130392   3.029   2.974  11.192  0.0393  0.3649 -0.4033
 6310SOL    HW230393   2.970   2.947  11.319  0.6554  0.4868  0.2646
 6311SOL     OW30394   1.107   3.297   3.592 -0.0371  0.1588 -0.0204
 6311SOL    HW130395   1.112   3.386   3.628 -0.4414  0.0581  0.2722
 6311SOL    HW230396   1.193   3.266   3.621 -0.6898  0.2565  2.0164
 6312SOL     OW30397   0.574   2.396  14.918  0.2148  0.0620  0.3470
 6312SOL    HW130398   0.615   2.456  14.857  0.7738 -1.5366 -0.8649
 6312SOL    HW230399   0.656   2.358  14.951  0.8977 -0.5243 -2.0539
 6313SOL     OW30400   4.455   0.205   9.825  0.5480 -0.2145 -0.4616
 6313SOL    HW130401   4.525   0.163   9.775  0.5035  1.7243 -2.1493
 6313SOL    HW230402   4.407   0.251   9.756 -1.1805 -1.2145  0.0651
 6314SOL     OW30403   1.287   0.593   1.255 -0.5462 -0.2154 -0.0583
 6314SOL    HW130404   1.264   0.593   1.348 -1.7413 -1.8766 -0.3589
 6314SOL    HW230405   1.381   0.589   1.267 -0.5392  0.3211  0.0735
 6315SOL     OW30406   1.922   1.792   0.775  0.3541  0.1869 -0.1188
 6315SOL    HW130407   1.929   1.872   0.828 -0.5698 -0.6358  1.2475
 6315SOL    HW230408   1.938   1.825   0.687 -0.1483 -0.9046 -0.6121
 6316SOL     OW30409   1.305   0.102   3.111 -0.2269  0.2050  0.2671
 6316SOL    HW130410   1.242   0.091   3.182 -1.6513 -0.7388 -1.1567
 6316SOL    HW230411   1.243   0.101   3.038  2.0969  0.7506 -1.7150
 6317SOL     OW30412   4.041   4.320   7.800 -0.1042 -0.3699 -0.1642
 6317SOL    HW130413   4.120   4.276   7.768 -0.1263 -0.7183  0.2599
 6317SOL    HW230414   4.043   4.283   7.888 -0.3134 -1.5620 -0.6540
 6318SOL     OW30415   1.810   0.818   5.547  0.5876  0.3297 -0.1569
 6318SOL    HW130416   1.815   0.800   5.453  2.5508 -0.0036  0.0311
 6318SOL    HW230417   1.866   0.749   5.582  0.3607  0.5493  0.6557
 6319SOL     OW30418   3.376   4.428  15.102  0.1674 -0.1457  0.4642
 6319SOL    HW130419   3.438   4.364  15.137 -1.8929 -1.8968  0.8514
 6319SOL    HW230420   3.433   4.504  15.086 -1.3647  0.5898 -1.4690
 6320SOL     OW30421   1.667   1.249  17.231  0.5864 -0.0626  0.1262
 6320SOL    HW130422   1.685   1.277  17.321  2.0904 -0.0344 -0.1781
 6320SOL    HW230423   1.752   1.266  17.190  0.1077  0.3106 -0.7107
 6321SOL     OW30424   2.784   4.447  10.283  0.0008 -0.0713 -0.0732
 6321SOL    HW130425   2.808   4.371  10.336 -1.3284  1.3564  2.5891
 6321SOL    HW230426   2.855   4.463  10.222  0.5401  1.0064  0.8354
 6322SOL     OW30427   0.871   3.771   4.246 -0.6236  0.2508 -0.4141
 6322SOL    HW130428   0.910   3.803   4.164  0.9799 -0.7165 -0.0340
 6322SOL    HW230429   0.833   3.849   4.287 -0.6583 -0.3923  0.7579
 6323SOL     OW30430   0.131   3.212   3.760 -0.0620 -0.1613  0.8613
 6323SOL    HW130431   0.169   3.153   3.695 -0.7473 -0.1612  0.4606
 6323SOL    HW230432   0.199   3.253   3.814 -1.2309  0.5097  1.8211
 6324SOL     OW30433   3.640   0.355   2.142  0.1720  0.4330 -0.0730
 6324SOL    HW130434   3.651   0.270   2.101 -0.6938  1.0266 -1.5109
 6324SOL    HW230435   3.623   0.326   2.232  1.3399  0.0807  0.0277
 6325SOL     OW30436   0.768   0.058   3.893  0.9302  0.7555  0.6839
 6325SOL    HW130437   0.723   0.031   3.973 -0.5660 -0.0394 -0.4346
 6325SOL    HW230438   0.695   0.077   3.834  0.2412 -0.2883  1.1990
 6326SOL     OW30439   3.863   3.324   4.722 -0.5358  0.3956  0.2750
 6326SOL    HW130440   3.957   3.337   4.710 -0.5737 -0.0514 -0.4935
 6326SOL    HW230441   3.864   3.324   4.818  0.8594 -1.2652  0.2670
 6327SOL     OW30442   3.615   4.592  12.444  0.1974  0.4055  0.1644
 6327SOL    HW130443   3.629   4.502  12.473 -0.7805  0.1943 -0.0176
 6327SOL    HW230444   3.701   4.622  12.416  0.4638  0.3576  0.9313
 6328SOL     OW30445   1.566   1.626   3.584 -0.4893  0.3118  0.1213
 6328SOL    HW130446   1.591   1.575   3.507 -1.2117 -2.4028  1.6956
 6328SOL    HW230447   1.531   1.555   3.638  0.4129 -2.1025 -2.4706
 6329SOL     OW30448   3.313   1.456   2.357  1.0700 -0.0400 -0.6707
 6329SOL    HW130449   3.283   1.485   2.443  1.0960  0.6235 -0.8852
 6329SOL    HW230450   3.233   1.406   2.341  0.3614  0.9912 -0.3377
 6330SOL     OW30451   2.780   2.548   2.885  0.4928  0.1717 -0.1334
 6330SOL    HW130452   2.730   2.472   2.852  1.2482 -1.0185  1.4386
 6330SOL    HW230453   2.827   2.509   2.959  0.6849  0.2298 -0.2249
 6331SOL     OW30454   4.588   2.686  11.956  0.0124 -0.0616  0.3596
 6331SOL    HW130455   4.636   2.684  11.873  2.5554  1.9903  1.7736
 6331SOL    HW230456   4.657   2.674  12.022 -1.2857 -2.0960  1.3334
 6332SOL     OW30457   2.737   3.424   6.134  0.0075 -0.6620  0.4168
 6332SOL    HW130458   2.673   3.451   6.068 -1.6601 -1.9197  1.5275
 6332SOL    HW230459   2.744   3.511   6.174 -1.1477 -0.3863  0.0032
 6333SOL     OW30460   1.746   1.287   7.957 -0.5130 -0.0842  0.3851
 6333SOL    HW130461   1.673   1.344   7.982  0.3963  0.5746  1.5551
 6333SOL    HW230462   1.766   1.326   7.872 -1.3876  0.1802  0.2977
 6334SOL     OW30463   3.654   0.234   5.369 -0.1132 -0.3335  0.3051
 6334SOL    HW130464   3.684   0.272   5.451  0.9264  1.1791 -0.7664
 6334SOL    HW230465   3.652   0.305   5.305  0.6954 -0.1116  0.5231
 6335SOL     OW30466   2.793   3.827  12.820  0.8890 -0.3599  0.5570
 6335SOL    HW130467   2.771   3.821  12.913 -0.8041  0.5146  0.2016
 6335SOL    HW230468   2.751   3.906  12.789 -1.3922 -1.0005  1.9809
 6336SOL     OW30469   1.244   0.705   4.153  0.2376 -0.0309 -0.2006
 6336SOL    HW130470   1.244   0.711   4.248  0.9794 -1.2989 -0.1274
 6336SOL    HW230471   1.327   0.739   4.121  0.2949 -0.7050 -0.7745
 6337SOL     OW30472   2.105   2.032  13.673 -0.4457  0.0175 -0.3630
 6337SOL    HW130473   2.036   1.989  13.724  0.9797 -1.6774  0.1338
 6337SOL    HW230474   2.056   2.100  13.627 -1.5694 -0.5473  0.0139
 6338SOL     OW30475   1.773   1.462   6.450  0.1611  0.0044 -0.2791
 6338SOL    HW130476   1.711   1.531   6.427  0.3803  0.5700  0.8505
 6338SOL    HW230477   1.709   1.393   6.469  1.5260 -0.8604  1.1353
 6339SOL     OW30478   3.477   4.251   3.607  0.2900 -0.7318  0.4777
 6339SOL    HW130479   3.530   4.234   3.529  0.8058 -0.8296  0.8510
 6339SOL    HW230480   3.406   4.299   3.565 -0.1582 -1.5767  0.2734
 6340SOL     OW30481   2.544   4.060  10.834  0.5286 -0.5810  0.1788
 6340SOL    HW130482   2.576   4.077  10.922  0.8591  1.1079 -0.2745
 6340SOL    HW230483   2.485   4.135  10.828 -0.0563 -0.8697  2.2335
 6341SOL     OW30484   2.993   1.714  12.293  0.4714 -0.1165 -0.0333
 6341SOL    HW130485   2.913   1.662  12.302  1.0870 -1.0278  0.2438
 6341SOL    HW230486   3.047   1.690  12.369 -1.7307 -2.1445  0.9052
 6342SOL     OW30487   4.698   2.432   2.807  0.0100 -0.0495 -0.6149
 6342SOL    HW130488   4.604   2.448   2.800 -0.4002 -1.6141  1.4607
 6342SOL    HW230489   0.020   2.512   2.777  1.7043 -0.3724  0.9992
 6343SOL     OW30490   0.103   2.292   7.502 -0.0601 -0.3322 -0.4921
 6343SOL    HW130491   0.074   2.381   7.525 -0.3411 -0.7258  0.6739
 6343SOL    HW230492   0.097   2.292   7.406 -0.3724 -1.9166 -0.4647
 6344SOL     OW30493   2.766   3.951   7.614  0.2200  0.3371  0.1436
 6344SOL    HW130494   2.827   4.011   7.571  1.1312 -1.3862 -0.9682
 6344SOL    HW230495   2.738   4.006   7.687  2.2334  1.7539 -0.1546
 6345SOL     OW30496   0.702   1.174   4.043  0.0342  0.4954 -0.3186
 6345SOL    HW130497   0.784   1.172   3.993 -0.2583  0.3806 -0.7915
 6345SOL    HW230498   0.657   1.113   3.984 -0.3696  0.6808 -0.2001
 6346SOL     OW30499   1.890   0.434   7.951 -0.7104  0.0503  0.1164
 6346SOL    HW130500   1.852   0.498   7.891 -3.8060  1.1150  3.2012
 6346SOL    HW230501   1.847   0.452   8.035 -1.2347 -0.5694 -0.0219
 6347SOL     OW30502   3.529   0.207   2.369  0.0347  0.4586 -0.6037
 6347SOL    HW130503   3.588   0.161   2.429 -0.4967  0.9059  0.2665
 6347SOL    HW230504   3.445   0.194   2.414  0.7921 -0.4963  0.4936
 6348SOL     OW30505   4.417   3.183   0.790  0.0501 -0.0979 -0.0954
 6348SOL    HW130506   4.504   3.189   0.749 -0.4314  0.4965 -1.0413
 6348SOL    HW230507   4.442   3.177   0.882 -2.6363 -0.4516  0.6123
 6349SOL     OW30508   1.734   0.920   7.089 -0.0263 -0.2577  0.0761
 6349SOL    HW130509   1.828   0.903   7.097  0.4140  2.3176  0.3642
 6349SOL    HW230510   1.737   1.012   7.113  3.2371 -0.4818  0.5377
 6350SOL     OW30511   0.257   3.206   7.222  0.1765 -0.4247  0.2209
 6350SOL    HW130512   0.194   3.268   7.258  0.0879 -0.0013 -0.6690
 6350SOL    HW230513   0.327   3.208   7.287  1.6001  0.7208 -1.3495
 6351SOL     OW30514   0.156   2.234  17.239 -0.9616  0.0228  0.4484
 6351SOL    HW130515   0.064   2.227  17.214 -0.8892 -1.9999  0.7457
 6351SOL    HW230516   0.144   2.242  17.334 -3.3321 -0.9690  0.2410
 6352SOL     OW30517   3.405   4.720  15.540 -0.1613 -0.5617 -0.0360
 6352SOL    HW130518   3.423   4.626  15.539 -0.2124 -0.6181  2.4121
 6352SOL    HW230519   3.438   0.020  15.627  1.8508 -0.0142 -0.9431
 6353SOL     OW30520   0.107   1.468   5.866 -0.2069 -0.6230  0.0426
 6353SOL    HW130521   0.156   1.406   5.921 -2.1547  1.6779  4.3667
 6353SOL    HW230522   0.103   1.415   5.786 -0.5759 -2.3574  1.1959
 6354SOL     OW30523   2.759   0.003   7.681 -0.5420  0.3008 -0.2609
 6354SOL    HW130524   2.685   4.669   7.663 -1.4908  1.4885 -0.1005
 6354SOL    HW230525   2.728   0.056   7.755  2.6022  2.1857 -0.3056
 6355SOL     OW30526   2.905   0.108  14.490  0.2129  0.3255 -0.2152
 6355SOL    HW130527   2.839   0.113  14.559 -0.4129 -0.1004 -0.7829
 6355SOL    HW230528   2.993   0.123  14.523 -0.7976  2.5138  1.4631
 6356SOL     OW30529   1.727   1.889  11.626  0.2174 -0.0189 -0.0596
 6356SOL    HW130530   1.756   1.854  11.710  0.8498  2.9697  0.9670
 6356SOL    HW230531   1.656   1.948  11.653 -0.9724 -1.2389 -0.4804
 6357SOL     OW30532   4.620   0.436   3.666  0.0027  0.4365  0.2396
 6357SOL    HW130533   4.675   0.472   3.597 -0.9535  2.6873  0.6509
 6357SOL    HW230534   4.673   0.359   3.686 -1.3364 -0.8097 -0.9548
 6358SOL     OW30535   4.529   0.508   8.123 -0.7056  0.1235 -0.4749
 6358SOL    HW130536   4.544   0.591   8.078 -0.2769  0.4391  0.2306
 6358SOL    HW230537   4.444   0.525   8.164  0.0905  0.0172  1.2366
 6359SOL     OW30538   1.536   4.015   9.234 -0.2869  0.2259 -0.1394
 6359SOL    HW130539   1.516   4.067   9.312  0.7306  0.2994  0.0789
 6359SOL    HW230540   1.532   3.926   9.270  0.8873  0.2664  0.1068
 6360SOL     OW30541   3.512   2.062   5.288  0.1606 -0.2779  0.2419
 6360SOL    HW130542   3.559   1.979   5.284 -0.3954 -0.5768 -0.0026
 6360SOL    HW230543   3.583   2.122   5.311 -0.8384  0.6065  1.0293
 6361SOL     OW30544   4.113   3.950   7.578  0.2197 -0.2674  0.3903
 6361SOL    HW130545   4.206   3.926   7.580  0.0524 -1.1163 -1.8271
 6361SOL    HW230546   4.090   3.932   7.669  0.0003  1.1082  0.6026
 6362SOL     OW30547   1.016   0.895   6.732 -0.6024  0.0255 -0.2252
 6362SOL    HW130548   1.020   0.861   6.642  0.6935 -0.2967 -0.0468
 6362SOL    HW230549   0.982   0.983   6.722  0.5828  0.7587  2.1253
 6363SOL     OW30550   3.802   3.865   8.038  0.1922 -0.5788 -1.6526
 6363SOL    HW130551   3.862   3.938   8.053  2.1860 -2.6968  0.6050
 6363SOL    HW230552   3.793   3.834   8.128  1.9607  0.9975 -0.9427
 6364SOL     OW30553   2.466   2.160   0.210  0.1056 -0.8150  0.3846
 6364SOL    HW130554   2.521   2.104   0.156 -0.3718  1.0248 -2.0020
 6364SOL    HW230555   2.381   2.117   0.206  0.1459 -0.8174 -0.4313
 6365SOL     OW30556   4.348   2.396   6.269 -0.0949  0.0348 -0.5500
 6365SOL    HW130557   4.369   2.459   6.338 -0.7892 -0.0723 -0.2418
 6365SOL    HW230558   4.252   2.394   6.269 -0.0851 -0.4261 -0.3924
 6366SOL     OW30559   0.728   1.506   8.155 -0.0643 -0.0918 -0.3487
 6366SOL    HW130560   0.779   1.551   8.223  0.3773 -0.0203 -0.7305
 6366SOL    HW230561   0.704   1.570   8.088 -0.2029 -0.3866 -0.5784
 6367SOL     OW30562   0.413   3.843   2.873  0.4782 -0.2619 -0.3425
 6367SOL    HW130563   0.494   3.844   2.822  0.4188 -1.0390 -0.4463
 6367SOL    HW230564   0.360   3.798   2.808 -0.0605  1.0140 -0.7882
 6368SOL     OW30565   2.808   0.492   5.921 -0.1250  0.4023 -0.5301
 6368SOL    HW130566   2.746   0.420   5.920  1.4615 -0.9580 -0.3453
 6368SOL    HW230567   2.772   0.540   5.995  1.5587 -1.8760  1.7300
 6369SOL     OW30568   2.636   4.689   3.458 -0.5433  0.1894 -0.6322
 6369SOL    HW130569   2.627   4.604   3.502 -0.6777  0.4350 -0.1806
 6369SOL    HW230570   2.571   4.676   3.389 -0.7167  0.0882 -0.4528
 6370SOL     OW30571   1.886   4.702   8.459  0.7392 -0.6500  0.0245
 6370SOL    HW130572   1.975   4.713   8.492  0.8915 -2.5755  0.2819
 6370SOL    HW230573   1.840   4.695   8.542  0.5156 -0.9713 -0.1257
 6371SOL     OW30574   3.756   4.663   3.496  0.0867  0.4199  0.2403
 6371SOL    HW130575   3.670   4.637   3.531 -0.2346  0.4958 -0.4878
 6371SOL    HW230576   3.732   4.655   3.404 -0.9666 -2.4440  0.7728
 6372SOL     OW30577   1.837   2.288   6.104  0.0617 -0.0191  0.2837
 6372SOL    HW130578   1.825   2.208   6.052 -1.0180 -1.0488  2.1120
 6372SOL    HW230579   1.753   2.290   6.149  0.0428  0.9234  0.2052
 6373SOL     OW30580   2.940   4.091   6.839  0.1512  0.1463  0.5740
 6373SOL    HW130581   2.874   4.032   6.801  0.5411  1.4988 -2.1553
 6373SOL    HW230582   2.944   4.052   6.927 -0.1186 -2.5590 -0.6217
 6374SOL     OW30583   2.147   2.052   9.246  0.4548  0.1990 -0.5957
 6374SOL    HW130584   2.156   2.135   9.200 -0.4130  1.4187  1.4299
 6374SOL    HW230585   2.055   2.027   9.236  0.3311  0.0472  0.8811
 6375SOL     OW30586   1.163   2.865   3.999  0.1992 -0.0441 -0.1297
 6375SOL    HW130587   1.178   2.802   3.929  0.4036 -0.3961  0.2314
 6375SOL    HW230588   1.247   2.862   4.045  1.0610 -0.4306 -1.7401
 6376SOL     OW30589   4.629   2.880   7.830  0.6960  0.0896 -0.4200
 6376SOL    HW130590   4.607   2.892   7.738 -0.5726  1.3251  0.0440
 6376SOL    HW230591   4.538   2.883   7.858  0.7074  1.5283 -0.5662
 6377SOL     OW30592   1.783   1.664   0.375  0.1453 -0.5493  0.0567
 6377SOL    HW130593   1.830   1.591   0.416  0.9851 -1.7020 -2.9421
 6377SOL    HW230594   1.717   1.690   0.439  1.5500  1.6019  0.6085
 6378SOL     OW30595   4.613   4.613   1.445 -0.8086 -0.0538  0.2385
 6378SOL    HW130596   4.638   4.601   1.353 -0.4075  2.2480  0.0502
 6378SOL    HW230597   4.519   4.631   1.443 -0.5023  1.5270 -0.5983
 6379SOL     OW30598   4.416   1.850   7.376 -0.3207  0.4881  0.3637
 6379SOL    HW130599   4.443   1.777   7.430 -4.2377 -0.4296  1.1267
 6379SOL    HW230600   4.491   1.908   7.391 -0.6470  0.9106  0.3705
 6380SOL     OW30601   4.618   1.374   3.793 -0.0369 -0.5132 -0.1017
 6380SOL    HW130602   4.669   1.409   3.720 -0.5464  0.3198 -0.0545
 6380SOL    HW230603   4.669   1.385   3.874 -2.2545  3.8831  0.7117
 6381SOL     OW30604   4.553   4.140   3.072 -0.5718 -1.0303  0.3746
 6381SOL    HW130605   4.646   4.132   3.048 -0.5661  1.0603 -0.2640
 6381SOL    HW230606   4.519   4.196   3.003  1.4804  0.1707  0.3239
 6382SOL     OW30607   0.511   3.950   3.795 -0.1755 -0.1460 -0.1098
 6382SOL    HW130608   0.420   3.965   3.768 -0.0487 -0.0956 -0.5170
 6382SOL    HW230609   0.547   3.918   3.712  0.3434  1.3186 -0.4480
 6383SOL     OW30610   3.087   0.112   6.460 -0.3245  0.0223  0.0592
 6383SOL    HW130611   3.140   0.035   6.439 -1.4200 -0.3098 -1.4659
 6383SOL    HW230612   3.004   0.072   6.487  0.4192 -1.4345  0.1495
 6384SOL     OW30613   2.362   3.013   4.642 -0.3305 -0.3043  0.6137
 6384SOL    HW130614   2.407   3.016   4.557  0.9663  1.1715  1.3592
 6384SOL    HW230615   2.358   2.921   4.667 -0.0076 -0.8535 -1.3782
 6385SOL     OW30616   2.628   1.006  16.588 -0.0820 -0.2242 -0.1959
 6385SOL    HW130617   2.597   0.968  16.670  1.2089  1.8927  1.2798
 6385SOL    HW230618   2.658   0.927  16.541  1.1153 -0.6088  1.2215
 6386SOL     OW30619   0.436   2.821   5.318 -0.0102  0.1134 -0.1683
 6386SOL    HW130620   0.388   2.877   5.380 -0.8073  0.7830 -1.3944
 6386SOL    HW230621   0.397   2.735   5.333  0.9810 -0.2827  0.1465
 6387SOL     OW30622   2.430   0.926   3.880 -0.6548 -0.4684  0.1743
 6387SOL    HW130623   2.524   0.933   3.866 -0.8892 -2.1554 -2.2742
 6387SOL    HW230624   2.391   0.994   3.825  0.1466  0.8652  1.2468
 6388SOL     OW30625   4.406   3.736   4.095 -0.4814 -0.4576  0.1225
 6388SOL    HW130626   4.439   3.704   4.179  0.7946 -0.9612 -0.5733
 6388SOL    HW230627   4.472   3.697   4.038  0.1792 -0.9170  1.1988
 6389SOL     OW30628   3.828   0.644   0.577  0.2647 -0.3838  0.2920
 6389SOL    HW130629   3.742   0.647   0.536  0.2497 -0.1718  0.3375
 6389SOL    HW230630   3.835   0.557   0.616  0.0623  0.0125  1.2199
 6390SOL     OW30631   2.337   3.070  12.484 -0.5360 -0.7026 -0.3155
 6390SOL    HW130632   2.414   3.099  12.532 -0.3769 -3.0284  0.8182
 6390SOL    HW230633   2.294   3.009  12.544 -0.7321  0.3238  0.5808
 6391SOL     OW30634   0.735   0.093   0.015  0.3533  0.1931  0.1255
 6391SOL    HW130635   0.783   0.174   0.031  1.0669 -0.1070 -0.4693
 6391SOL    HW230636   0.730   0.110  17.614 -2.6486 -0.6171  0.1413
 6392SOL     OW30637   0.464   4.496  15.357  0.4833  0.3301  0.7905
 6392SOL    HW130638   0.390   4.453  15.314  0.3025 -0.6044  2.0095
 6392SOL    HW230639   0.527   4.484  15.286 -1.7202 -1.2532 -0.9316
 6393SOL     OW30640   2.408   2.599   1.711 -0.1908  0.0977 -0.1160
 6393SOL    HW130641   2.456   2.523   1.679  0.3141  0.5738 -0.4704
 6393SOL    HW230642   2.320   2.565   1.692  0.3946 -0.5148 -1.7126
 6394SOL     OW30643   2.989   1.478   7.654  0.3253 -0.2002  0.1858
 6394SOL    HW130644   2.910   1.497   7.704  0.6744  0.6680  0.4016
 6394SOL    HW230645   2.952   1.401   7.610  0.7719 -0.3968  0.1536
 6395SOL     OW30646   0.105   2.480   7.854  0.5768  0.4323 -0.3301
 6395SOL    HW130647   0.153   2.563   7.847 -0.9134  1.3412  0.1825
 6395SOL    HW230648   0.053   2.500   7.932  1.9416  1.1627  0.4012
 6396SOL     OW30649   1.355   2.605   4.956 -0.0258  0.0038 -0.3808
 6396SOL    HW130650   1.327   2.618   4.866 -0.1513  0.7142 -0.2393
 6396SOL    HW230651   1.385   2.514   4.958  0.0302  0.0128 -0.8056
 6397SOL     OW30652   3.357   1.145   8.829 -0.5408  0.4845  0.3462
 6397SOL    HW130653   3.447   1.175   8.815 -0.7875  0.9853 -0.1851
 6397SOL    HW230654   3.375   1.114   8.917  1.2374  0.7873  0.1099
 6398SOL     OW30655   3.320   4.344   6.443 -0.2781 -0.4000 -0.1698
 6398SOL    HW130656   3.380   4.285   6.489 -0.3880  0.5484  1.1766
 6398SOL    HW230657   3.269   4.382   6.514  0.6582  1.0131 -0.2613
 6399SOL     OW30658   1.169   2.779   2.830  0.2749  0.2290 -0.2770
 6399SOL    HW130659   1.222   2.806   2.755 -2.3468  3.2047 -1.0798
 6399SOL    HW230660   1.081   2.772   2.795  0.2276 -2.3565  0.3765
 6400SOL     OW30661   1.397   4.032  16.919  0.3020  0.5752  0.2680
 6400SOL    HW130662   1.369   3.979  16.993  1.0910 -0.1098  0.0720
 6400SOL    HW230663   1.309   4.049  16.885 -0.8880 -4.0740  1.0827
 6401SOL     OW30664   1.531   0.028   5.227 -0.2237 -0.5313 -0.3647
 6401SOL    HW130665   1.562   4.709   5.307  0.6927  2.0674  0.6354
 6401SOL    HW230666   1.436   0.017   5.236 -0.2267  0.3984  0.6795
 6402SOL     OW30667   3.651   2.340   2.346  0.0070 -0.4948 -0.1789
 6402SOL    HW130668   3.666   2.246   2.345  1.5513 -0.2623  1.4324
 6402SOL    HW230669   3.701   2.374   2.271 -1.4032  1.9427 -0.0221
 6403SOL     OW30670   3.884   2.902   7.644  0.6548 -0.3781 -0.3766
 6403SOL    HW130671   3.945   2.835   7.614  1.0854 -0.5947  0.9468
 6403SOL    HW230672   3.926   2.906   7.730  0.8780  2.4121 -0.6391
 6404SOL     OW30673   4.284   0.992   7.284  0.1875 -0.0112  0.2657
 6404SOL    HW130674   4.261   0.924   7.347 -0.1672  0.0510  0.2023
 6404SOL    HW230675   4.207   0.997   7.228  0.9403  1.0216 -0.6853
 6405SOL     OW30676   3.576   1.210   7.236 -0.4166 -0.0835 -0.1216
 6405SOL    HW130677   3.616   1.288   7.274 -0.0572  0.9950 -2.6964
 6405SOL    HW230678   3.528   1.250   7.164  2.8112  1.4448 -1.4080
 6406SOL     OW30679   2.550   2.143   2.578  0.5520  0.4698  0.2449
 6406SOL    HW130680   2.478   2.190   2.534 -0.3554  0.8347  2.1400
 6406SOL    HW230681   2.609   2.141   2.503  0.7008  1.2193  0.3421
 6407SOL     OW30682   3.728   0.338   6.548 -0.1535  0.2086 -0.5248
 6407SOL    HW130683   3.634   0.347   6.568  0.3645  2.1067  1.0996
 6407SOL    HW230684   3.750   0.262   6.602  0.2778  1.3801  0.9669
 6408SOL     OW30685   1.338   2.614   4.684 -0.0154 -0.3720 -0.2882
 6408SOL    HW130686   1.370   2.524   4.679  1.3022  0.1734 -1.5487
 6408SOL    HW230687   1.414   2.663   4.652 -0.1229 -0.5269 -0.7893
 6409SOL     OW30688   1.576   1.076   1.857  0.5329  0.2110  0.5336
 6409SOL    HW130689   1.609   1.142   1.918  1.3201 -0.0270  0.3628
 6409SOL    HW230690   1.486   1.105   1.839  0.5180 -0.7213 -0.9138
 6410SOL     OW30691   1.524   0.812  14.949 -0.4422 -0.3599 -0.0500
 6410SOL    HW130692   1.495   0.723  14.931 -0.0895 -0.7395  1.2747
 6410SOL    HW230693   1.472   0.865  14.888 -0.5897 -3.0252 -2.2074
 6411SOL     OW30694   2.477   1.516   2.793  0.0778  0.4196 -0.1897
 6411SOL    HW130695   2.415   1.567   2.844  0.9175 -1.1060  2.3599
 6411SOL    HW230696   2.483   1.564   2.710  1.5599 -1.0322 -0.9179
 6412SOL     OW30697   1.297   0.587   0.581 -0.3727 -0.3166 -0.0350
 6412SOL    HW130698   1.264   0.608   0.669 -0.3509  0.2606 -0.1650
 6412SOL    HW230699   1.390   0.572   0.597  0.0362 -2.4480 -4.6840
 6413SOL     OW30700   1.174   4.118   7.531  0.3194  0.0041 -0.8801
 6413SOL    HW130701   1.197   4.121   7.623  1.0299 -0.9716 -1.0201
 6413SOL    HW230702   1.257   4.128   7.484  0.5456 -1.5646 -0.8233
 6414SOL     OW30703   0.133   3.347   8.424  0.0785 -0.1360 -0.0363
 6414SOL    HW130704   0.090   3.345   8.510 -0.4672 -1.3587 -0.3317
 6414SOL    HW230705   0.226   3.326   8.434 -0.3727 -0.9322  2.5936
 6415SOL     OW30706   0.742   3.846  12.993  0.0038 -0.1229  0.6820
 6415SOL    HW130707   0.768   3.818  12.905 -1.1217 -0.7089  0.5254
 6415SOL    HW230708   0.737   3.941  12.980 -1.8734 -0.3641 -0.4611
 6416SOL     OW30709   0.102   1.412   7.503 -0.1993  0.0730  0.2612
 6416SOL    HW130710   0.094   1.480   7.569  1.3995 -0.7861  1.3407
 6416SOL    HW230711   0.170   1.352   7.534 -0.5561 -1.2371 -1.5240
 6417SOL     OW30712   1.334   3.413  14.227  0.3577 -0.1285  0.0814
 6417SOL    HW130713   1.372   3.501  14.220  1.2355 -0.7642 -3.0319
 6417SOL    HW230714   1.262   3.416  14.165  0.7477 -1.5928 -0.4471
 6418SOL     OW30715   3.925   3.932  14.259  0.2674 -0.5854  0.5979
 6418SOL    HW130716   3.963   3.864  14.314 -1.6410 -1.7810  0.4395
 6418SOL    HW230717   4.000   3.959  14.207 -0.4175 -2.1796 -1.2295
 6419SOL     OW30718   1.322   0.558   3.141 -0.2024 -0.9192  0.2395
 6419SOL    HW130719   1.410   0.578   3.108  0.6986 -1.9546  2.0489
 6419SOL    HW230720   1.317   0.591   3.231 -1.1108  2.0726 -0.8821
 6420SOL     OW30721   1.724   3.579   2.238  0.2333  0.0144 -0.2135
 6420SOL    HW130722   1.693   3.493   2.269  1.1882 -1.4192 -3.2621
 6420SOL    HW230723   1.649   3.587   2.179  0.1175 -1.9666 -0.3458
 6421SOL     OW30724   4.092   0.062   1.736  0.3657 -0.3152 -0.0553
 6421SOL    HW130725   4.167   0.005   1.720  1.3923  0.4881  1.9153
 6421SOL    HW230726   4.143   0.140   1.758  1.9974 -1.5530  0.6010
 6422SOL     OW30727   1.511   1.829   7.638 -0.5658  0.4094  0.2007
 6422SOL    HW130728   1.529   1.871   7.554 -1.1446 -0.1460 -0.1955
 6422SOL    HW230729   1.517   1.905   7.696 -0.0519  0.9772 -0.5867
 6423SOL     OW30730   3.410   2.317  12.184  0.6690 -0.6826  0.3798
 6423SOL    HW130731   3.339   2.323  12.120  0.4143  1.5562  0.8756
 6423SOL    HW230732   3.487   2.285  12.138 -0.3370  0.3863 -2.0396
 6424SOL     OW30733   1.149   1.230   9.082 -0.1490 -0.5494 -0.1439
 6424SOL    HW130734   1.059   1.261   9.072 -0.3239 -0.7047  0.9194
 6424SOL    HW230735   1.148   1.192   9.170 -1.8273  1.7140  0.8186
 6425SOL     OW30736   1.061   1.233   4.612  0.3074  0.2125 -0.3706
 6425SOL    HW130737   1.003   1.190   4.674  1.5951  0.0296  0.7094
 6425SOL    HW230738   1.037   1.188   4.531  1.1061  0.3831 -0.7017
 6426SOL     OW30739   2.057   1.538   3.289  0.4740  0.0655  0.1902
 6426SOL    HW130740   2.082   1.468   3.229 -0.7025  0.9926 -1.3703
 6426SOL    HW230741   2.127   1.594   3.256 -0.9332  1.1043 -1.0060
 6427SOL     OW30742   1.285   3.408   6.727  0.4971  0.0878 -0.3054
 6427SOL    HW130743   1.274   3.319   6.694 -0.0054  0.8864 -2.2696
 6427SOL    HW230744   1.197   3.438   6.705 -0.0791 -0.9652  0.5724
 6428SOL     OW30745   2.027   2.043   5.939 -0.0688  0.9692 -0.8486
 6428SOL    HW130746   2.067   2.130   5.947  0.9613  0.2557  1.6453
 6428SOL    HW230747   1.936   2.056   5.911  0.5689  2.2591 -2.3299
 6429SOL     OW30748   3.460   1.443  13.652  0.0304 -0.4618  0.4489
 6429SOL    HW130749   3.369   1.437  13.683  0.0659 -1.0377  0.4428
 6429SOL    HW230750   3.440   1.399  13.569  1.5164  1.0873 -0.7262
 6430SOL     OW30751   2.219   1.426   4.897  0.2984  0.1956  0.4211
 6430SOL    HW130752   2.300   1.470   4.924  0.3504 -1.0331  2.2791
 6430SOL    HW230753   2.216   1.425   4.801 -0.9316 -1.0697  0.4717
 6431SOL     OW30754   2.995   2.880  15.569 -0.0330 -0.3670  0.2560
 6431SOL    HW130755   3.034   2.903  15.484 -0.9742 -1.1589 -0.3915
 6431SOL    HW230756   2.945   2.803  15.543  1.1500 -0.9269 -0.3700
 6432SOL     OW30757   0.626   1.357   7.903 -0.3256 -0.1122 -0.0243
 6432SOL    HW130758   0.569   1.360   7.826 -1.5675 -0.7504  0.8606
 6432SOL    HW230759   0.565   1.374   7.975 -2.3762  0.6309 -1.9507
 6433SOL     OW30760   1.177   0.301   8.633 -0.0527  0.8049  0.2684
 6433SOL    HW130761   1.231   0.372   8.601  2.0187 -0.1171  1.7488
 6433SOL    HW230762   1.100   0.324   8.580 -1.0798 -0.3627  1.2519
 6434SOL     OW30763   2.289   4.394   9.719  0.3746  0.5534  0.2567
 6434SOL    HW130764   2.319   4.482   9.695  1.4553 -0.1322 -0.9298
 6434SOL    HW230765   2.210   4.410   9.770  0.2338 -1.3641  0.6224
 6435SOL     OW30766   4.636   1.325  10.345 -0.6960  0.3813  0.4864
 6435SOL    HW130767   4.627   1.419  10.329  0.5172  0.0661 -1.9682
 6435SOL    HW230768   4.704   1.324  10.413 -0.0664 -0.1393 -0.1600
 6436SOL     OW30769   2.075   2.279   1.572  0.5267 -0.4841  0.1406
 6436SOL    HW130770   2.026   2.202   1.600 -2.3502  1.4160  0.3794
 6436SOL    HW230771   2.061   2.282   1.477 -1.5353  2.2055  0.5363
 6437SOL     OW30772   2.034   4.488   1.656 -0.0005  0.6542  0.5517
 6437SOL    HW130773   1.984   4.531   1.726 -2.4920 -0.2001 -0.7071
 6437SOL    HW230774   2.062   4.406   1.698  0.0089 -0.4550 -1.6286
 6438SOL     OW30775   3.072   0.130   8.104 -0.0270 -0.2480 -0.3498
 6438SOL    HW130776   3.152   0.180   8.123  0.8259 -1.3364 -1.1016
 6438SOL    HW230777   3.088   0.110   8.012  1.5604 -2.0769  0.3291
 6439SOL     OW30778   4.233   3.377   2.099 -0.1399  0.1407  0.5930
 6439SOL    HW130779   4.263   3.286   2.100  0.7189  0.4205  0.0728
 6439SOL    HW230780   4.193   3.386   2.013 -1.8290  0.1694  1.3775
 6440SOL     OW30781   1.991   2.006   6.303 -0.2608 -0.2358 -0.1296
 6440SOL    HW130782   1.982   1.911   6.300  1.5430 -0.4603  1.3973
 6440SOL    HW230783   2.083   2.018   6.281 -0.6784  2.2938 -0.5838
 6441SOL     OW30784   3.258   4.637   8.426 -0.1160  0.1244 -0.2524
 6441SOL    HW130785   3.264   0.007   8.450  0.4925 -0.0406  0.2610
 6441SOL    HW230786   3.201   4.649   8.351  1.2403  0.2849 -1.2494
 6442SOL     OW30787   3.786   2.857   6.770  0.6497 -0.4073 -0.1149
 6442SOL    HW130788   3.831   2.783   6.813  0.3877  0.6770  2.0056
 6442SOL    HW230789   3.755   2.814   6.690 -1.0194 -1.2396  0.9958
 6443SOL     OW30790   2.628   4.343   2.515 -0.2876  0.5684 -0.4902
 6443SOL    HW130791   2.669   4.428   2.501 -1.7398  1.4076  0.3395
 6443SOL    HW230792   2.568   4.344   2.440 -1.5307  0.4735  0.5006
 6444SOL     OW30793   0.912   2.519   2.158 -0.7939 -0.1425 -0.3855
 6444SOL    HW130794   0.820   2.505   2.182 -0.9059 -0.5954 -1.0778
 6444SOL    HW230795   0.912   2.470   2.076  0.1021 -0.4206 -0.2232
 6445SOL     OW30796   3.405   0.600   8.760  0.6253 -0.4226  0.1059
 6445SOL    HW130797   3.320   0.600   8.804 -0.6331 -3.1447 -2.2802
 6445SOL    HW230798   3.466   0.589   8.833  2.5730  1.1948 -1.2989
 6446SOL     OW30799   1.201   4.171   8.715  0.1087 -0.2099 -0.5868
 6446SOL    HW130800   1.272   4.155   8.777 -1.5058  0.2491  1.4162
 6446SOL    HW230801   1.202   4.095   8.658  0.8698 -0.9891  0.4702
 6447SOL     OW30802   1.790   3.205  14.958  0.4344  0.6471 -0.1917
 6447SOL    HW130803   1.886   3.199  14.960  0.4427  0.9645  0.4851
 6447SOL    HW230804   1.774   3.232  14.868 -0.1915 -0.3463 -0.3715
 6448SOL     OW30805   0.752   0.950  13.914 -0.0363  0.0120  0.7264
 6448SOL    HW130806   0.730   1.035  13.953  1.3466 -0.8608  3.4394
 6448SOL    HW230807   0.768   0.901  13.995 -1.5269  2.0240  2.2362
 6449SOL     OW30808   0.380   3.854   4.587 -0.3624  0.2275 -0.7350
 6449SOL    HW130809   0.398   3.762   4.607  0.3170  0.8794  1.6502
 6449SOL    HW230810   0.302   3.862   4.641  1.0710 -3.1315  1.8408
 6450SOL     OW30811   2.530   4.260  17.285 -0.0654 -0.3827  0.2057
 6450SOL    HW130812   2.504   4.324  17.352  1.6367 -0.8561  1.3230
 6450SOL    HW230813   2.604   4.309  17.247 -2.1143  1.9128 -0.7901
 6451SOL     OW30814   2.820   3.429  15.428 -0.1579  0.1509  0.3118
 6451SOL    HW130815   2.805   3.371  15.503 -1.8623 -2.5022 -2.0658
 6451SOL    HW230816   2.764   3.497  15.465 -0.9446 -0.0472 -0.5259
 6452SOL     OW30817   0.917   3.134   2.641  0.2761  0.3809  0.0889
 6452SOL    HW130818   0.846   3.197   2.656  0.1779 -0.3940  2.9730
 6452SOL    HW230819   0.866   3.073   2.587  2.5653 -1.8734  0.4828
 6453SOL     OW30820   2.280   2.435   5.325 -0.4706 -0.6888  0.0962
 6453SOL    HW130821   2.295   2.521   5.287 -0.0673 -1.4576 -1.4954
 6453SOL    HW230822   2.289   2.464   5.416 -2.0242 -0.5246  0.1970
 6454SOL     OW30823   4.231   0.103   5.885  0.6922  0.0123 -0.0875
 6454SOL    HW130824   4.318   0.128   5.856  1.3768 -0.9676  1.0937
 6454SOL    HW230825   4.241   0.009   5.901 -0.7593 -0.1891 -0.3742
 6455SOL     OW30826   3.592   1.272   8.891 -0.0380 -0.2217  0.0028
 6455SOL    HW130827   3.668   1.329   8.878 -1.3569  0.9557 -2.4429
 6455SOL    HW230828   3.600   1.245   8.982  1.7496  1.2669  0.3032
 6456SOL     OW30829   0.461   4.356   4.270 -0.3624 -0.2524 -0.1827
 6456SOL    HW130830   0.438   4.445   4.297  1.2383  0.4715 -1.1947
 6456SOL    HW230831   0.418   4.341   4.186 -1.0777 -0.5246  0.2366
 6457SOL     OW30832   2.305   2.170   2.396  0.1230  0.2241  0.1617
 6457SOL    HW130833   2.235   2.143   2.337 -0.2787 -1.0380  1.2118
 6457SOL    HW230834   2.314   2.261   2.369  0.1507 -0.5059 -2.2653
 6458SOL     OW30835   0.059   2.619  11.795  0.7676 -0.3971 -0.3065
 6458SOL    HW130836   0.135   2.666  11.760  0.7921  0.0161  0.2969
 6458SOL    HW230837   0.092   2.529  11.791  0.1127 -0.7056  0.9547
 6459SOL     OW30838   3.917   0.204   1.161 -0.0588  0.1196  0.0071
 6459SOL    HW130839   3.827   0.174   1.151  0.6337 -2.2379  0.8342
 6459SOL    HW230840   3.927   0.241   1.073 -1.5139  1.1514  0.2792
 6460SOL     OW30841   2.294   3.269  11.418  0.1631 -0.0355  0.2628
 6460SOL    HW130842   2.266   3.293  11.506 -1.8351  1.6839 -0.8330
 6460SOL    HW230843   2.299   3.351  11.369  1.6961 -0.8572 -0.9752
 6461SOL     OW30844   2.720   3.377   2.732  0.2161  0.1083  0.3470
 6461SOL    HW130845   2.695   3.374   2.640  0.5230  1.9365  0.1993
 6461SOL    HW230846   2.747   3.286   2.745  1.9127  0.6154  0.2919
 6462SOL     OW30847   3.167   3.264   1.709  0.0586 -0.1330 -0.3747
 6462SOL    HW130848   3.170   3.250   1.614 -1.3683 -2.5083 -0.0645
 6462SOL    HW230849   3.257   3.241   1.733 -0.4137  0.5316  1.9979
 6463SOL     OW30850   4.359   4.703  14.066 -0.2385 -0.0359  0.1594
 6463SOL    HW130851   4.355   4.609  14.085  0.9770  0.0922  0.9807
 6463SOL    HW230852   4.359   0.028  14.149  1.9194  1.2945 -0.6041
 6464SOL     OW30853   4.198   1.191   9.366 -0.1700 -0.1400 -0.7935
 6464SOL    HW130854   4.155   1.270   9.398 -0.0835 -0.5156  0.2720
 6464SOL    HW230855   4.290   1.216   9.379 -0.7769  1.1961  0.8053
 6465SOL     OW30856   3.915   4.301   2.148 -0.7931 -0.7033  0.1148
 6465SOL    HW130857   3.852   4.318   2.077  0.8124 -0.5714 -1.2842
 6465SOL    HW230858   3.858   4.262   2.214  1.3685 -2.1178  1.1226
 6466SOL     OW30859   0.723   2.954   2.511 -0.4554 -0.1973 -0.0858
 6466SOL    HW130860   0.710   2.876   2.457 -0.4120  0.5926 -1.2263
 6466SOL    HW230861   0.660   3.014   2.471  1.0487  0.4083 -1.5229
 6467SOL     OW30862   4.607   1.612  10.372  0.2033 -0.1121  0.2505
 6467SOL    HW130863   4.594   1.587  10.463 -1.0124 -0.3736  0.0017
 6467SOL    HW230864   4.612   1.708  10.373  2.1528 -0.1966 -0.4843
 6468SOL     OW30865   1.941   3.833  12.620 -0.1569  0.1370  0.5861
 6468SOL    HW130866   1.936   3.738  12.615 -0.4108  0.2839 -1.8974
 6468SOL    HW230867   1.971   3.852  12.531  1.1179  1.5335  1.3098
 6469SOL     OW30868   4.649   0.447   4.425  0.2832  0.1583 -0.3620
 6469SOL    HW130869   4.681   0.439   4.335 -0.8309 -1.8159 -0.5937
 6469SOL    HW230870   4.585   0.376   4.433  3.1424 -2.4626 -0.8765
 6470SOL     OW30871   1.627   2.721   6.783  0.1302 -0.0978 -0.6925
 6470SOL    HW130872   1.693   2.738   6.850 -0.0742  0.4969 -0.6469
 6470SOL    HW230873   1.656   2.641   6.739 -0.8368 -0.9587  0.2394
 6471SOL     OW30874   2.726   0.386  14.639  0.2727  0.4805  0.0099
 6471SOL    HW130875   2.641   0.358  14.604 -1.4069  1.4036  3.2987
 6471SOL    HW230876   2.705   0.471  14.680 -3.7974 -0.7355  0.4901
 6472SOL     OW30877   2.732   4.060   4.226 -0.3177  0.3955 -0.1202
 6472SOL    HW130878   2.762   4.111   4.151 -0.5952  2.0393  0.8820
 6472SOL    HW230879   2.637   4.062   4.211 -0.3208  0.3539 -0.1076
 6473SOL     OW30880   1.496   0.013   8.438  0.1079 -0.8398 -0.0276
 6473SOL    HW130881   1.556   4.714   8.510  0.5954 -1.3496 -0.5891
 6473SOL    HW230882   1.556   0.046   8.371 -3.0273  0.9937 -1.9365
 6474SOL     OW30883   4.168   1.382   3.316  0.4656 -0.4270 -0.4945
 6474SOL    HW130884   4.086   1.430   3.303  1.9703  2.2687 -0.1530
 6474SOL    HW230885   4.193   1.355   3.228  2.4771  0.7394 -0.2885
 6475SOL     OW30886   2.958   0.933  12.692  0.0041  0.0948  0.1512
 6475SOL    HW130887   2.873   0.890  12.678  0.0372 -0.0253  0.3222
 6475SOL    HW230888   3.015   0.866  12.729 -1.3824 -0.5402  1.1238
 6476SOL     OW30889   1.373   3.913  15.035 -0.5128  0.8944  0.3666
 6476SOL    HW130890   1.346   3.991  14.986 -2.1255 -0.5243 -0.9971
 6476SOL    HW230891   1.289   3.891  15.076 -0.0066  1.4223  1.6941
 6477SOL     OW30892   1.019   2.490   7.688  0.0583 -0.2648  0.2641
 6477SOL    HW130893   1.007   2.432   7.764 -0.8160  1.8880  1.7680
 6477SOL    HW230894   1.110   2.515   7.678  0.1830 -1.6016 -1.8270
 6478SOL     OW30895   0.139   3.655  12.189  0.1351  0.2086 -0.1596
 6478SOL    HW130896   0.208   3.627  12.250  0.7645  0.7931 -0.5941
 6478SOL    HW230897   0.060   3.634  12.239  0.5783  1.3517  1.0400
 6479SOL     OW30898   2.905   2.700   9.378 -0.4381 -0.4025 -0.3959
 6479SOL    HW130899   2.820   2.680   9.339  1.9711 -1.7758 -4.9192
 6479SOL    HW230900   2.962   2.643   9.326  1.9465  1.2184  0.4201
 6480SOL     OW30901   0.559   2.912   0.611  0.1619  0.4601 -0.0175
 6480SOL    HW130902   0.487   2.961   0.570 -1.7294 -0.3579  2.3232
 6480SOL    HW230903   0.505   2.845   0.653 -0.2601 -0.0223 -1.3072
 6481SOL     OW30904   0.834   3.004   5.810  0.0333  0.1318 -0.0182
 6481SOL    HW130905   0.878   3.031   5.890  1.0531  0.4060 -0.6861
 6481SOL    HW230906   0.852   2.910   5.814  1.4963  0.5074  1.6943
 6482SOL     OW30907   0.118   2.944  16.528 -0.0825 -0.3154  0.0004
 6482SOL    HW130908   0.138   2.877  16.464 -3.2456  0.7788 -2.1436
 6482SOL    HW230909   0.023   2.935  16.531 -0.0508  0.0721  2.1262
 6483SOL     OW30910   4.267   0.896  16.490 -0.0745 -0.1233  0.4079
 6483SOL    HW130911   4.248   0.989  16.479  1.3555 -0.2085 -2.9585
 6483SOL    HW230912   4.233   0.874  16.576  2.3515  0.6200  1.5487
 6484SOL     OW30913   2.390   2.004   3.243  0.3984 -0.1605  0.2233
 6484SOL    HW130914   2.426   1.926   3.285  1.5502 -0.4764 -1.3228
 6484SOL    HW230915   2.461   2.066   3.224  1.1585 -1.1801 -0.3109
 6485SOL     OW30916   1.852   4.385   3.489  0.5759 -0.1423 -0.0271
 6485SOL    HW130917   1.880   4.429   3.569  0.2525 -0.0124  0.0123
 6485SOL    HW230918   1.884   4.442   3.419 -2.4741  1.3606 -0.1816
 6486SOL     OW30919   3.572   4.275  12.168 -0.2731  0.5437  0.6590
 6486SOL    HW130920   3.614   4.239  12.246 -0.3131 -0.5554  0.1717
 6486SOL    HW230921   3.490   4.313  12.199 -1.0796  0.1076 -0.9602
 6487SOL     OW30922   1.621   2.023   7.782  0.4102  0.1761 -0.1875
 6487SOL    HW130923   1.581   1.989   7.862  0.8322 -1.7289 -0.7831
 6487SOL    HW230924   1.630   2.114   7.809 -2.4966  0.5166 -0.3854
 6488SOL     OW30925   1.478   4.092   3.471 -0.1678  0.2010 -0.4040
 6488SOL    HW130926   1.411   4.100   3.403  1.1897 -0.3958 -1.8062
 6488SOL    HW230927   1.558   4.124   3.430  0.2308 -1.9015 -1.3030
 6489SOL     OW30928   0.291   1.148  12.684 -0.3302 -0.2183  0.6558
 6489SOL    HW130929   0.238   1.226  12.668 -0.5137 -0.5807 -0.4429
 6489SOL    HW230930   0.344   1.179  12.758  1.2582  1.0378 -1.0090
 6490SOL     OW30931   1.323   3.767  17.022  0.5613  0.2933  0.4033
 6490SOL    HW130932   1.344   3.736  17.110  3.4988 -1.1549 -0.8183
 6490SOL    HW230933   1.228   3.766  17.031  0.4813  0.4724 -0.3944
 6491SOL     OW30934   1.905   1.273  12.488 -0.3551 -0.1833 -0.1867
 6491SOL    HW130935   1.997   1.301  12.487 -0.6811  0.9097  0.9244
 6491SOL    HW230936   1.923   1.179  12.493  1.8455  0.1504 -1.4870
 6492SOL     OW30937   1.913   3.299  14.383  0.1178  0.5325  0.4138
 6492SOL    HW130938   1.820   3.286  14.401 -0.2462  2.0005 -0.4007
 6492SOL    HW230939   1.937   3.371  14.442  0.6792  0.1526  0.6534
 6493SOL     OW30940   1.530   4.300   3.953  0.0054  0.4644  0.3641
 6493SOL    HW130941   1.625   4.298   3.967  0.1037  0.0373 -0.3936
 6493SOL    HW230942   1.530   4.293   3.858 -2.1839  2.3470  0.2202
 6494SOL     OW30943   0.027   2.016   8.264 -0.6158 -0.7708 -0.6239
 6494SOL    HW130944   4.670   2.068   8.268  0.7970  1.3326  0.5337
 6494SOL    HW230945   0.067   2.030   8.350 -0.2720  0.2113 -0.9410
 6495SOL     OW30946   1.120   0.077   8.842  0.1026  0.1529  0.0300
 6495SOL    HW130947   1.077   0.002   8.801 -0.8426 -0.2094  1.7050
 6495SOL    HW230948   1.114   0.146   8.776  0.5910  0.2969  0.1298
 6496SOL     OW30949   4.121   1.294   2.017 -0.1382 -0.5623  0.2189
 6496SOL    HW130950   4.163   1.312   1.933  1.3724  0.6352  1.2275
 6496SOL    HW230951   4.071   1.220   1.983  0.1349 -0.2138 -0.9455
 6497SOL     OW30952   0.068   0.058   2.835  0.0604 -0.2700  0.0277
 6497SOL    HW130953   0.051   0.146   2.801 -0.1394  0.0847  1.0341
 6497SOL    HW230954   0.151   0.033   2.795  0.7955  0.7133  0.9426
 6498SOL     OW30955   2.483   0.486   5.621 -0.1179 -0.1987 -0.0617
 6498SOL    HW130956   2.403   0.538   5.615  0.5188  0.8039  0.1916
 6498SOL    HW230957   2.486   0.484   5.525  2.6988 -0.4003  0.0345
 6499SOL     OW30958   1.340   3.889   5.859 -0.1204  0.2103 -0.1156
 6499SOL    HW130959   1.428   3.921   5.879 -0.2315  0.3473  0.1499
 6499SOL    HW230960   1.287   3.939   5.920 -0.3466 -1.3721  1.0056
 6500SOL     OW30961   3.478   3.401   8.820 -0.2683 -0.2739 -0.2169
 6500SOL    HW130962   3.397   3.450   8.836  0.0177  1.4629 -3.9739
 6500SOL    HW230963   3.537   3.448   8.879 -1.3270 -1.5210  1.8302
 6501SOL     OW30964   4.463   3.980   0.815  0.3372  0.1720 -0.1019
 6501SOL    HW130965   4.516   4.022   0.882  0.6779 -0.2907 -0.0832
 6501SOL    HW230966   4.530   3.951   0.753  0.2576  0.5155 -0.3507
 6502SOL     OW30967   3.338   2.064   6.325  0.7272 -0.1928 -0.3822
 6502SOL    HW130968   3.243   2.053   6.330  0.9363 -0.2656  3.0283
 6502SOL    HW230969   3.342   2.158   6.339 -1.1066 -0.1890  0.0441
 6503SOL     OW30970   2.285   3.362   8.418 -0.5680 -0.2690  0.4565
 6503SOL    HW130971   2.266   3.282   8.369  1.2242 -0.7883  0.6279
 6503SOL    HW230972   2.321   3.419   8.351  1.5641 -0.3633  1.5385
 6504SOL     OW30973   2.474   3.890  13.694  0.6195  0.2164  0.2744
 6504SOL    HW130974   2.482   3.920  13.603 -0.6234  0.2961  0.1899
 6504SOL    HW230975   2.472   3.972  13.743  2.0047  0.6763 -0.4223
 6505SOL     OW30976   4.360   2.211   7.701  0.9218  0.1832  0.0588
 6505SOL    HW130977   4.427   2.163   7.750 -0.2977  1.8883  3.3587
 6505SOL    HW230978   4.311   2.135   7.671  1.3300  0.1889 -0.6339
 6506SOL     OW30979   4.191   2.676  14.015  0.1816  0.1686 -0.3613
 6506SOL    HW130980   4.121   2.741  14.002  1.3095  1.3058 -0.8353
 6506SOL    HW230981   4.181   2.634  14.100 -1.5491 -1.8697 -1.5945
 6507SOL     OW30982   1.193   3.843   2.371 -0.1090  0.5979 -0.7210
 6507SOL    HW130983   1.162   3.767   2.322  0.6833 -1.0193  1.2718
 6507SOL    HW230984   1.195   3.816   2.463  1.9488 -1.4376 -1.3550
 6508SOL     OW30985   1.818   1.413  13.797 -0.1130 -0.6566 -0.3351
 6508SOL    HW130986   1.860   1.388  13.715  2.1868  0.6923  0.4336
 6508SOL    HW230987   1.761   1.486  13.770 -1.2353 -1.4746 -0.1939
 6509SOL     OW30988   3.040   0.105  10.189 -0.4221  0.1808 -0.6825
 6509SOL    HW130989   3.118   0.059  10.220 -0.5868  0.1922 -0.2509
 6509SOL    HW230990   2.985   0.044  10.140 -0.8100  0.0043 -0.0320
 6510SOL     OW30991   4.424   2.647   4.378  0.3012 -0.5375 -0.2576
 6510SOL    HW130992   4.472   2.587   4.322  2.1303 -0.7670  1.5884
 6510SOL    HW230993   4.374   2.587   4.433 -1.2646  0.1195 -0.9500
 6511SOL     OW30994   3.853   2.071   5.301  0.7713  0.1661  0.1934
 6511SOL    HW130995   3.839   2.147   5.245  0.3077 -0.9286 -1.1803
 6511SOL    HW230996   3.857   2.115   5.386  0.7709 -1.6506  1.1257
 6512SOL     OW30997   1.249   0.206   3.818  0.0587  0.0377 -0.3205
 6512SOL    HW130998   1.189   0.182   3.888 -0.3537 -0.2650 -0.7738
 6512SOL    HW230999   1.191   0.185   3.745 -0.5242 -2.2681  0.8171
 6513SOL     OW31000   1.082   3.962   3.636  0.0320 -0.2125  0.1213
 6513SOL    HW131001   1.016   4.019   3.597  0.2902 -0.0792 -0.1213
 6513SOL    HW231002   1.070   3.889   3.576  2.5632 -0.1177 -0.4951
 6514SOL     OW31003   2.710   1.726  15.147  0.1792 -0.0873  0.2648
 6514SOL    HW131004   2.648   1.732  15.220 -0.1824 -1.4740  0.0778
 6514SOL    HW231005   2.662   1.751  15.069  0.4158 -0.2683  0.0620
 6515SOL     OW31006   4.363   2.998   6.337 -0.2745 -0.1080  0.4023
 6515SOL    HW131007   4.387   2.932   6.271  1.0186  0.9273 -0.1610
 6515SOL    HW231008   4.332   3.071   6.283 -0.2363 -1.6905 -1.7598
 6516SOL     OW31009   4.291   2.290   0.780 -0.1698 -0.5153  0.0988
 6516SOL    HW131010   4.349   2.364   0.797  0.8688 -1.5993  1.2440
 6516SOL    HW231011   4.236   2.330   0.712 -1.5383 -1.4424  0.6570
 6517SOL     OW31012   1.532   2.215   3.058 -0.2046 -0.5435 -0.2138
 6517SOL    HW131013   1.537   2.134   3.110  0.3592 -0.8677 -0.7612
 6517SOL    HW231014   1.575   2.197   2.974 -1.4747  1.8911 -1.3613
 6518SOL     OW31015   1.323   0.535   8.577  1.0153  0.7886 -0.2220
 6518SOL    HW131016   1.417   0.517   8.572  0.7023 -0.1061 -3.0432
 6518SOL    HW231017   1.325   0.604   8.643  1.6159 -0.9884  1.6287
 6519SOL     OW31018   1.889   0.335  15.821  0.6085  0.2119 -0.0205
 6519SOL    HW131019   1.807   0.384  15.821  0.1946 -0.5004 -1.4098
 6519SOL    HW231020   1.902   0.323  15.727 -1.0461 -2.5228  0.0940
 6520SOL     OW31021   4.536   0.574  10.100 -0.2561 -0.4699  0.0090
 6520SOL    HW131022   4.510   0.483  10.087  1.8944 -0.8439 -1.7607
 6520SOL    HW231023   4.623   0.558  10.137 -0.6752 -1.0240  0.7488
 6521SOL     OW31024   1.372   3.302   7.208 -0.3141  0.3317 -0.3919
 6521SOL    HW131025   1.302   3.238   7.217  1.3712 -1.3174  0.7772
 6521SOL    HW231026   1.359   3.351   7.289  0.2310 -1.2642  0.6546
 6522SOL     OW31027   0.858   0.152   6.633  0.4894  0.3452 -0.0188
 6522SOL    HW131028   0.793   0.203   6.682 -0.4174 -0.0586 -0.7903
 6522SOL    HW231029   0.887   0.104   6.711  0.2569 -0.6774 -0.5560
 6523SOL     OW31030   0.412   3.009  16.388  0.4874 -0.1213  0.3873
 6523SOL    HW131031   0.361   2.965  16.321  1.0714  0.5998 -0.5267
 6523SOL    HW231032   0.436   3.093  16.348  2.8224  0.2563  2.5519
 6524SOL     OW31033   3.935   1.800   2.521 -0.3171  0.2090 -0.6190
 6524SOL    HW131034   3.989   1.877   2.537 -0.0757  0.6501 -3.5157
 6524SOL    HW231035   3.934   1.802   2.425  0.1618 -0.3197 -0.6323
 6525SOL     OW31036   3.189   2.765   7.391 -0.1142 -0.5055 -0.2012
 6525SOL    HW131037   3.253   2.695   7.399  0.6164 -0.1575 -3.2166
 6525SOL    HW231038   3.124   2.758   7.461 -1.2318 -0.2568 -1.2111
 6526SOL     OW31039   4.589   2.832   7.098  0.0368 -0.5236  0.5362
 6526SOL    HW131040   4.652   2.834   7.026 -1.3055 -0.1799 -0.6267
 6526SOL    HW231041   4.535   2.910   7.087  1.1161  0.0152 -0.9859
 6527SOL     OW31042   2.325   0.628  16.717 -0.0911  0.2426  0.1159
 6527SOL    HW131043   2.350   0.552  16.768  0.4015 -0.7155 -1.5506
 6527SOL    HW231044   2.300   0.694  16.782  1.2573  0.7547  0.1289
 6528SOL     OW31045   1.937   2.557   4.510  0.9115 -0.1521  0.8587
 6528SOL    HW131046   2.029   2.543   4.485  1.1526 -0.4396  1.8997
 6528SOL    HW231047   1.944   2.503   4.588  2.2374 -1.8984 -0.4608
 6529SOL     OW31048   3.221   2.833   4.934  0.1238  0.2057 -0.2421
 6529SOL    HW131049   3.153   2.827   4.867 -1.1943  0.2479  1.0936
 6529SOL    HW231050   3.168   2.874   5.003  1.7549 -2.3303  2.5257
 6530SOL     OW31051   3.650   2.690   3.854  0.0680  1.4722 -0.4893
 6530SOL    HW131052   3.693   2.639   3.786 -0.7892  0.4975 -0.2904
 6530SOL    HW231053   3.697   2.652   3.928 -1.6281  0.7819  0.2403
 6531SOL     OW31054   3.827   0.037   5.380 -0.3665 -0.3216  0.0830
 6531SOL    HW131055   3.883   0.090   5.436 -0.8749 -1.5127  1.7347
 6531SOL    HW231056   3.749   0.091   5.389 -0.7637 -0.9211  0.2556
 6532SOL     OW31057   3.965   4.537   2.267 -0.0747 -0.3522  0.6267
 6532SOL    HW131058   3.954   4.445   2.243 -0.7699 -0.1965  0.3391
 6532SOL    HW231059   3.937   4.591   2.193 -2.6679 -2.1764  0.2653
 6533SOL     OW31060   3.648   1.716  12.955 -0.6302  0.5063  0.1032
 6533SOL    HW131061   3.576   1.682  12.902 -0.5718  0.6318 -0.0552
 6533SOL    HW231062   3.713   1.724  12.885  1.5424 -0.2801  2.0419
 6534SOL     OW31063   3.402   2.324   3.867 -0.1651 -0.0642  0.2313
 6534SOL    HW131064   3.492   2.351   3.845 -0.4262  1.5801  1.1478
 6534SOL    HW231065   3.351   2.372   3.802 -0.6894 -1.5099 -0.4285
 6535SOL     OW31066   4.400   0.682  12.880  0.0733 -0.1476 -0.3635
 6535SOL    HW131067   4.337   0.634  12.826  0.0620 -1.0383  0.4505
 6535SOL    HW231068   4.342   0.716  12.948 -1.3388 -0.0949 -1.5738
 6536SOL     OW31069   4.268   0.243  10.300 -0.6680 -0.4580  0.1724
 6536SOL    HW131070   4.274   0.242  10.395  3.4982  1.5425 -0.0515
 6536SOL    HW231071   4.179   0.208  10.300 -1.1674  0.7862 -1.1565
 6537SOL     OW31072   2.382   1.740   6.062  0.4983 -0.7695 -0.8100
 6537SOL    HW131073   2.412   1.686   6.136 -0.4719  2.7068  2.0878
 6537SOL    HW231074   2.287   1.729   6.066  0.4016  0.2847 -0.3207
 6538SOL     OW31075   1.954   1.699   2.313  0.0824 -0.3047  0.5947
 6538SOL    HW131076   1.999   1.615   2.300 -0.6704 -0.5014 -0.7135
 6538SOL    HW231077   2.031   1.754   2.326  1.8321 -2.2035 -1.7233
 6539SOL     OW31078   0.220   0.511   2.855 -0.2521 -0.3393 -0.0467
 6539SOL    HW131079   0.272   0.534   2.778 -1.5867  0.1367 -0.8127
 6539SOL    HW231080   0.180   0.427   2.834 -1.3860  0.7378 -2.1842
 6540SOL     OW31081   1.210   2.439  14.963  0.4374 -0.4833 -0.4899
 6540SOL    HW131082   1.172   2.445  14.875 -1.6696 -0.2697  0.4459
 6540SOL    HW231083   1.280   2.504  14.957 -0.3244  0.2854 -1.2533
 6541SOL     OW31084   1.189   4.546   5.765 -0.0532 -0.8231 -0.0953
 6541SOL    HW131085   1.152   4.480   5.705  0.0688  0.4458 -1.5697
 6541SOL    HW231086   1.117   4.609   5.756 -0.0953 -0.5929  1.8823
 6542SOL     OW31087   3.464   0.373   8.313 -0.0454 -0.7020  0.2406
 6542SOL    HW131088   3.554   0.344   8.327 -0.3064 -0.4547  2.3850
 6542SOL    HW231089   3.446   0.431   8.387 -1.0843 -0.0192 -0.5496
 6543SOL     OW31090   4.582   0.049   3.837  0.3678  0.3031  0.0269
 6543SOL    HW131091   4.560   4.682   3.810 -1.0980  0.8729 -0.6508
 6543SOL    HW231092   4.501   0.098   3.826 -0.6721 -1.6253 -0.9387
 6544SOL     OW31093   4.651   3.761   3.497 -0.4532  0.5574  0.0595
 6544SOL    HW131094   4.636   3.852   3.469  0.9663  0.7341 -0.1317
 6544SOL    HW231095   4.565   3.724   3.476 -0.6593  0.3966  1.1795
 6545SOL     OW31096   2.935   1.937   8.380 -0.1330 -0.0415 -0.3849
 6545SOL    HW131097   2.968   1.935   8.290 -1.7958 -1.4857 -0.9698
 6545SOL    HW231098   2.879   1.859   8.388  0.9643 -0.8106 -0.2838
 6546SOL     OW31099   3.351   3.539   5.968 -0.3229 -0.4139 -0.0053
 6546SOL    HW131100   3.417   3.609   5.971 -0.9662  0.1868  0.1344
 6546SOL    HW231101   3.343   3.517   5.875  2.7295  1.0315 -0.6315
 6547SOL     OW31102   3.892   4.469   0.988 -0.1299  0.0316 -0.0371
 6547SOL    HW131103   3.815   4.431   1.029  0.5622  0.4325  1.6141
 6547SOL    HW231104   3.936   4.522   1.055 -0.0030 -1.1767  0.8228
 6548SOL     OW31105   0.782   1.115   6.490  0.3283  0.5978  0.3223
 6548SOL    HW131106   0.702   1.076   6.526 -0.3717  1.4600 -0.3150
 6548SOL    HW231107   0.750   1.146   6.405  0.6017  0.0203  0.0056
 6549SOL     OW31108   2.808   0.738   0.402  0.1461  0.7458  0.1683
 6549SOL    HW131109   2.816   0.669   0.468 -0.9861  0.4723  0.0237
 6549SOL    HW231110   2.719   0.738   0.366  1.4568  1.7911 -3.0213
 6550SOL     OW31111   4.706   1.833   3.684 -0.4202 -0.5040  0.1985
 6550SOL    HW131112   0.020   1.896   3.621 -2.5055 -0.0254 -0.5473
 6550SOL    HW231113   4.619   1.833   3.643 -0.3652  0.4619  0.0771
 6551SOL     OW31114   2.130   0.188   5.636  0.4225  0.1959  1.0041
 6551SOL    HW131115   2.169   0.239   5.565  1.9458 -1.0539  0.9437
 6551SOL    HW231116   2.188   0.116   5.661  0.1580 -0.6654 -0.9093
 6552SOL     OW31117   0.262   1.798   1.593  0.0888 -0.4908 -0.5520
 6552SOL    HW131118   0.271   1.862   1.663 -1.4600 -0.1586 -0.6564
 6552SOL    HW231119   0.197   1.847   1.543  0.6746 -0.0945 -0.9195
 6553SOL     OW31120   3.696   3.551   2.147  0.1902  0.3128 -0.1786
 6553SOL    HW131121   3.742   3.623   2.191 -3.4873  1.5814  1.5362
 6553SOL    HW231122   3.640   3.593   2.082 -0.1018 -0.4347 -0.4072
 6554SOL     OW31123   1.924   3.176   5.115  0.0246 -0.5196  0.6676
 6554SOL    HW131124   1.869   3.103   5.087  0.8663 -0.3352 -1.4026
 6554SOL    HW231125   1.943   3.136   5.200  3.3512  0.9181  0.6089
 6555SOL     OW31126   4.366   3.347   2.783 -0.5773  0.8799  0.4138
 6555SOL    HW131127   4.308   3.302   2.721  2.0858 -2.2026  0.1168
 6555SOL    HW231128   4.345   3.286   2.854  1.2284  0.3751  0.5337
 6556SOL     OW31129   3.284   0.122   2.475 -0.0494 -0.0790 -0.0485
 6556SOL    HW131130   3.229   0.067   2.420 -0.1827 -0.1987  0.2064
 6556SOL    HW231131   3.300   0.067   2.551 -1.1868  0.1146  0.3181
 6557SOL     OW31132   2.691   2.267   8.830 -0.2898 -0.1050  0.2122
 6557SOL    HW131133   2.763   2.297   8.774 -0.0365  1.9302  1.6204
 6557SOL    HW231134   2.719   2.309   8.911  2.7657 -2.1646  0.2469
 6558SOL     OW31135   2.928   4.388   8.674  0.0435  0.2659 -0.4485
 6558SOL    HW131136   2.893   4.465   8.719  0.5751  1.1328 -1.5108
 6558SOL    HW231137   3.023   4.398   8.677  0.0113  0.7571 -1.0535
 6559SOL     OW31138   1.156   3.266   8.267  0.6003 -0.4837  0.0921
 6559SOL    HW131139   1.108   3.249   8.186 -2.3940 -1.2199  2.0434
 6559SOL    HW231140   1.217   3.193   8.265  0.6359 -0.4610  0.3418
 6560SOL     OW31141   1.156   1.797   2.850  0.3503 -0.1660  0.0968
 6560SOL    HW131142   1.060   1.803   2.844  0.3881 -0.7046 -0.9943
 6560SOL    HW231143   1.176   1.881   2.807  1.3732 -0.5817 -0.2138
 6561SOL     OW31144   0.787   4.312   4.584  0.2114 -0.2014  0.3529
 6561SOL    HW131145   0.771   4.221   4.559 -1.2445 -0.0425  0.6758
 6561SOL    HW231146   0.864   4.347   4.540 -0.4959  0.3679 -0.4288
 6562SOL     OW31147   1.416   1.081   2.598 -0.3609 -0.3334 -1.2920
 6562SOL    HW131148   1.499   1.055   2.638 -0.1005  1.4009 -0.6849
 6562SOL    HW231149   1.369   1.007   2.636  1.3412  0.1958  1.8320
 6563SOL     OW31150   3.143   2.747  14.838  0.3410  0.0123 -0.0745
 6563SOL    HW131151   3.220   2.724  14.787  0.6534 -1.1472  0.9345
 6563SOL    HW231152   3.083   2.683  14.800  3.9803 -3.2418 -0.3241
 6564SOL     OW31153   4.371   2.297   3.036  0.3930  0.1820 -0.3142
 6564SOL    HW131154   4.347   2.371   2.981 -1.7182 -0.4694 -0.2553
 6564SOL    HW231155   4.454   2.325   3.076  0.2048  0.8079 -0.3659
 6565SOL     OW31156   3.985   1.037  16.385  0.1852  0.1303 -0.3625
 6565SOL    HW131157   4.047   1.069  16.320  1.4199 -0.3703  0.5796
 6565SOL    HW231158   3.927   0.986  16.328  1.5348 -1.0468 -0.6666
 6566SOL     OW31159   2.175   4.327   6.196  0.5331 -0.2830 -0.0615
 6566SOL    HW131160   2.225   4.334   6.278 -0.5008  0.1629  0.5384
 6566SOL    HW231161   2.120   4.254   6.225 -0.9673  1.1195  0.6167
 6567SOL     OW31162   3.598   3.209  15.734 -0.0194 -0.6538  0.1331
 6567SOL    HW131163   3.612   3.222  15.828  1.4049 -0.8355 -0.0629
 6567SOL    HW231164   3.603   3.115  15.718  0.9530 -0.6045  0.1658
 6568SOL     OW31165   3.204   0.830  12.797 -0.1142  0.0293 -0.1795
 6568SOL    HW131166   3.158   0.826  12.881  1.4068 -1.6943  0.5618
 6568SOL    HW231167   3.259   0.907  12.810  1.9983 -1.4395 -0.3769
 6569SOL     OW31168   3.621   1.852   2.973 -1.0302 -0.5326  0.0666
 6569SOL    HW131169   3.536   1.888   3.002 -1.0780 -0.9205  0.4118
 6569SOL    HW231170   3.604   1.758   2.983  0.2835 -0.8244 -0.5571
 6570SOL     OW31171   4.041   2.912  13.241 -0.6061  0.3551 -0.0505
 6570SOL    HW131172   4.135   2.895  13.245 -0.3836  1.3538 -0.9549
 6570SOL    HW231173   4.035   2.977  13.311  2.3337  0.7879 -0.2166
 6571SOL     OW31174   1.164   2.619   4.205 -0.2453  0.2371  0.5279
 6571SOL    HW131175   1.192   2.709   4.187 -2.5858  0.8752  0.0373
 6571SOL    HW231176   1.103   2.611   4.132  0.1201  2.3140 -0.0075
 6572SOL     OW31177   0.381   1.735   4.839  0.4054  0.3429  0.2163
 6572SOL    HW131178   0.408   1.751   4.749  1.8329 -3.3057 -0.0143
 6572SOL    HW231179   0.375   1.828   4.861 -1.1111  0.7039 -1.7548
 6573SOL     OW31180   2.786   0.013  10.071 -0.0059  0.3455  0.2131
 6573SOL    HW131181   2.772   0.103  10.043 -1.9395 -0.0342 -0.0872
 6573SOL    HW231182   2.728   4.689  10.010 -2.3830 -0.8500  3.3583
 6574SOL     OW31183   0.705   4.642   7.801  0.1597  0.2899  0.3434
 6574SOL    HW131184   0.717   4.717   7.743  1.1753 -0.0480  0.1213
 6574SOL    HW231185   0.672   4.685   7.880 -0.2638  0.6237 -0.0142
 6575SOL     OW31186   1.132   3.825   5.080  0.1261  0.4832 -0.4539
 6575SOL    HW131187   1.095   3.905   5.116  0.1669 -0.2054  1.1099
 6575SOL    HW231188   1.153   3.772   5.157 -1.3719 -0.1723 -0.5079
 6576SOL     OW31189   0.702   0.713  15.236 -0.2189  0.3405  0.1709
 6576SOL    HW131190   0.677   0.621  15.222 -2.1563  0.4630  2.8648
 6576SOL    HW231191   0.676   0.747  15.151  2.0391  1.5200 -0.0552
 6577SOL     OW31192   3.550   0.890   4.590  0.6705  0.6404 -0.2461
 6577SOL    HW131193   3.520   0.928   4.673  2.9430  2.1027 -0.1106
 6577SOL    HW231194   3.635   0.853   4.615 -0.0946  0.3488  2.0082
 6578SOL     OW31195   0.457   1.902   6.422  0.5793 -0.2723 -0.0224
 6578SOL    HW131196   0.489   1.855   6.499  1.5665 -1.3690 -1.0982
 6578SOL    HW231197   0.452   1.981   6.475  3.3572  2.0183 -3.1875
 6579SOL     OW31198   3.644   1.378   6.292  0.2965  0.3396 -0.4804
 6579SOL    HW131199   3.603   1.293   6.274 -2.1692  0.6770  3.5691
 6579SOL    HW231200   3.679   1.406   6.207  0.0574  2.2580  0.0631
 6580SOL     OW31201   3.951   3.463   1.603  0.3074  0.1872 -0.0795
 6580SOL    HW131202   4.021   3.526   1.587  0.2949  0.2848  0.2697
 6580SOL    HW231203   3.876   3.516   1.576  2.4464  3.8750  1.2125
 6581SOL     OW31204   4.316   0.226   1.625 -0.3569 -0.1798  0.0114
 6581SOL    HW131205   4.366   0.291   1.576  0.2789 -0.0097  0.8956
 6581SOL    HW231206   4.305   0.261   1.713 -2.4553  0.5495 -0.5459
 6582SOL     OW31207   3.438   1.428  14.686 -0.5201 -0.2511  0.6000
 6582SOL    HW131208   3.485   1.510  14.671  1.1397 -1.2851  0.1549
 6582SOL    HW231209   3.481   1.385  14.612  1.7186  0.7715  1.3050
 6583SOL     OW31210   1.596   0.344   8.292 -0.0067  0.3196  0.1578
 6583SOL    HW131211   1.657   0.395   8.237 -0.1554  1.5299  1.1027
 6583SOL    HW231212   1.630   0.255   8.286  1.8551  0.9650  1.1471
 6584SOL     OW31213   1.565   0.237   7.228  0.3620 -0.3012  0.7667
 6584SOL    HW131214   1.623   0.309   7.201  1.2677 -2.3972 -2.9846
 6584SOL    HW231215   1.486   0.264   7.182  0.9226  1.0711  0.5933
 6585SOL     OW31216   0.223   3.790  14.231 -0.2845 -0.4133 -0.0177
 6585SOL    HW131217   0.305   3.826  14.197 -0.2466 -1.4475 -1.0416
 6585SOL    HW231218   0.172   3.802  14.150 -0.5768 -3.7105 -0.3274
 6586SOL     OW31219   3.797   3.981   9.353  0.1323  0.1769 -0.1536
 6586SOL    HW131220   3.794   3.935   9.437  0.4904 -0.7274 -0.6277
 6586SOL    HW231221   3.888   3.988   9.324  0.2754 -2.0349 -0.2922
 6587SOL     OW31222   3.564   0.304   4.107 -0.0214 -0.3216 -0.2301
 6587SOL    HW131223   3.622   0.378   4.090  1.1613 -1.0325  0.7134
 6587SOL    HW231224   3.484   0.350   4.131  0.1953  0.0922 -0.2906
 6588SOL     OW31225   0.039   0.533   3.410  0.0770  0.0326  0.0212
 6588SOL    HW131226   0.031   0.628   3.411  0.1820  0.0281  1.2184
 6588SOL    HW231227   0.132   0.516   3.424  0.1355  1.5198  1.3301
 6589SOL     OW31228   4.195   1.772   3.660 -0.6093  0.5416  0.7508
 6589SOL    HW131229   4.106   1.757   3.691 -1.2298 -0.1679 -1.3757
 6589SOL    HW231230   4.170   1.810   3.576  0.0027 -3.2525 -1.1798
 6590SOL     OW31231   1.176   1.715  11.185  0.2833  0.3051 -0.0888
 6590SOL    HW131232   1.121   1.677  11.117  3.6358 -1.8320 -1.6275
 6590SOL    HW231233   1.257   1.666  11.194 -0.2043 -0.6658 -1.0289
 6591SOL     OW31234   0.191   1.162   7.219  0.3371  0.0094 -0.4376
 6591SOL    HW131235   0.125   1.213   7.265  1.3406  0.7972  0.0983
 6591SOL    HW231236   0.259   1.227   7.202  0.7505 -0.3479 -0.1666
 6592SOL     OW31237   1.803   3.154  16.102  0.2746  0.0342  0.5902
 6592SOL    HW131238   1.826   3.065  16.129  0.9567  0.5561  1.6737
 6592SOL    HW231239   1.778   3.132  16.012 -1.9116  1.5306  0.8364
 6593SOL     OW31240   0.456   2.958  15.456 -0.3150  0.1300 -0.0914
 6593SOL    HW131241   0.472   2.982  15.365  0.6938  0.7543  0.2584
 6593SOL    HW231242   0.490   3.032  15.505 -1.3227  0.6173 -0.1361
 6594SOL     OW31243   3.699   1.576   5.184  0.4613  0.3463  0.0178
 6594SOL    HW131244   3.663   1.663   5.201 -1.2192 -0.2981 -0.2271
 6594SOL    HW231245   3.736   1.550   5.269 -0.5853 -1.4651 -0.0759
 6595SOL     OW31246   2.425   2.244  15.378  0.0056 -0.0649 -0.9222
 6595SOL    HW131247   2.359   2.183  15.412  1.8819 -1.4244  0.2120
 6595SOL    HW231248   2.381   2.328  15.395 -0.0745  0.1197 -2.0316
 6596SOL     OW31249   3.186   2.893  10.967 -0.3847  0.2711 -0.2029
 6596SOL    HW131250   3.090   2.885  10.969 -0.3094 -0.9088 -1.5346
 6596SOL    HW231251   3.197   2.987  10.956 -4.3527  0.6081 -1.2327
 6597SOL     OW31252   3.224   2.786  11.976 -0.2199  0.1614 -0.2863
 6597SOL    HW131253   3.316   2.760  11.985 -0.4426 -0.4519  0.2433
 6597SOL    HW231254   3.184   2.727  12.041 -0.7019  1.5137  0.6340
 6598SOL     OW31255   0.784   2.701   6.088  0.0436  0.4151 -0.4454
 6598SOL    HW131256   0.761   2.791   6.107  0.5750  0.8121 -1.6853
 6598SOL    HW231257   0.847   2.705   6.016 -0.4784 -0.7450 -0.9713
 6599SOL     OW31258   4.153   1.623   1.720  0.0721  0.1919 -0.1755
 6599SOL    HW131259   4.162   1.528   1.732  0.0788  0.0756 -1.1015
 6599SOL    HW231260   4.236   1.652   1.758  1.0727 -1.8017 -0.8464
 6600SOL     OW31261   1.727   4.571   6.728 -0.0907 -0.2779  0.2902
 6600SOL    HW131262   1.735   4.614   6.813  0.8259  1.6340 -0.7518
 6600SOL    HW231263   1.733   4.649   6.673 -1.8633 -1.4843 -1.5950
 6601SOL     OW31264   0.493   1.286  14.395  0.4640  0.4400  0.5780
 6601SOL    HW131265   0.441   1.358  14.360  0.0997  0.0625  0.3486
 6601SOL    HW231266   0.420   1.234  14.429  1.7264  0.2124  2.9502
 6602SOL     OW31267   2.624   3.911  13.341 -0.0313  0.6152 -0.2409
 6602SOL    HW131268   2.536   3.876  13.357  0.5331 -0.7825 -0.1599
 6602SOL    HW231269   2.602   4.004  13.338  2.5272  1.2608  1.0030
 6603SOL     OW31270   0.996   1.786   4.178  0.4849  0.5599 -0.4282
 6603SOL    HW131271   1.054   1.835   4.237  1.0794  0.7966 -1.2183
 6603SOL    HW231272   0.914   1.835   4.171  0.4332  0.3106 -1.4576
 6604SOL     OW31273   2.829   3.236   5.579 -0.2027  0.4632  0.3420
 6604SOL    HW131274   2.809   3.310   5.637 -2.0909 -0.8127  1.3358
 6604SOL    HW231275   2.922   3.226   5.600 -0.1114  2.2504  0.7893
 6605SOL     OW31276   0.621   0.923  12.432  0.1277  0.7777  0.8156
 6605SOL    HW131277   0.625   1.003  12.379 -1.1360  1.0624  1.1366
 6605SOL    HW231278   0.605   0.960  12.519 -0.3264  0.6215  0.7965
 6606SOL     OW31279   0.813   0.633   7.064  0.3089  0.0216 -0.4129
 6606SOL    HW131280   0.827   0.542   7.038 -0.1163 -0.2133  0.1890
 6606SOL    HW231281   0.893   0.674   7.031 -0.4169  0.3349 -1.7814
 6607SOL     OW31282   4.171   2.847   8.633 -0.4251  0.5398  0.3941
 6607SOL    HW131283   4.167   2.940   8.611 -1.1220  1.1449  2.9618
 6607SOL    HW231284   4.261   2.840   8.665  0.4929  0.6930 -2.1746
 6608SOL     OW31285   0.429   3.128  11.328  0.1398  0.1954 -0.2318
 6608SOL    HW131286   0.370   3.165  11.263 -1.6342  3.2250  3.1167
 6608SOL    HW231287   0.495   3.196  11.320 -0.6235  1.1790  1.7907
 6609SOL     OW31288   0.353   0.548  15.108 -0.3538  0.5495 -0.2629
 6609SOL    HW131289   0.359   0.626  15.052  0.2397  0.7895  0.1372
 6609SOL    HW231290   0.444   0.520  15.105 -0.8719 -1.1627  0.3903
 6610SOL     OW31291   2.370   3.054   6.640 -0.1664  0.5689 -0.2607
 6610SOL    HW131292   2.275   3.055   6.644 -0.1092  0.4262  1.3485
 6610SOL    HW231293   2.382   3.117   6.711 -1.9575  3.3669 -2.5053
 6611SOL     OW31294   4.001   0.955  12.454  0.7630  0.1151 -0.3428
 6611SOL    HW131295   4.012   0.875  12.504  1.1198  1.4148  1.6544
 6611SOL    HW231296   3.930   0.995  12.505  1.3711 -0.3191  0.8403
 6612SOL     OW31297   1.107   1.060   2.308 -0.1276  0.2482  0.5961
 6612SOL    HW131298   1.048   1.033   2.238 -1.3227  1.1898  1.2393
 6612SOL    HW231299   1.189   1.050   2.259  0.1988 -0.7598  1.3405
 6613SOL     OW31300   2.578   3.074   5.498  0.3730 -0.1504 -0.5414
 6613SOL    HW131301   2.591   3.064   5.592  1.9803 -1.4361 -0.8976
 6613SOL    HW231302   2.663   3.101   5.465  0.7297 -1.2819 -0.5472
 6614SOL     OW31303   2.041   3.990   3.501  0.0817  0.2868 -0.3861
 6614SOL    HW131304   1.980   3.973   3.429 -2.1405  1.0961  1.2779
 6614SOL    HW231305   2.129   3.981   3.465 -0.3269 -2.7946 -0.6739
 6615SOL     OW31306   3.913   3.855   6.073 -0.3413 -0.1276  0.0033
 6615SOL    HW131307   3.967   3.860   5.994  4.8926 -1.4950  3.4923
 6615SOL    HW231308   3.960   3.927   6.115  0.4868 -1.2514  0.9809
 6616SOL     OW31309   1.771   3.001   3.764  0.3683  0.5718 -0.0081
 6616SOL    HW131310   1.680   2.985   3.739 -0.1966  2.5163  0.7926
 6616SOL    HW231311   1.775   2.959   3.849  0.3435  0.7057  0.0601
 6617SOL     OW31312   2.605   0.960  14.423 -0.1042  0.5202  0.0565
 6617SOL    HW131313   2.555   0.900  14.368 -0.4075  0.3256  0.5375
 6617SOL    HW231314   2.609   1.041  14.373 -0.9617  1.4213  1.4456
 6618SOL     OW31315   3.513   3.770   7.349  0.0274 -0.1722 -0.5407
 6618SOL    HW131316   3.600   3.762   7.388  0.1667  0.7015 -0.6655
 6618SOL    HW231317   3.453   3.756   7.422  0.9620 -0.2281  0.2157
 6619SOL     OW31318   2.068   1.206   4.571 -0.0030 -0.7171  0.1284
 6619SOL    HW131319   2.049   1.147   4.644  2.0995 -0.3400  0.9542
 6619SOL    HW231320   2.126   1.269   4.613  0.7140 -0.7821 -0.7652
 6620SOL     OW31321   4.422   1.188   3.693  0.0112  0.6506 -0.4140
 6620SOL    HW131322   4.496   1.185   3.631  1.0524  2.1808  0.7540
 6620SOL    HW231323   4.448   1.266   3.743  1.6048 -0.1462  0.0028
 6621SOL     OW31324   3.092   1.459   5.498 -0.4723  0.2818 -0.4436
 6621SOL    HW131325   3.135   1.414   5.426 -1.1088  0.2702 -0.8246
 6621SOL    HW231326   3.003   1.449   5.463  0.2221  1.4427 -2.5437
 6622SOL     OW31327   2.984   4.087  11.706  0.0758 -0.1134  0.5061
 6622SOL    HW131328   3.079   4.095  11.695  0.4970 -3.0525  2.0199
 6622SOL    HW231329   2.958   4.155  11.644  0.8308 -0.0845  0.2139
 6623SOL     OW31330   2.012   3.885   6.532 -0.2326  0.2275  0.0907
 6623SOL    HW131331   2.043   3.891   6.622  0.4413  1.9551 -0.2685
 6623SOL    HW231332   2.076   3.938   6.484  1.3333 -0.4492  1.4246
 6624SOL     OW31333   4.471   2.647   1.000 -0.0824  0.2975 -0.0174
 6624SOL    HW131334   4.407   2.681   0.938  1.0778  3.1133  0.3171
 6624SOL    HW231335   4.504   2.564   0.964  1.0123  0.6569  0.1445
 6625SOL     OW31336   4.590   3.208  15.749 -0.2229  0.6067 -0.6466
 6625SOL    HW131337   4.566   3.163  15.667 -1.2321  0.5469 -0.3211
 6625SOL    HW231338   4.535   3.155  15.807 -0.9587  0.7655 -1.1903
 6626SOL     OW31339   2.901   0.519  10.331  0.2238  0.0250  0.2607
 6626SOL    HW131340   2.943   0.455  10.274  0.2202  1.8649 -1.7830
 6626SOL    HW231341   2.856   0.467  10.397  2.0990 -1.6881  0.1879
 6627SOL     OW31342   3.065   0.391   5.546  0.6379 -0.0151 -0.0346
 6627SOL    HW131343   3.126   0.457   5.512  0.0983  0.0171 -0.9097
 6627SOL    HW231344   3.090   0.382   5.638 -1.7988  1.2054  0.7362
 6628SOL     OW31345   0.610   2.812  16.364  0.0112 -0.1248 -0.4540
 6628SOL    HW131346   0.529   2.853  16.397  1.5973 -0.8829  4.3663
 6628SOL    HW231347   0.675   2.861  16.413  0.2317 -0.6957 -0.1713
 6629SOL     OW31348   2.555   1.370   4.450 -0.2279 -0.4251  0.5932
 6629SOL    HW131349   2.619   1.431   4.486 -0.6087 -0.1943  0.8779
 6629SOL    HW231350   2.579   1.374   4.357  2.1532  0.0723  1.2401
 6630SOL     OW31351   4.444   2.550   2.345 -0.2753  0.0284  0.1481
 6630SOL    HW131352   4.425   2.643   2.332 -1.3440  0.1128  2.5129
 6630SOL    HW231353   4.354   2.523   2.358 -0.2619 -0.5704 -0.9380
 6631SOL     OW31354   3.664   1.942   9.946 -0.6686  0.1089  0.3921
 6631SOL    HW131355   3.683   2.015  10.005  0.5532  0.4432 -0.3998
 6631SOL    HW231356   3.718   1.976   9.874 -1.7444 -0.3953 -0.6502
 6632SOL     OW31357   1.093   2.781   1.961  0.1646 -0.0026 -0.1313
 6632SOL    HW131358   1.123   2.871   1.952 -1.8040  0.6376 -0.2349
 6632SOL    HW231359   1.141   2.747   2.036  0.8256  1.0628 -0.0751
 6633SOL     OW31360   3.391   2.212   4.963  0.2373  0.4404 -0.1276
 6633SOL    HW131361   3.370   2.227   5.055  2.1407  2.0952  0.0355
 6633SOL    HW231362   3.396   2.304   4.936 -2.1000  0.4057 -0.6877
 6634SOL     OW31363   1.802   3.556   6.942  0.5394  0.8263  0.1490
 6634SOL    HW131364   1.779   3.616   6.871 -0.5911  0.1919 -0.0251
 6634SOL    HW231365   1.713   3.541   6.975 -0.4905  2.2989 -1.9497
 6635SOL     OW31366   0.202   3.703   2.124 -0.2568  0.2164  0.0530
 6635SOL    HW131367   0.258   3.743   2.058 -2.7132  0.4340 -1.8932
 6635SOL    HW231368   0.114   3.713   2.088 -0.8116  0.3795  1.4604
 6636SOL     OW31369   3.584   1.820   1.852  0.0171 -0.1982  0.2592
 6636SOL    HW131370   3.640   1.867   1.789  0.7568 -0.3377  0.8126
 6636SOL    HW231371   3.506   1.872   1.836  0.1054 -0.3652 -0.7682
 6637SOL     OW31372   2.454   4.418   4.674 -0.4146  0.6836 -0.4737
 6637SOL    HW131373   2.469   4.485   4.608 -3.0274  1.8018  0.0683
 6637SOL    HW231374   2.373   4.381   4.640  0.1564  0.8414 -2.0530
 6638SOL     OW31375   1.545   2.001   9.338 -0.4227 -0.8526  0.2387
 6638SOL    HW131376   1.466   2.010   9.391 -1.2492  4.1680 -1.8237
 6638SOL    HW231377   1.539   1.911   9.306 -0.1997 -1.0436  0.7384
 6639SOL     OW31378   4.473   4.278   1.483  0.2148  0.0513  0.2394
 6639SOL    HW131379   4.512   4.193   1.460 -2.7317 -0.8082 -1.6579
 6639SOL    HW231380   4.462   4.303   1.391 -1.2319  3.2203  1.2673
 6640SOL     OW31381   3.088   3.274   7.927 -0.1123 -0.3792  0.5799
 6640SOL    HW131382   3.117   3.364   7.945  0.2300 -0.3137 -0.3180
 6640SOL    HW231383   3.031   3.249   8.000 -0.3056  1.2831  0.9960
 6641SOL     OW31384   0.930   2.865   9.217 -0.8470  0.4892 -0.0153
 6641SOL    HW131385   0.888   2.916   9.286 -0.2961  1.4562 -0.3944
 6641SOL    HW231386   0.853   2.857   9.160 -1.0671  1.3676  0.1643
 6642SOL     OW31387   1.222   3.477   7.026  0.3953  0.4240 -0.0009
 6642SOL    HW131388   1.213   3.453   6.934  0.0411 -1.1332  0.4482
 6642SOL    HW231389   1.128   3.477   7.042  0.0036 -0.5739 -2.2538
 6643SOL     OW31390   1.656   4.134  11.430  0.0415 -0.0468 -0.0591
 6643SOL    HW131391   1.588   4.101  11.488 -0.5461  0.5257 -0.4312
 6643SOL    HW231392   1.646   4.229  11.435 -1.1186 -0.1538 -0.4684
 6644SOL     OW31393   0.233   3.504   2.823 -0.2021 -0.1932  0.1486
 6644SOL    HW131394   0.300   3.546   2.769 -0.6036  1.2214  0.7560
 6644SOL    HW231395   0.172   3.450   2.773  1.5577 -2.3840  0.3688
 6645SOL     OW31396   2.311   0.248   6.216 -0.1686 -0.3293 -0.0763
 6645SOL    HW131397   2.318   0.233   6.311 -2.2753 -0.3224  0.0864
 6645SOL    HW231398   2.333   0.340   6.204  2.0453 -0.6868  1.2619
 6646SOL     OW31399   4.021   0.020  11.128 -0.2058  0.4262  0.1616
 6646SOL    HW131400   3.984   0.047  11.212  2.5810  0.2357  1.4430
 6646SOL    HW231401   3.940   4.719  11.084 -0.1930  2.7576 -1.0992
 6647SOL     OW31402   4.208   0.187   2.674  0.0207  0.2930  0.1614
 6647SOL    HW131403   4.226   0.216   2.763  0.7907 -0.6830  0.3254
 6647SOL    HW231404   4.196   0.094   2.691 -1.2197  0.0556 -1.9439
 6648SOL     OW31405   4.316   0.205   6.490 -0.0976 -0.1230 -0.0922
 6648SOL    HW131406   4.277   0.130   6.446  0.8803 -1.2609  0.9706
 6648SOL    HW231407   4.398   0.171   6.526  0.0708  0.6419  0.2511
 6649SOL     OW31408   0.727   0.502   7.310 -0.3970  0.0578  0.6710
 6649SOL    HW131409   0.638   0.535   7.297 -1.3062 -2.6823 -0.0401
 6649SOL    HW231410   0.714   0.412   7.281  1.5168  0.7487 -2.3136
 6650SOL     OW31411   1.351   1.201   8.793 -0.1352  0.0319  0.1254
 6650SOL    HW131412   1.383   1.228   8.707 -1.3448  3.2353  0.6722
 6650SOL    HW231413   1.259   1.193   8.767  0.6228 -2.0365 -1.9253
 6651SOL     OW31414   4.531   2.403   0.886  0.3175  0.5280 -0.1069
 6651SOL    HW131415   4.590   2.388   0.812 -1.0311 -1.1072 -0.8534
 6651SOL    HW231416   4.571   2.345   0.950 -0.5047  0.8584  0.6922
 6652SOL     OW31417   0.201   0.721  10.308 -0.2872  0.1640 -0.4553
 6652SOL    HW131418   0.295   0.740  10.301 -0.5567  0.8678 -2.2133
 6652SOL    HW231419   0.181   0.711  10.401  0.3773  1.6230 -0.1497
 6653SOL     OW31420   3.180   1.579  14.716  0.0950 -0.4292 -0.0802
 6653SOL    HW131421   3.229   1.506  14.753 -0.8799 -0.9525  0.1829
 6653SOL    HW231422   3.229   1.653  14.751  0.1672  0.7511 -2.7088
 6654SOL     OW31423   0.581   3.646   7.584  0.3429 -0.0376 -0.3016
 6654SOL    HW131424   0.663   3.680   7.549  0.4604  0.1343  0.1349
 6654SOL    HW231425   0.601   3.599   7.665 -1.0798  1.4045  0.9080
 6655SOL     OW31426   4.037   0.319  11.142 -0.2519  0.1955  0.2254
 6655SOL    HW131427   4.065   0.240  11.096  0.3784  2.1310 -2.6980
 6655SOL    HW231428   4.016   0.388  11.080 -0.1440 -0.5568 -0.6417
 6656SOL     OW31429   0.201   0.786   4.090  0.2866 -0.3639 -0.4243
 6656SOL    HW131430   0.245   0.866   4.062  0.1096  1.0516  3.3500
 6656SOL    HW231431   0.189   0.736   4.010  0.8325  0.5113 -1.0408
 6657SOL     OW31432   1.836   0.881   7.476 -0.0051  0.0549  0.6499
 6657SOL    HW131433   1.884   0.800   7.458 -1.6124 -1.1603  1.8060
 6657SOL    HW231434   1.757   0.858   7.429  0.8203  1.7232 -1.5456
 6658SOL     OW31435   1.392   3.508   5.143  0.2308  0.2488  0.2234
 6658SOL    HW131436   1.413   3.448   5.215  0.9872  2.4381  1.8116
 6658SOL    HW231437   1.313   3.550   5.176 -1.0150 -2.6546  0.9431
 6659SOL     OW31438   4.531   2.369   5.363  0.4964 -0.0889  0.7743
 6659SOL    HW131439   4.470   2.429   5.321  1.7276  0.6782  0.0675
 6659SOL    HW231440   4.499   2.291   5.318  0.0496 -0.0369  1.0038
 6660SOL     OW31441   1.201   4.595  11.305  0.5467  0.4877 -0.5988
 6660SOL    HW131442   1.221   4.578  11.397 -0.5545  0.5026 -0.3463
 6660SOL    HW231443   1.168   4.514  11.266 -0.7956  0.1403  1.2582
 6661SOL     OW31444   0.342   4.296  11.244 -0.0499  0.0744 -0.3750
 6661SOL    HW131445   0.424   4.338  11.269 -0.9412  0.4666  1.9075
 6661SOL    HW231446   0.315   4.247  11.322  0.2948 -0.4971 -0.6167
 6662SOL     OW31447   1.971   0.005   4.097  0.8676 -0.8750  0.2668
 6662SOL    HW131448   1.971   0.091   4.139  1.5932 -0.8286  0.1609
 6662SOL    HW231449   1.977   4.681   4.181 -2.4580 -4.3066 -1.3907
 6663SOL     OW31450   3.616   0.028   4.652 -0.1876  0.4075 -0.3081
 6663SOL    HW131451   3.708   0.009   4.669 -0.3220 -1.4882 -1.6183
 6663SOL    HW231452   3.577   0.015   4.739 -0.4699  0.0251 -0.4886
 6664SOL     OW31453   1.504   1.299   6.013 -0.0423 -0.0421  0.2097
 6664SOL    HW131454   1.549   1.253   5.942  1.6557 -0.4111  1.5592
 6664SOL    HW231455   1.521   1.233   6.079 -1.2485 -0.5140  0.0676
 6665SOL     OW31456   3.012   0.214   5.812 -0.1776 -0.4525 -0.2946
 6665SOL    HW131457   2.942   0.239   5.751  0.2282 -1.0120 -0.9768
 6665SOL    HW231458   3.008   0.286   5.876 -2.8802 -2.2184  1.5540
 6666SOL     OW31459   3.283   1.336  13.128  0.5117 -0.3661  0.0890
 6666SOL    HW131460   3.278   1.265  13.064 -0.0412 -0.8772  0.7101
 6666SOL    HW231461   3.371   1.321  13.164 -0.6646  1.8686  3.8746
 6667SOL     OW31462   0.612   4.636  12.442 -0.0305 -0.4618 -0.1250
 6667SOL    HW131463   0.616   4.560  12.500 -1.0226 -0.9235 -0.6523
 6667SOL    HW231464   0.702   4.642  12.410  0.7135 -0.6544  1.9541
 6668SOL     OW31465   1.324   0.721  13.802 -0.0089  0.4510 -0.3109
 6668SOL    HW131466   1.258   0.656  13.824  2.0952 -1.3342  0.7408
 6668SOL    HW231467   1.356   0.692  13.717 -2.2301  2.3097 -1.7748
 6669SOL     OW31468   2.828   0.053   3.990  0.0841 -0.4780 -0.1936
 6669SOL    HW131469   2.741   0.038   4.026  0.0374  2.1213  0.7501
 6669SOL    HW231470   2.864   4.687   3.991  1.1498 -0.0352  0.5981
 6670SOL     OW31471   1.857   3.874   4.511  0.2936 -0.1132  0.3456
 6670SOL    HW131472   1.767   3.844   4.502  1.3400 -2.9844 -0.6795
 6670SOL    HW231473   1.898   3.842   4.430  0.4485 -0.2034  0.4594
 6671SOL     OW31474   0.454   3.578  11.093 -0.2070  0.1309 -0.1713
 6671SOL    HW131475   0.416   3.587  11.006  1.2986 -1.4376 -1.0069
 6671SOL    HW231476   0.528   3.521  11.070 -0.3119 -0.1828  0.2741
 6672SOL     OW31477   0.787   1.479   0.959  0.5638  0.2356 -0.7009
 6672SOL    HW131478   0.815   1.428   0.883  0.4905 -2.7606  1.3159
 6672SOL    HW231479   0.693   1.469   0.943  0.5821 -1.4691  0.2990
 6673SOL     OW31480   4.191   2.723   6.264  0.0952 -0.0666 -0.4046
 6673SOL    HW131481   4.158   2.733   6.353 -1.8856 -1.0822 -1.0366
 6673SOL    HW231482   4.285   2.711   6.282  0.1944  0.2788 -0.6936
 6674SOL     OW31483   4.408   2.933  13.950  0.7611 -0.8556 -0.2431
 6674SOL    HW131484   4.368   2.932  14.036 -1.3070  1.4321 -1.1789
 6674SOL    HW231485   4.498   2.960  13.971 -0.2715  0.9712  1.8535
 6675SOL     OW31486   1.213   1.267   2.460 -0.1579  0.3832 -0.0073
 6675SOL    HW131487   1.163   1.205   2.407  1.6873  0.0974 -1.4560
 6675SOL    HW231488   1.217   1.213   2.539  1.4345 -1.4076 -1.2935
 6676SOL     OW31489   0.396   3.332   8.718  0.0142 -0.2635  0.0177
 6676SOL    HW131490   0.344   3.410   8.735 -0.1298 -0.2289 -0.5794
 6676SOL    HW231491   0.367   3.296   8.634 -0.1303  1.0430 -0.4813
 6677SOL     OW31492   0.703   2.915   6.975 -0.1474 -0.5515 -0.2575
 6677SOL    HW131493   0.618   2.910   6.931 -0.6470  2.9977  0.3284
 6677SOL    HW231494   0.765   2.924   6.903  1.8833 -3.4664  1.1127
 6678SOL     OW31495   1.604   0.518   3.075  0.6399 -0.4074 -0.2952
 6678SOL    HW131496   1.601   0.472   2.991  1.3290 -0.7100 -0.1570
 6678SOL    HW231497   1.691   0.559   3.073  0.6750 -0.5577 -1.8281
 6679SOL     OW31498   1.753   2.046   4.470 -0.1415  0.4951  0.1713
 6679SOL    HW131499   1.789   2.062   4.383 -0.3477 -0.1580 -0.0344
 6679SOL    HW231500   1.776   2.123   4.522  1.1091 -0.0680  0.4392
 6680SOL     OW31501   2.980   2.095   3.518  0.5677 -0.3469  0.2480
 6680SOL    HW131502   3.065   2.113   3.558 -0.0866  0.3281  1.3546
 6680SOL    HW231503   2.993   2.004   3.491 -2.9164 -1.0546  0.9162
 6681SOL     OW31504   2.200   1.848   3.625 -0.0518 -0.1157  0.1421
 6681SOL    HW131505   2.228   1.862   3.535 -0.4879  0.2578  0.0609
 6681SOL    HW231506   2.142   1.776   3.602 -0.1683 -0.2599  0.8791
 6682SOL     OW31507   0.493   1.608   2.438  0.0155 -0.0378 -0.0451
 6682SOL    HW131508   0.530   1.639   2.355 -1.1616  1.0669 -0.1481
 6682SOL    HW231509   0.549   1.657   2.498  1.7453 -0.6897 -1.1282
 6683SOL     OW31510   2.130   0.686  11.025  0.0779 -0.1832 -0.2080
 6683SOL    HW131511   2.093   0.702  11.112 -0.7504 -0.3336 -0.5335
 6683SOL    HW231512   2.164   0.772  10.998  2.0548 -0.6775  0.6601
 6684SOL     OW31513   1.973   1.221  11.631  0.0859  0.7304 -0.1245
 6684SOL    HW131514   2.064   1.196  11.615 -0.4439 -0.8509 -0.7819
 6684SOL    HW231515   1.976   1.307  11.590  0.7287  1.2690  1.0673
 6685SOL     OW31516   2.080   3.222   7.731 -0.1973 -0.0120 -0.6872
 6685SOL    HW131517   2.075   3.304   7.682 -0.2465 -0.0920 -0.8156
 6685SOL    HW231518   1.997   3.213   7.778  0.2802 -0.5576  0.0478
 6686SOL     OW31519   0.709   3.516   4.512  0.2524  0.1282 -0.3421
 6686SOL    HW131520   0.714   3.515   4.417 -1.4754  2.8557 -0.4714
 6686SOL    HW231521   0.777   3.580   4.532 -0.7809  0.3393  2.4823
 6687SOL     OW31522   4.653   1.218   2.476  0.6131 -0.0111 -0.1282
 6687SOL    HW131523   4.613   1.163   2.409 -0.2153 -2.0617  2.0305
 6687SOL    HW231524   4.698   1.154   2.531  1.4289 -0.8899 -1.8318
 6688SOL     OW31525   3.681   1.461   7.301  0.6714  0.3263  0.6612
 6688SOL    HW131526   3.699   1.525   7.232 -1.4691  1.0098  0.7320
 6688SOL    HW231527   3.627   1.509   7.364  1.3768  1.1481  0.6529
 6689SOL     OW31528   4.460   0.694   1.543 -0.1794  0.3427  0.7726
 6689SOL    HW131529   4.413   0.717   1.462  2.5148 -0.0647 -0.9160
 6689SOL    HW231530   4.542   0.741   1.533 -0.6161  0.4627 -2.2454
 6690SOL     OW31531   0.821   2.172  17.607 -0.3328 -0.1309  0.3560
 6690SOL    HW131532   0.745   2.197  17.659 -0.0947  0.1657  0.5626
 6690SOL    HW231533   0.864   2.123  17.676 -1.9312  1.2846  2.3513
 6691SOL     OW31534   4.629   4.066   2.700  0.3952 -0.3352 -0.1928
 6691SOL    HW131535   4.687   4.007   2.748 -2.1004 -1.4310  1.4828
 6691SOL    HW231536   4.549   4.067   2.752  0.6319  0.3886  0.1606
 6692SOL     OW31537   1.831   4.699  15.661  0.0268 -0.1177  0.6052
 6692SOL    HW131538   1.919   4.722  15.632  0.2340 -1.3288  0.2651
 6692SOL    HW231539   1.802   0.056  15.704 -4.8607 -0.5418 -1.8877
 6693SOL     OW31540   2.241   4.303   7.360 -0.0933 -0.0253 -0.4221
 6693SOL    HW131541   2.310   4.237   7.357 -0.1996 -0.1354 -0.4492
 6693SOL    HW231542   2.228   4.326   7.268  2.3072  0.4087 -0.6517
 6694SOL     OW31543   4.215   0.200   8.298 -0.3581 -0.0531 -0.5133
 6694SOL    HW131544   4.151   0.181   8.366 -1.2540 -0.3541 -1.4553
 6694SOL    HW231545   4.162   0.169   8.225  2.1274  1.9413 -3.1604
 6695SOL     OW31546   1.795   3.182   4.120  0.0385  0.0626  0.5531
 6695SOL    HW131547   1.881   3.215   4.095  0.8429 -1.4127  1.3946
 6695SOL    HW231548   1.805   3.087   4.129 -1.1203 -0.1659 -0.5890
 6696SOL     OW31549   4.651   1.963   1.835  0.1147 -0.0723 -0.2034
 6696SOL    HW131550   4.678   2.051   1.808 -1.8018  1.2138  2.1111
 6696SOL    HW231551   4.717   1.959   1.905  2.4134  0.7774 -2.3232
 6697SOL     OW31552   0.056   3.684   1.321 -0.0291 -0.1839  0.5877
 6697SOL    HW131553   4.717   3.641   1.380  0.5556  0.5146  1.7052
 6697SOL    HW231554   0.076   3.768   1.363  2.3202 -0.4033 -0.0831
 6698SOL     OW31555   1.979   0.092  12.196  0.0692 -0.2256  0.5587
 6698SOL    HW131556   1.919   0.136  12.257 -1.7097 -1.8205 -0.0610
 6698SOL    HW231557   2.011   0.166  12.145  0.1000  2.6032  4.6679
 6699SOL     OW31558   0.091   2.531  17.105 -0.1280  0.2381 -0.5861
 6699SOL    HW131559   0.006   2.565  17.132 -1.2126 -3.0111  0.0840
 6699SOL    HW231560   0.109   2.469  17.175  1.1141  2.4805  1.0659
 6700SOL     OW31561   0.185   0.329   3.133 -0.2120  0.3243  0.6548
 6700SOL    HW131562   0.239   0.274   3.076  0.4184  0.6473  0.9422
 6700SOL    HW231563   0.201   0.419   3.105 -2.5078 -0.0100 -1.7435
 6701SOL     OW31564   3.143   2.609   7.125  0.1933 -0.3965 -0.1081
 6701SOL    HW131565   3.160   2.658   7.206  1.6036  1.2879 -1.4047
 6701SOL    HW231566   3.056   2.571   7.138  0.0118 -0.4397 -1.5264
 6702SOL     OW31567   4.588   2.265  17.202 -0.4560  0.5046 -0.1109
 6702SOL    HW131568   4.494   2.269  17.219 -0.2366  0.2646  1.1681
 6702SOL    HW231569   4.618   2.322  17.273  0.2553 -0.3952  0.3218
 6703SOL     OW31570   1.789   2.614   8.844 -0.2266 -0.2426  0.0151
 6703SOL    HW131571   1.730   2.582   8.776 -0.0788 -0.3970 -0.0414
 6703SOL    HW231572   1.773   2.708   8.844 -0.2766 -0.2556  0.8387
 6704SOL     OW31573   1.609   0.960   7.718 -0.1978  0.9019  0.5714
 6704SOL    HW131574   1.550   1.018   7.766 -3.0208  0.2786 -2.2432
 6704SOL    HW231575   1.633   1.011   7.641 -1.2584  1.6192  0.7253
 6705SOL     OW31576   2.518   1.221   8.340 -0.4377  0.1859  0.0784
 6705SOL    HW131577   2.595   1.167   8.328 -0.0385  0.1947  2.5593
 6705SOL    HW231578   2.459   1.208   8.266  0.8031 -1.0098 -0.6856
 6706SOL     OW31579   3.345   3.506   4.135 -0.4391  0.0153  0.3702
 6706SOL    HW131580   3.432   3.470   4.153  0.8716  2.4796 -1.0061
 6706SOL    HW231581   3.364   3.599   4.126  1.2251 -0.5969 -2.2421
 6707SOL     OW31582   2.824   1.143   7.226  0.1695  0.5907 -0.2485
 6707SOL    HW131583   2.751   1.178   7.174 -0.1001  2.1197  1.1785
 6707SOL    HW231584   2.834   1.059   7.180 -0.9759  0.1998  0.2187
 6708SOL     OW31585   0.673   3.883  12.178  0.3088 -0.4017 -0.0179
 6708SOL    HW131586   0.739   3.833  12.226 -0.0063 -0.0698  0.7509
 6708SOL    HW231587   0.618   3.895  12.255 -0.9750 -1.8541 -0.7096
 6709SOL     OW31588   2.294   3.824  10.959 -0.8124 -0.0544 -0.0473
 6709SOL    HW131589   2.348   3.812  10.880 -1.1981 -1.2458 -0.1320
 6709SOL    HW231590   2.231   3.893  10.937 -0.9209 -0.5111 -1.1864
 6710SOL     OW31591   3.751   1.866   5.988 -0.5274 -0.8331 -0.4074
 6710SOL    HW131592   3.798   1.783   5.998  1.3107  0.0412 -1.8260
 6710SOL    HW231593   3.801   1.932   6.035 -1.6009 -0.5354  0.3316
 6711SOL     OW31594   0.803   3.702   9.964  0.1379  0.1914  0.1965
 6711SOL    HW131595   0.880   3.713  10.020  0.1021  0.2102  0.2432
 6711SOL    HW231596   0.754   3.665  10.038  2.1442 -3.0159 -0.1108
 6712SOL     OW31597   0.911   4.386   0.791 -0.7123 -0.0426 -0.0132
 6712SOL    HW131598   0.821   4.388   0.825 -0.3929 -0.1118  0.8447
 6712SOL    HW231599   0.886   4.340   0.711 -0.5411 -2.1026  1.1154
 6713SOL     OW31600   3.168   0.577   7.830  0.0252  0.3833 -0.1875
 6713SOL    HW131601   3.220   0.499   7.808 -0.1519 -0.7883  3.5626
 6713SOL    HW231602   3.171   0.581   7.925  1.5662  1.8161 -0.3096
 6714SOL     OW31603   1.485   0.044   6.312 -0.0761  0.0066  0.1050
 6714SOL    HW131604   1.531   0.108   6.367 -0.4004  0.1689  0.1893
 6714SOL    HW231605   1.423   0.102   6.268 -0.0880 -0.5644 -0.6278
 6715SOL     OW31606   2.326   1.405  17.452  0.0801  0.0607  0.6154
 6715SOL    HW131607   2.308   1.451  17.534  2.0229 -1.0089  1.6209
 6715SOL    HW231608   2.391   1.465  17.415 -0.2041  0.2813  0.4744
 6716SOL     OW31609   4.224   1.432  12.476  0.5603 -0.0492 -0.0404
 6716SOL    HW131610   4.247   1.397  12.390  0.1207  0.0957 -0.2162
 6716SOL    HW231611   4.299   1.492  12.478  0.9006 -0.4137 -2.1278
 6717SOL     OW31612   1.868   0.103  10.132 -0.6281 -0.3080  0.4029
 6717SOL    HW131613   1.947   0.157  10.144 -1.1472  0.0624  2.2032
 6717SOL    HW231614   1.860   0.121  10.039 -0.4646  3.7508  1.1752
 6718SOL     OW31615   3.114   2.844   8.144 -0.4746  0.0889  0.1771
 6718SOL    HW131616   3.108   2.761   8.192 -0.6989 -0.5695 -0.9874
 6718SOL    HW231617   3.020   2.862   8.131 -0.3660  1.0991  0.8792
 6719SOL     OW31618   2.249   0.958  16.775 -0.0792  0.6588 -0.2506
 6719SOL    HW131619   2.338   0.923  16.763 -1.0617 -1.7310 -0.6433
 6719SOL    HW231620   2.260   1.049  16.802  0.2854  0.8675 -1.0912
 6720SOL     OW31621   3.290   0.394  10.406 -0.0505 -0.2555 -0.0580
 6720SOL    HW131622   3.236   0.391  10.327  0.4134  2.5280 -0.4831
 6720SOL    HW231623   3.285   0.486  10.433  3.0303 -0.3909  1.0096
 6721SOL     OW31624   4.272   2.897   3.494  0.3553 -0.2146  0.1893
 6721SOL    HW131625   4.274   2.805   3.467  0.2625 -0.2646  0.3541
 6721SOL    HW231626   4.190   2.932   3.457  1.2084 -0.3694 -1.8482
 6722SOL     OW31627   1.475   3.903   1.694 -0.5533  0.6017  0.6630
 6722SOL    HW131628   1.474   3.906   1.789 -1.2333 -1.0890  0.7087
 6722SOL    HW231629   1.524   3.823   1.675  1.4952  2.0265 -0.1103
 6723SOL     OW31630   1.408   3.253   3.603  0.3396 -0.1916  0.3071
 6723SOL    HW131631   1.429   3.182   3.543 -0.1401  0.0754 -0.1833
 6723SOL    HW231632   1.471   3.322   3.579 -1.2089  1.4669  0.9880
 6724SOL     OW31633   1.263   0.688   1.516 -0.1475  0.6068 -0.5652
 6724SOL    HW131634   1.213   0.743   1.455  0.2032  1.5537  0.0044
 6724SOL    HW231635   1.326   0.755   1.543 -1.2406  0.4956  2.2642
 6725SOL     OW31636   0.082   0.489   5.102 -0.2939 -0.1948  0.2138
 6725SOL    HW131637   0.126   0.404   5.105 -0.2978 -0.1781  0.7303
 6725SOL    HW231638   0.036   0.487   5.018  0.4909 -0.1505 -0.2218
 6726SOL     OW31639   3.971   2.887   3.742 -0.3687  0.0146 -0.4778
 6726SOL    HW131640   3.913   2.962   3.731  1.0860  1.4504  1.6736
 6726SOL    HW231641   4.052   2.930   3.769  0.1455  1.2653 -4.1576
 6727SOL     OW31642   1.658   0.243  10.272 -0.2383 -0.1045  0.1746
 6727SOL    HW131643   1.722   0.204  10.213  0.1716 -2.6539  2.3110
 6727SOL    HW231644   1.605   0.165  10.287 -1.3811  0.5798 -0.3109
 6728SOL     OW31645   1.455   4.405   2.840  0.0468  0.3888 -0.9268
 6728SOL    HW131646   1.495   4.490   2.823  1.1433  0.1496  0.4452
 6728SOL    HW231647   1.371   4.448   2.856 -0.1626  0.0446 -1.0933
 6729SOL     OW31648   4.366   2.779   2.666  0.3485  0.6864  0.1678
 6729SOL    HW131649   4.281   2.770   2.623 -0.1940 -1.8197  1.7200
 6729SOL    HW231650   4.404   2.853   2.618 -0.0298  0.8800  0.1633
 6730SOL     OW31651   2.230   1.349   7.599 -0.7110  0.1866  0.0626
 6730SOL    HW131652   2.142   1.334   7.563 -0.8898  1.5242 -0.0526
 6730SOL    HW231653   2.237   1.274   7.658 -0.6830  2.3367  2.7825
 6731SOL     OW31654   0.526   3.594   3.409  0.2965  0.2092  0.6277
 6731SOL    HW131655   0.509   3.591   3.315 -0.2965 -4.7319  0.8838
 6731SOL    HW231656   0.567   3.511   3.434  0.6655  0.1126 -0.3065
 6732SOL     OW31657   1.561   1.316   2.769  0.2419 -0.6278  0.2280
 6732SOL    HW131658   1.598   1.358   2.691 -0.9528 -0.6753 -0.3586
 6732SOL    HW231659   1.583   1.384   2.834  1.7266 -1.6443  0.7989
 6733SOL     OW31660   0.349   1.922  11.857 -0.3844  0.2278 -0.2848
 6733SOL    HW131661   0.287   1.864  11.903  0.9650  0.5918  2.0186
 6733SOL    HW231662   0.430   1.872  11.869 -1.0389 -0.7253  0.2367
 6734SOL     OW31663   3.034   1.816   2.949  0.1110  0.1468  0.4107
 6734SOL    HW131664   3.037   1.721   2.942  3.3156  0.3192 -0.7247
 6734SOL    HW231665   2.946   1.853   2.941  0.2323  0.3296 -0.1139
 6735SOL     OW31666   2.532   2.716   0.917  0.2097 -0.0286 -0.6654
 6735SOL    HW131667   2.457   2.664   0.888 -0.2877  0.5915 -0.4958
 6735SOL    HW231668   2.491   2.757   0.993  0.6028  1.2764 -1.1390
 6736SOL     OW31669   4.367   2.314   9.339 -0.3547  0.9090  0.0891
 6736SOL    HW131670   4.278   2.331   9.368 -0.5970 -1.5209  0.7764
 6736SOL    HW231671   4.421   2.342   9.413 -2.4083  0.4007  1.7589
 6737SOL     OW31672   3.668   1.008  16.348 -0.0503  0.1208  0.0779
 6737SOL    HW131673   3.717   0.983  16.270  1.3495  0.6903  0.7469
 6737SOL    HW231674   3.594   0.948  16.352 -0.4455  0.6987  1.8171
 6738SOL     OW31675   3.786   1.731   3.932  0.4493  0.1774  0.0563
 6738SOL    HW131676   3.855   1.793   3.958 -0.5429  1.3814 -0.1924
 6738SOL    HW231677   3.834   1.649   3.926  1.2054  0.6830 -0.7182
 6739SOL     OW31678   1.529   1.278   5.327 -0.5239 -0.3792  0.3449
 6739SOL    HW131679   1.480   1.291   5.408 -0.4831  1.6017  0.0446
 6739SOL    HW231680   1.603   1.220   5.349  0.4716  0.5718 -0.4994
 6740SOL     OW31681   0.170   3.953  10.239  0.4128  0.5007 -0.0004
 6740SOL    HW131682   0.082   3.936  10.271  1.0804 -1.3111  0.9131
 6740SOL    HW231683   0.187   4.046  10.251  0.5698  0.4840 -0.0855
 6741SOL     OW31684   3.510   1.627   3.261 -0.0748  0.6056 -0.8378
 6741SOL    HW131685   3.552   1.613   3.176 -0.9045  0.0116 -1.1516
 6741SOL    HW231686   3.417   1.634   3.241 -0.1412  0.5623 -0.5460
 6742SOL     OW31687   0.674   0.711   3.005 -0.2198 -0.7703  0.1234
 6742SOL    HW131688   0.696   0.773   2.935  0.3657  0.0913  1.0530
 6742SOL    HW231689   0.605   0.752   3.058  0.3088  0.0104  0.2135
 6743SOL     OW31690   1.795   3.289  12.043 -0.2798 -0.1136 -0.4538
 6743SOL    HW131691   1.736   3.324  12.109 -0.1086  0.4593 -0.6026
 6743SOL    HW231692   1.877   3.308  12.089  0.9298  0.5327 -2.8579
 6744SOL     OW31693   0.702   0.292  10.058  0.2609 -0.4340  0.9721
 6744SOL    HW131694   0.625   0.237  10.040 -0.6449  1.3035 -0.5178
 6744SOL    HW231695   0.670   0.357  10.120 -0.5742  0.7710 -0.7108
 6745SOL     OW31696   2.709   3.787  10.857  0.4256 -0.1275  0.4366
 6745SOL    HW131697   2.660   3.746  10.929 -1.9449  1.8624 -0.0333
 6745SOL    HW231698   2.794   3.792  10.901 -0.5191  2.3566  1.9519
 6746SOL     OW31699   2.493   2.261   5.537 -0.1577  0.2253  0.4831
 6746SOL    HW131700   2.412   2.217   5.510 -0.4503  2.2701 -1.9925
 6746SOL    HW231701   2.490   2.245   5.632 -1.5894  0.7610  0.5247
 6747SOL     OW31702   4.200   0.090   6.253 -0.3690  0.0848 -0.2857
 6747SOL    HW131703   4.151   0.150   6.197 -2.2661  0.3233  1.6691
 6747SOL    HW231704   4.148   0.010   6.251  0.0702 -0.1891 -0.9753
 6748SOL     OW31705   0.999   0.346  13.687  0.2321  0.2670 -0.1117
 6748SOL    HW131706   1.067   0.362  13.753  1.0602  0.7511 -1.0742
 6748SOL    HW231707   0.967   0.437  13.687 -0.6378 -0.0390  0.1638
 6749SOL     OW31708   0.780   1.765   6.251 -0.1535  0.2639  0.1115
 6749SOL    HW131709   0.861   1.806   6.222  0.5618 -0.2350  1.3655
 6749SOL    HW231710   0.803   1.735   6.339  1.3925  0.3080 -0.2912
 6750SOL     OW31711   3.085   2.117   9.366  0.3804  0.0669 -0.6636
 6750SOL    HW131712   3.124   2.053   9.426 -0.6839 -0.2111 -0.2741
 6750SOL    HW231713   2.999   2.079   9.346  1.1488 -2.0829  0.0688
 6751SOL     OW31714   3.177   2.899  12.544 -0.5945 -0.4691  0.0393
 6751SOL    HW131715   3.167   2.822  12.488  0.3088 -0.8371  0.3767
 6751SOL    HW231716   3.229   2.957  12.489  0.6455 -1.8700 -0.2800
 6752SOL     OW31717   1.423   0.757   9.597  0.0272 -0.1581 -0.3797
 6752SOL    HW131718   1.508   0.723   9.567  0.3568  0.3736 -0.0363
 6752SOL    HW231719   1.365   0.753   9.521  1.3369  0.1453 -1.3930
 6753SOL     OW31720   1.485   0.777   3.527  0.6726  0.5143 -0.4589
 6753SOL    HW131721   1.438   0.712   3.476  2.7612 -2.3479  1.2863
 6753SOL    HW231722   1.405   0.823   3.552 -0.6831 -0.8742 -2.2550
 6754SOL     OW31723   4.186   1.282   4.306  0.6448  0.3047 -0.4298
 6754SOL    HW131724   4.240   1.290   4.227  1.6873 -1.1419  0.1435
 6754SOL    HW231725   4.108   1.257   4.256 -0.4671 -1.2812  2.1275
 6755SOL     OW31726   2.048   4.214   8.536 -0.1837 -0.3285  0.1799
 6755SOL    HW131727   1.989   4.239   8.607 -1.6414 -0.5025 -0.9719
 6755SOL    HW231728   2.053   4.292   8.480 -1.4900  0.0926  0.6648
 6756SOL     OW31729   1.179   4.321  11.701  0.0392  0.3957 -0.7478
 6756SOL    HW131730   1.260   4.371  11.715  0.7613 -0.0495 -3.2858
 6756SOL    HW231731   1.153   4.317  11.793  0.2991  2.4039 -0.5693
 6757SOL     OW31732   3.414   3.471   3.428 -0.3703 -0.6368 -0.0286
 6757SOL    HW131733   3.327   3.509   3.416  0.5996  1.1051 -1.6061
 6757SOL    HW231734   3.464   3.521   3.364  0.2218 -1.2827 -0.0688
 6758SOL     OW31735   0.592   3.456   7.377 -0.1964  0.2560 -0.4831
 6758SOL    HW131736   0.620   3.373   7.415 -2.5061 -0.1576  0.3051
 6758SOL    HW231737   0.586   3.517   7.451  0.4418  0.6465 -0.7478
 6759SOL     OW31738   0.438   0.903   7.893 -0.4389 -0.0456 -0.3887
 6759SOL    HW131739   0.530   0.903   7.918 -0.5696  3.2675  0.1471
 6759SOL    HW231740   0.456   0.932   7.803  1.7897  0.3846  0.2141
 6760SOL     OW31741   3.893   3.151   8.111 -0.0672  0.2389 -0.0924
 6760SOL    HW131742   3.824   3.088   8.087  1.1755 -1.2847  0.3096
 6760SOL    HW231743   3.882   3.131   8.204  1.8021  2.7845  0.6597
 6761SOL     OW31744   3.188   0.336   3.147  0.2425  0.0720  0.4550
 6761SOL    HW131745   3.195   0.392   3.225  0.0018 -1.0079  1.2626
 6761SOL    HW231746   3.098   0.349   3.119 -0.3152  0.2977  2.3565
 6762SOL     OW31747   3.488   4.699   6.128 -0.6888  0.1776 -0.3433
 6762SOL    HW131748   3.420   4.692   6.061  0.5840  0.1522 -1.6183
 6762SOL    HW231749   3.502   4.607   6.147 -0.1227  0.0735 -1.2839
 6763SOL     OW31750   3.457   3.755   4.129 -0.2951 -0.5367 -0.5986
 6763SOL    HW131751   3.449   3.838   4.176 -0.5371 -1.3248  0.7340
 6763SOL    HW231752   3.481   3.796   4.046  1.4717  1.2820  0.8196
 6764SOL     OW31753   0.398   3.861  11.168 -0.0353 -0.2755  0.8527
 6764SOL    HW131754   0.466   3.823  11.112  1.5120  2.7931  0.6296
 6764SOL    HW231755   0.400   3.949  11.131  0.4256 -0.8041 -0.3761
 6765SOL     OW31756   4.700   2.436   2.377  0.7363  0.1603 -0.0231
 6765SOL    HW131757   4.605   2.447   2.376  0.7049 -0.2172 -1.1876
 6765SOL    HW231758   0.016   2.497   2.314 -0.7425  0.0533 -1.0364
 6766SOL     OW31759   1.854   1.676   4.107 -0.5859  0.5859  0.1355
 6766SOL    HW131760   1.907   1.603   4.138 -1.9252 -0.7386 -0.7122
 6766SOL    HW231761   1.803   1.694   4.186 -0.4732  1.6638 -0.0365
 6767SOL     OW31762   0.080   4.141   6.338  0.5456 -0.4147  0.6856
 6767SOL    HW131763   0.088   4.146   6.243 -2.4181 -1.6035  0.3655
 6767SOL    HW231764   0.169   4.135   6.371  0.9510 -3.7927 -1.1482
 6768SOL     OW31765   0.164   4.363   2.390  0.1583  0.2452 -0.0185
 6768SOL    HW131766   0.168   4.451   2.428 -1.9744 -0.3291  1.5362
 6768SOL    HW231767   0.170   4.314   2.472  2.6545  1.4594  0.5287
 6769SOL     OW31768   2.971   3.865   9.172  0.1071 -0.3017 -0.6552
 6769SOL    HW131769   2.883   3.856   9.136 -0.6862  2.9849  0.3861
 6769SOL    HW231770   2.955   3.827   9.258  1.3305  1.2723  0.2726
 6770SOL     OW31771   4.281   2.283  12.060  0.1870 -0.1158 -0.1570
 6770SOL    HW131772   4.234   2.363  12.085  0.6425  0.0805  0.0943
 6770SOL    HW231773   4.373   2.305  12.079  0.5337 -1.2674 -0.5199
 6771SOL     OW31774   2.660   1.730   2.253 -0.7050 -0.7419  0.7343
 6771SOL    HW131775   2.654   1.807   2.310  0.0240 -0.6093  0.6323
 6771SOL    HW231776   2.689   1.769   2.170 -1.5586  0.3798  0.9487
 6772SOL     OW31777   2.553   3.527  11.794 -0.1324 -0.0330  0.2708
 6772SOL    HW131778   2.559   3.606  11.848 -0.9406 -1.9247  3.0888
 6772SOL    HW231779   2.542   3.564  11.706 -0.8536 -1.2170 -0.1391
 6773SOL     OW31780   3.943   2.068  10.343 -0.4823 -0.3291  0.0245
 6773SOL    HW131781   3.937   2.163  10.349  0.3097 -0.4290  2.1132
 6773SOL    HW231782   3.938   2.045  10.435 -0.0045  0.4535  0.2472
 6774SOL     OW31783   0.399   3.558   3.156  0.1443  0.6288 -0.6927
 6774SOL    HW131784   0.370   3.487   3.214 -0.6133 -0.4013 -2.3177
 6774SOL    HW231785   0.341   3.631   3.173  0.1649  0.7141 -0.9935
 6775SOL     OW31786   1.194   1.457   4.666  0.8386 -0.2442 -0.5004
 6775SOL    HW131787   1.179   1.363   4.657 -1.1886  0.2883 -2.5692
 6775SOL    HW231788   1.103   1.486   4.663  1.3322  1.0546 -2.6344
 6776SOL     OW31789   2.832   2.523   9.971 -0.0985 -0.3021 -0.2277
 6776SOL    HW131790   2.889   2.544   9.897 -0.4360 -1.2854 -0.7699
 6776SOL    HW231791   2.818   2.598  10.028  1.6593  0.8997 -1.3489
 6777SOL     OW31792   3.115   2.777   6.728 -0.1979 -0.1062  0.0760
 6777SOL    HW131793   3.115   2.869   6.702 -0.2645 -0.3048 -0.6265
 6777SOL    HW231794   3.187   2.781   6.791  0.6402  2.9489 -1.0840
 6778SOL     OW31795   3.708   3.275   9.038 -0.0509  0.1364  0.3640
 6778SOL    HW131796   3.618   3.242   9.040  0.5098 -1.4016  0.2193
 6778SOL    HW231797   3.690   3.368   9.023  2.4876  0.3454 -1.3402
 6779SOL     OW31798   2.458   1.052   5.443  0.2880 -0.5805  0.1234
 6779SOL    HW131799   2.509   1.124   5.479 -2.0281  1.1967 -0.1368
 6779SOL    HW231800   2.522   1.005   5.390 -0.5720 -1.1216 -0.4489
 6780SOL     OW31801   0.011   0.754   2.220  0.1219 -0.5497 -0.2926
 6780SOL    HW131802   0.068   0.683   2.250  0.9378 -1.0628 -3.0385
 6780SOL    HW231803   4.644   0.723   2.227  0.8595 -2.7002 -0.4009
 6781SOL     OW31804   1.233   4.412  11.957  0.1006  0.2350  0.2810
 6781SOL    HW131805   1.283   4.449  12.029 -0.2452  0.7968  0.2336
 6781SOL    HW231806   1.198   4.334  11.999  0.8452 -0.9753 -1.3623
 6782SOL     OW31807   3.721   2.243  10.462 -0.3251 -0.1457  0.3055
 6782SOL    HW131808   3.742   2.217  10.552  0.4981 -0.4241  0.0382
 6782SOL    HW231809   3.703   2.337  10.470 -0.5418 -0.0086 -1.9299
 6783SOL     OW31810   1.758   4.245   2.286  0.3216 -0.3495  0.0055
 6783SOL    HW131811   1.673   4.275   2.252  0.9956 -1.0831 -2.2963
 6783SOL    HW231812   1.741   4.240   2.380  3.0905 -0.6560  0.4913
 6784SOL     OW31813   2.082   1.059   3.946 -0.0291  0.0167 -0.0215
 6784SOL    HW131814   2.137   1.028   3.874 -0.6634 -0.5302 -0.2648
 6784SOL    HW231815   2.043   1.140   3.913 -1.9814 -1.3826 -1.1532
 6785SOL     OW31816   3.146   0.970  10.629  0.1543  0.0881  0.6965
 6785SOL    HW131817   3.067   1.024  10.634 -0.2640 -0.5952  1.6452
 6785SOL    HW231818   3.210   1.041  10.640  1.4841 -0.9035 -0.7475
 6786SOL     OW31819   3.259   0.525  17.083  0.7304  0.0388  0.4033
 6786SOL    HW131820   3.199   0.465  17.039  0.0272 -0.3196  1.8590
 6786SOL    HW231821   3.196   0.594  17.102  0.5775 -0.3259  1.1993
 6787SOL     OW31822   1.544   0.569   5.560  0.1732  0.0187 -0.1586
 6787SOL    HW131823   1.537   0.650   5.610  0.7681  0.7692 -1.2804
 6787SOL    HW231824   1.487   0.595   5.487 -1.0772  2.2403  1.6310
 6788SOL     OW31825   2.709   1.747   6.134 -0.0284  0.5415  0.5991
 6788SOL    HW131826   2.678   1.766   6.045 -2.5283  2.2415  1.8389
 6788SOL    HW231827   2.755   1.663   6.131 -1.0064  0.0436 -0.6976
 6789SOL     OW31828   4.117   3.516   5.685  0.1855  0.3357 -0.1286
 6789SOL    HW131829   4.181   3.586   5.698 -0.3312  0.3070  2.5697
 6789SOL    HW231830   4.039   3.540   5.734 -1.0174 -0.1583 -1.8376
 6790SOL     OW31831   0.182   1.303   1.311 -0.6802  0.0783  0.6662
 6790SOL    HW131832   0.234   1.223   1.308  1.6531  1.5042  2.8926
 6790SOL    HW231833   0.120   1.274   1.378  0.5626 -1.6614  1.0815
 6791SOL     OW31834   1.732   3.665   3.179  0.4596  0.6648 -0.2281
 6791SOL    HW131835   1.712   3.719   3.102  0.0121 -1.2674 -1.4760
 6791SOL    HW231836   1.654   3.693   3.228  0.2937 -0.8596  0.3698
 6792SOL     OW31837   3.565   2.056  16.913  0.2810 -0.2493 -0.2127
 6792SOL    HW131838   3.550   1.966  16.884  3.5408 -1.1671  0.9914
 6792SOL    HW231839   3.504   2.112  16.864  2.5063 -0.8916 -3.7434
 6793SOL     OW31840   2.010   4.577   6.141 -0.4935  0.4329  0.4773
 6793SOL    HW131841   2.055   4.524   6.206  0.8107 -1.4300 -1.9129
 6793SOL    HW231842   2.082   4.586   6.079  0.3511 -2.3955  1.0573
 6794SOL     OW31843   0.022   2.595   7.160 -0.0230  0.1441 -0.0273
 6794SOL    HW131844   0.096   2.549   7.121 -0.8453 -1.7914  0.6871
 6794SOL    HW231845   4.704   2.615   7.075 -2.1585 -0.1653  0.9155
 6795SOL     OW31846   2.135   4.045   6.169  0.4201  0.3425 -0.0041
 6795SOL    HW131847   2.055   4.010   6.131 -0.5512  2.2649  0.3157
 6795SOL    HW231848   2.185   4.074   6.093 -1.6305 -3.1337 -2.6388
 6796SOL     OW31849   1.161   3.699   6.685 -0.2636 -0.2064  0.6345
 6796SOL    HW131850   1.116   3.726   6.765  1.0705  0.3800  1.1887
 6796SOL    HW231851   1.091   3.684   6.622 -0.8600  0.4353  1.1453
 6797SOL     OW31852   3.287   4.423   2.763  0.1892 -0.3056  0.2279
 6797SOL    HW131853   3.223   4.494   2.759 -1.5342 -1.7902  1.3926
 6797SOL    HW231854   3.334   4.424   2.680 -0.6503 -0.1840 -0.2435
 6798SOL     OW31855   3.722   1.130   4.791  0.7069  0.0690  0.0832
 6798SOL    HW131856   3.726   1.094   4.880  2.3330 -1.3875 -0.5755
 6798SOL    HW231857   3.653   1.195   4.800 -1.8259 -2.4767 -1.1280
 6799SOL     OW31858   3.314   2.561   1.932  0.0454  0.4425 -0.0301
 6799SOL    HW131859   3.291   2.653   1.921 -0.3312  0.0393 -2.8505
 6799SOL    HW231860   3.256   2.512   1.991 -0.1052 -0.8945 -1.2628
 6800SOL     OW31861   0.567   1.730  16.250  0.2291  0.0981 -1.0078
 6800SOL    HW131862   0.571   1.636  16.265 -1.8857 -0.0490 -1.3754
 6800SOL    HW231863   0.641   1.747  16.191 -0.0267 -0.2563 -1.4340
 6801SOL     OW31864   3.425   4.259  14.264 -0.2874  0.1856  0.1035
 6801SOL    HW131865   3.373   4.211  14.199  4.0509  0.6717 -3.6819
 6801SOL    HW231866   3.401   4.212  14.344 -1.4395 -0.4483 -0.6213
 6802SOL     OW31867   1.579   3.446  13.755  0.2408  0.6979  0.7244
 6802SOL    HW131868   1.673   3.451  13.738  0.7538 -1.6017  2.9393
 6802SOL    HW231869   1.553   3.468  13.666  0.6869  1.3842  0.7629
 6803SOL     OW31870   0.378   1.025   4.067  0.7090 -0.1616 -0.7857
 6803SOL    HW131871   0.338   1.103   4.028 -0.7922 -0.1476  0.7938
 6803SOL    HW231872   0.392   1.062   4.154 -0.6943  1.8791 -1.4049
 6804SOL     OW31873   2.451   0.764   2.847 -0.0835  0.5092 -0.1383
 6804SOL    HW131874   2.503   0.747   2.768  1.1005 -2.8484  1.3283
 6804SOL    HW231875   2.418   0.853   2.837 -2.1421 -0.4829 -2.2719
 6805SOL     OW31876   1.260   3.857   2.658  0.8225 -0.0257  0.1150
 6805SOL    HW131877   1.192   3.822   2.715  1.9574 -0.6472  1.0821
 6805SOL    HW231878   1.226   3.946   2.648  0.2396 -0.1356  1.1279
 6806SOL     OW31879   2.738   1.957   0.203  0.5784  0.1082  0.2046
 6806SOL    HW131880   2.788   1.940   0.124 -2.5809 -1.3284 -1.4717
 6806SOL    HW231881   2.722   1.871   0.243  1.1407  0.1337  0.4871
 6807SOL     OW31882   1.485   4.059   6.558  0.0527 -0.3134 -0.3449
 6807SOL    HW131883   1.477   4.154   6.551 -1.4219 -0.0080  5.0069
 6807SOL    HW231884   1.579   4.045   6.564  0.7068  4.1851  0.3517
 6808SOL     OW31885   3.395   2.675  14.731 -0.4504 -0.3016 -0.2415
 6808SOL    HW131886   3.457   2.609  14.761  0.1387 -0.2948 -1.4635
 6808SOL    HW231887   3.458   2.733  14.689  0.4594 -0.6305  0.6579
 6809SOL     OW31888   1.261   2.059   4.142 -0.5671  0.1996 -0.0178
 6809SOL    HW131889   1.181   2.111   4.139 -2.1128 -2.0256  3.4922
 6809SOL    HW231890   1.249   2.019   4.228 -1.8588 -0.7184 -0.6337
 6810SOL     OW31891   3.132   4.079   9.149  0.0187  0.0139 -0.4031
 6810SOL    HW131892   3.177   4.077   9.234 -1.4082  1.1523  0.3846
 6810SOL    HW231893   3.081   3.999   9.136  0.2510 -0.0572 -0.8707
 6811SOL     OW31894   1.598   0.899   1.240  0.7206 -0.6816  0.3951
 6811SOL    HW131895   1.659   0.919   1.169 -0.5304 -2.6037 -1.2185
 6811SOL    HW231896   1.591   0.805   1.230 -0.7454 -0.6899  1.5119
 6812SOL     OW31897   1.158   0.988   7.467 -0.7544 -0.3349  0.1722
 6812SOL    HW131898   1.114   0.935   7.400 -0.0348 -2.7351  1.5725
 6812SOL    HW231899   1.173   0.913   7.525 -2.2501 -2.0060 -1.5962
 6813SOL     OW31900   0.367   0.073   1.267 -0.5317  0.1250  0.7535
 6813SOL    HW131901   0.359   4.700   1.272 -1.1282  0.1098 -0.3471
 6813SOL    HW231902   0.457   0.079   1.299  0.2914  0.8892 -1.7145
 6814SOL     OW31903   1.930   0.597   3.239  0.1983  0.3371  0.1622
 6814SOL    HW131904   1.859   0.558   3.290  0.1707  0.1297 -0.0366
 6814SOL    HW231905   1.987   0.619   3.313 -0.3221 -0.0147  0.6672
 6815SOL     OW31906   0.553   0.747   7.059 -0.3095  0.2341  0.3973
 6815SOL    HW131907   0.637   0.703   7.057 -0.4881 -0.0983  0.3117
 6815SOL    HW231908   0.568   0.820   6.998 -0.4614 -1.1236 -1.2452
 6816SOL     OW31909   2.216   0.824  17.393 -0.0173 -0.4973 -0.1085
 6816SOL    HW131910   2.150   0.805  17.327  2.4070 -0.9404 -2.3915
 6816SOL    HW231911   2.158   0.850  17.465 -0.8419  0.5580 -1.1567
 6817SOL     OW31912   1.879   0.745   3.990 -0.3696 -0.0587 -0.2508
 6817SOL    HW131913   1.823   0.706   4.058 -1.1437  1.7377  0.1414
 6817SOL    HW231914   1.933   0.799   4.048  1.2408 -0.8346 -1.0044
 6818SOL     OW31915   0.311   2.284   3.599 -0.6435  0.2970  0.4727
 6818SOL    HW131916   0.243   2.348   3.624 -0.1833  0.0652  2.2679
 6818SOL    HW231917   0.376   2.354   3.588  0.4300 -0.8222 -0.2383
 6819SOL     OW31918   1.261   1.544   7.545  0.2465 -0.4275 -0.2853
 6819SOL    HW131919   1.226   1.628   7.573 -3.7213 -1.2578 -2.7962
 6819SOL    HW231920   1.213   1.473   7.588  2.6031 -1.6317  0.3914
 6820SOL     OW31921   2.245   1.981   0.220  0.9922  1.0082 -0.4553
 6820SOL    HW131922   2.258   1.987   0.315 -1.1425  1.8918 -0.2418
 6820SOL    HW231923   2.155   1.951   0.209  1.4502 -0.9909  1.1174
 6821SOL     OW31924   2.581   4.483  10.922  0.4074 -0.0790  0.1731
 6821SOL    HW131925   2.677   4.486  10.921  0.4311 -0.9448 -0.7866
 6821SOL    HW231926   2.564   4.534  11.001 -0.7924  0.6785 -0.5783
 6822SOL     OW31927   2.741   0.969  12.994 -0.4482 -0.0555 -0.3955
 6822SOL    HW131928   2.656   0.953  12.953 -0.3575 -0.6752 -0.3317
 6822SOL    HW231929   2.720   0.921  13.074  2.3246  1.2274  1.1087
 6823SOL     OW31930   0.613   1.468   0.229 -0.4880 -0.5594 -0.4945
 6823SOL    HW131931   0.626   1.563   0.231  3.2384 -1.0834 -0.5667
 6823SOL    HW231932   0.623   1.447   0.322  0.0771  1.7274 -0.0443
 6824SOL     OW31933   1.107   0.256   4.170 -0.3841 -0.8691 -0.0236
 6824SOL    HW131934   1.091   0.231   4.079 -0.5193 -0.0833 -0.2147
 6824SOL    HW231935   1.048   0.193   4.210 -2.0644  0.3364 -0.5797
 6825SOL     OW31936   3.128   4.661   6.211 -0.9286 -0.4066  0.3727
 6825SOL    HW131937   3.220   4.667   6.235 -0.8068  0.9984 -0.4568
 6825SOL    HW231938   3.103   4.589   6.269 -0.5293 -0.7832  0.0618
 6826SOL     OW31939   1.634   3.733  16.397  0.0174  0.2114 -0.6705
 6826SOL    HW131940   1.550   3.745  16.353  0.8727  0.4787 -2.2250
 6826SOL    HW231941   1.686   3.701  16.323  1.3874  1.1291 -0.1187
 6827SOL     OW31942   2.064   2.816   6.923 -0.0342 -0.0644  0.2414
 6827SOL    HW131943   2.159   2.813   6.935 -0.1253 -0.5960  0.8799
 6827SOL    HW231944   2.058   2.804   6.828 -1.8671  0.8283  0.2531
 6828SOL     OW31945   3.028   2.284   9.784  0.0767  0.1199  0.7240
 6828SOL    HW131946   3.113   2.328   9.777 -1.3381  2.4484 -1.7877
 6828SOL    HW231947   3.045   2.198   9.746  0.7721  0.5939 -0.0354
 6829SOL     OW31948   2.324   2.967  12.205 -1.0705  0.2470 -0.1818
 6829SOL    HW131949   2.343   2.999  12.293 -0.2820 -0.3146 -0.1459
 6829SOL    HW231950   2.229   2.956  12.195 -0.7851 -1.6120 -0.8736
 6830SOL     OW31951   0.201   3.940   4.779  0.1991  0.5438 -0.5366
 6830SOL    HW131952   0.116   3.981   4.759  0.0554  0.9290  0.8285
 6830SOL    HW231953   0.242   4.027   4.783 -2.6562  1.8529  0.3719
 6831SOL     OW31954   3.721   0.123   6.712 -0.5867 -0.0928  0.7752
 6831SOL    HW131955   3.629   0.100   6.724 -0.4987 -1.3499 -0.9839
 6831SOL    HW231956   3.746   0.142   6.802 -0.9012 -1.3585  1.1152
 6832SOL     OW31957   4.261   2.156   6.578 -0.8555  0.1742  0.2517
 6832SOL    HW131958   4.198   2.136   6.647 -0.9967 -0.7308 -0.1320
 6832SOL    HW231959   4.258   2.251   6.587 -0.9369  0.3977 -2.0971
 6833SOL     OW31960   3.970   0.247   5.490 -0.0564  0.2187  0.3709
 6833SOL    HW131961   3.931   0.327   5.454  4.0553  1.5861 -1.0368
 6833SOL    HW231962   4.035   0.294   5.542 -1.0067  0.0039  1.7737
 6834SOL     OW31963   4.057   4.378   8.713  0.7850 -0.8861  0.3741
 6834SOL    HW131964   4.149   4.384   8.689  0.3398  2.3755 -0.4383
 6834SOL    HW231965   4.046   4.283   8.712 -0.6632 -0.7217  0.3527
 6835SOL     OW31966   2.800   0.089   2.693  0.0632  0.4663 -0.0618
 6835SOL    HW131967   2.816   0.023   2.760  1.2852 -0.3282 -1.1344
 6835SOL    HW231968   2.757   0.157   2.744  0.0359  0.3148  0.1177
 6836SOL     OW31969   0.882   2.067   6.820  0.0777  0.2162 -0.3504
 6836SOL    HW131970   0.849   2.122   6.891  0.8320 -1.0541  1.0056
 6836SOL    HW231971   0.915   2.132   6.758 -2.2447 -0.7144 -2.5607
 6837SOL     OW31972   3.891   0.372   7.352  0.4094  0.1662 -0.7035
 6837SOL    HW131973   3.874   0.443   7.415 -0.3000 -2.3582  1.9809
 6837SOL    HW231974   3.877   0.286   7.391  1.1880  0.4290  0.1666
 6838SOL     OW31975   4.579   1.316   7.570 -0.8820  0.2468  0.0978
 6838SOL    HW131976   4.651   1.335   7.509 -0.2192  0.8721  1.0585
 6838SOL    HW231977   4.591   1.222   7.580  0.8017  0.4170 -0.3082
 6839SOL     OW31978   0.679   1.051   3.039 -0.3216 -0.1992 -0.1106
 6839SOL    HW131979   0.760   1.058   3.089 -0.1506 -1.5561 -0.2020
 6839SOL    HW231980   0.703   1.095   2.957 -0.6805  0.2964  0.0554
 6840SOL     OW31981   2.326   3.374   2.218  0.0199 -0.0073 -0.8804
 6840SOL    HW131982   2.416   3.375   2.251  0.4613 -3.3955 -2.0224
 6840SOL    HW231983   2.309   3.468   2.230  0.9398 -0.1525  1.6343
 6841SOL     OW31984   2.156   0.439  13.919  0.4274 -0.2698  0.0760
 6841SOL    HW131985   2.149   0.370  13.853  0.6734 -0.9868  0.7934
 6841SOL    HW231986   2.220   0.492  13.873 -1.4412  3.0149  1.2924
 6842SOL     OW31987   1.801   0.279  13.168  0.4834 -0.3416 -0.2567
 6842SOL    HW131988   1.811   0.372  13.186  2.0118 -0.6775  0.5949
 6842SOL    HW231989   1.748   0.297  13.090 -0.6994 -0.4050  0.5283
 6843SOL     OW31990   3.767   3.847   3.250 -0.4225 -0.1479 -0.7163
 6843SOL    HW131991   3.787   3.762   3.289  1.6531  1.0262  0.7666
 6843SOL    HW231992   3.711   3.884   3.318  0.5677  0.5514 -0.2791
 6844SOL     OW31993   2.790   1.622   9.178  0.3071  0.0112 -0.2427
 6844SOL    HW131994   2.840   1.640   9.098  0.2329  0.4183 -0.1953
 6844SOL    HW231995   2.705   1.655   9.151 -0.5993 -2.7760 -0.8452
 6845SOL     OW31996   2.660   2.427   0.947 -0.4145  0.1995 -0.2092
 6845SOL    HW131997   2.576   2.461   0.975 -0.2204 -0.6793  1.4257
 6845SOL    HW231998   2.697   2.508   0.914  0.3170 -0.1357 -0.2180
 6846SOL     OW31999   4.349   1.295   2.390 -0.1424 -0.0010  0.3010
 6846SOL    HW132000   4.350   1.330   2.479 -0.8460 -0.1784  0.3780
 6846SOL    HW232001   4.409   1.364   2.361 -1.5806  0.9418 -0.4431
 6847SOL     OW32002   0.484   4.483   0.141 -0.1454 -0.7918  0.4043
 6847SOL    HW132003   0.459   4.570   0.172 -0.0481 -0.9159  0.8318
 6847SOL    HW232004   0.543   4.501   0.068 -0.3924 -2.4383 -0.2002
 6848SOL     OW32005   3.440   0.248   9.374  0.0385 -0.4218 -0.0183
 6848SOL    HW132006   3.350   0.268   9.402 -0.1584 -1.1100 -0.1721
 6848SOL    HW232007   3.477   0.254   9.462  1.8493  0.0001 -0.7973
 6849SOL     OW32008   3.985   0.887   8.521  0.0870 -0.1250 -0.4161
 6849SOL    HW132009   4.011   0.968   8.564 -1.0897  0.2276 -0.3740
 6849SOL    HW232010   4.066   0.836   8.517  0.4002  0.4317 -1.3883
 6850SOL     OW32011   3.273   2.443  10.716  0.0176  0.7339 -0.4956
 6850SOL    HW132012   3.278   2.467  10.809  0.0733 -0.5103 -0.1718
 6850SOL    HW232013   3.207   2.500  10.678 -0.7206 -0.5032 -1.0416
 6851SOL     OW32014   3.421   2.789   9.274 -0.2296 -0.3555 -0.3992
 6851SOL    HW132015   3.376   2.845   9.210 -0.7011  0.8400  0.9923
 6851SOL    HW232016   3.344   2.750   9.315 -0.9666  1.3231 -0.2116
 6852SOL     OW32017   3.294   1.125   1.884 -0.2722  0.7684  0.8538
 6852SOL    HW132018   3.330   1.211   1.863  2.8443 -0.6483  0.3494
 6852SOL    HW232019   3.264   1.105   1.795  3.1253 -0.1253 -0.0894
 6853SOL     OW32020   3.768   2.448   2.100 -0.5445  0.5707  0.3580
 6853SOL    HW132021   3.788   2.358   2.077 -1.1293  0.6937 -0.6195
 6853SOL    HW232022   3.705   2.471   2.032 -0.3583  1.2946  0.4207
 6854SOL     OW32023   4.355   3.883   9.529 -0.5359  0.5303 -0.1650
 6854SOL    HW132024   4.310   3.816   9.477  1.0474 -0.0911 -0.7255
 6854SOL    HW232025   4.336   3.858   9.619 -2.5692 -1.1180 -1.0489
 6855SOL     OW32026   0.913   2.922   2.153 -0.2902  0.1900  0.4050
 6855SOL    HW132027   0.835   2.879   2.188  0.5673 -0.6182  1.3130
 6855SOL    HW232028   0.930   2.867   2.076 -0.2127  1.4584 -0.4921
 6856SOL     OW32029   3.927   3.098   9.082 -0.6238 -0.5896  0.4290
 6856SOL    HW132030   3.861   3.160   9.051 -1.5169 -1.7931 -0.1124
 6856SOL    HW232031   3.923   3.018   9.030  1.5527 -1.7707  2.1124
 6857SOL     OW32032   0.382   4.476   8.887  0.1331  0.4420  0.4051
 6857SOL    HW132033   0.309   4.444   8.940  0.3659 -1.3713 -0.3467
 6857SOL    HW232034   0.458   4.441   8.934  1.6610  0.5814 -1.9757
 6858SOL     OW32035   2.087   3.583   7.721  0.3100 -0.0798  0.7087
 6858SOL    HW132036   2.125   3.545   7.641 -1.5433  0.5065 -0.4597
 6858SOL    HW232037   2.015   3.522   7.739  1.4404 -1.3702  0.8953
 6859SOL     OW32038   3.388   4.039   7.245  0.4256  0.3034 -0.6335
 6859SOL    HW132039   3.313   4.026   7.188  0.9111  0.1806 -1.2358
 6859SOL    HW232040   3.420   3.949   7.249  1.7515  0.8429  0.9455
 6860SOL     OW32041   2.711   0.322  16.076  0.4058 -0.5333 -0.7777
 6860SOL    HW132042   2.673   0.386  16.016  0.5684  0.3983  0.0991
 6860SOL    HW232043   2.783   0.367  16.120 -0.6971  0.0880  0.3949
 6861SOL     OW32044   2.908   1.519  12.712 -0.0906 -0.2753 -0.6046
 6861SOL    HW132045   2.984   1.463  12.723  1.5630  1.7955 -1.5608
 6861SOL    HW232046   2.870   1.514  12.800 -0.2293  0.2724 -0.6318
 6862SOL     OW32047   3.643   0.991   9.287  0.3580 -0.2606  0.5682
 6862SOL    HW132048   3.613   0.903   9.265 -1.5956  0.4091  0.5346
 6862SOL    HW232049   3.615   0.988   9.379 -1.9595 -4.2760 -0.2828
 6863SOL     OW32050   3.903   1.200   5.571 -0.1466  0.3487  0.1795
 6863SOL    HW132051   3.851   1.128   5.607 -1.7446  0.6043 -1.6041
 6863SOL    HW232052   3.937   1.163   5.489  1.4529 -1.4176  1.6191
 6864SOL     OW32053   0.909   2.617   4.059 -0.1196  0.3287 -0.2543
 6864SOL    HW132054   0.855   2.675   4.113  1.6368  0.0657  1.8044
 6864SOL    HW232055   0.850   2.566   4.003 -0.1676 -0.1706  0.2497
 6865SOL     OW32056   4.526   2.150   8.243 -0.4689 -0.9550  0.5252
 6865SOL    HW132057   4.443   2.151   8.292  0.5156  1.0590  2.1011
 6865SOL    HW232058   4.500   2.091   8.172  1.9162  0.1382 -1.2617
 6866SOL     OW32059   2.672   2.509   2.519  0.0126 -0.6274 -0.1676
 6866SOL    HW132060   2.601   2.463   2.475  0.4975 -0.6771 -0.8882
 6866SOL    HW232061   2.654   2.473   2.606 -0.5365  0.9739  0.3970
 6867SOL     OW32062   2.731   3.881  12.323 -0.2408  0.0526  0.1095
 6867SOL    HW132063   2.673   3.926  12.384 -1.9153 -1.2343 -0.5304
 6867SOL    HW232064   2.811   3.897  12.373  1.2246  0.2686 -2.2909
 6868SOL     OW32065   0.176   3.331   4.916 -0.4214  0.2743 -0.2515
 6868SOL    HW132066   0.213   3.256   4.963 -0.7167  0.0387 -0.3930
 6868SOL    HW232067   0.096   3.287   4.885 -2.4093  1.2030  3.5995
 6869SOL     OW32068   0.069   0.165   4.667  0.2998 -0.1200  0.2142
 6869SOL    HW132069   0.044   0.122   4.586  0.3084 -0.0003  0.1480
 6869SOL    HW232070   0.162   0.145   4.670  0.2785 -0.4198 -1.1395
 6870SOL     OW32071   2.975   2.975   9.174 -0.1883  0.2021 -0.2259
 6870SOL    HW132072   2.899   2.918   9.162  1.0974 -1.5124 -0.2070
 6870SOL    HW232073   2.935   3.061   9.158 -0.8973  0.0112  0.5309
 6871SOL     OW32074   0.699   0.930   7.908  0.2726 -0.4778  0.2889
 6871SOL    HW132075   0.758   1.006   7.916 -1.9164  1.2454 -0.0802
 6871SOL    HW232076   0.754   0.880   7.847  1.0799  1.7340 -0.8035
 6872SOL     OW32077   3.154   0.008  16.172 -0.1226  0.5620 -0.0904
 6872SOL    HW132078   3.213   4.673  16.220 -0.8003 -1.7570 -2.0045
 6872SOL    HW232079   3.194   0.003  16.086  2.5634  1.6082  1.1232
 6873SOL     OW32080   3.874   4.286   6.764  0.4569 -0.7872  0.2453
 6873SOL    HW132081   3.955   4.279   6.814 -0.4896  2.2314  2.1588
 6873SOL    HW232082   3.880   4.379   6.744  0.9056 -0.6410  1.0670
 6874SOL     OW32083   3.697   1.319   9.359 -0.4560 -0.1264 -0.1257
 6874SOL    HW132084   3.605   1.312   9.385  0.2563 -0.2765  2.3130
 6874SOL    HW232085   3.691   1.267   9.279  0.6823 -2.2399  1.1681
 6875SOL     OW32086   3.726   0.008  13.267  0.4995  0.1472  0.5777
 6875SOL    HW132087   3.799   0.056  13.304  2.2746 -0.0394 -2.6930
 6875SOL    HW232088   3.769   4.676  13.201 -0.5644  0.1427 -0.1061
 6876SOL     OW32089   4.363   2.439  14.519  0.0721  0.6778  0.1916
 6876SOL    HW132090   4.386   2.473  14.433 -0.1597  1.1956  0.3359
 6876SOL    HW232091   4.410   2.494  14.582  0.1057 -0.1419  0.8906
 6877SOL     OW32092   1.668   2.228   8.371  0.8256  0.4377  0.3069
 6877SOL    HW132093   1.707   2.242   8.458  0.5968 -0.2587  0.5221
 6877SOL    HW232094   1.651   2.321   8.354 -0.9899  0.5288  2.5782
 6878SOL     OW32095   4.606   4.551  15.993 -0.1021 -0.2058  0.0649
 6878SOL    HW132096   4.556   4.571  16.073  2.4567  1.2581  1.2880
 6878SOL    HW232097   4.588   4.630  15.942  1.1909 -0.7092 -1.1621
 6879SOL     OW32098   4.492   0.534   4.028  0.0737  0.0372  0.7898
 6879SOL    HW132099   4.475   0.571   3.942  4.1159  0.0517  0.0132
 6879SOL    HW232100   4.492   0.613   4.082  2.1414  1.7956 -1.7875
 6880SOL     OW32101   2.298   4.355   5.522 -0.2053  0.7366  0.2024
 6880SOL    HW132102   2.337   4.390   5.603  0.9510  1.9142 -0.8670
 6880SOL    HW232103   2.355   4.383   5.451 -1.6178  0.0884 -1.1745
 6881SOL     OW32104   1.477   0.416   8.955  0.6729 -1.0011  0.2756
 6881SOL    HW132105   1.483   0.472   9.033  3.7928 -1.2222  0.2063
 6881SOL    HW232106   1.513   0.476   8.890 -1.5069  0.4510  0.3901
 6882SOL     OW32107   3.738   4.087   3.987  0.6069 -0.7462 -0.3315
 6882SOL    HW132108   3.772   3.997   3.992 -0.7851 -1.3676 -1.8918
 6882SOL    HW232109   3.813   4.127   3.944  1.3922  0.7421  2.4352
 6883SOL     OW32110   3.677   2.074   4.173  0.4579 -0.1362 -0.1203
 6883SOL    HW132111   3.640   2.159   4.197  1.9559  0.5006 -0.0744
 6883SOL    HW232112   3.757   2.110   4.136  0.5670  0.7383  0.9580
 6884SOL     OW32113   2.768   0.441   6.945  0.0461 -0.4079 -0.5170
 6884SOL    HW132114   2.860   0.418   6.937  0.7639  1.9648  1.0443
 6884SOL    HW232115   2.725   0.357   6.959  0.9745 -0.5579  1.3371
 6885SOL     OW32116   3.145   0.671   0.141 -0.2102 -0.6998  0.0456
 6885SOL    HW132117   3.236   0.701   0.134  0.4997 -2.8073  0.3256
 6885SOL    HW232118   3.147   0.588   0.093  0.7455 -1.0517  0.6925
 6886SOL     OW32119   0.801   1.414   7.186  0.1585  0.6070 -0.2759
 6886SOL    HW132120   0.863   1.347   7.157 -1.3430 -0.5284 -0.8567
 6886SOL    HW232121   0.848   1.447   7.263 -1.2387  1.6882  0.1138
 6887SOL     OW32122   1.997   1.427   4.216  0.4273  0.2193  0.4591
 6887SOL    HW132123   2.031   1.340   4.239 -0.1024 -0.4279 -1.1877
 6887SOL    HW232124   1.906   1.404   4.200  0.8599 -0.4714 -1.0515
 6888SOL     OW32125   1.962   4.655   4.368 -0.4704  0.5934  0.3738
 6888SOL    HW132126   1.868   4.668   4.381 -0.6435 -1.1012  0.8608
 6888SOL    HW232127   1.983   4.700   4.449 -1.4280 -2.3188  2.2436
 6889SOL     OW32128   0.552   0.987   6.357 -0.4111 -0.9904 -0.1623
 6889SOL    HW132129   0.606   1.043   6.301 -2.6489  0.2029 -1.1084
 6889SOL    HW232130   0.476   1.044   6.359  0.8218  0.6674 -0.3596
 6890SOL     OW32131   3.132   2.893  15.342  0.5151 -0.1039  0.0204
 6890SOL    HW132132   3.198   2.961  15.329 -1.2801  2.0033  1.9044
 6890SOL    HW232133   3.119   2.863  15.252 -0.4821  0.6005 -0.0753
 6891SOL     OW32134   3.656   2.736   6.560  0.0458 -0.1902 -0.1370
 6891SOL    HW132135   3.587   2.689   6.607 -0.4641  0.4202 -0.2663
 6891SOL    HW232136   3.617   2.756   6.475 -0.8953 -0.1881  0.2873
 6892SOL     OW32137   0.939   1.424  13.293  0.3541 -0.3143 -0.1278
 6892SOL    HW132138   0.864   1.471  13.330  1.4152 -0.7643  2.5780
 6892SOL    HW232139   0.938   1.450  13.200 -1.4683 -1.1983 -0.3737
 6893SOL     OW32140   0.537   2.153  10.695  0.0220  0.0040 -0.4001
 6893SOL    HW132141   0.469   2.086  10.701 -0.9277  0.9138 -1.0980
 6893SOL    HW232142   0.481   2.230  10.697 -0.4651 -0.3302 -1.2835
 6894SOL     OW32143   3.345   3.455  14.772  0.1283  0.2128  0.1005
 6894SOL    HW132144   3.406   3.384  14.793 -0.1443  0.0562  0.3673
 6894SOL    HW232145   3.299   3.467  14.855 -0.0785  3.0271 -0.4166
 6895SOL     OW32146   0.329   3.043   5.465 -0.1254 -0.0003 -0.2947
 6895SOL    HW132147   0.278   3.088   5.398  0.3903 -2.4485 -2.3046
 6895SOL    HW232148   0.376   3.125   5.482  2.4562 -1.3360 -1.1094
 6896SOL     OW32149   4.600   3.939  10.067 -0.2213  0.7028 -0.3556
 6896SOL    HW132150   4.669   3.885  10.028 -0.1805  0.0537  0.6255
 6896SOL    HW232151   4.611   3.924  10.161 -0.2467 -1.2066 -0.6428
 6897SOL     OW32152   4.444   1.860   1.967 -0.0982 -0.4918 -0.9062
 6897SOL    HW132153   4.513   1.909   1.923  0.7342  0.6498  1.6671
 6897SOL    HW232154   4.459   1.880   2.059 -1.1908  0.5232 -0.9449
 6898SOL     OW32155   4.642   3.294  12.129 -0.2355 -0.1017  0.0941
 6898SOL    HW132156   4.577   3.260  12.068 -1.1142 -0.3124  1.1440
 6898SOL    HW232157   4.699   3.217  12.117  0.5352  0.4300  0.3096
 6899SOL     OW32158   4.049   3.212   2.896  0.2784 -0.3923 -0.5244
 6899SOL    HW132159   3.972   3.178   2.851 -1.7853  0.9255  2.0285
 6899SOL    HW232160   4.063   3.147   2.964 -1.3435 -1.3411 -1.0900
 6900SOL     OW32161   3.736   0.614   6.569  0.3095 -0.0918 -0.0717
 6900SOL    HW132162   3.782   0.646   6.491  0.7693  0.3303  0.3793
 6900SOL    HW232163   3.759   0.522   6.573 -1.6612 -0.5720  0.4040
 6901SOL     OW32164   2.049   4.126  10.016  0.3556  0.6173 -0.6702
 6901SOL    HW132165   2.048   4.034  10.040  0.1877  1.5963  3.1423
 6901SOL    HW232166   1.956   4.151  10.020 -0.4353 -2.3025 -0.6170
 6902SOL     OW32167   2.284   3.273  10.220  0.2329  0.1282  0.3749
 6902SOL    HW132168   2.233   3.355  10.221 -0.3341 -0.2283  1.1840
 6902SOL    HW232169   2.301   3.257  10.313 -1.7235 -2.0267  0.3544
 6903SOL     OW32170   4.546   4.518   3.765  0.3307  0.1273  0.3102
 6903SOL    HW132171   4.563   4.467   3.685 -1.5040  1.2182 -0.7755
 6903SOL    HW232172   4.536   4.455   3.836 -0.1817 -1.2101 -0.9437
 6904SOL     OW32173   0.091   0.959   2.452 -0.7277  0.7526 -0.4609
 6904SOL    HW132174   0.027   0.983   2.385 -1.8857 -0.1199  0.3475
 6904SOL    HW232175   0.049   0.889   2.501  1.1279  0.3633  0.5733
 6905SOL     OW32176   2.297   1.300  13.386 -0.0325 -0.2810 -0.7869
 6905SOL    HW132177   2.362   1.312  13.456 -0.4493 -0.1068 -0.4258
 6905SOL    HW232178   2.355   1.302  13.310 -0.3456  1.1156 -0.9888
 6906SOL     OW32179   1.747   2.999   3.046  0.0691  0.6509  0.2677
 6906SOL    HW132180   1.760   3.032   2.957 -0.2096 -0.0988 -0.0574
 6906SOL    HW232181   1.836   3.014   3.080  1.2089 -1.0645 -1.9620
 6907SOL     OW32182   0.247   0.537   5.517  0.5278 -0.7871  0.1633
 6907SOL    HW132183   0.317   0.509   5.457  0.8748  1.9957 -0.7432
 6907SOL    HW232184   0.200   0.454   5.521  1.7104 -1.5528 -1.6646
 6908SOL     OW32185   2.627   0.064  15.985 -0.3577 -0.4554 -0.0305
 6908SOL    HW132186   2.681   0.010  16.042 -0.3007  1.1608  1.4498
 6908SOL    HW232187   2.654   0.151  16.014 -3.3310  0.2174  0.7694
 6909SOL     OW32188   3.901   0.791   8.170  0.0735 -0.0410 -0.0467
 6909SOL    HW132189   3.993   0.814   8.175  0.1190 -0.4763  1.2812
 6909SOL    HW232190   3.870   0.826   8.254  2.5065  0.1086  0.7775
 6910SOL     OW32191   2.030   2.393   7.067  1.3531 -0.2735  0.3018
 6910SOL    HW132192   2.050   2.353   6.982  1.4057 -0.6585  0.4946
 6910SOL    HW232193   2.114   2.435   7.083  0.8178  1.1060 -0.4737
 6911SOL     OW32194   1.080   4.074   2.696 -0.1950 -0.3122 -0.3011
 6911SOL    HW132195   1.003   4.120   2.662 -0.1174 -0.7961 -1.1430
 6911SOL    HW232196   1.052   4.074   2.787 -1.1310  0.7536 -0.5803
 6912SOL     OW32197   3.655   3.181   4.562 -0.4304 -0.4409 -0.0947
 6912SOL    HW132198   3.628   3.121   4.493 -1.6048 -0.8509  0.7212
 6912SOL    HW232199   3.746   3.196   4.535 -1.3830  1.9078 -2.0517
 6913SOL     OW32200   4.323   2.978   3.772 -0.4982 -0.5049  0.3653
 6913SOL    HW132201   4.318   3.073   3.780 -1.9767 -0.4938 -0.6380
 6913SOL    HW232202   4.275   2.956   3.692  1.5458 -0.9270 -0.7422
 6914SOL     OW32203   1.210   1.743   8.327  0.5488 -0.1814  0.3232
 6914SOL    HW132204   1.144   1.780   8.386  0.1206  0.7961 -0.7696
 6914SOL    HW232205   1.160   1.753   8.246  1.7589  0.9419 -0.2778
 6915SOL     OW32206   3.793   2.489  13.158 -0.3092  0.2126 -0.3812
 6915SOL    HW132207   3.884   2.494  13.131 -0.2814 -0.1646 -0.3621
 6915SOL    HW232208   3.768   2.581  13.168 -0.2397  0.3167 -1.2186
 6916SOL     OW32209   3.885   2.208  12.766  0.1173 -0.5367 -0.5173
 6916SOL    HW132210   3.814   2.144  12.761  1.2429 -1.9261  1.0694
 6916SOL    HW232211   3.838   2.266  12.826  0.3555  0.0365 -0.8870
 6917SOL     OW32212   3.609   1.052  10.020  0.4649  0.0425 -0.2790
 6917SOL    HW132213   3.626   1.125  10.080  2.7694 -0.1186 -0.7253
 6917SOL    HW232214   3.689   1.054   9.967 -1.1548 -0.6861 -2.7352
 6918SOL     OW32215   2.394   0.069   6.874  0.2896  0.8220 -0.0414
 6918SOL    HW132216   2.322   0.119   6.912 -0.8885 -0.7833 -0.1729
 6918SOL    HW232217   2.364   0.056   6.784 -0.0290  0.0880  0.1775
 6919SOL     OW32218   0.790   0.380   3.699  0.0412  0.0252  0.0105
 6919SOL    HW132219   0.745   0.380   3.784  0.5774  2.2200  0.2861
 6919SOL    HW232220   0.778   0.473   3.680  0.6991  0.4255  1.5897
 6920SOL     OW32221   3.939   1.450   3.161  0.1034  0.1194  0.5018
 6920SOL    HW132222   3.972   1.526   3.113 -0.3363  0.0980  0.1689
 6920SOL    HW232223   3.950   1.389   3.089 -1.5904  3.1088 -2.2773
 6921SOL     OW32224   1.336   1.057   9.590  0.3295 -0.1903 -0.0384
 6921SOL    HW132225   1.363   0.967   9.570 -0.3571 -0.4344  0.1212
 6921SOL    HW232226   1.404   1.074   9.656  1.0452  1.2648 -1.1488
 6922SOL     OW32227   2.029   3.824   3.932 -0.1865  0.1426  0.0817
 6922SOL    HW132228   1.979   3.887   3.985  0.8986  1.4480 -0.4281
 6922SOL    HW232229   1.955   3.776   3.898 -0.1179  0.6180 -0.7351
 6923SOL     OW32230   0.167   3.275   5.614  0.1009  0.0903 -0.1350
 6923SOL    HW132231   0.232   3.298   5.548  0.5423 -0.8082 -0.0156
 6923SOL    HW232232   0.125   3.361   5.620 -0.9639 -0.3986 -0.6682
 6924SOL     OW32233   2.447   1.374  17.019  0.3130 -0.4461  0.5558
 6924SOL    HW132234   2.425   1.467  17.030 -0.9201 -1.0693  3.1778
 6924SOL    HW232235   2.529   1.383  16.969 -0.3017 -0.6149 -0.4919
 6925SOL     OW32236   0.192   3.801  11.910  0.4914 -0.2981 -0.0978
 6925SOL    HW132237   0.128   3.868  11.886 -0.1910 -0.4572  1.2817
 6925SOL    HW232238   0.157   3.730  11.857 -0.9252  0.0762  0.3333
 6926SOL     OW32239   3.651   3.949  16.213  0.0606  0.3017 -0.4733
 6926SOL    HW132240   3.683   3.940  16.123  1.4989 -0.2162  0.0899
 6926SOL    HW232241   3.727   3.958  16.271 -1.5194 -0.2309  1.6666
 6927SOL     OW32242   1.830   0.921  16.384 -0.3450  0.0150 -0.5266
 6927SOL    HW132243   1.907   0.865  16.389  0.7670  1.5818 -0.2699
 6927SOL    HW232244   1.827   0.973  16.465 -0.8899 -1.2970  0.2936
 6928SOL     OW32245   0.101   3.093   7.499 -0.1992 -0.2822 -0.3890
 6928SOL    HW132246   0.118   3.158   7.431 -0.0247  1.0874  0.9509
 6928SOL    HW232247   0.102   3.146   7.579  0.8252  0.7910 -1.1071
 6929SOL     OW32248   1.040   1.161  13.606 -0.6359 -0.3746  0.4517
 6929SOL    HW132249   0.948   1.151  13.632 -1.2379  2.3899 -0.6616
 6929SOL    HW232250   1.072   1.221  13.673  0.7067 -2.2595  1.5006
 6930SOL     OW32251   2.559   2.565  10.444  0.4079 -0.4181  0.4009
 6930SOL    HW132252   2.654   2.578  10.447  0.0619  1.7270  2.2353
 6930SOL    HW232253   2.530   2.643  10.396  0.9617 -1.5271 -1.7385
 6931SOL     OW32254   2.507   2.136  10.248  0.3931 -0.0734  0.0888
 6931SOL    HW132255   2.425   2.087  10.243 -0.3362  1.1340  0.1759
 6931SOL    HW232256   2.486   2.223  10.213 -2.4028 -0.2683  1.1941
 6932SOL     OW32257   2.888   4.006   6.280 -0.0468  0.0526 -0.2694
 6932SOL    HW132258   2.916   4.079   6.226  1.0854 -0.3264 -0.1914
 6932SOL    HW232259   2.829   4.053   6.339 -2.1894 -1.1178 -1.4811
 6933SOL     OW32260   2.914   0.536   5.059  0.4408 -0.1055  0.1384
 6933SOL    HW132261   2.900   0.607   5.121 -0.6528  0.7967 -1.1429
 6933SOL    HW232262   2.867   0.567   4.982  0.0522  0.8316  0.7663
 6934SOL     OW32263   2.484   4.367   3.008 -0.3433 -0.0182 -0.2063
 6934SOL    HW132264   2.507   4.297   2.947 -0.3320 -0.1773 -0.0190
 6934SOL    HW232265   2.540   4.344   3.081 -3.1083 -1.9751  1.3065
 6935SOL     OW32266   3.687   1.647   8.766  0.5779 -0.3947  0.0330
 6935SOL    HW132267   3.736   1.581   8.814  1.0528 -0.6485 -0.7918
 6935SOL    HW232268   3.605   1.646   8.815  0.5381  2.8546 -0.0150
 6936SOL     OW32269   3.228   2.611   5.072  0.2359  0.0707  0.0567
 6936SOL    HW132270   3.267   2.543   5.017  1.9360  3.1637 -2.5182
 6936SOL    HW232271   3.238   2.682   5.009 -2.0885  1.3950  1.1760
 6937SOL     OW32272   3.789   4.179   4.947  0.5604  0.2372 -0.1703
 6937SOL    HW132273   3.807   4.170   5.041 -2.5369 -0.5564  0.3436
 6937SOL    HW232274   3.696   4.159   4.942  0.1205  2.5111 -1.0218
 6938SOL     OW32275   1.162   0.359   4.427  0.4791 -0.0074 -0.0779
 6938SOL    HW132276   1.161   0.299   4.353 -2.1256 -1.0999  0.8515
 6938SOL    HW232277   1.069   0.384   4.429  0.0370 -1.5122 -2.2209
 6939SOL     OW32278   2.281   3.074   0.031 -0.4255  0.0666  0.0956
 6939SOL    HW132279   2.190   3.079   0.062 -0.1814 -1.8414  1.1099
 6939SOL    HW232280   2.330   3.054   0.111  1.6854  4.0670 -0.2133
 6940SOL     OW32281   0.729   1.786   5.033 -0.2122 -0.0828  0.1828
 6940SOL    HW132282   0.803   1.735   5.001 -0.2468 -0.3015  0.4494
 6940SOL    HW232283   0.718   1.856   4.969 -1.6043  0.8411  1.4155
 6941SOL     OW32284   0.662   2.711   4.663 -0.3447  0.1964 -0.2154
 6941SOL    HW132285   0.646   2.746   4.575  0.2770 -0.5312 -0.6178
 6941SOL    HW232286   0.695   2.789   4.708  0.1352 -1.0366  1.5629
 6942SOL     OW32287   2.567   4.400   8.795  0.1182  0.8633  0.1160
 6942SOL    HW132288   2.660   4.422   8.788  0.4802  0.7045  4.4470
 6942SOL    HW232289   2.560   4.352   8.878 -1.0240 -1.1636 -1.1376
 6943SOL     OW32290   2.421   2.160  13.961  0.1059 -0.0281 -0.1318
 6943SOL    HW132291   2.426   2.065  13.951  1.5088  0.1784 -1.3515
 6943SOL    HW232292   2.367   2.194  13.889  1.9300  1.9199 -0.5733
 6944SOL     OW32293   4.600   3.765  15.925 -0.3127  0.0537 -0.1530
 6944SOL    HW132294   4.533   3.782  15.991  1.7371 -0.3732  2.0476
 6944SOL    HW232295   4.538   3.729  15.862 -0.7712 -1.6954  1.3045
 6945SOL     OW32296   3.393   3.527   7.261  0.3812 -0.2688  0.1106
 6945SOL    HW132297   3.388   3.456   7.326  1.8537  1.7894  2.4514
 6945SOL    HW232298   3.447   3.594   7.302  0.1594  0.9652 -1.6274
 6946SOL     OW32299   3.825   3.724   2.309  0.1774  0.5454 -0.4019
 6946SOL    HW132300   3.898   3.699   2.366  0.7060  3.3291  0.1343
 6946SOL    HW232301   3.845   3.815   2.289  2.3479 -0.6232 -3.5961
 6947SOL     OW32302   3.461   3.047   1.972  0.0585 -0.1714 -0.4050
 6947SOL    HW132303   3.531   3.028   2.034 -3.3715 -3.2748  2.5504
 6947SOL    HW232304   3.381   3.027   2.020  0.0487 -0.9641 -0.7582
 6948SOL     OW32305   0.577   0.040   6.742 -0.9660 -0.5656  0.5954
 6948SOL    HW132306   0.648   0.039   6.806  0.6716 -0.7825 -1.2287
 6948SOL    HW232307   0.539   4.676   6.757  1.3875 -1.9007 -1.0498
 6949SOL     OW32308   2.375   3.979   2.521 -0.0167 -0.6117  0.3997
 6949SOL    HW132309   2.328   4.056   2.555  1.3631 -0.0177  0.9387
 6949SOL    HW232310   2.452   3.987   2.576 -0.5371  1.2133  0.8530
 6950SOL     OW32311   1.241   3.700  13.588 -0.5348  0.5824 -0.1810
 6950SOL    HW132312   1.307   3.745  13.536  0.0327  0.7097  0.6470
 6950SOL    HW232313   1.156   3.731  13.560 -0.2418  2.1520  0.6853
 6951SOL     OW32314   4.508   3.790   3.164 -0.1716 -0.1183  0.1114
 6951SOL    HW132315   4.475   3.700   3.168 -1.8636  0.7530  5.2556
 6951SOL    HW232316   4.507   3.804   3.069 -0.6710  1.7769  0.3842
 6952SOL     OW32317   0.598   2.603   6.235 -0.0015 -0.3188 -0.0661
 6952SOL    HW132318   0.684   2.643   6.223 -0.7292  1.5196  0.7288
 6952SOL    HW232319   0.549   2.686   6.241 -1.7531 -1.3196 -0.4639
 6953SOL     OW32320   3.134   1.266   6.795 -0.0326  0.4636  0.0671
 6953SOL    HW132321   3.138   1.199   6.863  0.6794  1.5474  1.0957
 6953SOL    HW232322   3.223   1.302   6.788  0.6233 -0.8903  1.6215
 6954SOL     OW32323   0.621   1.425   9.897  0.3508  0.4327 -0.2274
 6954SOL    HW132324   0.703   1.411   9.850  0.1110 -0.0479 -0.4926
 6954SOL    HW232325   0.553   1.388   9.842 -0.2319  0.2090  0.6438
 6955SOL     OW32326   1.594   1.438   2.526 -0.2523  0.0254 -0.3860
 6955SOL    HW132327   1.643   1.498   2.470 -0.5221 -0.0947 -0.7538
 6955SOL    HW232328   1.579   1.361   2.470  0.8208  0.4959 -1.3176
 6956SOL     OW32329   4.409   3.392  13.726 -0.6133 -0.4507  0.1356
 6956SOL    HW132330   4.452   3.436  13.653  0.1668  1.6968  1.8856
 6956SOL    HW232331   4.366   3.461  13.776 -1.1807 -1.6995  1.3957
 6957SOL     OW32332   1.430   1.850   6.961 -0.4425  0.4595  0.4008
 6957SOL    HW132333   1.404   1.760   6.945  1.7042  0.1766 -1.5143
 6957SOL    HW232334   1.399   1.875   7.048  0.9491 -1.1016  1.3565
 6958SOL     OW32335   2.770   2.332   2.119  0.1404  0.6744  1.1681
 6958SOL    HW132336   2.754   2.388   2.043  0.1309  0.4761  1.0245
 6958SOL    HW232337   2.852   2.290   2.092 -1.6504 -2.2446  0.2623
 6959SOL     OW32338   4.074   3.936  10.103  0.8949  0.1836  0.0491
 6959SOL    HW132339   4.112   3.861  10.149 -0.2291 -0.0281  0.6338
 6959SOL    HW232340   4.059   3.997  10.175 -3.9749 -0.8949 -0.0648
 6960SOL     OW32341   0.574   2.436   2.132  0.5589 -0.5665 -0.5626
 6960SOL    HW132342   0.596   2.390   2.051 -1.3048 -1.1230 -0.7447
 6960SOL    HW232343   0.523   2.513   2.109  0.2105 -0.6560 -0.0903
 6961SOL     OW32344   3.582   0.918   7.764  0.1209 -0.0101  0.2057
 6961SOL    HW132345   3.597   0.828   7.737  0.8116  0.5336 -1.2233
 6961SOL    HW232346   3.494   0.909   7.801  0.1956 -0.8715  0.1743
 6962SOL     OW32347   2.443   1.474   7.370 -0.3484 -0.6399 -0.3012
 6962SOL    HW132348   2.353   1.480   7.338  0.1053  0.5884 -1.3629
 6962SOL    HW232349   2.443   1.491   7.464  0.5773  0.5223 -0.5138
 6963SOL     OW32350   1.395   1.522  17.194 -0.0907  0.1220 -0.5535
 6963SOL    HW132351   1.469   1.541  17.135 -0.3378  0.9706 -0.5838
 6963SOL    HW232352   1.446   1.523  17.275 -1.1599 -1.1007  0.1414
 6964SOL     OW32353   1.136   1.921   9.333  0.2425 -0.4133  0.1759
 6964SOL    HW132354   1.148   1.976   9.256  0.5129 -3.6767 -2.1128
 6964SOL    HW232355   1.128   1.834   9.294  0.4411 -0.1446 -0.4567
 6965SOL     OW32356   2.385   2.216   5.192  0.6700  0.0598  0.4272
 6965SOL    HW132357   2.345   2.291   5.236  1.2585  2.0271 -2.3418
 6965SOL    HW232358   2.477   2.240   5.205  0.6004  1.3155 -1.3650
 6966SOL     OW32359   4.358   1.384   5.483 -0.2808  0.5392 -0.3212
 6966SOL    HW132360   4.359   1.442   5.559 -1.2892 -0.8810  0.7615
 6966SOL    HW232361   4.441   1.408   5.440  1.2737  1.2484  3.0830
 6967SOL     OW32362   1.785   0.458   3.409 -0.4249 -0.2390 -0.4698
 6967SOL    HW132363   1.702   0.434   3.369 -0.7453 -0.4776  0.3312
 6967SOL    HW232364   1.764   0.452   3.502 -0.1063  2.1841 -0.2427
 6968SOL     OW32365   3.731   2.273   0.866 -0.2479 -0.0827 -0.2367
 6968SOL    HW132366   3.718   2.178   0.861 -1.6606 -0.0302  2.4040
 6968SOL    HW232367   3.791   2.285   0.939 -0.4904  0.9190 -0.1963
 6969SOL     OW32368   4.115   0.734   5.514  0.4684 -0.3829 -0.1049
 6969SOL    HW132369   4.031   0.741   5.559  0.0621  0.5951 -1.0334
 6969SOL    HW232370   4.156   0.669   5.572  1.3729  2.1238  2.0313
 6970SOL     OW32371   2.572   0.523  15.541 -0.5559  0.8106 -0.2782
 6970SOL    HW132372   2.575   0.618  15.528  1.3682  0.5355 -2.0150
 6970SOL    HW232373   2.555   0.493  15.452  1.6203 -1.1632 -0.0192
 6971SOL     OW32374   3.230   3.307   3.866 -0.5717  0.0082  0.9833
 6971SOL    HW132375   3.210   3.297   3.773 -0.5306  1.0519  0.8608
 6971SOL    HW232376   3.324   3.324   3.867 -0.3553 -1.1294  0.2267
 6972SOL     OW32377   2.868   1.309   8.464 -0.6291  0.6559  0.0214
 6972SOL    HW132378   2.947   1.358   8.488  0.2570 -1.8323  2.1111
 6972SOL    HW232379   2.826   1.299   8.549  0.8785 -1.0652  0.5551
 6973SOL     OW32380   1.493   1.687   4.845 -0.0810  0.8059 -0.0135
 6973SOL    HW132381   1.434   1.690   4.920 -0.1390  4.0831 -0.2062
 6973SOL    HW232382   1.559   1.625   4.877  1.4361  2.1554 -0.5509
 6974SOL     OW32383   1.255   1.891   6.530 -0.3311  1.0509 -0.2259
 6974SOL    HW132384   1.327   1.954   6.524  0.1589  0.6571  1.4920
 6974SOL    HW232385   1.239   1.870   6.622 -1.7505  0.6886 -0.5657
 6975SOL     OW32386   2.876   3.571  10.655 -0.3396  1.4856 -0.0850
 6975SOL    HW132387   2.814   3.544  10.723 -1.3733 -0.3014 -1.7292
 6975SOL    HW232388   2.923   3.638  10.704  1.8089 -0.3740  0.4087
 6976SOL     OW32389   0.071   3.501  17.657  0.1835  0.3785  0.4268
 6976SOL    HW132390   0.160   3.496  17.622  0.1272  0.1285  0.3180
 6976SOL    HW232391   0.076   3.414   0.003  1.4302  0.0656 -0.4485
 6977SOL     OW32392   3.060   1.461  13.043  0.4349 -0.0304 -0.5832
 6977SOL    HW132393   3.075   1.430  12.954  1.2215 -0.9738 -0.1175
 6977SOL    HW232394   3.142   1.430  13.082  1.2789  1.7209 -0.9766
 6978SOL     OW32395   1.903   2.590   5.971 -0.2010  0.3544 -0.5727
 6978SOL    HW132396   1.990   2.605   5.931  0.3875  0.9734  0.9572
 6978SOL    HW232397   1.915   2.504   6.012  0.6951  0.1667 -1.2039
 6979SOL     OW32398   4.189   3.513   4.225 -0.9244 -0.0706 -0.1266
 6979SOL    HW132399   4.202   3.602   4.193 -0.1549 -0.1907 -0.1705
 6979SOL    HW232400   4.267   3.501   4.280 -1.2293  1.1763  0.5685
 6980SOL     OW32401   3.046   1.225   4.890  0.6099 -0.2224  0.3410
 6980SOL    HW132402   3.011   1.218   4.978 -0.4598  1.2956  0.0238
 6980SOL    HW232403   3.096   1.305   4.908  0.8261 -0.3226  0.1911
 6981SOL     OW32404   3.432   0.506   8.003  0.2958 -0.0135 -0.3204
 6981SOL    HW132405   3.485   0.502   7.923  0.6601  0.8411 -0.1288
 6981SOL    HW232406   3.485   0.553   8.067 -0.1942  0.7624 -0.4744
 6982SOL     OW32407   2.325   4.568  14.895  0.0143  0.0971 -0.1440
 6982SOL    HW132408   2.334   4.574  14.799 -2.6971 -2.3839 -0.5464
 6982SOL    HW232409   2.406   4.520  14.911  2.1011  3.7723  0.2516
 6983SOL     OW32410   1.973   2.646   7.615 -0.2602 -0.2601 -0.5832
 6983SOL    HW132411   1.895   2.683   7.658  2.5456  1.5513  2.9011
 6983SOL    HW232412   2.036   2.661   7.685 -0.5450  2.9797 -1.0258
 6984SOL     OW32413   2.283   2.524   7.206 -0.2836  0.5246 -0.0338
 6984SOL    HW132414   2.280   2.446   7.261 -2.3767  0.3535 -0.3971
 6984SOL    HW232415   2.306   2.586   7.275  0.7463  0.1364 -0.0126
 6985SOL     OW32416   3.898   1.616   5.987  0.2716  0.2835 -0.1121
 6985SOL    HW132417   3.976   1.604   5.932  0.3244  0.6731 -0.1167
 6985SOL    HW232418   3.938   1.618   6.074  1.0950  1.1860 -0.5119
 6986SOL     OW32419   2.573   1.899   6.763  0.8986  0.2727  0.5029
 6986SOL    HW132420   2.611   1.984   6.740 -0.9317  1.2260  1.0224
 6986SOL    HW232421   2.519   1.889   6.685  0.8996  2.0335  0.2767
 6987SOL     OW32422   4.656   0.111  13.303 -0.4583  0.1518 -0.2367
 6987SOL    HW132423   4.592   0.040  13.293  1.5478 -1.6027 -0.6125
 6987SOL    HW232424   4.698   0.124  13.219 -0.2955 -1.2185 -0.3801
 6988SOL     OW32425   3.035   3.989   5.481  0.6430 -0.0334  0.2790
 6988SOL    HW132426   3.033   3.962   5.389  0.0114  0.7256  0.0755
 6988SOL    HW232427   3.020   4.083   5.483 -1.0346 -0.2816 -0.7167
 6989SOL     OW32428   3.486   3.582   6.264  0.0734 -0.9990 -0.6196
 6989SOL    HW132429   3.576   3.613   6.268  0.3739 -1.6362 -2.2408
 6989SOL    HW232430   3.447   3.643   6.201 -1.1959  1.3212  2.4078
 6990SOL     OW32431   3.423   4.258  11.935 -0.0656  0.2400 -0.5904
 6990SOL    HW132432   3.352   4.322  11.931 -0.2778 -0.1119 -2.2615
 6990SOL    HW232433   3.444   4.271  12.028 -0.9564 -0.6983 -0.2686
 6991SOL     OW32434   1.766   1.505   4.591  1.1356 -0.6165 -0.3065
 6991SOL    HW132435   1.765   1.594   4.554 -0.2546 -0.4870  0.0510
 6991SOL    HW232436   1.854   1.474   4.568  1.8267  0.5966  0.6685
 6992SOL     OW32437   0.451   2.970   9.698  0.2588 -0.2948 -0.6304
 6992SOL    HW132438   0.501   2.890   9.716 -0.4828  0.0662  3.1331
 6992SOL    HW232439   0.382   2.926   9.649 -0.6586  0.3029  0.1170
 6993SOL     OW32440   1.268   0.201   1.760  0.9830 -0.4978  0.3372
 6993SOL    HW132441   1.253   0.251   1.841  2.7870 -0.7740  0.8472
 6993SOL    HW232442   1.248   0.268   1.694 -0.2014 -2.0397 -0.8620
 6994SOL     OW32443   0.499   0.915  16.002 -0.5562  0.0788 -0.4431
 6994SOL    HW132444   0.423   0.933  16.057 -2.6505  0.3573 -3.4661
 6994SOL    HW232445   0.550   0.996  16.000  1.2400 -1.0303  0.4401
 6995SOL     OW32446   1.590   2.994   7.201  0.1583 -0.1163  0.3122
 6995SOL    HW132447   1.501   2.986   7.237  0.8004 -1.3078  1.5998
 6995SOL    HW232448   1.582   2.946   7.119 -0.3107  2.3161 -1.0619
 6996SOL     OW32449   0.864   4.570   8.395 -0.3242 -0.4303 -0.4675
 6996SOL    HW132450   0.785   4.516   8.398 -0.9004  0.4450  0.2584
 6996SOL    HW232451   0.843   4.643   8.337  1.3302 -0.8254 -1.5307
 6997SOL     OW32452   3.532   0.522   5.813  0.2540  0.0366 -0.1324
 6997SOL    HW132453   3.499   0.449   5.867  1.2956 -0.0913  0.3273
 6997SOL    HW232454   3.610   0.547   5.862  0.9603 -0.3299 -1.0932
 6998SOL     OW32455   4.365   0.746   7.937 -0.5364  0.2235  0.2572
 6998SOL    HW132456   4.314   0.820   7.968  0.5173  1.7439 -1.6856
 6998SOL    HW232457   4.433   0.763   8.002  0.2295 -1.3757 -0.1180
 6999SOL     OW32458   3.294   3.674  15.283  0.1530  0.3829  0.2646
 6999SOL    HW132459   3.326   3.750  15.331  0.4526 -0.4845  1.4473
 6999SOL    HW232460   3.264   3.700  15.196  1.4739 -0.5353 -0.4486
 7000SOL     OW32461   2.051   1.727  10.156  0.1367  0.0174 -0.4081
 7000SOL    HW132462   2.000   1.653  10.189  1.9401 -1.5138 -1.0326
 7000SOL    HW232463   1.985   1.772  10.102  0.2540  1.3566  0.5656
 7001SOL     OW32464   2.331   1.271   0.279  0.1119  0.8224  0.4490
 7001SOL    HW132465   2.289   1.186   0.262 -0.2863  1.2105 -0.4797
 7001SOL    HW232466   2.421   1.239   0.287  0.7412  2.1671 -1.3773
 7002SOL     OW32467   2.352   1.327   5.213 -0.3507  0.1255  0.2741
 7002SOL    HW132468   2.316   1.414   5.231  1.9170  1.4201 -1.4695
 7002SOL    HW232469   2.401   1.333   5.131 -0.6596  1.3122  0.1790
 7003SOL     OW32470   1.179   0.436   0.355 -0.0450  0.3711 -0.0607
 7003SOL    HW132471   1.188   0.518   0.306 -0.3383 -0.3666 -1.3386
 7003SOL    HW232472   1.193   0.461   0.446  2.0109  3.1375 -1.1228
 7004SOL     OW32473   2.683   3.902   3.956  0.8071  0.0919  0.0985
 7004SOL    HW132474   2.729   3.829   3.997  2.9814  0.9360 -0.7922
 7004SOL    HW232475   2.591   3.885   3.976  0.7616 -2.2649 -2.1060
 7005SOL     OW32476   0.686   3.568  10.151  0.2863 -0.2927 -0.2666
 7005SOL    HW132477   0.603   3.570  10.198  0.2131  2.0518 -0.5030
 7005SOL    HW232478   0.738   3.502  10.196  1.4358  0.9278  0.2116
 7006SOL     OW32479   4.444   1.465   8.504  0.0978  0.0959 -0.2359
 7006SOL    HW132480   4.426   1.559   8.501 -0.7476  0.0010  1.4219
 7006SOL    HW232481   4.420   1.433   8.417 -0.1076 -1.5461  0.4262
 7007SOL     OW32482   2.990   3.438  15.198  0.8553  0.3225  0.0171
 7007SOL    HW132483   2.977   3.410  15.289  0.5820 -0.8247 -0.3713
 7007SOL    HW232484   2.995   3.533  15.204  3.8479  0.1620 -0.0071
 7008SOL     OW32485   2.698   3.300  11.825  0.5067 -0.2832  0.4595
 7008SOL    HW132486   2.630   3.232  11.821  0.2086  0.0934 -1.0987
 7008SOL    HW232487   2.645   3.379  11.829  2.8108  1.1333  2.6042
 7009SOL     OW32488   2.003   4.164  11.162 -0.0834 -0.0199  0.5814
 7009SOL    HW132489   1.963   4.098  11.106 -0.8581  0.1359  0.9597
 7009SOL    HW232490   2.098   4.149  11.158  0.3105  2.1249  1.6242
 7010SOL     OW32491   2.434   0.551   1.405  0.0083  0.4850  0.1611
 7010SOL    HW132492   2.355   0.501   1.424  1.5103 -1.7341  0.5723
 7010SOL    HW232493   2.502   0.484   1.397 -1.0737 -0.5582 -0.2105
 7011SOL     OW32494   2.165   3.880   7.053 -0.0498 -0.5552 -0.0013
 7011SOL    HW132495   2.210   3.873   7.138 -0.4870  1.8158  0.4167
 7011SOL    HW232496   2.146   3.788   7.035 -0.2870 -0.9906  2.4190
 7012SOL     OW32497   3.424   1.915  17.259  0.1930 -0.4587  0.2571
 7012SOL    HW132498   3.344   1.866  17.280 -1.6348  2.4288  0.0327
 7012SOL    HW232499   3.397   2.006  17.272 -1.2936 -0.9426  0.5918
 7013SOL     OW32500   3.506   4.084   8.966 -0.1389  0.5267  1.0051
 7013SOL    HW132501   3.453   4.160   8.941 -0.8244  0.2310  1.5683
 7013SOL    HW232502   3.568   4.134   9.019 -0.4252  1.5452  0.3725
 7014SOL     OW32503   3.970   2.932   7.946  0.1637 -0.1003 -0.3773
 7014SOL    HW132504   3.890   2.930   7.999 -0.1277  2.1365 -0.7525
 7014SOL    HW232505   4.016   2.989   8.007 -0.2879  1.1010 -1.1633
 7015SOL     OW32506   2.607   2.261  15.180  0.0164 -0.4724 -0.1255
 7015SOL    HW132507   2.535   2.291  15.124 -0.4810 -0.1379  0.6939
 7015SOL    HW232508   2.555   2.254  15.260  0.8738  0.1329  0.4736
 7016SOL     OW32509   2.612   2.855   7.507 -0.4513  0.5402 -0.6518
 7016SOL    HW132510   2.702   2.862   7.539 -1.0868  1.4541  0.9148
 7016SOL    HW232511   2.573   2.821   7.588  2.2335  0.8403  0.7802
 7017SOL     OW32512   0.091   4.348   6.762 -0.2347  0.0513 -0.0225
 7017SOL    HW132513   0.109   4.299   6.842  0.1768  0.8012  0.3448
 7017SOL    HW232514   0.004   4.385   6.777 -0.3059  0.0735 -0.4942
 7018SOL     OW32515   1.495   0.394  12.529  0.0396  0.3033 -0.7332
 7018SOL    HW132516   1.473   0.487  12.540  1.7769  0.5832  0.4003
 7018SOL    HW232517   1.468   0.363  12.616  0.2901  3.3149  0.4251
 7019SOL     OW32518   1.656   0.284   4.532 -0.8040  0.3330  0.4408
 7019SOL    HW132519   1.617   0.205   4.570 -2.2826  1.5761  1.4934
 7019SOL    HW232520   1.585   0.343   4.508 -1.0953 -1.0253 -2.0153
 7020SOL     OW32521   3.447   2.353   6.653 -0.1660  0.2316  0.4726
 7020SOL    HW132522   3.366   2.403   6.648 -0.8950 -1.2497 -2.3458
 7020SOL    HW232523   3.441   2.302   6.734 -2.1104 -1.2921 -0.6658
 7021SOL     OW32524   1.096   2.878   6.962 -0.1850  0.0111 -0.4541
 7021SOL    HW132525   1.155   2.809   6.933  0.4631  0.3428  0.0904
 7021SOL    HW232526   1.150   2.932   7.019  3.6422 -0.5694 -3.5396
 7022SOL     OW32527   4.202   0.174   3.191  0.1001  0.9245  0.0452
 7022SOL    HW132528   4.147   0.215   3.258  0.1263  1.2118 -0.1076
 7022SOL    HW232529   4.190   0.082   3.215 -0.8826  0.5228 -1.9169
 7023SOL     OW32530   3.059   4.311   6.607  0.8509 -0.5247 -0.0360
 7023SOL    HW132531   3.113   4.232   6.617 -0.2939 -1.2205  0.6322
 7023SOL    HW232532   2.985   4.287   6.663 -0.1288 -1.3832 -1.7127
 7024SOL     OW32533   4.388   3.897   5.008 -0.2311  0.1624  0.0945
 7024SOL    HW132534   4.339   3.919   4.928 -1.5245 -3.2013 -0.0359
 7024SOL    HW232535   4.323   3.847   5.057 -1.5493  0.6172 -1.1929
 7025SOL     OW32536   4.702   1.959  17.522  0.4314  0.6210 -0.9875
 7025SOL    HW132537   0.058   1.924  17.479 -0.1762  0.0887 -1.6736
 7025SOL    HW232538   4.719   1.956  17.616  0.7270  0.6256 -1.0415
 7026SOL     OW32539   1.097   0.016   0.815  0.3859 -0.3068 -0.1393
 7026SOL    HW132540   1.177   4.686   0.815  0.9083  0.5067  0.8020
 7026SOL    HW232541   1.066   0.012   0.905  0.5454 -1.5281 -0.1365
 7027SOL     OW32542   1.719   3.142   4.615  0.0503 -0.2127  0.1928
 7027SOL    HW132543   1.783   3.181   4.675  0.0502  1.9025 -1.1664
 7027SOL    HW232544   1.723   3.049   4.637 -0.1805  0.0414  1.3354
 7028SOL     OW32545   0.363   4.043  12.056  0.0578  0.6753  0.5421
 7028SOL    HW132546   0.312   4.118  12.028 -0.2672  0.2399 -0.0244
 7028SOL    HW232547   0.451   4.077  12.040 -0.0858  1.2497  0.9536
 7029SOL     OW32548   0.955   1.153   6.720 -0.3800 -0.3576 -0.0914
 7029SOL    HW132549   0.910   1.164   6.636  2.2972  1.3303 -1.3025
 7029SOL    HW232550   0.983   1.241   6.747 -1.6095 -0.1310  0.4442
 7030SOL     OW32551   3.949   3.368   6.624  0.3516  0.5012 -0.6028
 7030SOL    HW132552   3.927   3.379   6.717  3.1363 -1.2393  0.2739
 7030SOL    HW232553   3.866   3.359   6.577 -0.3016 -4.6630  1.5664
 7031SOL     OW32554   4.450   1.884   3.612  0.0734 -0.2004  0.0592
 7031SOL    HW132555   4.441   1.892   3.517 -2.5274  0.7909  0.3949
 7031SOL    HW232556   4.365   1.848   3.636  0.3701 -0.4066  0.8207
 7032SOL     OW32557   3.338   3.975  13.755  0.3769 -0.0271 -0.3083
 7032SOL    HW132558   3.296   3.957  13.671  2.2410  1.5030 -1.5756
 7032SOL    HW232559   3.272   3.942  13.815  1.4206 -1.4170  0.0863
 7033SOL     OW32560   3.676   1.819   3.340 -0.2407  0.8159 -0.8674
 7033SOL    HW132561   3.670   1.805   3.435 -0.0978  0.5271 -0.9015
 7033SOL    HW232562   3.642   1.737   3.304  2.0675 -0.3788 -0.3460
 7034SOL     OW32563   1.632   3.372   2.648 -0.3665 -0.3330 -0.0791
 7034SOL    HW132564   1.560   3.317   2.616  0.7148 -0.2462 -2.6510
 7034SOL    HW232565   1.710   3.322   2.624 -0.2668 -0.4747  0.5339
 7035SOL     OW32566   2.690   3.344   6.583  0.1213  0.3620  0.2448
 7035SOL    HW132567   2.635   3.269   6.558  1.2942 -0.6088  0.5671
 7035SOL    HW232568   2.651   3.363   6.668 -0.1374  0.2119  0.1577
 7036SOL     OW32569   1.582   1.867  10.024  0.4747 -0.1190  0.1079
 7036SOL    HW132570   1.509   1.864  10.085 -0.2151 -0.3500 -0.7214
 7036SOL    HW232571   1.559   1.928   9.953 -1.2228 -1.2347 -0.2954
 7037SOL     OW32572   4.295   3.813   9.786  0.3524 -0.6684  0.3171
 7037SOL    HW132573   4.275   3.740   9.845 -2.5213 -0.8086 -0.8021
 7037SOL    HW232574   4.309   3.892   9.837 -0.9040 -0.5748  0.5045
 7038SOL     OW32575   3.812   2.891   8.168  0.3095 -0.4158  0.6118
 7038SOL    HW132576   3.726   2.851   8.183 -0.4199  0.9230 -0.0033
 7038SOL    HW232577   3.835   2.885   8.261  1.8290  0.9553  0.3129
 7039SOL     OW32578   0.361   1.962   7.831 -0.2485 -1.1021 -0.2798
 7039SOL    HW132579   0.317   2.016   7.766  0.0758  2.3427  2.3291
 7039SOL    HW232580   0.292   1.919   7.881 -0.0284  2.0798  2.7736
 7040SOL     OW32581   1.683   4.193  17.358 -0.3671  0.6481  0.0349
 7040SOL    HW132582   1.763   4.212  17.309 -0.2638  0.1980  0.0243
 7040SOL    HW232583   1.610   4.238  17.317 -0.5840  0.7402  0.5163
 7041SOL     OW32584   1.748   2.193  10.654 -0.0858 -0.0422 -0.2176
 7041SOL    HW132585   1.796   2.208  10.736  0.9592 -0.2601 -0.7858
 7041SOL    HW232586   1.808   2.238  10.595 -0.0425 -0.8489 -0.7870
 7042SOL     OW32587   0.417   0.306   8.512 -0.3585 -0.0932 -0.4418
 7042SOL    HW132588   0.452   0.372   8.452  1.9625 -1.5988 -0.7629
 7042SOL    HW232589   0.332   0.339   8.540 -0.0584  0.5474 -0.2958
 7043SOL     OW32590   1.730   4.634  11.731  0.1285 -0.6510  0.7298
 7043SOL    HW132591   1.642   4.634  11.769  0.0120  1.1857  0.4507
 7043SOL    HW232592   1.712   4.659  11.640  2.0119  0.4090  0.6330
 7044SOL     OW32593   0.013   4.628   2.446 -0.3362 -0.3825  0.5365
 7044SOL    HW132594   4.683   4.672   2.513 -0.0199  1.1885 -0.2466
 7044SOL    HW232595   0.102   4.643   2.477 -1.2775  2.0689  2.0132
 7045SOL     OW32596   2.062   0.805  15.026 -0.7202  0.4104  0.1777
 7045SOL    HW132597   1.968   0.813  15.045 -0.9701 -1.6575 -0.2280
 7045SOL    HW232598   2.064   0.720  14.983 -2.9736 -0.1418  1.1545
 7046SOL     OW32599   1.351   0.456   7.214 -0.1218 -0.5347  0.7557
 7046SOL    HW132600   1.300   0.538   7.211 -0.9230 -1.0760 -0.4613
 7046SOL    HW232601   1.404   0.467   7.293  2.1786 -0.1695 -0.8353
 7047SOL     OW32602   2.498   3.484  14.974  0.0248  0.6892 -0.8501
 7047SOL    HW132603   2.427   3.439  15.020  2.1002  0.0149  1.6663
 7047SOL    HW232604   2.575   3.474  15.030  0.1358  2.1921 -0.7457
 7048SOL     OW32605   1.603   4.145   7.952 -0.3247 -0.3589 -0.3101
 7048SOL    HW132606   1.523   4.094   7.938  0.1144 -0.2478 -3.1364
 7048SOL    HW232607   1.662   4.082   7.993 -1.2797 -1.3886 -0.4935
 7049SOL     OW32608   4.493   1.255   0.599 -0.0501 -0.0335  0.5207
 7049SOL    HW132609   4.532   1.309   0.530  1.4358  0.2493  1.5715
 7049SOL    HW232610   4.468   1.182   0.542 -1.4666  1.2987 -0.5535
 7050SOL     OW32611   1.804   2.756   8.434 -0.0221 -0.1034  0.2609
 7050SOL    HW132612   1.741   2.797   8.493  1.6705  1.7178  0.8026
 7050SOL    HW232613   1.852   2.820   8.381 -1.9788  0.7856 -0.4668
 7051SOL     OW32614   2.866   0.274   7.858  0.1514 -0.7002 -0.0533
 7051SOL    HW132615   2.808   0.252   7.785  0.7031  1.8478 -1.2997
 7051SOL    HW232616   2.952   0.250   7.822  0.2609 -1.3401  0.6524
 7052SOL     OW32617   0.693   2.948   7.478  0.1268  0.0508  0.2123
 7052SOL    HW132618   0.688   2.973   7.386  3.8156 -0.4803 -0.1496
 7052SOL    HW232619   0.755   2.878   7.458 -0.2788 -0.7110  1.6174
 7053SOL     OW32620   2.223   2.074  15.488 -0.0727  0.7138 -0.1269
 7053SOL    HW132621   2.242   1.981  15.503 -1.3932  0.5379  0.4835
 7053SOL    HW232622   2.221   2.110  15.576  0.5270 -0.4985  0.3805
 7054SOL     OW32623   0.524   4.270   7.189 -0.0746 -0.5751  0.0052
 7054SOL    HW132624   0.441   4.228   7.169 -0.8922  0.2660  1.6392
 7054SOL    HW232625   0.582   4.248   7.116  0.6479 -0.8492  0.6539
 7055SOL     OW32626   4.289   2.359   7.195 -0.1524  0.1486 -0.2014
 7055SOL    HW132627   4.248   2.358   7.281  0.1603  0.1098 -0.0544
 7055SOL    HW232628   4.364   2.305   7.220 -1.2267 -1.2195  0.1186
 7056SOL     OW32629   4.099   1.231   0.773  0.1839  0.6088 -0.2739
 7056SOL    HW132630   4.074   1.239   0.681  2.0223 -0.3841 -0.8620
 7056SOL    HW232631   4.168   1.165   0.763 -0.2885 -0.0095  0.5028
 7057SOL     OW32632   4.270   1.961   7.662 -0.0555 -0.0258 -0.9805
 7057SOL    HW132633   4.293   1.950   7.754 -1.0696 -0.2595 -0.7462
 7057SOL    HW232634   4.249   1.873   7.631  0.4264 -0.9407  1.2399
 7058SOL     OW32635   3.150   1.880   7.667  0.1096 -0.8411 -0.2346
 7058SOL    HW132636   3.240   1.851   7.648 -0.0067 -0.5050 -1.3089
 7058SOL    HW232637   3.126   1.814   7.732  0.2907 -1.1680 -0.4978
 7059SOL     OW32638   2.926   1.531  15.515  0.6566  0.0455  0.4377
 7059SOL    HW132639   2.991   1.483  15.465  1.8541 -0.7564  2.7736
 7059SOL    HW232640   2.924   1.605  15.454 -1.2471  0.2188  0.7156
 7060SOL     OW32641   4.187   2.108   7.421 -0.4250 -0.5682  0.9187
 7060SOL    HW132642   4.280   2.109   7.400 -0.7938 -1.0436 -0.7287
 7060SOL    HW232643   4.181   2.043   7.490 -1.3785 -1.9110 -0.4143
 7061SOL     OW32644   1.016   0.700   2.063 -0.5225 -0.0268  1.0639
 7061SOL    HW132645   1.099   0.695   2.016 -0.9928  0.5649  0.1473
 7061SOL    HW232646   1.025   0.759   2.138  3.3156  2.1066 -1.1140
 7062SOL     OW32647   1.361   3.016  13.413  0.1635  0.0145 -0.1294
 7062SOL    HW132648   1.316   2.941  13.374  1.7164  0.2038 -2.2440
 7062SOL    HW232649   1.296   3.087  13.409 -0.8444 -0.9682 -1.3170
 7063SOL     OW32650   4.173   4.600   8.271 -0.6252  0.3583 -0.3852
 7063SOL    HW132651   4.119   4.648   8.208 -0.7109  0.0328 -0.5567
 7063SOL    HW232652   4.104   4.564   8.327 -0.4482 -1.9678 -1.6756
 7064SOL     OW32653   0.826   1.312   0.094  0.3424 -0.5055 -0.3605
 7064SOL    HW132654   0.759   1.359   0.143 -0.0551 -0.8777 -0.5579
 7064SOL    HW232655   0.853   1.380   0.032 -0.6522  0.8861  0.7384
 7065SOL     OW32656   1.952   3.830  14.255  0.0731 -0.0358 -0.0768
 7065SOL    HW132657   2.007   3.761  14.294  0.1241  0.5961  0.9605
 7065SOL    HW232658   1.871   3.803  14.299 -0.4699  1.5262 -0.1470
 7066SOL     OW32659   3.622   1.707  14.398 -0.3587  0.5624  0.2571
 7066SOL    HW132660   3.705   1.755  14.409  0.5612 -0.8707 -0.4105
 7066SOL    HW232661   3.639   1.663  14.315  0.3737  2.0504 -0.3861
 7067SOL     OW32662   1.068   4.352  11.212  0.3805  0.1857 -0.2831
 7067SOL    HW132663   0.995   4.402  11.175  0.3058  0.6795  0.5201
 7067SOL    HW232664   1.021   4.271  11.234 -3.7752  2.4365 -0.8908
 7068SOL     OW32665   2.425   0.516   5.355 -0.2207 -0.6861  0.1643
 7068SOL    HW132666   2.470   0.450   5.302 -2.1290 -0.9480 -1.1496
 7068SOL    HW232667   2.445   0.596   5.305 -0.2247  1.1172  3.0562
 7069SOL     OW32668   3.509   0.935   4.297  0.1406 -0.6033  0.0703
 7069SOL    HW132669   3.419   0.926   4.268  0.6772  1.3149 -2.1776
 7069SOL    HW232670   3.494   0.895   4.382 -2.2007 -0.9315 -0.4910
 7070SOL     OW32671   2.213   0.249  17.097  0.5227 -0.6026  0.2289
 7070SOL    HW132672   2.211   0.302  17.177  1.3706  2.1879 -1.5887
 7070SOL    HW232673   2.300   0.260  17.059  0.2713  1.3508  0.2098
 7071SOL     OW32674   0.652   1.043   3.810  0.0483 -0.3598  0.1857
 7071SOL    HW132675   0.643   0.948   3.803 -1.0474 -0.3930  1.9696
 7071SOL    HW232676   0.648   1.065   3.717  1.0715  2.5061  0.8124
 7072SOL     OW32677   2.696   1.747  12.704  0.0572 -0.2099  0.4482
 7072SOL    HW132678   2.765   1.688  12.737 -1.0603 -1.1125  1.1631
 7072SOL    HW232679   2.614   1.706  12.732 -0.1191  0.3580  0.7573
 7073SOL     OW32680   2.426   0.865   8.247 -0.4340  0.3034 -0.1612
 7073SOL    HW132681   2.515   0.885   8.276 -0.8983  1.0206  0.7769
 7073SOL    HW232682   2.375   0.896   8.322  0.9408  0.9848  0.4942
 7074SOL     OW32683   4.116   3.517   8.888  0.1811  0.1541 -0.0189
 7074SOL    HW132684   4.211   3.517   8.886  0.1573  0.3391 -0.9366
 7074SOL    HW232685   4.097   3.541   8.979 -0.6201 -2.1165  0.4142
 7075SOL     OW32686   0.621   4.715  12.974 -0.2059 -0.2358 -0.3827
 7075SOL    HW132687   0.650   0.054  13.041 -2.0082 -0.2516  0.4034
 7075SOL    HW232688   0.585   4.643  13.026  1.5814  0.0738  1.2519
 7076SOL     OW32689   0.379   2.647   6.910 -0.2050  0.9750  0.4378
 7076SOL    HW132690   0.468   2.638   6.876 -1.6994 -2.3481 -2.6797
 7076SOL    HW232691   0.396   2.631   7.003 -2.6180 -2.3314  0.3089
 7077SOL     OW32692   3.962   4.462   1.786 -0.6690 -0.0299  0.1569
 7077SOL    HW132693   4.034   4.452   1.848  0.8428 -0.5651 -1.6592
 7077SOL    HW232694   4.009   4.466   1.702 -0.9261 -1.1954 -0.0429
 7078SOL     OW32695   3.632   2.171   7.456  0.0871  0.0194 -0.4068
 7078SOL    HW132696   3.547   2.212   7.476  0.0854 -0.4352  0.5219
 7078SOL    HW232697   3.695   2.228   7.500 -0.7027 -0.5629  1.4534
 7079SOL     OW32698   0.716   1.484   4.224 -0.4324 -0.1813 -0.1998
 7079SOL    HW132699   0.667   1.465   4.144 -0.5869 -2.1543  0.3447
 7079SOL    HW232700   0.718   1.394   4.256  0.3925  0.1620  0.6981
 7080SOL     OW32701   3.110   3.515   4.003  0.0065 -0.6485  0.2533
 7080SOL    HW132702   3.176   3.502   4.071 -0.9058  0.6320  1.3732
 7080SOL    HW232703   3.127   3.435   3.953  1.1011  0.3133 -0.9141
 7081SOL     OW32704   2.112   3.199   6.349  0.2653  1.0334 -0.0844
 7081SOL    HW132705   2.019   3.220   6.343 -0.2108 -1.0969 -0.2030
 7081SOL    HW232706   2.107   3.157   6.434 -1.0497  2.4469  0.5345
 7082SOL     OW32707   4.231   3.421   1.005  0.0362  0.1876 -0.2759
 7082SOL    HW132708   4.166   3.356   1.031 -2.0898  1.9362 -1.2795
 7082SOL    HW232709   4.200   3.508   1.028 -1.0001 -0.4710  0.8283
 7083SOL     OW32710   4.535   1.982  14.979 -0.2046  0.0601 -0.6908
 7083SOL    HW132711   4.444   2.012  14.987  0.0500  0.8101 -0.6491
 7083SOL    HW232712   4.577   2.062  15.010 -0.5951  0.7314 -1.8878
 7084SOL     OW32713   3.604   3.305   3.892 -0.0051 -0.3321  0.2675
 7084SOL    HW132714   3.644   3.391   3.878  1.1736 -0.9667 -0.2556
 7084SOL    HW232715   3.555   3.299   3.810 -0.8102 -1.5485  0.8395
 7085SOL     OW32716   2.956   0.218   4.169  0.0117  0.0991 -0.1468
 7085SOL    HW132717   3.034   0.187   4.123  0.5975  3.7486 -1.6548
 7085SOL    HW232718   2.893   0.170   4.115 -1.2979  1.1407  0.4618
 7086SOL     OW32719   3.497   1.923   7.391  0.5077  0.2115 -0.1328
 7086SOL    HW132720   3.526   2.015   7.390  0.3081  0.3057  2.1297
 7086SOL    HW232721   3.581   1.883   7.369  0.6736  1.5173 -1.8949
 7087SOL     OW32722   4.304   2.189   8.428  0.7978 -0.3001  0.4111
 7087SOL    HW132723   4.269   2.256   8.488 -0.8735  0.7271 -1.7176
 7087SOL    HW232724   4.238   2.173   8.360  1.9673 -0.6768 -0.6252
 7088SOL     OW32725   3.790   2.492   4.014  0.1010 -0.5630  0.3792
 7088SOL    HW132726   3.859   2.558   4.008  2.1196 -2.6318  0.5873
 7088SOL    HW232727   3.785   2.466   4.106  0.8740  2.4598  1.2552
 7089SOL     OW32728   0.357   0.035   7.370 -0.1362 -0.7003 -0.4398
 7089SOL    HW132729   0.351   4.688   7.435  0.7224 -0.3543  0.0089
 7089SOL    HW232730   0.273   0.073   7.396 -0.2191  0.2474 -2.1236
 7090SOL     OW32731   2.230   1.800  12.739  0.0722  0.3960  0.4157
 7090SOL    HW132732   2.297   1.732  12.740  0.0858  0.3915 -0.8084
 7090SOL    HW232733   2.273   1.868  12.791  0.4127  0.3119  0.2412
 7091SOL     OW32734   0.590   4.423   9.061 -0.6524 -0.0779  0.0613
 7091SOL    HW132735   0.633   4.339   9.075 -1.7994 -0.5188  0.9293
 7091SOL    HW232736   0.608   4.473   9.140 -1.2649  1.1773 -0.5758
 7092SOL     OW32737   0.887   0.562   2.305 -0.5674  0.5885 -0.0984
 7092SOL    HW132738   0.909   0.560   2.212  1.0759 -1.8104  0.3376
 7092SOL    HW232739   0.925   0.646   2.331  2.3997 -0.4955 -0.8779
 7093SOL     OW32740   3.127   4.664   7.576 -1.0044 -0.2944 -0.0880
 7093SOL    HW132741   3.087   4.588   7.534 -1.0443  0.0510 -0.6725
 7093SOL    HW232742   3.214   4.654   7.537 -0.7470  0.4512  0.3002
 7094SOL     OW32743   2.852   1.690  11.652 -0.1075  0.1503  0.1369
 7094SOL    HW132744   2.824   1.772  11.611 -3.1059  0.3552  2.5991
 7094SOL    HW232745   2.946   1.707  11.660 -0.5063  2.9306 -1.0118
 7095SOL     OW32746   1.413   3.609  13.225 -0.0423 -0.3031 -0.0056
 7095SOL    HW132747   1.481   3.563  13.176 -1.1916 -0.8544 -1.0859
 7095SOL    HW232748   1.442   3.698  13.203 -0.6726  0.0252  0.4829
 7096SOL     OW32749   3.018   4.048   3.362 -0.1214  0.0776 -0.6611
 7096SOL    HW132750   2.961   4.098   3.421 -0.2761 -1.2732  0.3277
 7096SOL    HW232751   2.984   3.960   3.379  1.2259 -0.3163 -0.0349
 7097SOL     OW32752   3.130   1.491   1.933 -0.4156 -0.8228  0.2988
 7097SOL    HW132753   3.144   1.442   1.851 -1.0794  0.2432 -0.4514
 7097SOL    HW232754   3.209   1.545   1.928 -0.2580 -0.9975  0.9417
 7098SOL     OW32755   3.048   0.976  17.151  0.7806  0.2700  0.0395
 7098SOL    HW132756   3.008   0.966  17.238  0.7066 -0.0388 -0.0296
 7098SOL    HW232757   3.028   1.063  17.118  0.5917 -0.0231 -0.6074
 7099SOL     OW32758   4.412   4.691   6.131 -0.1293 -0.2789  0.8799
 7099SOL    HW132759   4.334   4.713   6.183 -1.7211 -1.5069 -1.0083
 7099SOL    HW232760   4.388   4.668   6.042  0.1296 -2.1284  1.2772
 7100SOL     OW32761   0.788   1.700   6.525  0.3504 -0.4040 -0.3762
 7100SOL    HW132762   0.787   1.628   6.588 -2.0719  0.0469  0.1192
 7100SOL    HW232763   0.741   1.771   6.570  0.9669 -1.5409  2.0427
 7101SOL     OW32764   2.620   2.492   5.473 -0.3848 -0.0578  0.3519
 7101SOL    HW132765   2.648   2.494   5.565  0.7580 -1.4727  0.0274
 7101SOL    HW232766   2.561   2.416   5.467  0.3395 -0.5726 -0.1818
 7102SOL     OW32767   1.751   2.949   5.045 -0.1208  0.1140 -0.4589
 7102SOL    HW132768   1.669   2.902   5.059  1.4306 -1.9055  1.7153
 7102SOL    HW232769   1.758   2.940   4.950 -2.1456 -0.7594 -0.5227
 7103SOL     OW32770   0.304   0.434  12.132 -0.1300  0.4341  0.4690
 7103SOL    HW132771   0.335   0.494  12.199  2.5826 -0.0004 -0.3646
 7103SOL    HW232772   0.359   0.465  12.059 -1.0950  1.8340  0.3307
 7104SOL     OW32773   0.161   2.957  15.457  0.0059  0.1487  0.1786
 7104SOL    HW132774   0.164   2.890  15.389  0.9788  0.2482  0.1123
 7104SOL    HW232775   0.247   2.949  15.498  0.6048  2.4810 -0.5879
 7105SOL     OW32776   2.361   2.723   0.073  0.1736 -0.4703  0.2825
 7105SOL    HW132777   2.315   2.798   0.111  0.1692 -0.2902 -0.0832
 7105SOL    HW232778   2.371   2.750  17.675 -1.9535  1.0189  0.5059
 7106SOL     OW32779   3.087   4.401   7.456 -0.7192  0.0523 -0.5738
 7106SOL    HW132780   3.181   4.420   7.465 -1.0936  1.2331  0.9295
 7106SOL    HW232781   3.069   4.380   7.548 -0.7216 -1.5723 -0.9463
 7107SOL     OW32782   2.698   1.587  15.649 -0.7640 -0.3151 -0.6637
 7107SOL    HW132783   2.763   1.537  15.600 -1.9682 -0.9090 -1.6586
 7107SOL    HW232784   2.743   1.614  15.729  0.7572  0.2608 -1.7377
 7108SOL     OW32785   2.006   0.410  12.165 -0.0340 -0.2853 -0.1987
 7108SOL    HW132786   2.085   0.384  12.212 -0.2009  0.4506  0.4915
 7108SOL    HW232787   1.993   0.497  12.203  0.4506  0.6072 -2.0978
 7109SOL     OW32788   1.117   1.745   5.223  0.0581 -0.9325 -0.2250
 7109SOL    HW132789   1.100   1.816   5.160  1.2291 -0.3796  0.0648
 7109SOL    HW232790   1.172   1.683   5.176  1.0177 -2.4144  2.9145
 7110SOL     OW32791   0.635   3.541   4.030 -0.7958 -0.5717  0.2079
 7110SOL    HW132792   0.596   3.616   4.075 -0.6442 -0.0235 -0.5776
 7110SOL    HW232793   0.678   3.585   3.957 -2.7364 -0.9485 -1.1716
 7111SOL     OW32794   0.305   1.068   2.018 -0.2376 -0.0897 -0.5445
 7111SOL    HW132795   0.270   0.998   1.963 -2.1617  0.0461  0.5144
 7111SOL    HW232796   0.319   1.019   2.099 -0.3681  1.7339  0.5727
 7112SOL     OW32797   3.328   1.349   5.378  0.1541  0.4778  0.1738
 7112SOL    HW132798   3.388   1.325   5.308  0.2359 -0.2017  0.4721
 7112SOL    HW232799   3.367   1.433   5.402 -1.2943  1.4883 -1.0889
 7113SOL     OW32800   4.699   4.708   5.879  0.0771 -0.6725  0.2552
 7113SOL    HW132801   4.629   4.713   5.814  0.0880 -3.2571  0.0701
 7113SOL    HW232802   0.015   4.621   5.870  1.7612  0.0621  0.3745
 7114SOL     OW32803   0.190   4.190   0.699  0.2319 -0.0197  0.2451
 7114SOL    HW132804   0.174   4.201   0.606  1.8655 -0.6388 -0.1062
 7114SOL    HW232805   0.191   4.094   0.701 -1.2149 -0.0367  0.3283
 7115SOL     OW32806   1.085   2.398   3.557  0.2058  0.3384  0.0716
 7115SOL    HW132807   1.024   2.472   3.560  0.9139  0.9926 -1.6209
 7115SOL    HW232808   1.039   2.336   3.500 -2.6229  1.6528  0.9369
 7116SOL     OW32809   4.129   0.967   2.415  0.2823 -0.0383 -0.5204
 7116SOL    HW132810   4.065   0.920   2.469 -1.3114  1.1438 -1.3792
 7116SOL    HW232811   4.125   1.060   2.440  2.6177  0.0857 -0.6772
 7117SOL     OW32812   2.464   3.010   0.529  0.1242 -0.6839 -0.1290
 7117SOL    HW132813   2.541   2.959   0.506 -0.3733 -1.3541 -0.3269
 7117SOL    HW232814   2.398   2.984   0.465 -0.0236 -0.5701 -0.0227
 7118SOL     OW32815   3.665   0.364   3.233 -0.0029 -0.0163  0.1139
 7118SOL    HW132816   3.748   0.333   3.270  0.2472 -0.5415 -0.8847
 7118SOL    HW232817   3.704   0.361   3.146  1.5890 -0.7543  0.8471
 7119SOL     OW32818   0.676   2.304  12.166  0.4133  0.0568  0.6150
 7119SOL    HW132819   0.693   2.395  12.193  1.5240  0.9073 -2.9319
 7119SOL    HW232820   0.687   2.266  12.253 -2.2441  0.1223  0.9914
 7120SOL     OW32821   3.321   2.770   8.488  0.2893 -0.5945 -0.1077
 7120SOL    HW132822   3.367   2.853   8.474  0.2855 -0.6103 -0.2177
 7120SOL    HW232823   3.230   2.797   8.491  0.4295 -0.2161  0.6336
 7121SOL     OW32824   0.081   1.221   9.039  0.3747 -0.0418 -0.0060
 7121SOL    HW132825   0.119   1.309   9.043  2.1675 -0.7765 -0.6433
 7121SOL    HW232826   0.103   1.195   8.950  1.1213 -1.0921  0.4777
 7122SOL     OW32827   4.071   0.646  13.486 -0.0292 -0.0191  0.5684
 7122SOL    HW132828   4.162   0.656  13.514  0.3436 -1.5920 -0.0694
 7122SOL    HW232829   4.058   0.552  13.475  0.0166  0.1471 -0.9456
 7123SOL     OW32830   4.314   4.245   7.818  0.6130 -0.5798  0.4406
 7123SOL    HW132831   4.307   4.213   7.908 -2.5732 -3.8621 -0.9563
 7123SOL    HW232832   4.338   4.336   7.834  0.9055 -0.2994 -1.6231
 7124SOL     OW32833   2.425   2.192   7.593  0.1534 -0.0812 -0.5545
 7124SOL    HW132834   2.340   2.164   7.628  1.0542 -1.1878  0.7503
 7124SOL    HW232835   2.426   2.130   7.520 -0.3618 -0.7619  0.0111
 7125SOL     OW32836   0.797   1.170   5.197 -0.2058 -0.4416 -0.3552
 7125SOL    HW132837   0.857   1.189   5.269  0.4032  0.8162 -1.1973
 7125SOL    HW232838   0.742   1.095   5.221  0.4367 -0.7820  0.0384
 7126SOL     OW32839   4.284   1.353   3.069 -0.1311 -0.6501  0.7466
 7126SOL    HW132840   4.324   1.440   3.070 -1.3650 -0.0871  0.2690
 7126SOL    HW232841   4.255   1.341   2.979 -1.1009 -1.3229  1.1562
 7127SOL     OW32842   0.864   0.346   0.008 -0.1639 -0.1964 -0.6201
 7127SOL    HW132843   0.936   0.309   0.060  0.2189 -0.4492 -1.3220
 7127SOL    HW232844   0.873   0.301  17.617  0.4183 -2.3402  0.5882
 7128SOL     OW32845   2.728   0.318   8.712  0.4157  0.6053 -0.4683
 7128SOL    HW132846   2.797   0.361   8.661  1.2693 -1.7445 -1.3137
 7128SOL    HW232847   2.652   0.333   8.655 -0.3002 -1.3913 -0.0588
 7129SOL     OW32848   4.243   0.489   9.698  0.2534 -0.3112  0.0847
 7129SOL    HW132849   4.239   0.530   9.612 -2.8758 -0.7186  0.0569
 7129SOL    HW232850   4.253   0.399   9.665  2.5081  0.6160 -1.7641
 7130SOL     OW32851   4.069   0.538   2.639 -0.2134 -0.2923 -0.1377
 7130SOL    HW132852   4.072   0.467   2.575  1.5401  1.0186 -1.5545
 7130SOL    HW232853   4.016   0.607   2.599 -0.2951 -0.2707  0.0091
 7131SOL     OW32854   1.513   3.515   6.835 -0.2170 -0.3057  0.0908
 7131SOL    HW132855   1.481   3.605   6.841  2.1753  0.5819 -0.4686
 7131SOL    HW232856   1.445   3.478   6.778 -0.1469  1.9680 -1.4867
 7132SOL     OW32857   4.206   1.125  12.323  0.0092  0.2187 -0.6915
 7132SOL    HW132858   4.259   1.045  12.323 -0.8032 -0.3276 -0.3921
 7132SOL    HW232859   4.124   1.079  12.345  0.3525  0.3563  0.8642
 7133SOL     OW32860   3.426   1.091   1.498  0.0293 -0.1978  0.0721
 7133SOL    HW132861   3.488   1.043   1.553  1.7644  2.7899  0.7491
 7133SOL    HW232862   3.488   1.123   1.432 -0.8726 -1.1313 -1.2037
 7134SOL     OW32863   4.619   1.077   4.836  0.0662 -0.0519  0.4520
 7134SOL    HW132864   4.617   0.998   4.889 -0.3288 -0.6187 -0.3985
 7134SOL    HW232865   4.604   1.037   4.750  0.2618 -0.1770  0.4777
 7135SOL     OW32866   3.156   2.761   8.860 -0.2295 -0.0858 -0.1670
 7135SOL    HW132867   3.084   2.705   8.888  0.8404 -1.2359  0.2721
 7135SOL    HW232868   3.198   2.787   8.942  1.6166 -0.4554 -0.9959
 7136SOL     OW32869   1.976   1.850  16.373 -0.4608  0.3271  0.0608
 7136SOL    HW132870   1.902   1.895  16.334 -1.4051 -1.8460 -0.6965
 7136SOL    HW232871   2.012   1.807  16.295  2.3586 -1.3883  2.3212
 7137SOL     OW32872   0.829   3.921   5.426 -0.2874 -0.1053  0.0508
 7137SOL    HW132873   0.887   3.856   5.466 -2.3410 -1.8377  0.2207
 7137SOL    HW232874   0.818   3.877   5.342 -0.7595 -0.5349  0.3340
 7138SOL     OW32875   1.343   1.575   6.922  0.2919 -0.5139  0.6185
 7138SOL    HW132876   1.326   1.536   7.008  0.4973 -0.2001  0.7994
 7138SOL    HW232877   1.262   1.552   6.877  0.3462  1.0887 -0.2657
 7139SOL     OW32878   2.528   1.573  17.361  0.1027 -0.8336 -0.1714
 7139SOL    HW132879   2.551   1.666  17.365  1.2177 -1.0245 -2.4622
 7139SOL    HW232880   2.591   1.543  17.296  2.2415  1.7387  0.7637
 7140SOL     OW32881   0.788   1.371   5.021  0.0103  0.1319  0.0969
 7140SOL    HW132882   0.788   1.288   5.068 -0.2300  0.3648  0.5074
 7140SOL    HW232883   0.699   1.405   5.020 -0.7264 -1.7823  0.5623
 7141SOL     OW32884   1.397   0.819   2.693  0.1249  0.3193 -0.1667
 7141SOL    HW132885   1.490   0.814   2.714 -0.1140  0.5868  0.9643
 7141SOL    HW232886   1.384   0.731   2.657  1.4935  0.0476 -0.0017
 7142SOL     OW32887   2.023   2.462  15.037  0.4855 -0.3340 -0.1188
 7142SOL    HW132888   2.105   2.443  15.084  1.2910  0.6439 -1.1229
 7142SOL    HW232889   1.972   2.382  15.046  0.7202 -0.5493 -0.6600
 7143SOL     OW32890   1.682   0.051   4.293  0.1699 -0.4389  0.2536
 7143SOL    HW132891   1.605   0.046   4.350  0.3903  0.8384  0.6501
 7143SOL    HW232892   1.700   0.144   4.282 -2.2488  0.2842  2.5591
 7144SOL     OW32893   2.924   0.457  14.459  0.3811  0.5824  0.1429
 7144SOL    HW132894   2.852   0.412  14.503  0.9957  0.1169  0.6640
 7144SOL    HW232895   2.898   0.549  14.454  0.0511  0.6522  3.1611
 7145SOL     OW32896   1.876   0.156   8.011 -0.1083  0.0914  0.7711
 7145SOL    HW132897   1.934   0.094   7.967 -0.7278 -0.5977  0.9392
 7145SOL    HW232898   1.909   0.243   7.987 -1.4724  0.9594  2.0340
 7146SOL     OW32899   3.412   3.214   1.785 -0.6803  0.0432  0.3846
 7146SOL    HW132900   3.440   3.164   1.861 -1.4846 -2.5667 -1.0409
 7146SOL    HW232901   3.497   3.202   1.742 -0.1913  1.9133  0.8231
 7147SOL     OW32902   2.486   1.556  11.640  0.1606  0.8658  0.2006
 7147SOL    HW132903   2.501   1.631  11.581  1.8578  0.8691  0.6371
 7147SOL    HW232904   2.534   1.590  11.716  0.0659 -1.6383  1.3496
 7148SOL     OW32905   1.013   3.644  12.814 -0.3409 -0.0817  0.1166
 7148SOL    HW132906   0.933   3.695  12.829  0.6583  1.0176  1.6429
 7148SOL    HW232907   1.075   3.702  12.858  2.3511 -1.1547 -2.3291
 7149SOL     OW32908   2.563   0.488  12.489  0.4017 -0.5101  0.5167
 7149SOL    HW132909   2.525   0.570  12.519 -1.5364 -1.8562  1.7360
 7149SOL    HW232910   2.491   0.427  12.508  1.2241 -1.5156  0.4141
 7150SOL     OW32911   0.938   1.566  12.690 -0.2078  0.6258  0.3891
 7150SOL    HW132912   0.938   1.493  12.628 -1.9374  1.5835 -0.7295
 7150SOL    HW232913   0.952   1.517  12.771  0.1684  0.3377  0.1522
 7151SOL     OW32914   2.784   1.368   9.568  0.3015  0.1920 -0.0243
 7151SOL    HW132915   2.738   1.368   9.652  0.7719  0.0064  0.2389
 7151SOL    HW232916   2.721   1.401   9.504  0.0266 -1.1106 -0.4200
 7152SOL     OW32917   0.761   0.836  15.614  0.1781  0.0510 -0.2182
 7152SOL    HW132918   0.719   0.922  15.616  0.9819  0.4779 -1.9084
 7152SOL    HW232919   0.824   0.860  15.547 -1.1922  0.2355 -1.4295
 7153SOL     OW32920   2.507   1.762   3.330  0.1311 -0.1137  0.1531
 7153SOL    HW132921   2.520   1.682   3.279  2.1783 -0.1688  0.7288
 7153SOL    HW232922   2.595   1.800   3.330 -0.4023  1.1389  0.3962
 7154SOL     OW32923   4.211   4.333  12.220 -0.0085  0.8058 -0.0014
 7154SOL    HW132924   4.262   4.291  12.290 -2.2156 -1.0747  0.4510
 7154SOL    HW232925   4.258   4.412  12.192  0.8710  1.0026  2.0502
 7155SOL     OW32926   1.856   3.377   3.733  0.1216  0.6885  0.0256
 7155SOL    HW132927   1.946   3.391   3.762 -0.2142  1.1621  0.8709
 7155SOL    HW232928   1.817   3.458   3.766 -0.9186  1.4592 -3.0874
 7156SOL     OW32929   2.800   3.450   1.672  0.5311 -0.3963 -0.3175
 7156SOL    HW132930   2.730   3.416   1.728  0.4925  0.4383  0.1407
 7156SOL    HW232931   2.796   3.384   1.603 -2.6423  0.4882 -1.0163
 7157SOL     OW32932   3.477   2.924   3.769  0.2862  0.7055 -0.0971
 7157SOL    HW132933   3.558   2.969   3.792  0.9027 -0.5140  0.1531
 7157SOL    HW232934   3.509   2.834   3.778 -0.3181  0.4173 -0.8463
 7158SOL     OW32935   3.307   0.300   6.164 -0.1010 -0.3224 -0.0750
 7158SOL    HW132936   3.272   0.216   6.135  1.2030 -0.8407 -0.1635
 7158SOL    HW232937   3.234   0.357   6.141  1.5463  2.3904  1.4767
 7159SOL     OW32938   1.444   3.274   4.284  0.8561 -0.5384  0.5571
 7159SOL    HW132939   1.467   3.278   4.377 -2.9919 -2.4078  1.5734
 7159SOL    HW232940   1.350   3.258   4.291  0.6612  1.6936  2.9603
 7160SOL     OW32941   3.374   3.826  12.998  0.5118 -0.1182  0.2549
 7160SOL    HW132942   3.409   3.745  13.037 -1.0128 -1.2186 -0.6938
 7160SOL    HW232943   3.452   3.845  12.945  0.0787  0.5283 -0.1361
 7161SOL     OW32944   2.118   4.158   4.249 -0.5722  0.3646 -0.0064
 7161SOL    HW132945   2.106   4.252   4.267  2.4750  1.0229 -1.4351
 7161SOL    HW232946   2.116   4.111   4.332 -3.0951  1.0010  0.3212
 7162SOL     OW32947   4.114   3.739   4.826  0.6043  0.3618  0.0950
 7162SOL    HW132948   4.164   3.819   4.811 -1.0824  1.2490 -0.8619
 7162SOL    HW232949   4.178   3.675   4.796  2.3853  1.5698  1.3559
 7163SOL     OW32950   3.266   4.470   7.063 -0.4518  0.1860 -0.0011
 7163SOL    HW132951   3.177   4.433   7.066  0.7807 -2.7789 -0.4607
 7163SOL    HW232952   3.248   4.553   7.018  0.7496  0.2113 -0.4313
 7164SOL     OW32953   1.600   3.224  17.387 -0.4505  0.2618 -0.7946
 7164SOL    HW132954   1.535   3.153  17.389 -1.4968  1.2480  0.0203
 7164SOL    HW232955   1.558   3.276  17.319  0.0651  1.1381 -0.4294
 7165SOL     OW32956   1.429   1.713   8.173 -0.1890  0.4952 -0.3894
 7165SOL    HW132957   1.406   1.766   8.097 -0.2684 -1.7302 -1.9288
 7165SOL    HW232958   1.345   1.712   8.218 -0.1999  1.7979 -0.3834
 7166SOL     OW32959   3.416   1.459   5.837  0.2630  0.0559 -0.7906
 7166SOL    HW132960   3.429   1.490   5.926 -0.8269 -1.3985 -0.1351
 7166SOL    HW232961   3.472   1.519   5.788  0.6368  0.5608  0.2704
 7167SOL     OW32962   0.801   2.590   9.041  0.3719  0.9890  0.2229
 7167SOL    HW132963   0.720   2.631   9.072  0.4917 -0.4577  2.4655
 7167SOL    HW232964   0.798   2.594   8.946 -4.4041 -0.8042  0.3061
 7168SOL     OW32965   4.257   3.925  12.393  0.4680  0.3241 -0.0236
 7168SOL    HW132966   4.263   3.950  12.486 -0.0462 -2.2633  0.7156
 7168SOL    HW232967   4.347   3.935  12.360  0.4951 -0.0573 -0.0636
 7169SOL     OW32968   2.110   1.535   6.738 -0.2241  0.1340  0.4677
 7169SOL    HW132969   2.052   1.610   6.749 -1.4077 -0.3487 -2.4116
 7169SOL    HW232970   2.054   1.477   6.686  2.2824 -1.9772  0.1106
 7170SOL     OW32971   0.955   3.183  14.349  0.1781  0.4000  0.0517
 7170SOL    HW132972   0.908   3.252  14.394  0.1809  0.3588  0.1178
 7170SOL    HW232973   1.020   3.149  14.411 -0.7780 -0.9730  0.2930
 7171SOL     OW32974   4.292   1.585  13.540  0.3943 -0.1178 -0.0517
 7171SOL    HW132975   4.207   1.550  13.512 -0.0816  0.8305  0.1887
 7171SOL    HW232976   4.351   1.517  13.508 -1.0158 -0.6530 -1.5153
 7172SOL     OW32977   0.576   2.142  16.171  0.2856  0.0947 -0.7298
 7172SOL    HW132978   0.558   2.231  16.138 -0.3442 -0.5191 -2.0401
 7172SOL    HW232979   0.527   2.150  16.253 -1.6454  1.6039 -2.0340
 7173SOL     OW32980   4.022   4.360  15.925 -0.6081 -0.3925 -0.1264
 7173SOL    HW132981   3.962   4.396  15.859 -2.0957 -0.6565  1.0837
 7173SOL    HW232982   4.037   4.269  15.898 -3.0973 -1.1942  1.1711
 7174SOL     OW32983   3.065   4.342   3.797  0.7170  0.0326 -0.2935
 7174SOL    HW132984   3.116   4.374   3.723  0.6122 -0.5743 -0.6344
 7174SOL    HW232985   3.124   4.283   3.844  1.5539  1.0841 -0.0365
 7175SOL     OW32986   2.265   4.069   5.454 -0.7925 -0.3885 -0.0077
 7175SOL    HW132987   2.301   4.156   5.468 -1.6247  0.0223 -0.4841
 7175SOL    HW232988   2.280   4.068   5.359 -2.2678  1.3646 -0.2483
 7176SOL     OW32989   0.578   2.714   7.247 -0.8628 -0.1419  0.1706
 7176SOL    HW132990   0.664   2.744   7.278 -0.5564 -2.1240  1.2306
 7176SOL    HW232991   0.518   2.788   7.258 -1.1060 -0.2634 -0.3509
 7177SOL     OW32992   4.323   4.313   4.414 -0.2768 -0.3263 -0.5700
 7177SOL    HW132993   4.281   4.393   4.383  0.3081  0.3655  0.4450
 7177SOL    HW232994   4.254   4.267   4.462  0.6039 -3.0822 -1.9591
 7178SOL     OW32995   1.070   1.896   6.797  0.1641 -0.3725 -0.3507
 7178SOL    HW132996   1.004   1.966   6.806 -1.7172 -1.9628 -1.7505
 7178SOL    HW232997   1.145   1.939   6.836 -0.8607 -0.9665  2.2732
 7179SOL     OW32998   1.473   0.590   6.552  0.0492  0.0120  0.2304
 7179SOL    HW132999   1.484   0.509   6.600  0.0827  0.8304  1.5918
 7179SOL    HW233000   1.401   0.573   6.491 -1.0004  0.8193  1.2351
 7180SOL     OW33001   2.779   1.899   3.074 -0.3466 -0.8275 -0.5633
 7180SOL    HW133002   2.774   1.843   3.151 -0.7439  0.8367  0.6179
 7180SOL    HW233003   2.790   1.831   3.008 -0.6985 -0.6008 -0.8524
 7181SOL     OW33004   3.278   2.357   8.390 -0.1079 -0.3832  0.6192
 7181SOL    HW133005   3.328   2.355   8.471 -0.6764 -0.4370  0.9624
 7181SOL    HW233006   3.186   2.371   8.410 -0.6618  0.3040 -2.2959
 7182SOL     OW33007   0.215   0.321  11.494 -0.2600 -0.4401 -0.1575
 7182SOL    HW133008   0.143   0.264  11.467  0.5455 -1.0719 -0.9735
 7182SOL    HW233009   0.285   0.266  11.458  0.5194  0.4103  0.0408
 7183SOL     OW33010   0.341   2.743  16.602  0.2927 -0.1972  0.6233
 7183SOL    HW133011   0.258   2.712  16.638 -0.6610 -0.6001 -1.9193
 7183SOL    HW233012   0.401   2.697  16.661 -0.0404  0.0638  1.1660
 7184SOL     OW33013   4.342   1.087  14.827 -0.2059  0.0100  0.0522
 7184SOL    HW133014   4.310   1.051  14.744  1.4064  0.1040 -0.6016
 7184SOL    HW233015   4.271   1.152  14.829  0.4990  0.8328 -1.8313
 7185SOL     OW33016   2.927   0.445   2.621  0.2291  0.0724  0.2769
 7185SOL    HW133017   2.858   0.438   2.687  1.3683 -0.6696  1.4059
 7185SOL    HW233018   2.897   0.394   2.547  0.1316  2.4211 -1.3082
 7186SOL     OW33019   1.026   4.118   9.498  0.7035  0.2752 -0.5280
 7186SOL    HW133020   1.065   4.073   9.572 -1.0374 -2.0497 -1.0266
 7186SOL    HW233021   1.032   4.210   9.524  0.7572  0.2160 -0.3327
 7187SOL     OW33022   1.819   0.142   9.248 -0.2277  0.0732  0.2738
 7187SOL    HW133023   1.810   0.164   9.341 -1.6275  1.5200 -0.1985
 7187SOL    HW233024   1.737   0.179   9.215  0.7150  1.3758 -0.6318
 7188SOL     OW33025   3.220   1.722   6.516 -0.4463  0.3315 -0.4083
 7188SOL    HW133026   3.314   1.714   6.533 -0.4434 -0.6492 -0.9128
 7188SOL    HW233027   3.207   1.683   6.430 -0.9466 -2.0688  0.7791
 7189SOL     OW33028   4.250   2.895  16.805 -0.3298 -0.5953 -0.0281
 7189SOL    HW133029   4.227   2.802  16.816 -0.0464 -0.1760  4.2025
 7189SOL    HW233030   4.186   2.919  16.738 -1.7585  1.1637  1.9720
 7190SOL     OW33031   4.343   2.198   5.227  0.0649  0.0300 -0.0046
 7190SOL    HW133032   4.253   2.228   5.213  0.5240  0.4726 -1.9900
 7190SOL    HW233033   4.357   2.168   5.137 -2.3292 -0.6444 -0.1652
 7191SOL     OW33034   0.546   3.192  15.560 -0.0725  0.1885 -0.1727
 7191SOL    HW133035   0.608   3.260  15.587  0.9474 -1.3657  1.3606
 7191SOL    HW233036   0.499   3.192  15.644  2.1667  1.8790  1.0818
 7192SOL     OW33037   3.057   3.481  17.500  0.1761 -0.5530 -0.1920
 7192SOL    HW133038   3.147   3.465  17.472  0.1897 -1.6922  0.4843
 7192SOL    HW233039   3.037   3.574  17.496 -0.2400 -0.6297  0.1583
 7193SOL     OW33040   1.933   0.705  16.646 -0.1918 -0.5066  0.1739
 7193SOL    HW133041   1.972   0.735  16.564  0.1195 -1.3393  0.0146
 7193SOL    HW233042   1.846   0.679  16.616  0.6554 -1.3882 -1.5036
 7194SOL     OW33043   3.517   1.276   2.510 -0.2973  0.3299  0.0616
 7194SOL    HW133044   3.440   1.323   2.479 -0.3547  1.4971  2.0122
 7194SOL    HW233045   3.588   1.340   2.510  0.4267 -0.4691 -1.0454
 7195SOL     OW33046   2.540   0.711   4.926 -0.0082 -0.0134  0.5405
 7195SOL    HW133047   2.471   0.770   4.897  1.0464  0.7827 -0.3617
 7195SOL    HW233048   2.522   0.703   5.019  0.8835  0.9762  0.7980
 7196SOL     OW33049   0.201   0.829   1.194  0.1633  0.0829 -0.0215
 7196SOL    HW133050   0.160   0.914   1.177 -0.4671 -0.7923 -2.7845
 7196SOL    HW233051   0.271   0.849   1.256 -0.8137 -0.6931  1.3343
 7197SOL     OW33052   4.594   2.965  15.291 -0.3011  0.3781  0.0685
 7197SOL    HW133053   4.504   2.984  15.266 -0.9443 -0.8485  1.4563
 7197SOL    HW233054   4.598   3.007  15.376 -1.4733 -0.3867  0.5014
 7198SOL     OW33055   0.819   3.700   6.178 -0.1324 -0.5421 -0.4720
 7198SOL    HW133056   0.882   3.767   6.205 -2.2555  0.3782  2.1146
 7198SOL    HW233057   0.778   3.738   6.101  2.8913  0.4802 -1.5909
 7199SOL     OW33058   0.786   4.697   5.329 -0.2120  0.0187 -0.3781
 7199SOL    HW133059   0.729   0.042   5.365 -2.2161 -1.6288 -0.4476
 7199SOL    HW233060   0.833   4.663   5.404  1.5563  1.7882 -0.6799
 7200SOL     OW33061   0.591   1.744   8.095 -0.3774  0.0712 -0.0455
 7200SOL    HW133062   0.560   1.833   8.077 -0.5147 -0.3811 -2.0409
 7200SOL    HW233063   0.516   1.707   8.142 -0.2110  1.0114  0.9786
 7201SOL     OW33064   0.706   0.506   6.030  0.4316  0.1111 -0.2423
 7201SOL    HW133065   0.732   0.474   5.944 -0.8961  0.4124 -0.7551
 7201SOL    HW233066   0.696   0.598   6.008  1.1701 -0.0562 -1.2535
 7202SOL     OW33067   2.996   2.762   7.586 -0.3237  0.5001 -0.2018
 7202SOL    HW133068   3.011   2.856   7.575 -1.4118  0.9168  1.9710
 7202SOL    HW233069   2.980   2.763   7.680  2.6137  1.7550  0.2762
 7203SOL     OW33070   0.219   1.417   4.468 -0.1002 -0.0711 -0.9786
 7203SOL    HW133071   0.155   1.386   4.404 -1.9490 -1.4626  1.5455
 7203SOL    HW233072   0.273   1.465   4.405  0.7884 -1.4732 -1.2767
 7204SOL     OW33073   3.710   2.810  16.485  0.0701 -0.5578 -0.6574
 7204SOL    HW133074   3.617   2.813  16.508  0.3575  2.0626  0.1681
 7204SOL    HW233075   3.750   2.767  16.561  0.1904  2.7154  1.1340
 7205SOL     OW33076   0.059   0.547  13.496  0.4248 -0.2878 -0.0512
 7205SOL    HW133077   0.040   0.554  13.403  1.4493 -0.7987 -0.2997
 7205SOL    HW233078   0.068   0.452  13.504 -1.4436 -0.6951 -2.6978
 7206SOL     OW33079   4.577   0.254   7.185 -0.7103  0.2362 -0.2509
 7206SOL    HW133080   4.651   0.315   7.193 -2.8556  2.4298  2.8869
 7206SOL    HW233081   4.615   0.173   7.219 -2.1691 -0.6997 -0.8760
 7207SOL     OW33082   4.555   2.302   2.603 -0.0403 -0.2091  0.4459
 7207SOL    HW133083   4.484   2.366   2.603 -1.1157 -1.4218 -1.7984
 7207SOL    HW233084   4.617   2.342   2.663  0.6417 -0.9234  0.2178
 7208SOL     OW33085   0.521   2.465   1.224 -0.7421 -0.2165 -0.3834
 7208SOL    HW133086   0.492   2.375   1.241  1.9858 -0.5938  2.2171
 7208SOL    HW233087   0.610   2.454   1.256 -0.9655  2.0775  0.9980
 7209SOL     OW33088   1.706   1.059   5.418 -0.4221 -0.3546 -0.2603
 7209SOL    HW133089   1.680   1.060   5.510  2.1085 -2.2382  0.4553
 7209SOL    HW233090   1.802   1.062   5.419 -0.4085 -1.1828  2.0070
 7210SOL     OW33091   0.140   1.183   4.936 -0.6180  0.2807 -0.2183
 7210SOL    HW133092   0.179   1.108   4.980 -2.0372  0.0122  0.5733
 7210SOL    HW233093   0.078   1.142   4.877 -1.3211  1.7495 -0.4949
 7211SOL     OW33094   3.898   2.469   7.310  0.9494 -0.3095 -0.3254
 7211SOL    HW133095   3.854   2.553   7.323  2.2906  0.5658 -1.4921
 7211SOL    HW233096   3.956   2.501   7.241  2.0500 -0.8078  0.3768
 7212SOL     OW33097   4.308   1.719   3.356 -0.1676  0.6370  0.2903
 7212SOL    HW133098   4.225   1.765   3.373 -2.5138 -2.6777 -2.1671
 7212SOL    HW233099   4.361   1.795   3.331  0.7645  0.5565  2.0444
 7213SOL     OW33100   0.663   2.300   3.474 -0.2761 -0.8339 -0.2984
 7213SOL    HW133101   0.750   2.259   3.475  0.7027  1.2882  1.5027
 7213SOL    HW233102   0.695   2.389   3.458 -0.7391 -0.8057 -1.0670
 7214SOL     OW33103   4.480   0.363  13.720 -0.0185 -0.9484 -0.0004
 7214SOL    HW133104   4.479   0.398  13.809 -0.0821 -1.2302  0.1103
 7214SOL    HW233105   4.564   0.317  13.718  0.9804  0.8954 -0.3887
 7215SOL     OW33106   4.153   3.087   5.294 -0.1370 -0.3930 -0.3962
 7215SOL    HW133107   4.215   3.157   5.271  0.7993 -1.2707 -0.5662
 7215SOL    HW233108   4.106   3.073   5.213 -1.7872  0.7640  0.3582
 7216SOL     OW33109   3.700   0.831   3.252  0.8537 -0.1428 -0.7148
 7216SOL    HW133110   3.786   0.818   3.292 -0.7380 -1.9520  2.0921
 7216SOL    HW233111   3.666   0.742   3.251 -1.4794  0.7389 -0.7116
 7217SOL     OW33112   1.211   1.660  16.003  0.0398  0.3349  0.2123
 7217SOL    HW133113   1.223   1.694  16.092 -0.1692  1.6714 -0.2664
 7217SOL    HW233114   1.292   1.620  15.973 -1.5752 -3.5654  1.0319
 7218SOL     OW33115   1.173   1.566   1.690  0.0771 -0.1364 -0.4394
 7218SOL    HW133116   1.262   1.602   1.692 -0.0100 -0.0135  0.8611
 7218SOL    HW233117   1.167   1.507   1.764 -1.9120 -1.5486 -1.7047
 7219SOL     OW33118   3.550   4.138   5.187 -0.6858 -0.2627 -0.3522
 7219SOL    HW133119   3.555   4.232   5.169 -0.8220 -0.3294 -0.7298
 7219SOL    HW233120   3.462   4.152   5.222 -0.3280  0.8963  0.0995
 7220SOL     OW33121   2.126   1.239   1.128  0.5021 -0.0102  0.4446
 7220SOL    HW133122   2.203   1.247   1.073  0.1514 -0.6633 -0.1436
 7220SOL    HW233123   2.096   1.327   1.150 -0.7542 -0.8165  1.9761
 7221SOL     OW33124   2.282   1.174   8.600 -0.2116  0.3779 -0.2644
 7221SOL    HW133125   2.199   1.203   8.562 -0.4373  0.2884  0.1501
 7221SOL    HW233126   2.289   1.228   8.679 -0.4369  1.4999 -1.0166
 7222SOL     OW33127   1.534   2.823   3.110 -0.1274 -0.2774  0.1839
 7222SOL    HW133128   1.625   2.851   3.104 -0.4941  0.7938 -0.3339
 7222SOL    HW233129   1.494   2.880   3.044  0.2254 -1.6215 -1.2086
 7223SOL     OW33130   3.551   1.576   3.626  0.5175 -0.1916 -0.2186
 7223SOL    HW133131   3.621   1.641   3.622 -0.5666  1.1021  1.3972
 7223SOL    HW233132   3.584   1.499   3.581  1.1714 -0.7107  1.1552
 7224SOL     OW33133   4.064   2.611   5.362 -0.2021 -0.5263  1.0136
 7224SOL    HW133134   4.022   2.622   5.448  1.5758 -1.7893  2.0646
 7224SOL    HW233135   4.151   2.585   5.392  0.0031 -0.6877  0.2764
 7225SOL     OW33136   0.592   2.433   6.441 -0.7031  0.8763  0.6495
 7225SOL    HW133137   0.616   2.499   6.377 -2.1880  2.7727  2.0478
 7225SOL    HW233138   0.506   2.464   6.471  0.2462  3.6491  0.4616
 7226SOL     OW33139   4.102   1.781   8.109 -0.0871  0.3335 -0.1680
 7226SOL    HW133140   4.165   1.833   8.060  2.0181  0.8238  3.0614
 7226SOL    HW233141   4.037   1.847   8.134  1.6411  1.9925 -0.1461
 7227SOL     OW33142   0.280   3.589   6.157 -0.0568  0.4399 -0.2188
 7227SOL    HW133143   0.251   3.504   6.126 -1.1214  0.3927  0.8867
 7227SOL    HW233144   0.374   3.591   6.139 -0.1748 -0.9240 -0.9749
 7228SOL     OW33145   0.240   3.926   0.731 -0.7002  0.2329 -0.0268
 7228SOL    HW133146   0.308   3.929   0.664  1.4954  0.9044  2.2126
 7228SOL    HW233147   0.248   3.843   0.778 -1.9550  0.3158  0.3511
 7229SOL     OW33148   3.187   1.065  10.164  0.4880  0.6196  0.4035
 7229SOL    HW133149   3.270   1.016  10.159 -0.7186 -1.1504 -2.2089
 7229SOL    HW233150   3.147   1.007  10.229 -2.0394  0.0050 -1.7090
 7230SOL     OW33151   3.247   0.173  15.307  0.1210  0.2889  0.7153
 7230SOL    HW133152   3.312   0.243  15.318 -1.3577  1.8046 -0.0834
 7230SOL    HW233153   3.260   0.124  15.388  0.3460  1.0912  1.1744
 7231SOL     OW33154   4.552   4.687   2.654 -0.2436 -0.0107  0.0262
 7231SOL    HW133155   4.538   4.675   2.748 -2.0506  0.2759 -0.1947
 7231SOL    HW233156   4.510   4.608   2.620 -0.3011  1.3349 -2.9950
 7232SOL     OW33157   1.350   4.456   7.792  0.1962  0.4955  0.2433
 7232SOL    HW133158   1.382   4.527   7.847  1.4569 -1.8409  2.5175
 7232SOL    HW233159   1.438   4.433   7.761  1.1929  0.6519  2.9832
 7233SOL     OW33160   0.961   4.578  16.189  0.2791  0.1177  0.6133
 7233SOL    HW133161   0.958   4.483  16.177 -3.3492 -0.0433  2.7176
 7233SOL    HW233162   1.053   4.593  16.166  0.5917 -0.6840  1.3308
 7234SOL     OW33163   1.967   1.770  11.318  0.3451 -0.7863  0.2163
 7234SOL    HW133164   1.956   1.846  11.261  1.6311  0.9265  2.2934
 7234SOL    HW233165   2.062   1.760  11.323  0.4913  0.8539  0.5403
 7235SOL     OW33166   4.623   3.542  12.278 -0.0062  0.1623  0.7889
 7235SOL    HW133167   4.622   3.454  12.241 -1.9759 -0.9596  3.5236
 7235SOL    HW233168   4.605   3.523  12.370 -1.1864  0.8270  0.7004
 7236SOL     OW33169   4.606   0.527   5.826 -0.6407 -0.0317  0.8482
 7236SOL    HW133170   4.597   0.604   5.770  0.8090  1.1095  2.1735
 7236SOL    HW233171   4.634   0.456   5.768 -1.0414  1.0117 -0.6261
 7237SOL     OW33172   1.003   0.118   4.626 -0.2246 -0.1821  0.2509
 7237SOL    HW133173   1.012   0.173   4.704 -1.7278  0.4757 -0.0434
 7237SOL    HW233174   1.039   0.036   4.658  0.0602 -0.5804 -1.1091
 7238SOL     OW33175   1.544   2.707   5.521  0.1989 -0.5365 -0.3401
 7238SOL    HW133176   1.591   2.780   5.481  0.1821 -0.3098  0.0469
 7238SOL    HW233177   1.615   2.653   5.553  0.4358 -0.3314 -0.5197
 7239SOL     OW33178   0.595   1.192   7.109 -0.1978  0.3308  0.2058
 7239SOL    HW133179   0.686   1.220   7.101 -0.6747  1.8886  0.1971
 7239SOL    HW233180   0.569   1.178   7.018  1.7594  1.7545 -0.5603
 7240SOL     OW33181   4.636   0.697   6.309  0.3191  0.1812  0.1738
 7240SOL    HW133182   4.718   0.649   6.298 -0.6284 -1.7684  1.5962
 7240SOL    HW233183   4.621   0.710   6.215  1.9100 -0.9994 -0.2450
 7241SOL     OW33184   4.300   3.122   2.077  0.0076 -0.2934 -0.4507
 7241SOL    HW133185   4.278   3.038   2.037  1.3789  0.1223 -2.0345
 7241SOL    HW233186   4.283   3.108   2.171 -1.7384  0.4312 -0.6489
 7242SOL     OW33187   0.471   3.493  15.647  0.1190  0.2841  0.0794
 7242SOL    HW133188   0.432   3.462  15.565 -2.8331  0.1988  1.5284
 7242SOL    HW233189   0.555   3.446  15.650 -0.6653 -1.1352  0.1068
 7243SOL     OW33190   3.561   3.188   8.674 -0.5917  0.2531 -0.3733
 7243SOL    HW133191   3.532   3.257   8.733 -1.4150 -0.3768 -0.0384
 7243SOL    HW233192   3.486   3.129   8.670  0.6277 -1.3956  0.7329
 7244SOL     OW33193   0.552   0.470  10.225 -0.1731 -0.8012 -0.0763
 7244SOL    HW133194   0.486   0.427  10.279 -1.5908  0.5152 -0.7633
 7244SOL    HW233195   0.529   0.563  10.229  0.1582 -0.7044 -0.3605
 7245SOL     OW33196   1.958   3.859   8.487  0.1205 -0.5800 -0.0928
 7245SOL    HW133197   1.927   3.935   8.438 -0.7190 -0.3756  0.7685
 7245SOL    HW233198   1.915   3.865   8.572  0.6121 -1.7281  0.2450
 7246SOL     OW33199   1.467   2.797   6.974 -0.3303 -0.6458  0.0224
 7246SOL    HW133200   1.523   2.787   6.898 -0.9491  2.8864 -0.8610
 7246SOL    HW233201   1.393   2.747   6.939 -1.3114  0.2466  0.8396
 7247SOL     OW33202   3.096   1.491   3.293 -0.4826 -0.4975  0.0925
 7247SOL    HW133203   3.135   1.565   3.247 -2.7902 -1.4740 -3.4941
 7247SOL    HW233204   3.010   1.490   3.251 -0.3242 -2.2163 -0.1693
 7248SOL     OW33205   1.783   2.580   8.193 -0.3449  0.1745 -0.0330
 7248SOL    HW133206   1.796   2.596   8.287  0.1459 -2.5437  0.3727
 7248SOL    HW233207   1.862   2.528   8.176  0.3862  0.5892  2.1115
 7249SOL     OW33208   1.570   3.552  10.207 -0.4913  0.3073 -0.1294
 7249SOL    HW133209   1.627   3.478  10.230 -0.3388  0.4747  0.0259
 7249SOL    HW233210   1.489   3.527  10.251  0.2206  0.3611  1.2142
 7250SOL     OW33211   0.300   2.959   4.791 -0.2033  0.4986 -0.0191
 7250SOL    HW133212   0.300   2.921   4.704  0.8492 -1.9593  1.0632
 7250SOL    HW233213   0.393   2.954   4.810 -0.2196  0.4793  0.0581
 7251SOL     OW33214   0.424   2.735  13.929  0.0299  0.0466 -0.1748
 7251SOL    HW133215   0.355   2.693  13.981  1.0702 -1.2158  0.1972
 7251SOL    HW233216   0.503   2.731  13.983  1.0386  1.1086 -1.5955
 7252SOL     OW33217   2.782   2.905   4.061 -0.2059  0.2214  0.4222
 7252SOL    HW133218   2.767   2.983   4.114  0.3952  0.1842  0.6431
 7252SOL    HW233219   2.783   2.942   3.972  1.0105 -0.8853 -0.0199
 7253SOL     OW33220   0.795   1.687  13.966 -0.1151 -0.1781  0.0193
 7253SOL    HW133221   0.761   1.671  13.878 -3.5368  1.7561  0.9884
 7253SOL    HW233222   0.781   1.780  13.981 -1.1229 -0.5405  1.2978
 7254SOL     OW33223   1.407   1.831  11.536  0.3556  0.1552 -0.2718
 7254SOL    HW133224   1.399   1.911  11.484 -0.6538  1.0579  1.2767
 7254SOL    HW233225   1.459   1.776  11.477 -1.4254 -0.7036 -1.0378
 7255SOL     OW33226   2.552   0.649   7.344 -1.0067 -0.0921 -0.0709
 7255SOL    HW133227   2.496   0.723   7.320 -1.0384 -0.5629 -1.4760
 7255SOL    HW233228   2.637   0.676   7.310 -0.4250 -0.1324  1.3699
 7256SOL     OW33229   4.531   0.357   6.383  0.5720  0.7033  0.1492
 7256SOL    HW133230   4.528   0.427   6.448 -2.5143  0.9274 -0.2473
 7256SOL    HW233231   4.442   0.322   6.388  0.5605  0.6259 -0.5487
 7257SOL     OW33232   2.774   2.624   8.645 -0.0203  0.4106 -0.4711
 7257SOL    HW133233   2.862   2.595   8.622 -0.2900 -0.4744 -0.3714
 7257SOL    HW233234   2.724   2.586   8.573 -1.1852 -2.5484  1.9421
 7258SOL     OW33235   4.193   1.827  16.418 -0.1423  0.5657  0.0892
 7258SOL    HW133236   4.217   1.873  16.498 -2.3915  1.3400  0.3338
 7258SOL    HW233237   4.255   1.868  16.358  1.8554  0.7130  2.2791
 7259SOL     OW33238   3.034   2.597   8.252 -0.7644 -0.4881 -0.0186
 7259SOL    HW133239   3.024   2.503   8.262  0.5134 -0.6413 -0.1948
 7259SOL    HW233240   2.945   2.615   8.222  0.0500  1.8633 -1.0233
 7260SOL     OW33241   0.205   0.137   8.834 -0.3519 -0.5400 -0.2965
 7260SOL    HW133242   0.155   0.100   8.906 -1.2975 -3.2849 -2.3590
 7260SOL    HW233243   0.292   0.101   8.855  0.1415  1.4283  1.0193
 7261SOL     OW33244   0.309   4.424  11.774 -0.4521  0.4432 -0.3497
 7261SOL    HW133245   0.254   4.426  11.695 -0.5832 -0.0784 -0.2700
 7261SOL    HW233246   0.336   4.514  11.791  1.1903  0.1971 -1.6665
 7262SOL     OW33247   1.156   1.522  16.359  0.2909 -0.1124  0.4498
 7262SOL    HW133248   1.077   1.575  16.365  0.4299  0.2999 -1.2675
 7262SOL    HW233249   1.224   1.586  16.338  0.0361 -0.7762 -2.3960
 7263SOL     OW33250   4.307   3.265   3.780  0.4192  0.0815 -0.3082
 7263SOL    HW133251   4.342   3.278   3.868  0.4227 -0.8495 -0.1721
 7263SOL    HW233252   4.338   3.344   3.736 -0.2170  0.5040  0.0027
 7264SOL     OW33253   1.637   2.584   2.202  0.2121 -0.1102 -0.2591
 7264SOL    HW133254   1.606   2.673   2.186 -0.1297 -0.1965 -0.0695
 7264SOL    HW233255   1.550   2.544   2.197  0.6857 -1.1868  0.1920
 7265SOL     OW33256   3.292   1.454   1.165  0.2914 -0.2506 -0.1695
 7265SOL    HW133257   3.303   1.480   1.256 -1.3184  1.8622 -0.6041
 7265SOL    HW233258   3.334   1.368   1.161 -0.2685 -0.5019 -0.6759
 7266SOL     OW33259   0.657   0.211   7.279 -0.1734  0.0766  0.0768
 7266SOL    HW133260   0.603   0.215   7.358  1.2361 -2.5775  1.1971
 7266SOL    HW233261   0.699   0.125   7.283  1.2789  0.8823  2.4249
 7267SOL     OW33262   0.511   2.119   1.550 -0.1958  0.4280  0.9115
 7267SOL    HW133263   0.519   2.110   1.645 -0.5633 -2.4458  0.6852
 7267SOL    HW233264   0.575   2.054   1.520 -0.9490  0.2770 -0.3762
 7268SOL     OW33265   3.809   4.650  16.857 -0.0306 -0.2158 -0.7031
 7268SOL    HW133266   3.725   4.630  16.898  0.4591 -1.0480 -0.1113
 7268SOL    HW233267   3.778   4.701  16.782 -0.1223  1.5711  0.5389
 7269SOL     OW33268   2.712   3.698   4.424  0.6523 -0.0802  0.5329
 7269SOL    HW133269   2.727   3.620   4.478  1.3343  0.4323  1.0820
 7269SOL    HW233270   2.682   3.761   4.488  0.6484 -0.1155  0.5657
 7270SOL     OW33271   4.642   2.707   2.458 -0.3158  0.4300 -0.3741
 7270SOL    HW133272   4.582   2.780   2.448  0.3413  1.1397  0.9675
 7270SOL    HW233273   4.573   2.643   2.475  0.6221  0.2304  2.5352
 7271SOL     OW33274   3.699   1.097   3.998  0.1220 -0.0489 -0.5295
 7271SOL    HW133275   3.614   1.140   4.009  0.9633  1.6095 -0.6606
 7271SOL    HW233276   3.692   1.066   3.907 -2.0782 -0.3239 -0.2817
 7272SOL     OW33277   0.926   3.482   5.659  0.0633 -0.2545 -0.0372
 7272SOL    HW133278   1.017   3.481   5.689  1.1264  2.2975 -3.1583
 7272SOL    HW233279   0.927   3.388   5.644 -1.5189 -0.5459  1.6881
 7273SOL     OW33280   2.781   2.475   1.336 -0.1287 -0.0155  0.4954
 7273SOL    HW133281   2.843   2.405   1.357 -0.7745 -0.3278  1.3437
 7273SOL    HW233282   2.702   2.454   1.385 -0.7095 -1.0173 -0.8533
 7274SOL     OW33283   0.737   3.624   1.901  0.0244  0.7414 -0.2623
 7274SOL    HW133284   0.825   3.618   1.937 -0.9032 -0.6879  1.7635
 7274SOL    HW233285   0.693   3.584   1.976  0.8954 -0.5894 -0.4622
 7275SOL     OW33286   0.111   4.463   5.835  0.3286  0.2830 -0.1628
 7275SOL    HW133287   0.085   4.485   5.745  2.0237  0.3731 -0.6413
 7275SOL    HW233288   0.206   4.457   5.822  0.1947 -1.2112 -0.4261
 7276SOL     OW33289   2.116   2.820   5.074  0.2865 -0.1333 -0.4240
 7276SOL    HW133290   2.095   2.798   4.983 -1.0965  0.6557 -0.2855
 7276SOL    HW233291   2.149   2.910   5.074 -1.1527  0.3891  0.8567
 7277SOL     OW33292   4.576   3.880   8.229  0.5764 -0.1683  0.2294
 7277SOL    HW133293   4.512   3.894   8.160  0.8180 -1.4908 -0.2579
 7277SOL    HW233294   4.533   3.845   8.307  0.3210 -0.1308  0.1054
 7278SOL     OW33295   4.577   3.972   9.676  0.2478 -0.7165 -0.3830
 7278SOL    HW133296   4.508   3.951   9.613  0.9566 -2.6665 -0.5169
 7278SOL    HW233297   4.599   3.883   9.705  1.0853 -0.7760 -1.2154
 7279SOL     OW33298   1.992   4.052   2.570 -0.2554 -0.0809  0.3598
 7279SOL    HW133299   1.937   3.979   2.542  2.1469 -1.8634  0.2794
 7279SOL    HW233300   2.034   4.010   2.646 -1.1361 -1.0639  0.3070
 7280SOL     OW33301   4.234   0.205  11.299 -0.1104 -0.3614 -0.2004
 7280SOL    HW133302   4.260   0.176  11.212  2.4721  2.2408 -0.2763
 7280SOL    HW233303   4.321   0.202  11.339 -0.8145 -0.2361  1.3523
 7281SOL     OW33304   0.613   4.156   2.898 -0.0418 -0.3300  0.0212
 7281SOL    HW133305   0.647   4.221   2.837 -2.3270 -0.2058 -1.1250
 7281SOL    HW233306   0.606   4.079   2.842  2.4525 -0.1590 -0.5265
 7282SOL     OW33307   3.012   1.461   4.028 -0.6482  0.3702  0.2396
 7282SOL    HW133308   2.936   1.451   3.971 -0.4013 -0.1081 -0.0042
 7282SOL    HW233309   3.058   1.536   3.992  1.0006  0.2801  2.1736
 7283SOL     OW33310   2.857   4.169  17.285 -0.2275 -0.3078 -0.0577
 7283SOL    HW133311   2.818   4.243  17.238  1.9936  0.2756 -0.9816
 7283SOL    HW233312   2.794   4.100  17.263 -1.8200  1.6839 -1.7952
 7284SOL     OW33313   3.194   4.127   8.871  0.2975  1.0747 -0.1787
 7284SOL    HW133314   3.204   4.121   8.966 -0.5298  2.4547 -0.0058
 7284SOL    HW233315   3.239   4.209   8.853  1.0552  1.1407  2.0637
 7285SOL     OW33316   2.743   4.072   2.492  0.2872 -0.8794 -0.3196
 7285SOL    HW133317   2.677   4.033   2.549  1.0815  0.5686  1.6036
 7285SOL    HW233318   2.712   4.162   2.481  2.0733 -0.2197  0.0896
 7286SOL     OW33319   0.866   0.834   1.196 -0.2797 -0.5806  0.1507
 7286SOL    HW133320   0.860   0.922   1.235  0.7683  0.0481 -1.0828
 7286SOL    HW233321   0.800   0.858   1.131  0.5039  1.0432 -0.0634
 7287SOL     OW33322   2.870   0.687  10.570 -0.3286 -0.1465  0.1130
 7287SOL    HW133323   2.945   0.664  10.623 -0.2248  2.2462  1.0187
 7287SOL    HW233324   2.890   0.634  10.493 -0.8144  0.0832 -0.1748
 7288SOL     OW33325   3.180   2.280  11.117  0.6809 -0.1027 -0.1011
 7288SOL    HW133326   3.274   2.279  11.136  0.6755 -1.6023 -0.1844
 7288SOL    HW233327   3.159   2.369  11.145 -0.5634  0.6619 -3.4558
 7289SOL     OW33328   3.870   3.975   2.216  0.1598  0.1706  0.0372
 7289SOL    HW133329   3.812   4.047   2.191 -0.0993 -1.2028 -3.3070
 7289SOL    HW233330   3.849   3.925   2.137 -0.0146  0.2810  0.0145
 7290SOL     OW33331   3.111   0.569   6.578 -0.6055 -0.3179 -0.2109
 7290SOL    HW133332   3.169   0.641   6.552 -0.6978  0.1193  0.7936
 7290SOL    HW233333   3.164   0.496   6.547  1.0988  0.1662  1.5291
 7291SOL     OW33334   3.774   2.461   1.522 -0.0693 -0.3089 -0.5798
 7291SOL    HW133335   3.791   2.439   1.614  1.4080  0.9403 -0.5555
 7291SOL    HW233336   3.802   2.552   1.522  1.5273 -0.7933  1.0389
 7292SOL     OW33337   1.871   1.556   0.877  0.5349  0.1027 -0.4120
 7292SOL    HW133338   1.886   1.647   0.852  0.0979  0.1573 -0.4762
 7292SOL    HW233339   1.857   1.514   0.792 -1.4148  1.8525 -0.9448
 7293SOL     OW33340   2.875   0.077  11.848 -0.0442  0.5750 -0.1007
 7293SOL    HW133341   2.917   0.043  11.926  4.2426  0.0729 -2.6117
 7293SOL    HW233342   2.791   0.093  11.891 -0.0120  0.3280  0.0538
 7294SOL     OW33343   1.390   1.507   8.413  0.3789  0.4427 -0.3528
 7294SOL    HW133344   1.361   1.598   8.402  0.9280  0.7764  0.9604
 7294SOL    HW233345   1.481   1.518   8.441  0.2459 -3.3525  1.4399
 7295SOL     OW33346   0.761   1.944  16.246  0.8128 -0.2577  0.3674
 7295SOL    HW133347   0.675   1.925  16.284  1.1276  0.4882  1.4443
 7295SOL    HW233348   0.727   2.012  16.187 -0.1784 -0.3689  0.8156
 7296SOL     OW33349   3.445   2.612   2.214 -0.0976  0.1371 -0.4574
 7296SOL    HW133350   3.370   2.593   2.271  0.0964 -0.6619 -0.4683
 7296SOL    HW233351   3.439   2.705   2.238  1.1803 -0.0263  0.4784
 7297SOL     OW33352   0.562   2.148   1.806  0.0593  0.0276 -0.1724
 7297SOL    HW133353   0.627   2.217   1.791  2.3442 -2.4548 -1.6924
 7297SOL    HW233354   0.571   2.147   1.901 -1.4905 -0.5363 -0.0401
 7298SOL     OW33355   2.990   0.022   2.034  0.2609 -0.0359  0.4320
 7298SOL    HW133356   2.935   4.718   1.960 -0.9985 -0.0906  1.3891
 7298SOL    HW233357   2.949   0.106   2.054  0.4958  0.4674 -1.1377
 7299SOL     OW33358   3.837   2.197   2.043 -0.3968 -0.1883  0.2806
 7299SOL    HW133359   3.891   2.122   2.067  1.5106  1.2999  0.6161
 7299SOL    HW233360   3.908   2.235   1.992 -0.5888 -0.5000 -0.2113
 7300SOL     OW33361   4.183   2.583   2.875  0.1773  0.2401 -0.4105
 7300SOL    HW133362   4.227   2.659   2.912  0.1708  1.9089 -3.8531
 7300SOL    HW233363   4.133   2.550   2.950  2.3957 -1.1556  0.4574
 7301SOL     OW33364   4.601   4.620   8.676 -0.3604  0.1954 -0.0586
 7301SOL    HW133365   4.518   4.661   8.652 -0.3347  0.6961  0.7095
 7301SOL    HW233366   4.660   4.693   8.654 -1.7366  1.1383 -0.6067
 7302SOL     OW33367   1.158   0.628   6.671 -0.2996 -0.0921  0.6146
 7302SOL    HW133368   1.223   0.557   6.674  1.8500  1.8162 -0.4924
 7302SOL    HW233369   1.102   0.601   6.744 -0.2141  0.9091  1.0525
 7303SOL     OW33370   3.858   4.561   6.755 -0.3701 -0.3730  0.7712
 7303SOL    HW133371   3.889   4.636   6.705 -1.0818 -0.3005  0.4325
 7303SOL    HW233372   3.848   4.598   6.843  2.0875  0.7646  0.5758
 7304SOL     OW33373   3.157   3.931   6.183 -0.5690  0.0888 -0.1214
 7304SOL    HW133374   3.072   3.950   6.223  0.6340 -0.0319  2.5041
 7304SOL    HW233375   3.130   3.903   6.095  0.0619  0.4048 -0.4195
 7305SOL     OW33376   4.002   3.659   9.164  0.2974 -0.6770  0.0592
 7305SOL    HW133377   3.909   3.648   9.147 -0.1014  1.0510  1.1722
 7305SOL    HW233378   4.027   3.721   9.095 -1.3740 -0.7695 -0.6226
 7306SOL     OW33379   2.595   4.547   4.253  1.1787 -0.4864  0.2634
 7306SOL    HW133380   2.589   4.638   4.281 -0.4660 -0.8631  1.1995
 7306SOL    HW233381   2.580   4.567   4.161 -0.2981  1.5011  0.9369
 7307SOL     OW33382   3.722   2.212   5.519  0.0989  0.7217 -0.0526
 7307SOL    HW133383   3.664   2.138   5.540  1.8379  0.2038  2.8657
 7307SOL    HW233384   3.711   2.271   5.593 -1.9337  0.9175 -0.4840
 7308SOL     OW33385   1.709   3.130   2.396  0.1513  0.2889  0.2905
 7308SOL    HW133386   1.667   3.054   2.438 -2.4968  0.9087 -1.2029
 7308SOL    HW233387   1.711   3.106   2.303 -1.1055 -2.4028  0.9354
 7309SOL     OW33388   3.838   4.546  13.102  0.8790  0.1230 -0.0497
 7309SOL    HW133389   3.845   4.472  13.163 -1.7143  1.5385  1.9622
 7309SOL    HW233390   3.826   4.490  13.025 -3.1217  1.0443 -0.1160
 7310SOL     OW33391   0.987   1.389  11.911  0.5714  0.1504 -0.3187
 7310SOL    HW133392   0.980   1.484  11.901 -0.1716 -0.2428 -3.5188
 7310SOL    HW233393   0.971   1.348  11.826 -0.9441  0.0019  0.0552
 7311SOL     OW33394   0.795   1.788  17.583  0.0696  0.2532 -0.0411
 7311SOL    HW133395   0.802   1.884  17.590  0.6183  0.3095 -1.3393
 7311SOL    HW233396   0.723   1.777  17.645 -0.2222  0.0731 -0.4156
 7312SOL     OW33397   1.217   3.485   4.149  0.3576 -0.4703 -0.3490
 7312SOL    HW133398   1.224   3.554   4.084 -0.6358  1.1223  1.2156
 7312SOL    HW233399   1.228   3.526   4.235 -3.1688 -0.5473  0.1477
 7313SOL     OW33400   3.300   2.182   8.874  0.0309  0.1125  0.2830
 7313SOL    HW133401   3.276   2.094   8.846 -1.1983 -0.1369  2.0990
 7313SOL    HW233402   3.316   2.178   8.969  1.6868 -0.1877 -0.0079
 7314SOL     OW33403   4.624   3.122   5.999 -0.4548  0.1181  0.1700
 7314SOL    HW133404   4.690   3.064   6.037 -3.0409 -2.5377  0.5944
 7314SOL    HW233405   4.654   3.115   5.908  0.0468 -0.1260  0.3530
 7315SOL     OW33406   3.057   1.834   3.435  0.6097  0.1255 -0.1212
 7315SOL    HW133407   3.115   1.808   3.363 -0.4107 -1.2106 -0.4691
 7315SOL    HW233408   3.101   1.810   3.516 -1.1536 -2.5364  0.0815
 7316SOL     OW33409   0.966   2.947   8.814  0.6316 -0.1614 -0.3442
 7316SOL    HW133410   1.052   2.908   8.823  0.9294  0.5919  0.1145
 7316SOL    HW233411   0.936   2.906   8.733 -0.5942 -0.4195  0.2374
 7317SOL     OW33412   2.485   3.689   9.091 -0.0492  0.2201 -0.2858
 7317SOL    HW133413   2.455   3.711   9.003  0.4276  2.3096  0.0711
 7317SOL    HW233414   2.484   3.593   9.090  0.5224  0.2221 -1.1544
 7318SOL     OW33415   2.754   1.334   1.668  0.2599 -0.1419 -0.3881
 7318SOL    HW133416   2.807   1.284   1.730 -0.0148  1.8034  1.4020
 7318SOL    HW233417   2.819   1.346   1.598 -0.7065  1.1615 -1.0563
 7319SOL     OW33418   3.010   3.718  17.041 -0.0508  0.4418 -0.1196
 7319SOL    HW133419   3.105   3.735  17.038 -0.0336  0.4105  0.2365
 7319SOL    HW233420   2.991   3.736  17.133 -2.8472  0.7613 -0.7631
 7320SOL     OW33421   2.916   0.516   3.889 -0.0766  0.2741 -0.5055
 7320SOL    HW133422   2.821   0.516   3.891 -0.0756  0.6483 -0.4012
 7320SOL    HW233423   2.934   0.465   3.810  2.7591 -0.2278  0.4529
 7321SOL     OW33424   4.184   0.610   9.952 -0.1264 -0.0250 -0.0814
 7321SOL    HW133425   4.181   0.533  10.009 -0.6493  0.7231  0.9169
 7321SOL    HW233426   4.207   0.570   9.868  2.3136  1.8933 -0.3449
 7322SOL     OW33427   4.608   1.494   5.585 -1.3165  0.0561 -0.3265
 7322SOL    HW133428   4.604   1.551   5.662 -0.5852 -0.3703  0.0222
 7322SOL    HW233429   4.626   1.410   5.628  2.1118  0.3766 -1.1790
 7323SOL     OW33430   1.332   2.657   6.238  0.7849  0.1233 -0.6953
 7323SOL    HW133431   1.395   2.720   6.271 -1.5412  1.8850  0.4450
 7323SOL    HW233432   1.283   2.707   6.172  2.5176  3.2637  0.3752
 7324SOL     OW33433   4.237   3.543   8.082  0.2834 -0.0317 -0.2836
 7324SOL    HW133434   4.240   3.456   8.041  0.0990 -0.5970  0.9162
 7324SOL    HW233435   4.170   3.527   8.148 -0.9443 -0.5651 -1.6400
 7325SOL     OW33436   4.030   4.048   6.217 -0.3062  0.6921 -0.3914
 7325SOL    HW133437   4.052   4.141   6.205  0.0700  0.5527 -0.8141
 7325SOL    HW233438   4.033   4.043   6.312 -0.2914 -3.1843 -0.6277
 7326SOL     OW33439   1.054   3.552  16.954 -0.4499  0.2287  0.3370
 7326SOL    HW133440   1.121   3.532  16.890 -2.5234 -1.1738 -1.3927
 7326SOL    HW233441   1.009   3.631  16.924 -0.0994 -0.0384 -0.8822
 7327SOL     OW33442   3.092   2.287   7.701 -0.0359  0.1684 -0.5046
 7327SOL    HW133443   3.007   2.244   7.686 -0.3314  1.1929 -1.7972
 7327SOL    HW233444   3.084   2.354   7.633 -1.4640  0.0239 -0.5001
 7328SOL     OW33445   3.998   1.456  12.608 -0.0663 -0.4086 -0.2346
 7328SOL    HW133446   3.985   1.529  12.547  0.4413 -0.7929 -0.7907
 7328SOL    HW233447   4.083   1.422  12.583 -0.2496 -1.7005  0.8913
 7329SOL     OW33448   1.017   2.017  16.320  0.3602 -0.0342  0.0148
 7329SOL    HW133449   1.033   2.110  16.306  0.8801 -0.3214 -1.3249
 7329SOL    HW233450   0.930   2.004  16.282  0.8928 -2.7053 -0.2863
 7330SOL     OW33451   0.686   2.614   1.718  0.2446  0.5123 -0.2188
 7330SOL    HW133452   0.721   2.590   1.632 -1.9795  3.3702 -1.9084
 7330SOL    HW233453   0.602   2.658   1.700 -0.6076 -1.4447 -1.0435
 7331SOL     OW33454   0.840   2.470   5.274 -0.1213  0.1950  0.0978
 7331SOL    HW133455   0.802   2.541   5.326  1.0074  0.5245  0.4568
 7331SOL    HW233456   0.773   2.403   5.260  0.0900 -0.3687  1.7177
 7332SOL     OW33457   1.422   3.698   9.045  0.3594  0.1748  0.0206
 7332SOL    HW133458   1.435   3.604   9.041 -0.0885  0.1734 -1.3097
 7332SOL    HW233459   1.512   3.725   9.068  1.1405 -3.0836  0.7144
 7333SOL     OW33460   4.059   2.015   2.086 -0.3931  0.0670  0.8633
 7333SOL    HW133461   4.140   2.062   2.065 -1.3820 -0.4756 -4.2201
 7333SOL    HW233462   4.075   1.940   2.029  0.4480 -0.0130  1.2047
 7334SOL     OW33463   1.851   3.292   1.466  0.1528 -0.5135  0.2774
 7334SOL    HW133464   1.822   3.362   1.525 -2.4263 -0.2845 -1.2471
 7334SOL    HW233465   1.776   3.233   1.463  0.4779 -0.8588 -1.0359
 7335SOL     OW33466   0.296   2.153   3.955  0.0577 -0.1249 -0.1123
 7335SOL    HW133467   0.320   2.105   3.876 -0.5758 -2.1331  0.8972
 7335SOL    HW233468   0.367   2.116   4.008 -0.9596  0.4830  1.6601
 7336SOL     OW33469   1.112   0.989   4.450 -0.3160 -0.3017  0.0293
 7336SOL    HW133470   1.027   1.015   4.414  0.2691 -0.6718 -1.5878
 7336SOL    HW233471   1.164   1.054   4.403  0.6782 -2.3233 -1.6569
 7337SOL     OW33472   0.984   3.172   5.283  0.0668  0.6754  0.6488
 7337SOL    HW133473   0.953   3.081   5.286 -0.1572  0.7102 -0.5869
 7337SOL    HW233474   1.045   3.168   5.356  0.4217 -0.8647  0.2538
 7338SOL     OW33475   1.566   3.781  14.873  0.0384 -0.3082  0.7827
 7338SOL    HW133476   1.510   3.823  14.939 -1.8195 -0.7333 -0.5494
 7338SOL    HW233477   1.643   3.824  14.910 -0.8079  1.5381  0.3987
 7339SOL     OW33478   2.618   1.098   8.569 -0.0863 -0.4859  0.0433
 7339SOL    HW133479   2.539   1.145   8.541 -0.4715  0.0094  1.9456
 7339SOL    HW233480   2.625   1.037   8.495 -1.7146 -4.4856  3.1887
 7340SOL     OW33481   0.931   1.638   0.250  0.2137 -0.4152 -0.0694
 7340SOL    HW133482   0.847   1.682   0.260  0.8024  0.7624 -0.3384
 7340SOL    HW233483   0.979   1.674   0.176  1.0351 -1.2095  0.0829
 7341SOL     OW33484   3.368   0.008  12.481  0.2410  0.1978 -0.0197
 7341SOL    HW133485   3.429   4.675  12.433  1.8016  1.0333  0.9857
 7341SOL    HW233486   3.325   4.671  12.542  0.0284  1.3271  0.9283
 7342SOL     OW33487   1.314   3.005  15.491  0.6688  0.5741  0.6515
 7342SOL    HW133488   1.277   2.953  15.420  1.4540  1.5199 -0.4309
 7342SOL    HW233489   1.373   3.060  15.440 -0.1237 -0.5739 -1.5020
 7343SOL     OW33490   0.633   1.618   8.927  0.6195  0.2102 -0.9118
 7343SOL    HW133491   0.657   1.560   8.999 -3.7218 -0.3099  0.0948
 7343SOL    HW233492   0.626   1.706   8.963 -0.6856  0.3426 -1.4888
 7344SOL     OW33493   4.536   1.646   8.119 -0.3461 -0.0870  0.2601
 7344SOL    HW133494   4.470   1.590   8.160 -1.6817  1.7472  0.6486
 7344SOL    HW233495   4.533   1.604   8.033  0.9021  0.2380  0.0598
 7345SOL     OW33496   1.319   0.479   5.729  0.2591 -0.0942 -0.0011
 7345SOL    HW133497   1.298   0.558   5.681  0.2254  0.0166  0.1961
 7345SOL    HW233498   1.411   0.476   5.702 -0.2658  1.3322 -1.8820
 7346SOL     OW33499   3.354   1.765   7.167  0.2050  0.0462  0.4694
 7346SOL    HW133500   3.407   1.801   7.239  0.4192 -0.6495  0.6604
 7346SOL    HW233501   3.286   1.727   7.223 -0.0899  0.5385  0.4487
 7347SOL     OW33502   3.884   4.289   5.763 -0.1649 -0.1924 -0.5721
 7347SOL    HW133503   3.804   4.247   5.793  0.7621 -0.3929  1.6015
 7347SOL    HW233504   3.852   4.301   5.674 -0.8745  0.9523 -0.1541
 7348SOL     OW33505   1.184   2.799   8.892  0.0288 -0.2598  0.6108
 7348SOL    HW133506   1.185   2.793   8.988  0.1049 -2.6001  0.4845
 7348SOL    HW233507   1.203   2.705   8.886  2.4092  0.2550  0.2860
 7349SOL     OW33508   1.138   3.174  14.578  0.3617  0.0072 -0.6416
 7349SOL    HW133509   1.213   3.220  14.614 -0.2353  0.6348 -0.1998
 7349SOL    HW233510   1.075   3.245  14.567 -0.1719 -1.0202 -4.0609
 7350SOL     OW33511   3.843   3.533   1.011  0.1762  0.3890  0.3629
 7350SOL    HW133512   3.909   3.578   0.958  1.4333 -2.1894 -0.2276
 7350SOL    HW233513   3.768   3.513   0.956  1.6942  0.0806 -1.5715
 7351SOL     OW33514   4.113   2.474  14.223  0.2189 -0.1781  0.5456
 7351SOL    HW133515   4.147   2.386  14.209 -0.3741 -0.0571 -1.6897
 7351SOL    HW233516   4.086   2.479  14.315 -0.0954  2.0031  0.3470
 7352SOL     OW33517   2.404   0.986   4.543 -0.1311  0.0163  0.3205
 7352SOL    HW133518   2.416   1.000   4.637  0.0688  0.8555  0.1684
 7352SOL    HW233519   2.493   0.971   4.511 -0.0368  0.1681  0.5113
 7353SOL     OW33520   0.685   3.867   8.603 -0.2955 -0.0892  0.4403
 7353SOL    HW133521   0.622   3.805   8.639 -1.2950  0.2721 -0.6569
 7353SOL    HW233522   0.660   3.941   8.658  0.7292 -0.0959  0.8929
 7354SOL     OW33523   0.267   2.037   0.016 -0.0616 -0.1529 -0.0451
 7354SOL    HW133524   0.270   2.075   0.104 -4.2786 -1.1666  0.5292
 7354SOL    HW233525   0.204   1.966   0.030  0.2760 -0.9053 -2.4033
 7355SOL     OW33526   1.716   2.910   4.759  0.0494  0.3501 -0.2056
 7355SOL    HW133527   1.770   2.831   4.766  0.3377  0.6589  1.0221
 7355SOL    HW233528   1.629   2.871   4.761  0.0021  0.4792  0.3065
 7356SOL     OW33529   3.365   2.010   3.352 -0.1193 -0.1398  0.3576
 7356SOL    HW133530   3.418   2.065   3.409 -1.4414 -0.1007  1.5347
 7356SOL    HW233531   3.355   1.930   3.403  3.9292 -1.1358 -0.4263
 7357SOL     OW33532   4.155   3.240   5.627  0.6077 -0.0518  0.0938
 7357SOL    HW133533   4.067   3.211   5.604  0.7532  1.1607 -2.0499
 7357SOL    HW233534   4.137   3.334   5.629  1.3122  0.1076 -0.6878
 7358SOL     OW33535   3.182   3.558   3.265  0.2464 -0.3585 -0.0666
 7358SOL    HW133536   3.165   3.648   3.238 -1.5912 -0.1610  1.8441
 7358SOL    HW233537   3.166   3.510   3.184  1.1900  3.0684 -2.3129
 7359SOL     OW33538   0.147   3.035  15.757 -0.3086  0.1878  0.3826
 7359SOL    HW133539   0.064   3.070  15.788 -0.5944 -1.0923  1.0895
 7359SOL    HW233540   0.124   2.942  15.754  0.7185 -0.1334  2.3494
 7360SOL     OW33541   0.446   1.987   6.849  0.5308  0.0139 -0.2603
 7360SOL    HW133542   0.473   2.079   6.849  0.4967  0.0234 -1.8462
 7360SOL    HW233543   0.361   1.997   6.806  0.4574  0.3348 -0.0381
 7361SOL     OW33544   0.788   2.967   4.691  0.1500 -0.2475  0.4349
 7361SOL    HW133545   0.863   2.924   4.650 -0.6767  0.0626 -1.3789
 7361SOL    HW233546   0.753   3.010   4.614 -2.3338 -0.9169  1.1892
 7362SOL     OW33547   2.922   3.696   6.863 -0.2435 -0.0605  0.2295
 7362SOL    HW133548   2.963   3.656   6.786 -0.5349 -0.3631  0.2283
 7362SOL    HW233549   2.890   3.617   6.908 -1.1573 -0.5619 -1.3081
 7363SOL     OW33550   3.726   3.397   5.065 -0.5507  0.0717  0.3137
 7363SOL    HW133551   3.692   3.397   4.975  0.3189  0.8496 -0.0083
 7363SOL    HW233552   3.818   3.421   5.062 -1.0748  2.4011  2.8543
 7364SOL     OW33553   1.122   4.526   0.517  0.3206  0.0352  0.1553
 7364SOL    HW133554   1.129   4.432   0.534  0.4289  0.0675  0.2906
 7364SOL    HW233555   1.214   4.549   0.527  0.7791 -2.6146  2.0926
 7365SOL     OW33556   3.181   2.745   2.646  0.1582  0.1835 -0.7232
 7365SOL    HW133557   3.227   2.818   2.686  0.6513 -0.0314 -0.8962
 7365SOL    HW233558   3.232   2.671   2.679 -1.2858  0.4665  2.0734
 7366SOL     OW33559   4.307   2.486   6.940  0.4199  0.1588 -0.0208
 7366SOL    HW133560   4.225   2.442   6.915 -0.5658  2.5280 -0.9468
 7366SOL    HW233561   4.332   2.437   7.018 -0.1655 -2.4745 -1.4736
 7367SOL     OW33562   3.518   3.816   3.738 -0.0760 -0.3107  0.7693
 7367SOL    HW133563   3.484   3.883   3.797  0.9488  3.0573 -2.4327
 7367SOL    HW233564   3.436   3.800   3.691  1.3692 -1.3127 -1.4286
 7368SOL     OW33565   1.090   0.547   4.991  0.1132 -0.0800  0.6935
 7368SOL    HW133566   1.137   0.628   4.970  1.6176 -1.5757 -1.7687
 7368SOL    HW233567   1.109   0.539   5.085 -1.7463 -2.7706  0.8549
 7369SOL     OW33568   3.160   1.719  12.064 -0.0842 -0.1170  0.1113
 7369SOL    HW133569   3.119   1.721  12.150 -1.7424 -3.8637 -0.6026
 7369SOL    HW233570   3.080   1.724  12.012  0.0087 -3.4774 -0.3510
 7370SOL     OW33571   1.162   1.364  13.459  1.1384  0.1182 -0.2198
 7370SOL    HW133572   1.092   1.410  13.414  0.0624 -1.8445 -0.5804
 7370SOL    HW233573   1.122   1.278  13.477  1.4569 -0.3611 -1.7933
 7371SOL     OW33574   4.342   0.532  11.439 -0.3602 -0.0714  0.1405
 7371SOL    HW133575   4.265   0.476  11.429  0.4632 -0.7557 -2.3482
 7371SOL    HW233576   4.326   0.583  11.360 -1.8255  0.7503  0.9595
 7372SOL     OW33577   3.103   1.421   8.583 -0.2585  0.4188 -0.1992
 7372SOL    HW133578   3.113   1.390   8.673 -0.3899 -0.4688 -0.4816
 7372SOL    HW233579   3.107   1.516   8.589 -0.0664  0.4484 -0.7471
 7373SOL     OW33580   3.536   2.483   8.925  0.2267  0.0785  0.1838
 7373SOL    HW133581   3.599   2.440   8.868 -1.8673 -0.5932 -1.6631
 7373SOL    HW233582   3.471   2.518   8.863 -0.8225 -3.6529 -0.7841
 7374SOL     OW33583   0.092   0.678   4.366 -0.6345 -0.1625 -0.4849
 7374SOL    HW133584   0.027   0.611   4.345  2.0759 -1.8204 -3.3992
 7374SOL    HW233585   0.065   0.749   4.308  0.7897  1.0129  0.3165
 7375SOL     OW33586   3.314   2.188   0.037 -0.0852 -0.1241  0.0487
 7375SOL    HW133587   3.314   2.221   0.126  3.0885 -0.2793  0.0844
 7375SOL    HW233588   3.378   2.117   0.037  0.2062  0.1371  0.9753
 7376SOL     OW33589   4.163   2.487   3.869 -0.3822 -0.1135  0.1624
 7376SOL    HW133590   4.079   2.510   3.907 -0.6825 -2.4960  0.9338
 7376SOL    HW233591   4.226   2.535   3.924 -1.2321 -0.3502  1.3408
 7377SOL     OW33592   3.520   2.077   5.680  0.1695  0.0296 -0.0304
 7377SOL    HW133593   3.515   2.126   5.763 -0.6050 -0.1302  0.0248
 7377SOL    HW233594   3.545   1.991   5.713 -1.8279 -0.9707 -1.1275
 7378SOL     OW33595   2.752   2.555   6.065 -0.1120  0.4729 -0.1631
 7378SOL    HW133596   2.769   2.474   6.017  2.0806  0.6882  0.2408
 7378SOL    HW233597   2.685   2.515   6.121  0.4965  0.6272  0.6759
 7379SOL     OW33598   4.560   3.293  11.842 -0.3808 -0.5601  0.1197
 7379SOL    HW133599   4.649   3.309  11.810 -1.2740  1.2800 -1.4718
 7379SOL    HW233600   4.538   3.204  11.814  3.1218 -1.5141  0.4354
 7380SOL     OW33601   2.259   3.519   2.979 -0.1853 -0.1892  0.1760
 7380SOL    HW133602   2.257   3.607   2.942 -1.8619 -0.3892 -0.2127
 7380SOL    HW233603   2.302   3.536   3.063  1.2954  2.6748 -1.1664
 7381SOL     OW33604   1.554   0.213   2.203 -0.2852 -0.7036 -0.3610
 7381SOL    HW133605   1.512   0.296   2.223  2.1350  0.2164  0.9184
 7381SOL    HW233606   1.571   0.181   2.292  0.5982  0.5809 -0.0606
 7382SOL     OW33607   3.369   0.793   2.361  0.2749 -0.4500  0.3876
 7382SOL    HW133608   3.310   0.718   2.366  0.9466 -0.9507  0.8663
 7382SOL    HW233609   3.392   0.802   2.269 -2.8436 -0.0493 -0.3261
 7383SOL     OW33610   4.640   3.389   0.687  0.3604  0.0893 -0.4145
 7383SOL    HW133611   4.568   3.426   0.738 -0.6199 -1.4746 -0.6592
 7383SOL    HW233612   4.703   3.456   0.714 -2.3487  1.1758  3.1840
 7384SOL     OW33613   4.599   3.820   5.664 -0.1945  0.5988  0.5676
 7384SOL    HW133614   4.679   3.810   5.613 -0.9289  1.8537 -0.8271
 7384SOL    HW233615   4.605   3.910   5.695  0.4993  0.1561  1.7298
 7385SOL     OW33616   1.785   0.459   9.267  0.2545 -0.5618  0.5228
 7385SOL    HW133617   1.749   0.405   9.337 -0.6357 -1.0897 -0.3292
 7385SOL    HW233618   1.700   0.496   9.243  0.4577 -0.3546  0.1222
 7386SOL     OW33619   2.744   3.166  12.805  0.3505  0.4108  0.2002
 7386SOL    HW133620   2.833   3.167  12.770  0.7719 -0.1643  1.2578
 7386SOL    HW233621   2.720   3.257  12.790  1.4021  1.1008  2.6871
 7387SOL     OW33622   0.902   1.306  16.558  0.4720 -0.1918  0.1117
 7387SOL    HW133623   0.827   1.335  16.507  0.2451  1.5810  1.4560
 7387SOL    HW233624   0.852   1.276  16.634  1.3045  1.1191  1.1698
 7388SOL     OW33625   3.148   1.020   9.043  0.3218 -0.0712  0.3721
 7388SOL    HW133626   3.101   1.070   8.976 -1.2609  1.3217  2.5213
 7388SOL    HW233627   3.089   1.014   9.118  0.9264 -0.5061  0.8211
 7389SOL     OW33628   4.425   3.271   1.847 -0.4255  0.4586 -0.9669
 7389SOL    HW133629   4.406   3.203   1.912 -1.8358  1.2535 -0.5645
 7389SOL    HW233630   4.340   3.311   1.830  0.4112  2.8523  0.4624
 7390SOL     OW33631   1.080   2.765   8.356 -0.8346 -0.0063  0.7565
 7390SOL    HW133632   1.051   2.678   8.328  0.8385  0.3654 -2.1774
 7390SOL    HW233633   1.119   2.741   8.440  2.9670 -0.0464 -0.9903
 7391SOL     OW33634   0.871   4.228  11.826  0.2251 -0.3607 -0.3587
 7391SOL    HW133635   0.930   4.173  11.775  0.1540 -0.6999 -0.0733
 7391SOL    HW233636   0.784   4.207  11.792 -0.5751  0.8570  0.9171
 7392SOL     OW33637   0.107   2.153   2.181 -0.0788 -0.4749  0.3475
 7392SOL    HW133638   0.024   2.124   2.220 -0.6639  0.0831 -0.4702
 7392SOL    HW233639   0.115   2.243   2.214 -1.2736 -0.6582  1.1654
 7393SOL     OW33640   1.965   0.722  16.943 -0.0305  0.1293  0.1332
 7393SOL    HW133641   1.915   0.688  16.868 -0.3548  0.4512  0.2012
 7393SOL    HW233642   2.050   0.679  16.940 -0.4752 -0.7389  0.0953
 7394SOL     OW33643   3.623   4.498  16.569 -0.3124  0.7406  0.2252
 7394SOL    HW133644   3.636   4.593  16.574 -3.5287  1.2628 -1.2616
 7394SOL    HW233645   3.528   4.504  16.557 -0.4185 -1.0172  0.1871
 7395SOL     OW33646   4.570   3.353   8.588  0.1963  0.1487 -0.0123
 7395SOL    HW133647   4.479   3.373   8.610  0.1734  1.1710 -1.0025
 7395SOL    HW233648   4.594   3.347   8.680 -0.2305 -1.2506 -0.0044
 7396SOL     OW33649   2.657   2.938  11.421 -0.3210 -0.1570 -0.3010
 7396SOL    HW133650   2.644   3.030  11.444 -1.7643 -0.2555 -0.7028
 7396SOL    HW233651   2.720   2.911  11.488 -0.0305  0.2192 -0.4187
 7397SOL     OW33652   0.699   0.581  13.241 -0.2208  0.3019 -0.2449
 7397SOL    HW133653   0.745   0.649  13.192  0.9621  0.0122  0.4603
 7397SOL    HW233654   0.674   0.524  13.168 -2.0759  0.8107 -0.0037
 7398SOL     OW33655   1.909   3.975   7.883  0.4774 -0.1648 -0.1513
 7398SOL    HW133656   1.969   3.902   7.869  0.2270 -0.5054  0.5703
 7398SOL    HW233657   1.838   3.941   7.938 -2.3045  0.5924 -3.2458
 7399SOL     OW33658   3.593   0.567   2.900  0.4403 -0.2267  0.2083
 7399SOL    HW133659   3.616   0.657   2.920  1.6501  0.0274 -2.2664
 7399SOL    HW233660   3.682   0.532   2.898  0.6880  0.3756  1.0002
 7400SOL     OW33661   1.727   4.585   2.654  0.3792 -0.3485  0.0246
 7400SOL    HW133662   1.734   4.572   2.749 -0.5935  0.2702  0.1809
 7400SOL    HW233663   1.635   4.563   2.643  0.8458 -2.4386  0.3446
 7401SOL     OW33664   4.584   1.655   4.971 -0.1953  0.5982  0.2844
 7401SOL    HW133665   4.533   1.731   4.944 -0.1437  1.0887  1.5874
 7401SOL    HW233666   4.541   1.636   5.054 -0.4287  2.7295  0.6513
 7402SOL     OW33667   3.328   3.337   6.252  0.2219  0.5867  0.2107
 7402SOL    HW133668   3.382   3.415   6.271  1.2483 -0.4763  1.7143
 7402SOL    HW233669   3.328   3.296   6.339  0.0503  2.0303  0.9066
 7403SOL     OW33670   2.322   0.909   6.729  0.2126 -0.1320  0.0381
 7403SOL    HW133671   2.375   0.987   6.708  2.0059 -1.4060 -0.2052
 7403SOL    HW233672   2.292   0.893   6.640  0.8473  2.1632 -0.5960
 7404SOL     OW33673   3.315   2.877   4.358  0.3364 -0.2182 -0.5819
 7404SOL    HW133674   3.379   2.913   4.297 -1.0813  2.3954 -0.4967
 7404SOL    HW233675   3.306   2.950   4.419 -1.2424 -2.0002  1.2945
 7405SOL     OW33676   4.696   1.992  14.764  0.0700 -0.5450  0.0126
 7405SOL    HW133677   4.623   1.983  14.702  0.8155 -0.7320 -0.8310
 7405SOL    HW233678   4.654   1.955  14.842  1.5160  1.6168  1.8215
 7406SOL     OW33679   1.316   4.574   4.535 -0.1165  0.0327  0.0497
 7406SOL    HW133680   1.389   4.514   4.550  0.5818  1.3035  1.7256
 7406SOL    HW233681   1.358   4.656   4.511  1.7002 -0.9594 -0.1228
 7407SOL     OW33682   4.310   2.598   4.069  0.0750 -0.8175  0.2055
 7407SOL    HW133683   4.233   2.589   4.125 -0.0567  0.6042  0.2452
 7407SOL    HW233684   4.369   2.543   4.122 -0.5483  0.5344  2.3039
 7408SOL     OW33685   0.222   1.689   2.428  0.4653  0.8900  0.1036
 7408SOL    HW133686   0.177   1.605   2.439  1.5160  0.3253  0.0598
 7408SOL    HW233687   0.311   1.660   2.409  0.0849  0.3189 -0.8477
 7409SOL     OW33688   0.557   2.901  11.238 -0.7511  0.1842  0.0187
 7409SOL    HW133689   0.540   2.994  11.251 -2.1380 -0.0148 -0.3476
 7409SOL    HW233690   0.635   2.895  11.294 -0.1581 -1.4857 -0.9863
 7410SOL     OW33691   2.138   0.902   7.388 -0.2485 -0.3296  0.3284
 7410SOL    HW133692   2.165   0.831   7.447  0.6036  0.8733  1.3753
 7410SOL    HW233693   2.076   0.943   7.449  1.2276  1.4144  0.6647
 7411SOL     OW33694   1.843   2.020   3.235 -0.5043 -0.7786 -0.2873
 7411SOL    HW133695   1.866   1.928   3.219  1.9914 -0.2281  0.1144
 7411SOL    HW233696   1.748   2.018   3.238 -0.4654 -0.8396  1.0338
 7412SOL     OW33697   1.030   4.300   7.374  0.1054  0.3393 -0.2283
 7412SOL    HW133698   1.100   4.282   7.437 -2.0118 -0.5217  1.8967
 7412SOL    HW233699   0.954   4.319   7.429 -1.2057  2.5966 -2.8365
 7413SOL     OW33700   4.259   3.852   3.841 -0.1150  0.2921 -0.2369
 7413SOL    HW133701   4.324   3.917   3.814 -0.3908  1.0220  0.8216
 7413SOL    HW233702   4.305   3.800   3.907  0.1855 -1.4025 -1.8148
 7414SOL     OW33703   2.569   2.763  14.395 -0.3733  0.3101 -0.3089
 7414SOL    HW133704   2.482   2.725  14.383 -0.5939  0.4626  0.8623
 7414SOL    HW233705   2.561   2.802  14.482  1.5030  0.9065 -0.4063
 7415SOL     OW33706   3.834   4.126   8.959  0.1019  0.5883  0.2553
 7415SOL    HW133707   3.925   4.099   8.942  0.0298 -1.9284  3.8501
 7415SOL    HW233708   3.832   4.216   8.926  1.4167  0.0732 -1.2055
 7416SOL     OW33709   4.452   4.392   2.949 -0.2253 -0.0882 -0.1993
 7416SOL    HW133710   4.421   4.477   2.979  0.6788  0.8483 -1.9528
 7416SOL    HW233711   4.545   4.415   2.944 -0.7960  1.7930 -1.5321
 7417SOL     OW33712   0.678   2.750  16.740 -0.2606  0.1611  0.1424
 7417SOL    HW133713   0.767   2.716  16.748 -0.1571  0.0554 -1.4038
 7417SOL    HW233714   0.623   2.672  16.751 -0.7007  0.5339  0.5722
 7418SOL     OW33715   1.805   0.332   4.298  0.1493 -0.4717 -0.6877
 7418SOL    HW133716   1.768   0.421   4.294  2.3066  0.4979  1.0686
 7418SOL    HW233717   1.781   0.313   4.388  0.8605  2.1965  0.0517
 7419SOL     OW33718   3.885   1.445   0.538  0.4594 -0.3768 -0.0096
 7419SOL    HW133719   3.869   1.353   0.557  0.2921  0.2143  2.7330
 7419SOL    HW233720   3.980   1.439   0.536  0.5281  0.9869 -1.4039
 7420SOL     OW33721   1.269   1.580  13.289 -0.1769 -0.1374  0.3514
 7420SOL    HW133722   1.356   1.558  13.323 -0.2861 -2.9418 -1.1831
 7420SOL    HW233723   1.216   1.506  13.318  0.5557 -0.8259 -0.0783
 7421SOL     OW33724   2.079   0.494  13.360  0.3120  0.0059 -0.1272
 7421SOL    HW133725   1.990   0.527  13.343  0.4238  0.2172 -0.2978
 7421SOL    HW233726   2.072   0.404  13.327  0.4576  0.0523 -0.2847
 7422SOL     OW33727   3.328   0.690  10.482  0.0062  0.3085  0.0378
 7422SOL    HW133728   3.418   0.680  10.513 -0.7034  0.1010  2.0437
 7422SOL    HW233729   3.268   0.678  10.556 -2.2369  1.3015 -1.6280
 7423SOL     OW33730   0.171   2.470   4.610  0.1023 -0.2297  0.1567
 7423SOL    HW133731   0.131   2.504   4.690  0.7919 -0.3905  0.5659
 7423SOL    HW233732   0.264   2.485   4.626  0.6572 -1.6674 -1.7928
 7424SOL     OW33733   1.623   1.975   8.448  0.0382 -0.2484 -0.2396
 7424SOL    HW133734   1.627   2.065   8.415  1.0192  0.4975  1.9196
 7424SOL    HW233735   1.671   1.974   8.531 -1.9025 -2.9578  0.8403
 7425SOL     OW33736   2.199   4.027   8.232  0.4238  0.0800 -0.4117
 7425SOL    HW133737   2.259   4.082   8.183  1.0090 -0.3364 -0.1711
 7425SOL    HW233738   2.252   4.038   8.312 -0.9730  1.7046  0.2867
 7426SOL     OW33739   1.134   0.152   9.662 -0.0594 -0.4775 -0.6431
 7426SOL    HW133740   1.130   0.089   9.590  0.6992 -2.7441  1.3256
 7426SOL    HW233741   1.063   0.214   9.641  0.3208  0.5210  0.9774
 7427SOL     OW33742   0.976   2.336   1.855 -0.2340  0.0733 -0.1291
 7427SOL    HW133743   1.018   2.275   1.916  1.9681 -0.4298 -2.1746
 7427SOL    HW233744   0.985   2.291   1.772  1.4822 -1.5181  0.9213
 7428SOL     OW33745   3.755   2.230   3.335  0.2211 -0.2355 -0.3670
 7428SOL    HW133746   3.780   2.171   3.264 -1.0143  0.8047 -1.6698
 7428SOL    HW233747   3.843   2.256   3.364  0.1897  0.3976 -0.8143
 7429SOL     OW33748   4.437   0.882   3.128 -0.6182  0.1252 -0.2426
 7429SOL    HW133749   4.343   0.878   3.145 -0.5160  1.1289  0.5282
 7429SOL    HW233750   4.464   0.796   3.161 -0.4793  0.4144  0.4062
 7430SOL     OW33751   2.861   1.614   5.371  0.1251  0.7182  0.0465
 7430SOL    HW133752   2.938   1.670   5.382 -1.1285  2.5381 -0.4130
 7430SOL    HW233753   2.804   1.657   5.435 -1.2114 -2.6778  1.1421
 7431SOL     OW33754   4.581   2.032   2.662 -0.1138  0.5798 -0.3701
 7431SOL    HW133755   4.673   2.031   2.687 -0.3739  1.2510  0.6186
 7431SOL    HW233756   4.563   2.126   2.660 -0.2766  0.5447 -0.5433
 7432SOL     OW33757   0.262   3.321   4.362  0.2138  0.0440 -0.3093
 7432SOL    HW133758   0.317   3.400   4.362 -0.6227  0.6436  0.7856
 7432SOL    HW233759   0.225   3.329   4.450 -1.4856 -2.7581 -0.7911
 7433SOL     OW33760   2.354   3.786  12.747 -0.2460 -0.3071 -0.4563
 7433SOL    HW133761   2.275   3.826  12.783 -1.0871 -2.1857 -0.2282
 7433SOL    HW233762   2.322   3.718  12.688 -1.1922 -0.7118  0.5176
 7434SOL     OW33763   3.620   2.753   9.842 -0.2118 -0.8904  0.0398
 7434SOL    HW133764   3.689   2.737   9.906 -0.4039 -0.3910  0.3747
 7434SOL    HW233765   3.558   2.691   9.880  0.2989 -0.3273  1.7825
 7435SOL     OW33766   3.928   4.582   7.748  0.0924  0.4943 -0.0343
 7435SOL    HW133767   3.898   4.544   7.665 -0.8035  0.4814  0.3042
 7435SOL    HW233768   3.974   4.505   7.782  0.8279  0.1690 -1.7004
 7436SOL     OW33769   2.982   0.182  16.284 -0.3936 -0.2204 -0.0807
 7436SOL    HW133770   3.054   0.121  16.274 -1.0683 -0.9657 -0.3949
 7436SOL    HW233771   3.022   0.257  16.240 -0.8632 -0.0899 -0.2930
 7437SOL     OW33772   0.044   0.125   8.609 -0.3847  0.0363 -0.1991
 7437SOL    HW133773   4.701   0.194   8.607  0.3065  0.7251  0.6965
 7437SOL    HW233774   0.073   0.132   8.700 -2.9341 -0.5673  0.6629
 7438SOL     OW33775   0.892   3.476   8.706  0.1621  0.1267  0.6102
 7438SOL    HW133776   0.809   3.496   8.662 -0.4937  0.5765  2.0512
 7438SOL    HW233777   0.907   3.388   8.671  0.5246  0.3604  0.1779
 7439SOL     OW33778   3.418   4.544   1.821  0.4515 -0.4442 -0.0838
 7439SOL    HW133779   3.399   4.543   1.915 -0.9808  1.1375 -0.3451
 7439SOL    HW233780   3.413   4.637   1.802 -2.0657 -0.1994  1.6680
 7440SOL     OW33781   4.403   1.358   9.441  0.1402 -0.2405  0.2813
 7440SOL    HW133782   4.401   1.453   9.426  0.8163 -0.2987 -0.2274
 7440SOL    HW233783   4.496   1.347   9.462  0.0897  0.6452  0.9480
 7441SOL     OW33784   0.683   1.888   3.296  0.2181  0.0473  0.4008
 7441SOL    HW133785   0.758   1.830   3.312 -0.9125 -1.0949  1.5789
 7441SOL    HW233786   0.607   1.849   3.339  0.5750  0.3822  1.3432
 7442SOL     OW33787   1.678   1.422   1.664  0.6770 -0.5129  0.1020
 7442SOL    HW133788   1.622   1.363   1.613  0.8180 -0.5894  0.0371
 7442SOL    HW233789   1.745   1.438   1.598  1.4222  0.3270  1.0609
 7443SOL     OW33790   3.038   3.661  13.420  0.0696  0.2072 -0.0170
 7443SOL    HW133791   3.027   3.705  13.504 -1.9779  1.0108 -0.7023
 7443SOL    HW233792   2.947   3.663  13.391 -0.0325  0.2820  0.3110
 7444SOL     OW33793   1.579   2.834  13.424 -0.2620  0.2470 -0.2637
 7444SOL    HW133794   1.514   2.905  13.417 -1.9660 -1.3240 -0.5446
 7444SOL    HW233795   1.573   2.816  13.518  0.7283 -0.5429 -0.3588
 7445SOL     OW33796   0.863   0.182   0.692  0.4882 -0.3447 -0.1056
 7445SOL    HW133797   0.864   0.091   0.662 -1.9968 -0.5456  0.4340
 7445SOL    HW233798   0.948   0.179   0.736  0.5067 -0.4386 -0.1455
 7446SOL     OW33799   0.177   3.045   9.692  0.1335  0.1654  0.4048
 7446SOL    HW133800   0.240   3.082   9.754 -0.9436  1.8293  0.5059
 7446SOL    HW233801   0.097   3.079   9.732  0.5262 -0.8029  2.0127
 7447SOL     OW33802   0.651   3.399  11.027 -0.0667  0.1225 -0.0298
 7447SOL    HW133803   0.603   3.348  10.961 -0.1948 -1.6303  1.4005
 7447SOL    HW233804   0.740   3.374  11.002 -0.2346  0.1393 -0.6505
 7448SOL     OW33805   2.209   0.298   7.300 -0.2818  0.1371  0.2578
 7448SOL    HW133806   2.294   0.280   7.260 -1.3400 -0.0016 -1.9233
 7448SOL    HW233807   2.189   0.214   7.341 -1.3017 -0.3603 -1.2792
 7449SOL     OW33808   1.845   1.661  11.536  0.2047  0.5684 -0.6358
 7449SOL    HW133809   1.796   1.731  11.580  1.5686  0.2539  1.3584
 7449SOL    HW233810   1.875   1.715  11.463 -0.9339  0.8869 -0.8643
 7450SOL     OW33811   0.024   1.099   3.148  0.2487  0.1347 -0.9614
 7450SOL    HW133812   4.665   1.116   3.101  1.4535  0.2288 -3.0339
 7450SOL    HW233813   0.062   1.186   3.157  2.8768 -1.0808 -0.3537
 7451SOL     OW33814   3.492   4.122   2.359  0.0168 -1.1310 -0.0622
 7451SOL    HW133815   3.478   4.054   2.294 -2.0017  2.2858 -3.2413
 7451SOL    HW233816   3.411   4.172   2.350  0.1251 -1.0699 -0.6991
 7452SOL     OW33817   1.933   1.110  16.568 -0.0086 -0.5395 -0.4565
 7452SOL    HW133818   1.865   1.176  16.576  1.7095  1.4134 -1.8558
 7452SOL    HW233819   1.928   1.077  16.658 -1.3303  1.3790  0.1545
 7453SOL     OW33820   2.865   0.695   6.612  0.2709  0.2194  0.4405
 7453SOL    HW133821   2.938   0.635   6.602 -0.8218 -0.9842 -0.4401
 7453SOL    HW233822   2.781   0.652   6.596  1.0331 -0.8998 -0.5896
 7454SOL     OW33823   0.346   4.132   8.284 -0.6668  0.1908 -0.7632
 7454SOL    HW133824   0.284   4.075   8.239 -1.8309  0.4452  0.5114
 7454SOL    HW233825   0.298   4.154   8.364  0.4558  0.1088 -0.0658
 7455SOL     OW33826   4.061   1.124   6.673 -0.0207 -0.1177 -0.3841
 7455SOL    HW133827   4.102   1.075   6.601  0.0290 -0.6573  0.0086
 7455SOL    HW233828   3.972   1.091   6.682  0.2574 -0.1316  2.2942
 7456SOL     OW33829   0.727   3.118  14.531 -0.5262 -0.3498  0.3364
 7456SOL    HW133830   0.733   3.047  14.467 -0.3663  1.2454 -1.4218
 7456SOL    HW233831   0.780   3.073  14.597  0.1541  1.4322  0.9961
 7457SOL     OW33832   0.846   4.084   2.347 -0.4879  0.0102 -0.2948
 7457SOL    HW133833   0.821   4.114   2.259 -1.7067  0.6917  0.2927
 7457SOL    HW233834   0.846   3.991   2.325 -1.9339  0.1723 -1.0156
 7458SOL     OW33835   1.339   0.856   7.951 -0.1577  0.2190 -0.4297
 7458SOL    HW133836   1.254   0.815   7.966 -0.2086  1.0910  1.6251
 7458SOL    HW233837   1.340   0.841   7.857 -3.4948 -1.5111 -0.1843
 7459SOL     OW33838   1.337   1.885   3.653  0.2841  0.0444  0.0606
 7459SOL    HW133839   1.248   1.859   3.627 -0.2184 -0.5495  2.3689
 7459SOL    HW233840   1.335   1.827   3.729 -0.1368  0.1623  0.1393
 7460SOL     OW33841   3.039   0.100   1.385  0.1001  0.5657  0.3342
 7460SOL    HW133842   3.055   0.006   1.383 -2.7508  0.1115 -1.6280
 7460SOL    HW233843   3.129   0.127   1.400 -0.5567  1.3673  2.9170
 7461SOL     OW33844   1.942   1.373   3.607 -0.0644 -0.4870 -0.5618
 7461SOL    HW133845   1.959   1.313   3.533  0.8654 -1.1492  0.1838
 7461SOL    HW233846   1.880   1.426   3.557  0.3123  0.6970  0.2285
 7462SOL     OW33847   3.178   2.460   7.895  0.0063 -0.0761 -0.6988
 7462SOL    HW133848   3.142   2.398   7.831 -0.2521  0.5964 -1.2044
 7462SOL    HW233849   3.138   2.544   7.871 -0.1877 -0.1665 -0.6886
 7463SOL     OW33850   3.202   1.290   8.082  0.1336 -0.3811 -0.1241
 7463SOL    HW133851   3.198   1.205   8.038  2.0741 -1.6500  2.1648
 7463SOL    HW233852   3.288   1.283   8.123 -0.4435  0.9126  1.2966
 7464SOL     OW33853   0.303   2.502   2.351 -0.0658 -0.1514 -0.7979
 7464SOL    HW133854   0.227   2.444   2.340  1.2890 -1.6423 -2.2260
 7464SOL    HW233855   0.305   2.550   2.269  1.7266  2.5478  0.8157
 7465SOL     OW33856   0.159   2.256   4.464 -0.3356 -0.1169  0.2318
 7465SOL    HW133857   0.160   2.165   4.495 -1.1265 -0.0764  0.3691
 7465SOL    HW233858   0.151   2.317   4.536  0.0996 -0.4311  0.5468
 7466SOL     OW33859   4.380   2.608   8.935 -0.0701 -0.0249 -0.0838
 7466SOL    HW133860   4.382   2.692   8.890  0.8068  0.5909  1.1170
 7466SOL    HW233861   4.298   2.616   8.985  1.9413 -0.0044  3.2022
 7467SOL     OW33862   0.826   2.728  13.126 -0.0685  0.4637  0.2842
 7467SOL    HW133863   0.800   2.785  13.053 -0.3478 -0.3092 -0.2228
 7467SOL    HW233864   0.920   2.745  13.120 -0.0535  0.7487  1.3014
 7468SOL     OW33865   0.322   4.300   3.652 -0.0843 -0.3721  0.3169
 7468SOL    HW133866   0.299   4.390   3.678  0.8785 -0.9209  3.0784
 7468SOL    HW233867   0.270   4.253   3.718  1.7800 -1.5387  0.9286
 7469SOL     OW33868   4.167   1.860   5.285  0.5434 -0.2349 -0.4368
 7469SOL    HW133869   4.143   1.937   5.337  1.3159  0.1260 -0.6164
 7469SOL    HW233870   4.211   1.804   5.349 -0.4565  0.3658  0.7711
 7470SOL     OW33871   4.371   0.653  13.327  0.5183  0.1570  0.1031
 7470SOL    HW133872   4.463   0.667  13.350  0.3272  0.3528  0.7263
 7470SOL    HW233873   4.348   0.632  13.417 -0.3472 -0.0002 -0.1614
 7471SOL     OW33874   4.086   3.983   5.356 -0.8738  0.1065 -0.9851
 7471SOL    HW133875   4.125   3.992   5.443 -1.5724  1.0863 -0.7644
 7471SOL    HW233876   4.026   3.909   5.362  0.7329 -1.1298 -0.3196
 7472SOL     OW33877   2.245   0.664   8.288  0.3409 -0.1250 -0.5397
 7472SOL    HW133878   2.324   0.709   8.260  0.0282  0.4651 -0.4844
 7472SOL    HW233879   2.286   0.606   8.351  1.1758  1.5973  0.5091
 7473SOL     OW33880   2.737   1.482   5.658 -0.0151  0.2348 -0.1200
 7473SOL    HW133881   2.672   1.552   5.657 -0.4519 -0.1607  0.1884
 7473SOL    HW233882   2.805   1.528   5.706 -0.7032  0.1234  0.9817
 7474SOL     OW33883   1.104   1.057  11.988 -0.1606  0.4441 -0.1583
 7474SOL    HW133884   1.197   1.066  11.966 -0.2043 -0.6510 -0.7551
 7474SOL    HW233885   1.066   1.089  11.907 -0.5166  0.5444  0.0480
 7475SOL     OW33886   3.576   2.604   5.592  0.4887  0.1688 -0.1994
 7475SOL    HW133887   3.590   2.673   5.658 -1.9852  1.9906 -1.5413
 7475SOL    HW233888   3.633   2.543   5.639 -0.9836 -0.2079  1.1150
 7476SOL     OW33889   2.381   4.400   4.365  0.8042  0.1259  0.0732
 7476SOL    HW133890   2.462   4.445   4.342  1.4619 -0.8893  0.3607
 7476SOL    HW233891   2.320   4.473   4.377 -1.5473 -1.2805 -3.4882
 7477SOL     OW33892   2.700   1.194   3.821 -0.2192  0.0117 -0.0205
 7477SOL    HW133893   2.784   1.200   3.775  0.1963  0.4211  0.8063
 7477SOL    HW233894   2.641   1.168   3.750  1.3431 -1.7626 -0.6987
 7478SOL     OW33895   1.484   2.783   2.823 -0.7502 -0.5028  0.1116
 7478SOL    HW133896   1.530   2.744   2.898 -1.8230  0.1103  1.0909
 7478SOL    HW233897   1.517   2.730   2.751 -1.5848 -1.1915  0.2355
 7479SOL     OW33898   3.713   4.406   7.967 -0.2545  0.1837 -0.4253
 7479SOL    HW133899   3.675   4.380   7.883  1.3658 -2.2532 -0.3738
 7479SOL    HW233900   3.750   4.334   8.017  0.2464  1.1991  0.6779
 7480SOL     OW33901   1.942   3.575  10.378 -0.3836  0.5896  0.4361
 7480SOL    HW133902   1.880   3.645  10.357  0.3995  0.9725 -0.6208
 7480SOL    HW233903   1.947   3.534  10.292  1.2490  1.8503 -0.0794
 7481SOL     OW33904   0.356   2.649  11.089 -0.7293 -0.4114  0.2963
 7481SOL    HW133905   0.365   2.580  11.154  2.1476  0.2124  0.5576
 7481SOL    HW233906   0.392   2.729  11.127 -1.4429  0.1639 -0.2204
 7482SOL     OW33907   0.892   3.211   8.675  0.1855 -0.3415  0.1104
 7482SOL    HW133908   0.925   3.137   8.726 -0.2327  0.5885  1.7466
 7482SOL    HW233909   0.798   3.197   8.691 -0.4961  1.1844 -2.5440
 7483SOL     OW33910   2.611   0.130  10.365  0.2036  0.4149  0.4471
 7483SOL    HW133911   2.572   0.078  10.295  0.3606 -0.1237  0.7573
 7483SOL    HW233912   2.704   0.112  10.352  0.1114 -0.1589  0.5891
 7484SOL     OW33913   4.632   2.714   5.033 -0.3684 -0.1432  0.6801
 7484SOL    HW133914   4.580   2.793   5.047  0.8292  0.3915  2.1248
 7484SOL    HW233915   4.574   2.646   5.065 -0.9100 -0.3925 -0.8468
 7485SOL     OW33916   3.671   1.621   7.917 -0.3325 -0.0452 -0.3156
 7485SOL    HW133917   3.689   1.712   7.939  1.6623 -0.6523  0.5557
 7485SOL    HW233918   3.668   1.615   7.822 -1.0049  1.5800 -0.3937
 7486SOL     OW33919   1.042   2.650   7.303  0.6982  0.1060 -0.0657
 7486SOL    HW133920   1.089   2.727   7.335 -0.6230 -0.1708  2.5765
 7486SOL    HW233921   1.118   2.592   7.307 -0.0935 -0.9054  0.4233
 7487SOL     OW33922   2.685   0.068   8.784 -0.9100 -0.6348 -0.4317
 7487SOL    HW133923   2.709   0.160   8.784 -0.9575 -0.6274  1.5962
 7487SOL    HW233924   2.700   0.044   8.876  0.5958  3.0472  0.2591
 7488SOL     OW33925   1.082   3.322   8.513 -0.4197 -0.1207 -0.2951
 7488SOL    HW133926   1.094   3.258   8.442  0.6937  2.0028 -2.0029
 7488SOL    HW233927   1.014   3.282   8.567  0.9131 -0.4533  1.1562
 7489SOL     OW33928   1.444   0.567  14.859  0.0208  0.5120  0.9839
 7489SOL    HW133929   1.489   0.489  14.826 -1.2404  0.1186  0.1855
 7489SOL    HW233930   1.378   0.582  14.791  1.9247 -0.7558 -1.1621
 7490SOL     OW33931   3.928   3.056  15.037 -0.0999 -0.0527  0.3269
 7490SOL    HW133932   3.851   3.088  15.084  1.0654 -0.3256  2.4168
 7490SOL    HW233933   3.926   2.961  15.048  0.6092 -0.1746 -0.5942
 7491SOL     OW33934   1.451   2.735   7.726  0.2217  0.4066  0.0687
 7491SOL    HW133935   1.460   2.777   7.811 -0.7172 -0.7292  0.7226
 7491SOL    HW233936   1.510   2.797   7.682  0.7685 -0.0520  0.1659
 7492SOL     OW33937   2.955   1.655  15.920 -0.4561 -0.0250  0.2408
 7492SOL    HW133938   2.968   1.560  15.925 -0.7740 -0.0331  0.8728
 7492SOL    HW233939   3.039   1.685  15.887  0.4479 -1.2247  1.4621
 7493SOL     OW33940   2.403   0.279   7.119  0.0963  0.0327 -0.4422
 7493SOL    HW133941   2.463   0.335   7.169 -0.9466  0.6678  0.0893
 7493SOL    HW233942   2.389   0.324   7.035  1.8427  0.9565 -0.2503
 7494SOL     OW33943   1.115   3.042  17.615  0.0203 -0.0503 -0.4609
 7494SOL    HW133944   1.143   2.956  17.586 -1.6508 -1.4652  2.0623
 7494SOL    HW233945   1.133   3.095  17.538  0.2100  2.3425  1.2116
 7495SOL     OW33946   3.132   1.373  12.804 -0.2653  0.0107  0.9152
 7495SOL    HW133947   3.227   1.383  12.813 -0.4615  0.7174  2.1642
 7495SOL    HW233948   3.132   1.297  12.745 -0.0333  0.5496  0.2268
 7496SOL     OW33949   3.769   2.755   1.739  0.4758  0.2131  0.6144
 7496SOL    HW133950   3.812   2.827   1.786  2.4004 -0.2574 -0.4035
 7496SOL    HW233951   3.830   2.742   1.666 -3.1393  0.0494 -2.3934
 7497SOL     OW33952   3.553   0.391   0.797  0.1144  0.0542  0.2928
 7497SOL    HW133953   3.632   0.419   0.752 -0.9986  0.5870 -1.2927
 7497SOL    HW233954   3.480   0.452   0.787  0.3942  0.3235 -0.0493
 7498SOL     OW33955   3.154   2.909   5.934  0.2629 -0.4744  0.3733
 7498SOL    HW133956   3.102   2.923   6.013 -1.3357  1.4494 -1.0193
 7498SOL    HW233957   3.083   2.899   5.870  0.0092  2.0057  0.2285
 7499SOL     OW33958   0.488   1.354   8.586  0.2915  0.0098 -0.0527
 7499SOL    HW133959   0.571   1.308   8.574  0.8798  1.3970 -1.2752
 7499SOL    HW233960   0.425   1.290   8.553  1.9868 -1.0546 -1.2152
 7500SOL     OW33961   2.884   4.224   4.050  0.3817  0.0316 -0.7744
 7500SOL    HW133962   2.907   4.155   3.988  0.9033 -0.2690 -0.2469
 7500SOL    HW233963   2.957   4.247   4.107 -0.6727  1.2005  0.0895
 7501SOL     OW33964   2.224   2.795   3.824 -0.1267  0.2655 -0.4796
 7501SOL    HW133965   2.275   2.863   3.867  0.1183 -0.7369  0.8390
 7501SOL    HW233966   2.251   2.801   3.732  0.4350 -0.3679 -0.3599
 7502SOL     OW33967   1.343   4.621   2.368 -0.2047 -0.1859  0.1255
 7502SOL    HW133968   1.316   4.530   2.365  0.6011 -0.4757  1.2613
 7502SOL    HW233969   1.393   4.633   2.288 -1.1285 -0.4145 -0.4771
 7503SOL     OW33970   2.840   2.497   6.962 -0.0994 -0.4167 -0.0439
 7503SOL    HW133971   2.827   2.510   6.868 -1.0485  0.0714  0.1584
 7503SOL    HW233972   2.932   2.470   6.966  0.2014  0.2774 -2.1441
 7504SOL     OW33973   4.160   1.047  15.256 -0.4244  0.1963 -0.3796
 7504SOL    HW133974   4.118   0.998  15.327 -1.1854 -2.0277 -2.3719
 7504SOL    HW233975   4.111   1.022  15.178  0.5451 -0.5986 -0.7209
 7505SOL     OW33976   4.124   3.389   4.744  0.0453  0.4429  0.9826
 7505SOL    HW133977   4.148   3.399   4.836 -1.0214 -1.9486  1.5074
 7505SOL    HW233978   4.196   3.431   4.698 -0.6436  0.7452  0.1869
 7506SOL     OW33979   1.357   3.295  14.689  0.3704  0.5971  0.2680
 7506SOL    HW133980   1.355   3.350  14.767  2.3774  0.9078  0.1173
 7506SOL    HW233981   1.393   3.358  14.626 -3.0395  0.1436 -2.1176
 7507SOL     OW33982   3.085   2.290   4.121 -0.0210  0.1853 -0.1932
 7507SOL    HW133983   3.129   2.233   4.058 -0.4053 -1.0228  0.6375
 7507SOL    HW233984   3.149   2.361   4.127 -2.7410  2.6977 -1.1283
 7508SOL     OW33985   2.436   4.121  10.249 -0.5027 -0.1401  0.4207
 7508SOL    HW133986   2.442   4.140  10.343 -2.3262 -2.2210  0.9731
 7508SOL    HW233987   2.518   4.071  10.245 -0.1861  0.3892  0.3651
 7509SOL     OW33988   3.677   1.169   1.121 -0.4563 -0.4363  0.2439
 7509SOL    HW133989   3.725   1.110   1.063  0.2402  0.3052  0.0623
 7509SOL    HW233990   3.607   1.194   1.061 -1.7033 -0.5552  1.6454
 7510SOL     OW33991   1.268   3.137   6.631 -0.7452 -0.1763 -0.2366
 7510SOL    HW133992   1.329   3.141   6.558 -0.7386 -2.3180 -0.3560
 7510SOL    HW233993   1.318   3.075   6.685  0.0350  2.0072  1.5395
 7511SOL     OW33994   3.137   2.386  16.535 -0.3821 -0.2681  0.7296
 7511SOL    HW133995   3.149   2.473  16.498 -2.9161 -0.6451 -1.0517
 7511SOL    HW233996   3.172   2.335  16.462  0.6879  0.7289  0.5543
 7512SOL     OW33997   2.417   1.842  10.220  0.1041 -0.4264 -0.4273
 7512SOL    HW133998   2.340   1.848  10.276  1.1350 -1.3964  1.0818
 7512SOL    HW233999   2.478   1.804  10.283  0.2464  0.2980 -0.1347
 7513SOL     OW34000   0.653   4.382   8.465 -0.2356 -0.5314  0.6978
 7513SOL    HW134001   0.604   4.317   8.415  0.9216  0.2739 -1.4552
 7513SOL    HW234002   0.587   4.440   8.503  0.7028  0.5870  0.6149
 7514SOL     OW34003   1.758   1.552  13.105  0.4037 -0.4033  0.5779
 7514SOL    HW134004   1.666   1.527  13.095  0.1892  0.4899  0.3289
 7514SOL    HW234005   1.789   1.473  13.150 -1.6643 -0.8518  1.2286
 7515SOL     OW34006   1.490   0.190  11.762 -0.3084 -0.3951  0.2785
 7515SOL    HW134007   1.450   0.230  11.685 -0.4256 -0.8139  0.1216
 7515SOL    HW234008   1.551   0.261  11.786 -0.2459 -1.3957  3.1092
 7516SOL     OW34009   4.018   1.445  10.106 -0.4843  0.5858 -0.2838
 7516SOL    HW134010   4.039   1.440  10.013 -0.0354 -0.4578 -0.1278
 7516SOL    HW234011   3.954   1.516  10.114 -0.5526  0.4944 -0.0110
 7517SOL     OW34012   0.214   2.174   0.273  0.1617  0.4927 -0.2551
 7517SOL    HW134013   0.123   2.177   0.246 -0.0254 -1.0028  0.2231
 7517SOL    HW234014   0.207   2.245   0.336  0.2967  0.5354 -0.2868
 7518SOL     OW34015   3.980   0.500   4.441  0.4882 -0.0803 -0.1402
 7518SOL    HW134016   4.060   0.477   4.489 -0.3444 -1.9797  0.3752
 7518SOL    HW234017   3.966   0.592   4.461 -0.4531 -0.2408 -0.0487
 7519SOL     OW34018   1.346   1.383   3.709 -0.0955 -0.1894  0.0881
 7519SOL    HW134019   1.374   1.297   3.676 -0.7470 -0.6854  0.8502
 7519SOL    HW234020   1.297   1.355   3.786 -0.8881 -0.8039 -0.6429
 7520SOL     OW34021   0.375   2.020   2.252 -0.7498 -0.1015  0.1441
 7520SOL    HW134022   0.319   2.050   2.180  1.2442 -0.9588 -1.7853
 7520SOL    HW234023   0.377   1.925   2.241  0.3670 -0.0902  0.2295
 7521SOL     OW34024   0.248   3.952   3.690 -0.0667  0.3959  0.3700
 7521SOL    HW134025   0.227   4.026   3.633  0.9228  0.5759  0.2273
 7521SOL    HW234026   0.183   3.961   3.759 -0.8963  2.4430 -0.6666
 7522SOL     OW34027   2.544   2.045   2.154  0.5385 -0.3751 -1.0309
 7522SOL    HW134028   2.452   2.069   2.141  0.0937 -1.6930 -0.3392
 7522SOL    HW234029   2.582   2.044   2.067  1.2467  0.2702 -0.7328
 7523SOL     OW34030   4.447   2.651   6.781  0.1806 -0.1304  0.0165
 7523SOL    HW134031   4.399   2.734   6.783  1.3637  0.5232  0.7809
 7523SOL    HW234032   4.398   2.590   6.836 -1.1226  1.3391  0.4651
 7524SOL     OW34033   2.688   0.812   9.715 -0.1135 -0.4803  0.0636
 7524SOL    HW134034   2.614   0.802   9.775 -0.1753 -0.1401  0.0404
 7524SOL    HW234035   2.664   0.880   9.653 -0.5418 -1.2104 -0.5742
 7525SOL     OW34036   1.329   1.685   3.866  0.3773  0.3810 -0.1815
 7525SOL    HW134037   1.371   1.729   3.941 -2.8723  0.6327  1.4968
 7525SOL    HW234038   1.393   1.616   3.850 -0.7217 -0.9264  1.0585
 7526SOL     OW34039   1.728   4.430   7.072 -0.3202  0.4642 -0.0684
 7526SOL    HW134040   1.643   4.404   7.106  0.5380 -1.7732  0.3395
 7526SOL    HW234041   1.781   4.404   7.147  1.2681  1.6380 -0.7820
 7527SOL     OW34042   1.593   4.318   9.118  0.1393 -0.0398  0.4903
 7527SOL    HW134043   1.525   4.269   9.071 -0.0254 -0.7998  1.5361
 7527SOL    HW234044   1.623   4.255   9.183 -0.8104  0.3276  1.2900
 7528SOL     OW34045   2.795   2.153   9.841 -0.4534  0.1144  0.2723
 7528SOL    HW134046   2.870   2.213   9.839  1.5911 -2.5107 -2.3192
 7528SOL    HW234047   2.791   2.145   9.936  1.1430 -0.8906  0.2481
 7529SOL     OW34048   3.082   1.748   4.492  0.1731  0.2036  0.4359
 7529SOL    HW134049   3.108   1.710   4.408 -0.5171 -1.0819  0.7973
 7529SOL    HW234050   3.093   1.841   4.473 -0.9507  0.7038  2.2682
 7530SOL     OW34051   2.049   3.665   1.630 -0.0309  0.3285  0.2274
 7530SOL    HW134052   2.021   3.748   1.669 -1.8989 -0.9806  1.6594
 7530SOL    HW234053   1.973   3.610   1.650  1.1081 -0.9725  1.0189
 7531SOL     OW34054   3.355   2.160   9.765 -0.6080 -0.0896 -0.3623
 7531SOL    HW134055   3.360   2.255   9.758 -1.1311 -0.1018 -0.8535
 7531SOL    HW234056   3.408   2.139   9.842  2.0244  2.5518 -1.4203
 7532SOL     OW34057   1.593   1.635  12.448  0.3148  0.0132 -0.2711
 7532SOL    HW134058   1.505   1.667  12.428  0.4977  0.7300  0.0695
 7532SOL    HW234059   1.583   1.540  12.455 -0.3129  0.0305 -0.9023
 7533SOL     OW34060   4.116   0.586   1.468  0.3190 -0.7088  0.7167
 7533SOL    HW134061   4.074   0.501   1.457  1.3032 -1.0967 -0.1029
 7533SOL    HW234062   4.114   0.582   1.564 -0.7773 -2.0916  0.6282
 7534SOL     OW34063   2.781   3.254   8.903 -0.0989  0.2719  0.2531
 7534SOL    HW134064   2.781   3.203   8.984  1.4716 -0.7673 -0.3869
 7534SOL    HW234065   2.772   3.344   8.935 -0.2248 -0.1395  1.3903
 7535SOL     OW34066   3.256   2.161   4.647 -0.1578 -0.2889 -0.7424
 7535SOL    HW134067   3.333   2.217   4.647  0.0217 -0.5331 -0.5595
 7535SOL    HW234068   3.261   2.114   4.731  1.5094 -0.5974 -1.0122
 7536SOL     OW34069   4.570   3.410   7.591 -0.5780  0.2388  0.2545
 7536SOL    HW134070   4.647   3.443   7.544 -1.0738 -0.9555 -1.4200
 7536SOL    HW234071   4.591   3.431   7.682 -0.6879  2.5881 -0.2657
 7537SOL     OW34072   2.421   0.372   8.892  0.0986 -0.3088 -0.3576
 7537SOL    HW134073   2.408   0.465   8.873 -1.8357 -0.0223  2.3532
 7537SOL    HW234074   2.431   0.367   8.987 -1.3246  1.9602 -0.0998
 7538SOL     OW34075   1.805   4.094   7.440  0.0929 -0.1203 -0.1863
 7538SOL    HW134076   1.803   4.106   7.535 -0.5889  1.4717 -0.4002
 7538SOL    HW234077   1.898   4.075   7.429  0.1357 -0.2869  0.4657
 7539SOL     OW34078   1.684   1.429   3.811 -0.1049 -0.0094  0.3316
 7539SOL    HW134079   1.774   1.402   3.831 -0.2040 -0.7124 -0.2147
 7539SOL    HW234080   1.660   1.380   3.733  0.0953  0.1599  0.1646
 7540SOL     OW34081   3.355   2.980   2.617  0.6027  0.1463  0.1004
 7540SOL    HW134082   3.395   2.905   2.573  1.4680  0.2638  0.6794
 7540SOL    HW234083   3.338   3.048   2.552  0.0981  0.2257  0.3164
 7541SOL     OW34084   4.090   3.381   3.153  0.2067 -0.2669  0.1503
 7541SOL    HW134085   4.105   3.434   3.075  0.6958 -0.5133  0.0816
 7541SOL    HW234086   4.131   3.299   3.125 -0.5169 -1.3383  2.2201
 7542SOL     OW34087   4.191   3.189   4.104 -0.3877 -0.2466  0.3628
 7542SOL    HW134088   4.273   3.185   4.056 -0.7552  3.7670 -0.5552
 7542SOL    HW234089   4.226   3.163   4.190  2.1649 -0.9221 -0.9114
 7543SOL     OW34090   2.625   2.160   3.034  0.0865  0.7623  0.0253
 7543SOL    HW134091   2.647   2.067   3.025 -1.7141  0.2745  0.6683
 7543SOL    HW234092   2.678   2.194   3.107 -0.2856  0.6758  0.3389
 7544SOL     OW34093   1.933   0.822   0.444 -0.4976  0.6726  0.3848
 7544SOL    HW134094   1.957   0.768   0.519 -0.0997  0.3165 -0.0009
 7544SOL    HW234095   1.846   0.850   0.475 -1.0694  1.8679 -2.3172
 7545SOL     OW34096   4.605   4.240   0.490 -0.6575 -0.0751  0.4553
 7545SOL    HW134097   4.542   4.172   0.515 -0.5155  0.1420  1.4175
 7545SOL    HW234098   4.685   4.189   0.478 -1.2717 -1.0517  0.5246
 7546SOL     OW34099   0.377   0.911   1.373  0.2197 -0.0160 -0.1597
 7546SOL    HW134100   0.383   0.840   1.437  1.5213 -0.3747 -0.6836
 7546SOL    HW234101   0.467   0.941   1.381  0.7483 -1.6027 -0.2186
 7547SOL     OW34102   2.639   3.270   8.174  0.2737  0.2712 -0.3349
 7547SOL    HW134103   2.635   3.191   8.120 -1.0806  0.9140 -1.1697
 7547SOL    HW234104   2.612   3.335   8.109 -0.3732 -2.3497 -2.7213
 7548SOL     OW34105   1.799   3.335   4.339 -0.1943 -0.1034  0.4010
 7548SOL    HW134106   1.758   3.272   4.281 -0.0126 -0.2575  0.4390
 7548SOL    HW234107   1.883   3.300   4.369  0.3238 -0.1184 -1.0812
 7549SOL     OW34108   0.158   4.081   1.886 -0.1948  0.7563 -0.1527
 7549SOL    HW134109   0.200   4.100   1.802 -0.4048  0.2312 -0.3726
 7549SOL    HW234110   0.072   4.056   1.854 -0.4674  3.4033 -1.4998
 7550SOL     OW34111   3.004   4.469   0.362 -0.2122  0.5884  0.0081
 7550SOL    HW134112   2.947   4.517   0.303 -2.4892  0.3310  2.0179
 7550SOL    HW234113   3.058   4.541   0.396 -1.4459  0.5598  2.0090
 7551SOL     OW34114   2.171   2.304   9.108 -0.7926 -0.0455  0.2641
 7551SOL    HW134115   2.123   2.367   9.054  1.2197  1.4144  0.1531
 7551SOL    HW234116   2.261   2.338   9.104 -0.9426  0.1043 -1.8435
 7552SOL     OW34117   2.149   1.956   4.748  0.3710  0.0665 -0.3707
 7552SOL    HW134118   2.138   2.051   4.753  0.9177  0.1747 -1.2556
 7552SOL    HW234119   2.110   1.927   4.666 -0.1186  1.0376 -0.4795
 7553SOL     OW34120   1.994   2.402   1.313  0.2569  0.0726 -0.6019
 7553SOL    HW134121   1.906   2.429   1.289  0.7685  1.9519 -0.3543
 7553SOL    HW234122   2.006   2.349   1.235 -0.8157 -0.1483 -0.6170
 7554SOL     OW34123   0.986   2.853   4.531 -0.2891  0.0588 -0.2097
 7554SOL    HW134124   1.015   2.849   4.440 -0.5124 -0.1861 -0.2733
 7554SOL    HW234125   1.012   2.767   4.565 -0.1998 -1.0160 -2.9817
 7555SOL     OW34126   0.811   2.241  14.944 -0.0630 -0.0280 -0.1777
 7555SOL    HW134127   0.762   2.204  14.871 -1.2715 -0.5703  0.8978
 7555SOL    HW234128   0.865   2.164  14.961 -0.6611 -0.7227 -1.4333
 7556SOL     OW34129   1.834   2.136   7.959 -0.0252  0.2323  0.1456
 7556SOL    HW134130   1.763   2.198   7.944 -1.0634 -1.1580 -0.7444
 7556SOL    HW234131   1.853   2.154   8.051 -1.0406  1.7008  0.0623
 7557SOL     OW34132   0.479   2.067   9.161  0.0786  0.2743  0.1787
 7557SOL    HW134133   0.541   2.139   9.162 -0.3053  0.6178 -1.6190
 7557SOL    HW234134   0.530   2.006   9.108 -1.3965  1.8130 -2.9404
 7558SOL     OW34135   2.695   4.389   0.831 -0.1638 -0.0366  0.0095
 7558SOL    HW134136   2.604   4.360   0.831  0.2546 -1.3143 -1.6331
 7558SOL    HW234137   2.683   4.468   0.778  0.3376 -0.1227 -0.2386
 7559SOL     OW34138   0.892   2.537  14.872  0.0133 -0.4993  0.0235
 7559SOL    HW134139   0.971   2.525  14.819 -0.2390 -0.3475 -0.3896
 7559SOL    HW234140   0.824   2.533  14.804  0.9852 -2.5655 -0.8269
 7560SOL     OW34141   1.748   4.564   5.634  0.5320 -0.3557  0.1025
 7560SOL    HW134142   1.772   4.493   5.695 -0.4355  1.3999  2.5397
 7560SOL    HW234143   1.653   4.557   5.633  0.6100 -1.8267  1.5295
 7561SOL     OW34144   2.041   2.007   2.874 -0.6419  0.0745  0.4778
 7561SOL    HW134145   2.110   2.054   2.922 -1.4002 -0.5458  2.1650
 7561SOL    HW234146   2.065   2.030   2.785  1.7924 -1.6228  0.6899
 7562SOL     OW34147   2.948   0.160  11.590  0.1733  0.4834 -0.1080
 7562SOL    HW134148   2.988   0.111  11.518 -1.3994  0.6896 -1.1173
 7562SOL    HW234149   2.938   0.101  11.665  0.0957  0.0990 -0.4186
 7563SOL     OW34150   2.289   0.449   2.673  0.3861  0.1821 -0.4376
 7563SOL    HW134151   2.331   0.363   2.683  1.8890  1.0872  0.8921
 7563SOL    HW234152   2.320   0.480   2.588  0.3556  0.2715 -0.4158
 7564SOL     OW34153   0.276   3.782   8.385  0.2423  0.3528  0.0648
 7564SOL    HW134154   0.301   3.849   8.322 -0.6072  1.0853  0.5130
 7564SOL    HW234155   0.191   3.754   8.352  1.0835 -1.6683 -0.3952
 7565SOL     OW34156   0.299   1.284  15.609  0.0432 -0.0755 -0.2337
 7565SOL    HW134157   0.362   1.220  15.640  0.0674  0.2682  0.4069
 7565SOL    HW234158   0.223   1.227  15.596 -0.4589  0.0233  2.3889
 7566SOL     OW34159   3.020   0.826  12.989 -0.2304  0.3471 -0.4143
 7566SOL    HW134160   2.972   0.895  13.036 -1.6414  0.3736 -1.9067
 7566SOL    HW234161   2.968   0.750  13.018  2.2287  0.2554  3.8175
 7567SOL     OW34162   1.216   2.922   8.146  0.1963 -0.4524  0.1916
 7567SOL    HW134163   1.159   2.867   8.199  0.3732 -0.7645  0.0615
 7567SOL    HW234164   1.273   2.973   8.205  1.4777 -2.1586  0.4398
 7568SOL     OW34165   3.119   4.163   4.414 -0.1671  0.3755 -0.4959
 7568SOL    HW134166   3.126   4.092   4.350 -1.2946 -1.6090  1.5441
 7568SOL    HW234167   3.025   4.176   4.425  0.3134  4.3453 -1.2168
 7569SOL     OW34168   0.176   4.186   3.925 -0.0312  0.6159 -0.1539
 7569SOL    HW134169   0.150   4.182   4.017  0.2622  0.1235 -0.0889
 7569SOL    HW234170   0.090   4.194   3.883 -1.0134 -2.2112  1.2581
 7570SOL     OW34171   1.220   0.850  15.570  0.4237  0.4321 -0.1114
 7570SOL    HW134172   1.257   0.849  15.658  1.3764 -2.1096 -0.5281
 7570SOL    HW234173   1.181   0.764  15.551 -0.3427  1.2474 -2.2844
 7571SOL     OW34174   3.221   2.481   2.969  0.2731  0.5212  0.1103
 7571SOL    HW134175   3.279   2.515   2.901 -0.6416  1.4511 -0.2058
 7571SOL    HW234176   3.249   2.552   3.026 -0.2321  1.7189 -1.1427
 7572SOL     OW34177   3.203   3.413   9.297 -0.0886 -0.1392  0.1231
 7572SOL    HW134178   3.194   3.487   9.357 -0.7348  0.2606 -0.4724
 7572SOL    HW234179   3.272   3.453   9.243 -0.0330 -1.3578 -0.7154
 7573SOL     OW34180   0.363   0.615   1.995  0.2615 -0.2370  0.3036
 7573SOL    HW134181   0.289   0.674   2.009  0.0387 -0.6234  0.7586
 7573SOL    HW234182   0.322   0.537   1.958  1.8137 -0.7746 -0.2947
 7574SOL     OW34183   2.415   4.219   4.156 -0.1588  0.3186  0.2790
 7574SOL    HW134184   2.418   4.294   4.216 -3.9590 -0.8969  2.0335
 7574SOL    HW234185   2.329   4.179   4.171  1.1309 -2.6808 -0.3028
 7575SOL     OW34186   0.383   3.778   6.963 -0.2292 -0.3641 -0.1245
 7575SOL    HW134187   0.299   3.822   6.949  1.7167  3.1893 -0.7614
 7575SOL    HW234188   0.425   3.800   6.880 -1.1782 -2.5021 -1.1555
 7576SOL     OW34189   4.429   2.453   2.042  0.3237  0.3125  0.4147
 7576SOL    HW134190   4.409   2.490   2.127 -0.1403  0.9941  0.0133
 7576SOL    HW234191   4.488   2.518   2.004  1.2252  1.3960  3.7478
 7577SOL     OW34192   2.253   3.760   4.410 -0.1631  0.3146 -0.3262
 7577SOL    HW134193   2.263   3.823   4.481  0.0572 -1.2591  1.0350
 7577SOL    HW234194   2.269   3.814   4.333 -0.8401 -0.7558 -1.2152
 7578SOL     OW34195   3.238   4.196   0.815  0.6327 -0.5481 -0.4315
 7578SOL    HW134196   3.152   4.213   0.854  0.2712  1.0213 -1.8929
 7578SOL    HW234197   3.260   4.282   0.778  0.3825 -0.8067 -1.1881
 7579SOL     OW34198   2.328   2.981   9.120  0.3037  0.3699  0.3701
 7579SOL    HW134199   2.333   3.075   9.105 -1.1442  0.4851  0.5227
 7579SOL    HW234200   2.380   2.949   9.047  1.7912  0.0541  1.5749
 7580SOL     OW34201   4.565   1.625  14.302 -0.1580 -0.1321  0.4158
 7580SOL    HW134202   4.621   1.552  14.276 -0.0593  0.3835 -0.8038
 7580SOL    HW234203   4.604   1.703  14.264 -0.0931  0.3840  1.5521
 7581SOL     OW34204   1.243   0.140  17.148 -0.1785 -0.4763 -0.1617
 7581SOL    HW134205   1.235   0.235  17.157  0.7746 -0.4874  0.8342
 7581SOL    HW234206   1.317   0.123  17.207  0.3284  1.7470 -0.1513
 7582SOL     OW34207   4.018   0.433   2.036 -0.6875  0.6616  0.8127
 7582SOL    HW134208   3.995   0.510   2.090 -3.8778 -0.0762  0.4969
 7582SOL    HW234209   3.936   0.384   2.042  0.0890 -0.7285 -0.1358
 7583SOL     OW34210   2.652   1.368   4.196 -0.1849 -0.4123 -0.8146
 7583SOL    HW134211   2.654   1.458   4.161 -1.7871  0.5469  1.5545
 7583SOL    HW234212   2.584   1.325   4.145 -1.1436  1.2314 -0.9369
 7584SOL     OW34213   3.007   0.899   7.317  0.1644  0.3907 -0.0819
 7584SOL    HW134214   3.093   0.868   7.291 -0.0180 -0.8332  0.7430
 7584SOL    HW234215   2.958   0.906   7.236 -0.8423 -2.1132  0.3030
 7585SOL     OW34216   1.071   2.935   7.444 -0.4778  0.4414 -0.2634
 7585SOL    HW134217   1.116   2.929   7.528 -0.7262  0.8652 -0.0993
 7585SOL    HW234218   1.026   3.019   7.455  0.4388  0.8330  0.5223
 7586SOL     OW34219   4.199   2.032   7.092  0.4043 -0.0005 -0.1552
 7586SOL    HW134220   4.123   2.056   7.145 -0.3473  1.2069 -1.7944
 7586SOL    HW234221   4.226   1.946   7.125 -2.3516 -0.8496 -0.0820
 7587SOL     OW34222   2.818   4.626   2.880 -0.0870  0.2141 -0.2391
 7587SOL    HW134223   2.856   4.557   2.935 -0.8697  0.1882  0.2714
 7587SOL    HW234224   2.761   4.667   2.945  0.3163  0.5560 -0.1043
 7588SOL     OW34225   0.773   2.250   9.091  0.7687 -0.2756  0.2816
 7588SOL    HW134226   0.707   2.245   9.023  1.0194 -2.2244  0.1970
 7588SOL    HW234227   0.750   2.337   9.123  2.8955  0.9056 -1.4303
 7589SOL     OW34228   2.233   3.741   5.690 -0.3535 -0.2847  0.0877
 7589SOL    HW134229   2.267   3.742   5.600  0.1379 -0.1037  0.2784
 7589SOL    HW234230   2.162   3.801   5.669 -0.0473 -0.3735 -1.2404
 7590SOL     OW34231   3.310   1.748   1.183 -0.2322  0.2300 -0.1542
 7590SOL    HW134232   3.290   1.663   1.145 -0.9205 -0.0468  0.8184
 7590SOL    HW234233   3.343   1.716   1.267 -0.4490  1.4126  0.3861
 7591SOL     OW34234   0.085   3.826   5.239 -0.2068  0.0026  0.1590
 7591SOL    HW134235   0.146   3.761   5.272  0.9991  0.9870 -0.1512
 7591SOL    HW234236   0.148   3.872   5.183  0.4835 -1.6400 -0.3947
 7592SOL     OW34237   2.266   2.695   2.625  0.4353 -0.2165 -0.0635
 7592SOL    HW134238   2.299   2.609   2.651  0.2405 -0.4298 -0.5273
 7592SOL    HW234239   2.346   2.721   2.579  1.9208 -0.4060  2.3955
 7593SOL     OW34240   1.605   0.173  15.653  0.1835  0.2884  0.0573
 7593SOL    HW134241   1.558   0.146  15.732  2.6339 -0.4247  1.2889
 7593SOL    HW234242   1.554   0.130  15.584 -0.3583 -0.1054  0.7001
 7594SOL     OW34243   0.475   3.210  14.446 -0.5008 -0.2549  0.0214
 7594SOL    HW134244   0.564   3.207  14.480 -1.1313 -2.1484  1.5374
 7594SOL    HW234245   0.443   3.120  14.452  2.9701 -1.5059 -0.1090
 7595SOL     OW34246   0.525   1.108   1.666  0.5953  0.8416 -0.0918
 7595SOL    HW134247   0.444   1.076   1.706  0.9200  0.6747  0.4241
 7595SOL    HW234248   0.513   1.203   1.679 -0.6886  0.9482 -1.9533
 7596SOL     OW34249   1.143   0.221   8.210  0.4064 -0.1802 -0.7021
 7596SOL    HW134250   1.204   0.293   8.204 -1.8117  1.6310 -1.5216
 7596SOL    HW234251   1.162   0.155   8.277 -0.0433  0.9131  0.5030
 7597SOL     OW34252   3.805   2.502   8.590  0.6692  0.2035  0.3848
 7597SOL    HW134253   3.878   2.443   8.575  0.0310 -0.4593 -0.1466
 7597SOL    HW234254   3.835   2.589   8.565  0.2839  0.0525 -0.6105
 7598SOL     OW34255   4.208   2.869   2.968  0.3480  0.3983 -0.2539
 7598SOL    HW134256   4.130   2.864   2.914 -1.0228 -1.2501  1.8776
 7598SOL    HW234257   4.173   2.900   3.051  0.5269 -2.4548  0.9164
 7599SOL     OW34258   1.867   1.609   5.408  0.1132 -0.3259  0.3710
 7599SOL    HW134259   1.952   1.620   5.451  0.5201  1.3314 -0.8250
 7599SOL    HW234260   1.888   1.520   5.380  1.6197  0.1974 -0.1691
 7600SOL     OW34261   2.905   4.115   4.827 -0.0010 -0.3298  0.2001
 7600SOL    HW134262   2.970   4.070   4.773  0.9165  0.1253  0.9314
 7600SOL    HW234263   2.851   4.161   4.763  1.4614  0.0999 -0.7190
 7601SOL     OW34264   0.445   3.739   4.085  0.4090  0.1823 -0.8571
 7601SOL    HW134265   0.481   3.826   4.101 -2.2679  0.8795  1.1216
 7601SOL    HW234266   0.354   3.741   4.112  1.7099 -1.2760  3.6300
 7602SOL     OW34267   3.716   2.691   2.170 -0.2093  0.1730  0.0283
 7602SOL    HW134268   3.627   2.656   2.168 -0.1418  0.0095 -0.1342
 7602SOL    HW234269   3.755   2.606   2.148  1.6196  0.7589  0.9997
 7603SOL     OW34270   3.361   0.433   3.556 -0.0353 -0.3411  0.3535
 7603SOL    HW134271   3.377   0.436   3.650  2.6367 -0.5465 -0.0897
 7603SOL    HW234272   3.293   0.366   3.558 -0.5886  0.1209 -3.0043
 7604SOL     OW34273   2.751   0.128   6.163  0.1432  0.9082 -0.1028
 7604SOL    HW134274   2.708   0.198   6.113  0.4184  0.8974 -0.3559
 7604SOL    HW234275   2.841   0.159   6.175  0.3197 -0.2641  1.5248
 7605SOL     OW34276   1.159   3.390   2.836  0.3861 -0.3461 -0.8326
 7605SOL    HW134277   1.246   3.357   2.858  0.0448 -0.2514  0.7245
 7605SOL    HW234278   1.148   3.353   2.749 -0.0828  0.3809 -1.0760
 7606SOL     OW34279   1.242   4.093   2.977  0.1160  0.3754 -0.1168
 7606SOL    HW134280   1.154   4.060   2.959 -0.0496  0.7524  0.0032
 7606SOL    HW234281   1.269   4.111   2.887 -0.8142 -6.0373 -1.6723
 7607SOL     OW34282   0.748   4.073  17.273  0.1303  0.4264 -0.4234
 7607SOL    HW134283   0.655   4.063  17.254 -0.0723 -1.1986  1.3640
 7607SOL    HW234284   0.774   4.071  17.180  1.6318 -0.7429  0.0127
 7608SOL     OW34285   3.977   1.780  13.916 -0.2723 -0.5315  0.5504
 7608SOL    HW134286   3.930   1.704  13.882  0.6657 -0.8060 -0.1482
 7608SOL    HW234287   4.002   1.823  13.834  0.0134 -1.0206  0.3846
 7609SOL     OW34288   0.216   3.995  16.675  0.0613  0.3773 -0.5511
 7609SOL    HW134289   0.249   3.918  16.629  0.1066  0.5482 -0.8050
 7609SOL    HW234290   0.245   3.969  16.762  0.6451  0.7208 -0.6446
 7610SOL     OW34291   1.480   2.626   0.891 -0.5016  0.2894  0.1732
 7610SOL    HW134292   1.506   2.632   0.799  0.3990  1.2328  0.4813
 7610SOL    HW234293   1.511   2.714   0.916 -0.0516 -0.2871  1.6499
 7611SOL     OW34294   0.503   3.794   0.713  0.1048 -0.1205 -0.5509
 7611SOL    HW134295   0.468   3.814   0.625  0.8962 -0.3127 -0.9051
 7611SOL    HW234296   0.425   3.763   0.759 -0.0433 -0.7664 -1.2203
 7612SOL     OW34297   2.668   3.351   2.101  0.2959 -0.0713 -0.1542
 7612SOL    HW134298   2.644   3.333   2.192 -1.3858 -2.2362 -1.0349
 7612SOL    HW234299   2.642   3.442   2.091 -1.6163 -0.5642  0.3234
 7613SOL     OW34300   3.648   4.460   4.782 -0.2796 -0.1372  0.6769
 7613SOL    HW134301   3.579   4.435   4.842 -0.8312 -0.6890 -0.1898
 7613SOL    HW234302   3.596   4.461   4.702 -0.3691  0.9720  0.7538
 7614SOL     OW34303   2.820   0.717   8.680 -0.3090  0.1344  0.0254
 7614SOL    HW134304   2.740   0.681   8.642 -1.0790  2.1660 -0.2884
 7614SOL    HW234305   2.831   0.676   8.766 -2.8257 -1.6569 -0.5476
 7615SOL     OW34306   3.630   1.874   2.348  0.0381  0.1590 -0.0444
 7615SOL    HW134307   3.590   1.917   2.272 -0.6279 -0.5858 -0.1135
 7615SOL    HW234308   3.702   1.822   2.314  0.4513 -0.1548  1.2892
 7616SOL     OW34309   2.063   1.154   2.760  0.6106 -0.0461  0.0634
 7616SOL    HW134310   2.112   1.072   2.765  0.8076  0.0510 -0.2992
 7616SOL    HW234311   2.118   1.217   2.713  0.0834  1.9644  2.1077
 7617SOL     OW34312   2.110   0.138   3.830  0.5123 -0.9008  0.1078
 7617SOL    HW134313   2.044   0.116   3.765  1.7090 -0.2350 -1.3272
 7617SOL    HW234314   2.055   0.150   3.908  0.7550 -0.3784  0.1994
 7618SOL     OW34315   0.324   3.969  16.948 -0.0445 -0.1406  0.1022
 7618SOL    HW134316   0.358   4.053  16.916 -0.1987 -0.3619 -0.6406
 7618SOL    HW234317   0.291   3.990  17.035  1.0165 -1.6956  0.8771
 7619SOL     OW34318   3.937   1.234  14.169 -0.7167  0.6326  0.1384
 7619SOL    HW134319   3.862   1.188  14.134 -0.4389  0.0234  0.3364
 7619SOL    HW234320   3.904   1.324  14.170 -1.5488  0.3156  1.6085
 7620SOL     OW34321   4.431   0.065  14.306  0.4056 -0.4215  0.0714
 7620SOL    HW134322   4.470   0.003  14.368 -1.4020 -3.8675 -2.2420
 7620SOL    HW234323   4.370   0.119  14.356  2.0281 -0.5951  2.2788
 7621SOL     OW34324   2.906   2.488   4.302 -0.5169 -0.4993 -0.4985
 7621SOL    HW134325   2.949   2.436   4.233 -0.3255 -1.6789  0.5182
 7621SOL    HW234326   2.979   2.545   4.327 -0.1962  0.4864 -3.6570
 7622SOL     OW34327   2.495   2.620   3.561 -0.3495  0.5873 -0.2946
 7622SOL    HW134328   2.432   2.691   3.551  0.1534  0.6796 -2.7880
 7622SOL    HW234329   2.451   2.550   3.513  0.6798  0.1453 -0.6002
 7623SOL     OW34330   4.456   4.675   4.882 -0.2421 -0.0499 -0.6421
 7623SOL    HW134331   4.449   4.676   4.977 -1.2211  1.7083 -0.7140
 7623SOL    HW234332   4.384   4.614   4.866  1.5892 -2.3002 -0.1068
 7624SOL     OW34333   1.261   2.297   2.119  0.4864 -0.0523  0.3783
 7624SOL    HW134334   1.174   2.258   2.130  0.4829 -0.5853 -1.6558
 7624SOL    HW234335   1.271   2.317   2.026 -0.7765  0.1223  0.2889
 7625SOL     OW34336   3.079   2.271   2.207  0.2429 -0.3030  0.2341
 7625SOL    HW134337   3.094   2.296   2.116 -2.3483 -0.6668 -0.2868
 7625SOL    HW234338   3.127   2.336   2.258 -1.6011  0.7172  0.6783
 7626SOL     OW34339   3.358   3.894   4.359 -0.2531  0.3984  0.4618
 7626SOL    HW134340   3.316   3.852   4.434 -1.0946 -0.3263 -0.4031
 7626SOL    HW234341   3.391   3.980   4.384 -2.6356  2.0578 -2.1153
 7627SOL     OW34342   3.532   0.294   2.878  0.4345  0.4539 -0.0168
 7627SOL    HW134343   3.511   0.330   2.791  1.6483 -0.5417 -0.7254
 7627SOL    HW234344   3.566   0.379   2.907  1.3026  0.4414 -0.9956
 7628SOL     OW34345   0.735   3.693   5.744  0.4053 -0.1296 -0.0310
 7628SOL    HW134346   0.685   3.640   5.805 -1.2318  0.2906 -0.9910
 7628SOL    HW234347   0.796   3.627   5.710  1.3402  0.1882  1.0249
 7629SOL     OW34348   2.424   2.364   2.108  0.9254 -0.2669 -0.1488
 7629SOL    HW134349   2.388   2.451   2.094  1.9255  0.1976  0.1234
 7629SOL    HW234350   2.520   2.372   2.105  0.8556  1.7154  2.5279
 7630SOL     OW34351   3.585   0.945   1.259 -0.1893  0.4010  0.0244
 7630SOL    HW134352   3.625   1.023   1.221  0.3048  0.0213 -0.2458
 7630SOL    HW234353   3.660   0.885   1.259  0.7862  1.6170 -0.1551
 7631SOL     OW34354   1.861   1.210   1.023 -0.5849 -0.5016  0.1433
 7631SOL    HW134355   1.953   1.183   1.031 -0.4387  0.1575  0.7099
 7631SOL    HW234356   1.844   1.288   1.075  0.2773  0.2882 -0.7573
 7632SOL     OW34357   1.320   2.553   2.539  0.1488  0.0557  0.1930
 7632SOL    HW134358   1.224   2.556   2.534  0.2587 -1.7793 -3.2984
 7632SOL    HW234359   1.331   2.472   2.489  2.7662  0.3496  0.2965
 7633SOL     OW34360   4.250   1.784   2.413  0.1541  0.5600  0.1883
 7633SOL    HW134361   4.261   1.873   2.446 -1.2601  1.0263 -0.5895
 7633SOL    HW234362   4.265   1.736   2.494 -1.4702  0.8948  0.6895
 7634SOL     OW34363   4.341   2.910   7.896 -0.0216  0.5765 -0.3137
 7634SOL    HW134364   4.333   2.833   7.839 -0.1730 -0.1608  0.6858
 7634SOL    HW234365   4.287   2.978   7.857  0.7917 -0.9380 -4.1129
 7635SOL     OW34366   3.725   4.295   4.282  0.0459  0.3651  0.4416
 7635SOL    HW134367   3.748   4.364   4.220 -0.4104 -0.9182 -1.1444
 7635SOL    HW234368   3.755   4.337   4.362  3.4508  0.3608 -0.8369
 7636SOL     OW34369   1.112   0.819   0.495  0.2462 -0.3563 -0.2577
 7636SOL    HW134370   1.045   0.836   0.562  1.0447 -0.5547  0.5858
 7636SOL    HW234371   1.162   0.753   0.543  1.1886  0.3899 -0.1969
 7637SOL     OW34372   1.115   3.710   8.060 -0.0563 -0.1859  0.4300
 7637SOL    HW134373   1.118   3.767   7.983 -0.9239  0.9749  1.2488
 7637SOL    HW234374   1.020   3.705   8.075 -0.0065 -0.3081  0.7041
 7638SOL     OW34375   3.844   0.786  13.721  0.0170 -0.2029  0.0188
 7638SOL    HW134376   3.900   0.840  13.777 -0.8922  0.9972 -0.2115
 7638SOL    HW234377   3.780   0.747  13.780  0.0574  1.9319  1.5049
 7639SOL     OW34378   3.882   3.885   1.256 -0.2788  0.7850  0.2619
 7639SOL    HW134379   3.818   3.821   1.286 -1.6742  1.7286 -0.7027
 7639SOL    HW234380   3.900   3.939   1.332  0.6093 -0.5487  0.9985
 7640SOL     OW34381   4.491   4.451   8.114  0.6639 -0.0723  0.2532
 7640SOL    HW134382   4.465   4.528   8.165 -1.7980 -0.0550 -1.0324
 7640SOL    HW234383   4.482   4.485   8.025 -1.1642  0.6844  0.7205
 7641SOL     OW34384   3.264   2.013   7.072 -0.0041  0.1625 -0.4436
 7641SOL    HW134385   3.311   2.074   7.129  0.5615 -0.0391 -0.6906
 7641SOL    HW234386   3.294   1.928   7.107 -2.5168  0.6746  2.9406
 7642SOL     OW34387   1.986   3.997   5.255  0.1780 -0.1183 -0.0476
 7642SOL    HW134388   1.914   3.933   5.250  0.3993 -0.5259  2.0906
 7642SOL    HW234389   2.032   3.971   5.334 -1.4143  4.3392  2.3245
 7643SOL     OW34390   0.863   3.766   7.497 -0.1630 -0.1224 -0.1424
 7643SOL    HW134391   0.849   3.861   7.495  3.3789  0.4089 -0.2778
 7643SOL    HW234392   0.946   3.760   7.543  0.5553  1.1902 -1.2548
 7644SOL     OW34393   3.969   4.468   8.393 -0.1628 -0.2921  0.7694
 7644SOL    HW134394   3.948   4.384   8.354  2.0913 -0.7436  0.4942
 7644SOL    HW234395   3.993   4.438   8.481 -0.1875 -0.0541  0.8589
 7645SOL     OW34396   4.126   3.557   8.364 -0.6123  0.1547 -0.1570
 7645SOL    HW134397   4.039   3.572   8.330 -0.0616  0.3614 -1.4672
 7645SOL    HW234398   4.098   3.543   8.454  1.1499 -2.1727  0.0486
 7646SOL     OW34399   0.715   1.498  14.962 -0.4305  0.1863 -0.3218
 7646SOL    HW134400   0.667   1.476  14.882  1.6515 -0.5288 -1.3874
 7646SOL    HW234401   0.659   1.466  15.033 -0.0201  1.3287  0.5087
 7647SOL     OW34402   1.392   1.062   1.181 -0.3238 -0.3089 -0.5874
 7647SOL    HW134403   1.375   1.031   1.092 -0.4859 -0.9189 -0.3435
 7647SOL    HW234404   1.472   1.020   1.214 -1.3886 -1.9978 -0.1371
 7648SOL     OW34405   3.194   1.519   2.601  0.4764  0.0202 -0.0258
 7648SOL    HW134406   3.266   1.546   2.658  2.0651 -0.0779 -1.9406
 7648SOL    HW234407   3.184   1.429   2.632  1.5875 -0.1531 -0.1759
 7649SOL     OW34408   0.919   2.217   3.444 -0.4516 -0.0546  0.4812
 7649SOL    HW134409   0.919   2.122   3.453  0.8293 -0.1137 -0.2718
 7649SOL    HW234410   0.916   2.215   3.349  0.2000 -2.4040  0.5115
 7650SOL     OW34411   3.211   4.272  17.535 -0.0361 -0.0236  0.2735
 7650SOL    HW134412   3.141   4.267  17.600  1.0902  1.9427  1.6524
 7650SOL    HW234413   3.234   4.180  17.548  0.1455 -0.0845 -0.5105
 7651SOL     OW34414   3.835   2.697  15.359  0.8606  0.4430  0.1763
 7651SOL    HW134415   3.835   2.683  15.453  1.1369 -0.5768  0.0259
 7651SOL    HW234416   3.801   2.787  15.355 -3.1324 -1.0628  0.0136
 7652SOL     OW34417   2.866   2.173   7.533 -0.5811  0.0518 -0.0257
 7652SOL    HW134418   2.862   2.081   7.556  3.1586  0.2415  1.3560
 7652SOL    HW234419   2.781   2.190   7.491 -1.5302 -1.1132  1.4279
 7653SOL     OW34420   2.299   1.795  10.500 -0.1950  0.0795  0.0079
 7653SOL    HW134421   2.327   1.860  10.564 -0.5082  1.1553 -0.9595
 7653SOL    HW234422   2.240   1.848  10.447  2.7709  3.3648 -0.0075
 7654SOL     OW34423   0.627   0.457  15.217  0.1253 -0.2462 -0.6896
 7654SOL    HW134424   0.691   0.434  15.149  2.2481  0.8368  0.9558
 7654SOL    HW234425   0.600   0.369  15.242 -1.7388  0.4521 -0.2212
 7655SOL     OW34426   2.533   1.062   3.118 -0.6070 -0.4461 -0.1179
 7655SOL    HW134427   2.453   1.014   3.141 -0.4299 -0.7915 -0.2308
 7655SOL    HW234428   2.604   0.998   3.119 -0.7328 -0.5903 -0.4390
 7656SOL     OW34429   4.136   3.934   3.029 -0.0649 -0.0343  0.0747
 7656SOL    HW134430   4.152   3.840   3.018 -2.2326 -0.3713 -0.2345
 7656SOL    HW234431   4.214   3.960   3.078  0.1147 -0.0163 -0.2203
 7657SOL     OW34432   1.632   0.307   5.413  0.2258  0.2551  0.7701
 7657SOL    HW134433   1.564   0.281   5.476 -0.3385 -0.1762 -0.0236
 7657SOL    HW234434   1.710   0.262   5.445 -0.7650 -0.2990  2.4372
 7658SOL     OW34435   0.486   3.963  17.279 -0.0718  0.1859  0.4076
 7658SOL    HW134436   0.495   3.906  17.355  0.0874  0.4357  0.5752
 7658SOL    HW234437   0.428   3.922  17.216  0.0229  1.8967 -0.8063
 7659SOL     OW34438   0.074   2.848   8.475  0.4440 -0.0342 -0.2123
 7659SOL    HW134439   0.147   2.843   8.537 -0.4112 -0.9481  0.7157
 7659SOL    HW234440   0.004   2.882   8.530 -0.0920  1.8129 -2.0667
 7660SOL     OW34441   1.298   2.057   6.845  0.4292 -0.1231  0.2919
 7660SOL    HW134442   1.365   1.991   6.864  0.9496  0.6952  1.3154
 7660SOL    HW234443   1.299   2.106   6.927 -0.1928 -0.3289  0.4219
 7661SOL     OW34444   0.408   2.034   4.183 -0.2421  0.5892 -0.0072
 7661SOL    HW134445   0.370   1.988   4.257 -0.4974  0.9538  0.0855
 7661SOL    HW234446   0.392   2.126   4.206  2.6288  0.6759  1.7624
 7662SOL     OW34447   0.654   4.423   6.177 -0.0965 -0.0580  1.0477
 7662SOL    HW134448   0.578   4.369   6.155 -0.9397  1.1397  1.0236
 7662SOL    HW234449   0.639   4.425   6.272 -0.6701 -0.3155  0.9594
 7663SOL     OW34450   1.050   2.350   2.489 -0.1278 -0.4348 -0.3192
 7663SOL    HW134451   1.055   2.437   2.450 -1.0956 -0.3200 -0.2072
 7663SOL    HW234452   0.992   2.361   2.565 -2.5473 -3.0231 -1.7656
 7664SOL     OW34453   0.428   1.272   9.209  0.4453  0.6091  0.9386
 7664SOL    HW134454   0.400   1.183   9.188  2.1259  0.0205  1.2291
 7664SOL    HW234455   0.402   1.315   9.128  0.1696 -0.1700  0.6127
 7665SOL     OW34456   1.964   1.755   8.612 -0.1019  0.9489 -0.0937
 7665SOL    HW134457   1.880   1.786   8.578 -0.2746 -1.7157 -2.1191
 7665SOL    HW234458   1.999   1.841   8.635  1.4017 -0.3795  2.5431
 7666SOL     OW34459   0.329   3.492   8.028 -0.0707 -0.0070 -0.4368
 7666SOL    HW134460   0.423   3.493   8.047  0.1782 -0.7876 -1.5835
 7666SOL    HW234461   0.341   3.444   7.946  1.9507 -2.9397  1.5741
 7667SOL     OW34462   4.390   2.006   6.393 -0.6594  0.0416  0.6390
 7667SOL    HW134463   4.322   2.037   6.452 -1.3804  1.6152 -1.0475
 7667SOL    HW234464   4.468   2.039   6.438 -0.6963  1.3025 -0.2281
 7668SOL     OW34465   2.472   2.192   6.385  0.0450  0.8090  0.5737
 7668SOL    HW134466   2.474   2.097   6.374 -1.9700  0.8988 -0.5779
 7668SOL    HW234467   2.439   2.211   6.473 -1.2270  0.3240  0.2025
 7669SOL     OW34468   1.252   3.702   3.281  0.1038  0.3416  0.3589
 7669SOL    HW134469   1.279   3.709   3.190 -1.0368 -1.0027 -0.0920
 7669SOL    HW234470   1.273   3.608   3.279  2.1596  0.8066  0.0480
 7670SOL     OW34471   3.843   1.863   8.222  0.5561  0.2467 -0.3506
 7670SOL    HW134472   3.781   1.885   8.152 -0.1289 -0.1530  0.1297
 7670SOL    HW234473   3.791   1.800   8.272  1.1628  2.2560  2.8710
 7671SOL     OW34474   0.049   4.035  11.800  0.0867 -0.3377  0.2880
 7671SOL    HW134475   0.077   4.085  11.724 -1.9610 -0.2549 -0.3985
 7671SOL    HW234476   4.707   4.096  11.835  1.9336  1.8920 -0.2328
 7672SOL     OW34477   2.094   4.701  15.936 -0.3696  0.4046 -0.2220
 7672SOL    HW134478   2.185   4.708  15.906 -0.5944 -3.9746 -1.8688
 7672SOL    HW234479   2.043   0.022  15.869  0.2376 -1.1251 -1.6669
 7673SOL     OW34480   4.498   3.148   3.310  0.2729  0.1436  0.6201
 7673SOL    HW134481   4.547   3.200   3.374 -1.6699  2.4893  0.2326
 7673SOL    HW234482   4.445   3.098   3.373  1.4170 -0.8488  0.7910
 7674SOL     OW34483   4.544   4.711   3.440 -0.2717 -0.4341  0.0300
 7674SOL    HW134484   4.634   4.679   3.441 -0.3208 -0.4749  2.8759
 7674SOL    HW234485   4.518   4.701   3.348 -0.7233 -2.0515  0.3406
 7675SOL     OW34486   0.761   0.011  11.033 -0.4784 -0.7205  0.0803
 7675SOL    HW134487   0.727   0.091  11.073 -1.6763 -0.8649 -0.6755
 7675SOL    HW234488   0.682   4.683  11.019 -1.3174  0.2012  1.4813
 7676SOL     OW34489   4.634   1.764   9.857  0.4471  0.3471 -0.1246
 7676SOL    HW134490   4.705   1.719   9.904 -1.0894 -2.5301 -0.5410
 7676SOL    HW234491   4.646   1.744   9.764 -0.4033 -1.8989  0.2412
 7677SOL     OW34492   1.515   0.413   5.166  0.3122 -0.1978  0.0169
 7677SOL    HW134493   1.525   0.410   5.261  0.7858  1.7412  0.0286
 7677SOL    HW234494   1.514   0.508   5.155 -0.8029 -0.0980  0.9579
 7678SOL     OW34495   3.334   2.592   8.195  0.2449 -0.3698 -0.0390
 7678SOL    HW134496   3.242   2.596   8.167  0.1562 -0.9337  0.1781
 7678SOL    HW234497   3.334   2.524   8.263  0.3695 -0.1066  0.2228
 7679SOL     OW34498   0.858   1.567   8.453  0.2522  0.5619 -0.1704
 7679SOL    HW134499   0.794   1.569   8.525 -0.1025 -1.5316 -0.4221
 7679SOL    HW234500   0.905   1.641   8.491  2.1305 -0.6349 -0.1564
 7680SOL     OW34501   4.346   0.858   3.444  0.0127  0.4820  0.0164
 7680SOL    HW134502   4.274   0.884   3.387  1.0956  0.6719 -1.2696
 7680SOL    HW234503   4.394   0.795   3.389 -1.5541 -1.8671  1.3167
 7681SOL     OW34504   2.317   1.087   3.703 -0.0670 -0.2225 -0.1174
 7681SOL    HW134505   2.378   1.049   3.640  2.3078 -0.1593  2.1454
 7681SOL    HW234506   2.305   1.174   3.664 -0.1954  0.0296  0.4784
 7682SOL     OW34507   3.864   2.669   5.566 -0.3079 -0.0862  0.1582
 7682SOL    HW134508   3.903   2.736   5.622  2.3781 -1.4756 -0.0511
 7682SOL    HW234509   3.800   2.722   5.517 -0.1489  0.4554  0.5471
 7683SOL     OW34510   3.301   4.235  13.097 -0.0818  0.1562  0.4675
 7683SOL    HW134511   3.248   4.233  13.017 -0.8383  0.5478  0.9644
 7683SOL    HW234512   3.321   4.328  13.102  0.6158 -0.1188  2.7617
 7684SOL     OW34513   1.913   1.570   1.825 -0.1606 -0.2917  0.6798
 7684SOL    HW134514   1.821   1.548   1.843 -0.1441 -0.8075  0.0994
 7684SOL    HW234515   1.923   1.612   1.740 -0.3436 -0.3558  0.6266
 7685SOL     OW34516   0.562   1.743  11.916 -0.1627 -0.4750 -0.0295
 7685SOL    HW134517   0.526   1.694  11.989  1.1954 -2.5137 -0.7285
 7685SOL    HW234518   0.616   1.692  11.855 -0.0108 -0.1487 -0.1739
 7686SOL     OW34519   1.572   2.484   7.658 -0.1696 -0.8190 -0.1710
 7686SOL    HW134520   1.543   2.570   7.689 -1.0229 -1.4991  0.9082
 7686SOL    HW234521   1.626   2.512   7.584 -0.3456  2.8314  1.0854
 7687SOL     OW34522   0.372   4.252   8.051  0.0704  0.2515  0.4637
 7687SOL    HW134523   0.460   4.232   8.018  0.8318  1.1153  1.9618
 7687SOL    HW234524   0.370   4.215   8.139 -0.2800 -1.7982 -0.4143
 7688SOL     OW34525   4.160   1.674   5.946 -0.4134  0.4950  0.3841
 7688SOL    HW134526   4.204   1.680   6.031  1.1874  3.3576 -0.6609
 7688SOL    HW234527   4.220   1.720   5.887 -0.9987 -0.9068 -1.3087
 7689SOL     OW34528   2.482   1.455  13.001  0.2074  0.0334  0.0075
 7689SOL    HW134529   2.437   1.463  12.917 -0.1445 -2.1277 -0.0081
 7689SOL    HW234530   2.438   1.376  13.034  1.7643 -0.6532  0.4211
 7690SOL     OW34531   2.845   1.595  10.085 -0.5439 -0.2791 -0.3073
 7690SOL    HW134532   2.818   1.555  10.168 -0.0261  0.8017  0.3714
 7690SOL    HW234533   2.761   1.637  10.066 -2.4495 -3.4860  1.0453
 7691SOL     OW34534   1.469   2.683   8.737  0.4014  0.3340  0.2853
 7691SOL    HW134535   1.521   2.763   8.735  0.9903 -0.0598 -0.2567
 7691SOL    HW234536   1.455   2.671   8.831 -0.5940  1.3544  0.2719
 7692SOL     OW34537   4.110   1.177   6.929  0.2492 -0.2885  0.0736
 7692SOL    HW134538   4.023   1.137   6.924 -0.8215  2.0116  0.3598
 7692SOL    HW234539   4.120   1.203   6.838  0.9157 -0.4963  0.0847
 7693SOL     OW34540   0.137   1.182  11.595 -0.2331  0.3387 -0.3354
 7693SOL    HW134541   0.079   1.157  11.667  1.9401 -0.4080  1.1510
 7693SOL    HW234542   0.194   1.253  11.625 -2.4890  1.1896  1.9523
 7694SOL     OW34543   2.249   0.536   3.870  0.2027 -0.1530 -0.4957
 7694SOL    HW134544   2.247   0.590   3.949  3.4665 -0.8002  0.0304
 7694SOL    HW234545   2.165   0.496   3.891 -0.1631  1.4575  1.1292
 7695SOL     OW34546   1.749   4.669   6.983  0.3735  0.4869 -0.3428
 7695SOL    HW134547   1.796   4.699   7.061 -2.7797  3.0042  0.6001
 7695SOL    HW234548   1.736   4.576   6.998 -1.9553  0.9405  0.3099
 7696SOL     OW34549   1.286   2.209   4.454  0.4150  0.0401 -0.0108
 7696SOL    HW134550   1.341   2.153   4.399  2.2561  3.6070 -1.8285
 7696SOL    HW234551   1.289   2.288   4.400  2.4710  0.2594  0.4157
 7697SOL     OW34552   0.106   3.370   6.570 -0.4584  0.4583  0.2903
 7697SOL    HW134553   0.037   3.436   6.567 -0.7504  0.1373 -0.0053
 7697SOL    HW234554   0.156   3.410   6.641  0.2964 -1.8765  1.0628
 7698SOL     OW34555   1.086   0.458   3.645  0.5031  0.9740 -0.3673
 7698SOL    HW134556   1.089   0.448   3.550  0.9931 -0.1871 -0.2344
 7698SOL    HW234557   1.006   0.410   3.665  1.7002  0.3502  2.9900
 7699SOL     OW34558   0.283   3.817   7.831 -0.7047 -0.6541 -0.5969
 7699SOL    HW134559   0.268   3.763   7.753 -1.9677 -1.6228  0.3283
 7699SOL    HW234560   0.248   3.762   7.901  3.1662 -1.5350  0.6385
 7700SOL     OW34561   3.171   0.285   9.466 -0.7553 -0.5193  0.2434
 7700SOL    HW134562   3.107   0.256   9.531 -1.4674  0.8150  0.1450
 7700SOL    HW234563   3.151   0.376   9.443  1.1251 -0.3521 -0.7477
 7701SOL     OW34564   1.581   2.441   3.248 -0.0658 -0.0756 -0.1798
 7701SOL    HW134565   1.573   2.385   3.325 -0.6567  1.5793  0.9637
 7701SOL    HW234566   1.580   2.379   3.175 -0.0977 -0.7389  0.3798
 7702SOL     OW34567   4.557   4.435   0.736  0.5872 -0.1297  0.0577
 7702SOL    HW134568   4.559   4.351   0.690 -0.7883 -1.0475  1.6343
 7702SOL    HW234569   4.609   4.482   0.671 -1.0098 -1.5484 -2.2229
 7703SOL     OW34570   2.203   0.638   7.129  0.7939 -0.1703  0.3307
 7703SOL    HW134571   2.290   0.678   7.127 -0.6117  2.8373 -0.3750
 7703SOL    HW234572   2.198   0.600   7.041 -0.5553 -2.2553  1.3025
 7704SOL     OW34573   4.488   4.542   4.098 -0.0179  0.1978 -0.0211
 7704SOL    HW134574   4.569   4.585   4.123 -0.0444  0.4938 -0.4488
 7704SOL    HW234575   4.525   4.467   4.052  0.1339  0.3200 -0.0951
 7705SOL     OW34576   0.937   3.751   0.227  0.3519 -0.3758 -0.4688
 7705SOL    HW134577   1.008   3.690   0.245  1.6215  1.4557  0.7326
 7705SOL    HW234578   0.981   3.833   0.209  0.0548  0.2618  1.6429
 7706SOL     OW34579   0.948   1.743   2.489  0.0608  0.0485 -0.0211
 7706SOL    HW134580   1.032   1.737   2.443 -0.2903 -2.6106 -0.3145
 7706SOL    HW234581   0.914   1.654   2.475  1.2282  0.2843 -4.4332
 7707SOL     OW34582   1.949   2.866   2.770  0.1891  0.0153 -0.0760
 7707SOL    HW134583   1.948   2.857   2.675 -3.4745  1.2896 -0.1707
 7707SOL    HW234584   1.892   2.943   2.773  1.2907  0.8968 -1.5457
 7708SOL     OW34585   3.844   0.093   2.401 -0.1298  0.3333  0.1296
 7708SOL    HW134586   3.794   0.068   2.478 -0.4111 -1.9313 -0.7842
 7708SOL    HW234587   3.839   0.188   2.416  0.1839  0.4209 -0.3187
 7709SOL     OW34588   1.266   4.261   6.859  0.1358  0.2859 -0.1298
 7709SOL    HW134589   1.357   4.240   6.838  0.1922  1.1069 -0.6941
 7709SOL    HW234590   1.268   4.356   6.865  1.7900  0.1851  0.8544
 7710SOL     OW34591   3.020   2.981  11.495 -0.0559  0.2513  0.2794
 7710SOL    HW134592   2.943   2.961  11.548  0.9156 -0.5378  1.3810
 7710SOL    HW234593   3.074   2.905  11.516  0.3742  0.4134 -0.2409
 7711SOL     OW34594   0.902   3.466  11.683 -0.3250  0.3067 -0.0786
 7711SOL    HW134595   0.924   3.529  11.752 -0.7258 -0.9736  1.2240
 7711SOL    HW234596   0.967   3.492  11.618  1.1978 -0.1147  1.2480
 7712SOL     OW34597   3.075   0.215   6.759  0.0869 -0.2152 -0.2606
 7712SOL    HW134598   3.161   0.175   6.771 -0.4389 -1.8505 -1.9797
 7712SOL    HW234599   3.049   0.197   6.668 -0.3748  0.8629 -0.3401
 7713SOL     OW34600   0.144   3.923   1.442  0.1281  0.5683  0.1041
 7713SOL    HW134601   0.160   3.886   1.528  2.3819  0.2084 -0.4729
 7713SOL    HW234602   0.206   3.995   1.434 -0.2651  1.0232  1.1386
 7714SOL     OW34603   0.143   2.900   6.624 -0.3900  0.4412 -0.1377
 7714SOL    HW134604   0.123   2.992   6.639 -1.3015 -0.1675  2.3889
 7714SOL    HW234605   0.114   2.880   6.535 -2.3907  0.2978  0.5603
 7715SOL     OW34606   4.464   0.284  13.405  0.0070  0.6039 -0.1314
 7715SOL    HW134607   4.539   0.232  13.375 -0.7098 -0.9078  0.6686
 7715SOL    HW234608   4.471   0.293  13.500  1.9819 -1.4344 -0.0793
 7716SOL     OW34609   4.346   0.835  15.050  0.2720  0.3858 -0.3193
 7716SOL    HW134610   4.251   0.842  15.053  0.2399 -0.8176  1.8308
 7716SOL    HW234611   4.354   0.773  15.123 -3.3340  0.9069  0.5009
 7717SOL     OW34612   3.196   4.469   8.642 -0.2692  0.2112  0.1761
 7717SOL    HW134613   3.208   4.501   8.553 -1.0949 -1.3900 -0.5008
 7717SOL    HW234614   3.256   4.526   8.691  0.6586 -1.2021  0.6933
 7718SOL     OW34615   1.683   2.905  17.615  0.0849 -0.3707 -0.1293
 7718SOL    HW134616   1.590   2.926  17.617 -0.0121 -1.0398  2.7993
 7718SOL    HW234617   1.679   2.809  17.620 -0.9162 -0.3347 -0.2041
 7719SOL     OW34618   4.494   4.013   6.043 -0.1111 -0.3772  0.3853
 7719SOL    HW134619   4.553   3.940   6.022 -0.2674  0.1353 -1.8150
 7719SOL    HW234620   4.512   4.030   6.135  1.0722  2.6637 -0.4318
 7720SOL     OW34621   3.676   2.094   6.576  0.4710  0.4444 -0.1986
 7720SOL    HW134622   3.717   2.037   6.511  0.3967 -0.2089  0.3212
 7720SOL    HW234623   3.664   2.169   6.519 -2.0801 -2.7881 -3.9083
 7721SOL     OW34624   3.159   0.689  10.170 -0.2164 -0.4245 -0.6357
 7721SOL    HW134625   3.239   0.636  10.166 -0.6361 -1.2742  1.9031
 7721SOL    HW234626   3.155   0.732  10.085 -0.2396 -0.0923 -0.4682
 7722SOL     OW34627   3.408   1.171   9.881 -0.4855  0.4066 -0.5006
 7722SOL    HW134628   3.386   1.142   9.792  0.8490 -0.5776 -0.5062
 7722SOL    HW234629   3.459   1.101   9.923  0.7665 -0.7074 -3.8041
 7723SOL     OW34630   2.179   2.527  12.798  0.2490 -0.4129 -0.3538
 7723SOL    HW134631   2.112   2.507  12.733 -1.1160  1.0797  0.5914
 7723SOL    HW234632   2.180   2.621  12.820 -1.0359 -1.1754  3.0111
 7724SOL     OW34633   0.956   0.985   8.117  0.6158  0.3972  0.5406
 7724SOL    HW134634   0.890   1.026   8.060 -1.0357 -0.2289  2.0020
 7724SOL    HW234635   1.037   1.008   8.071  0.0524  1.5517  0.1027
 7725SOL     OW34636   2.875   3.185   6.860  0.5508 -0.4255 -1.1504
 7725SOL    HW134637   2.931   3.118   6.898  1.9942  2.7548  2.4002
 7725SOL    HW234638   2.849   3.144   6.778 -0.2381 -0.5711 -0.8317
 7726SOL     OW34639   2.439   3.234   6.887  0.0886 -0.1211  1.1490
 7726SOL    HW134640   2.477   3.296   6.825 -0.1698  0.2569  1.3621
 7726SOL    HW234641   2.387   3.291   6.944 -1.0222 -0.0405  0.0556
 7727SOL     OW34642   1.761   2.108   5.875  0.4290  0.0086  0.4396
 7727SOL    HW134643   1.719   2.022   5.864 -2.5389  1.5838 -0.5180
 7727SOL    HW234644   1.701   2.161   5.822  1.6316 -0.1047 -1.0280
 7728SOL     OW34645   2.971   3.118   3.747  0.6093 -0.1274  0.2772
 7728SOL    HW134646   2.989   3.025   3.735 -0.1074 -0.1477 -0.6066
 7728SOL    HW234647   2.888   3.114   3.795 -0.6725 -1.9662 -2.0887
 7729SOL     OW34648   0.672   2.810   7.999 -0.4277 -0.3664  0.5480
 7729SOL    HW134649   0.608   2.758   7.950  0.4082 -1.0376  0.1706
 7729SOL    HW234650   0.741   2.823   7.933  0.0347  1.1064  1.3219
 7730SOL     OW34651   0.367   3.344   4.675 -0.3097  0.5046  0.0524
 7730SOL    HW134652   0.441   3.399   4.699  0.0778  0.4769 -1.0470
 7730SOL    HW234653   0.301   3.355   4.744  1.7553  1.8952  1.7852
 7731SOL     OW34654   2.168   4.644   8.057  0.4449 -0.2418 -0.0365
 7731SOL    HW134655   2.148   4.674   7.968 -2.7710 -0.9418  0.4145
 7731SOL    HW234656   2.086   4.598   8.077  0.5349 -0.8765 -1.1157
 7732SOL     OW34657   2.967   1.625  13.920  0.0711 -0.1563  0.2381
 7732SOL    HW134658   2.958   1.544  13.971 -0.6415 -0.5519 -0.5070
 7732SOL    HW234659   2.897   1.682  13.952 -0.6524 -1.4778  1.0319
 7733SOL     OW34660   1.068   4.270   4.503 -0.1532 -0.6220 -0.4286
 7733SOL    HW134661   1.057   4.251   4.596  1.2053 -1.1729 -0.3834
 7733SOL    HW234662   1.049   4.183   4.468  1.2216 -1.7371  1.6295
 7734SOL     OW34663   1.227   0.979  16.327  0.2701 -0.3657 -0.0508
 7734SOL    HW134664   1.208   1.068  16.355  2.8304  0.2566 -0.3209
 7734SOL    HW234665   1.138   0.953  16.352  0.1339  0.9115  0.7857
 7735SOL     OW34666   0.970   1.917  16.578  0.1485  0.0249  0.0129
 7735SOL    HW134667   0.986   1.940  16.486  0.6853  4.7464  1.2622
 7735SOL    HW234668   0.875   1.907  16.575  0.1142  0.7285 -1.4977
 7736SOL     OW34669   0.114   0.214   2.283 -0.4572 -0.8108 -0.2115
 7736SOL    HW134670   0.059   0.287   2.253 -0.5981  0.5416  3.2309
 7736SOL    HW234671   0.077   0.139   2.238  1.3506 -0.7755 -1.7642
 7737SOL     OW34672   1.062   2.979  17.290 -0.0243  0.3424 -0.0962
 7737SOL    HW134673   1.131   2.984  17.224  0.3470  2.1104  0.4299
 7737SOL    HW234674   1.049   3.073  17.297  0.8901  0.5148 -0.8191
 7738SOL     OW34675   2.056   0.876   8.553 -0.5444  0.0339  0.0856
 7738SOL    HW134676   2.109   0.907   8.479 -0.2758  0.2389  0.3648
 7738SOL    HW234677   1.969   0.909   8.530  1.1653  2.2645 -3.1701
 7739SOL     OW34678   3.094   0.655   8.127 -0.8665  0.6299 -0.3323
 7739SOL    HW134679   3.132   0.578   8.169 -2.0129  1.0289  1.4309
 7739SOL    HW234680   3.162   0.716   8.156  0.8107 -0.3935 -2.1325
 7740SOL     OW34681   1.439   4.008   3.740 -0.0640 -0.3838  0.0666
 7740SOL    HW134682   1.458   4.025   3.648  1.2442 -1.2977  0.1757
 7740SOL    HW234683   1.481   4.089   3.770 -2.1928  0.7079  0.1178
 7741SOL     OW34684   0.282   4.434   2.110 -0.0337 -0.2349  0.4209
 7741SOL    HW134685   0.254   4.402   2.196 -0.7141  3.1164  1.4813
 7741SOL    HW234686   0.358   4.379   2.089  1.5115  1.7236  0.7857
 7742SOL     OW34687   3.163   4.160   8.031  0.2629 -0.6330  0.4400
 7742SOL    HW134688   3.155   4.252   8.054  0.9614 -0.2778 -0.7640
 7742SOL    HW234689   3.185   4.122   8.116 -1.2659 -0.9124  0.7133
 7743SOL     OW34690   2.498   2.722  17.541  0.0581  0.4540  0.2706
 7743SOL    HW134691   2.531   2.771  17.466  0.5117  0.9904  0.8146
 7743SOL    HW234692   2.570   2.707  17.603  1.1804 -0.2949 -1.2320
 7744SOL     OW34693   0.746   1.950  13.989  0.0730  0.4194 -0.4032
 7744SOL    HW134694   0.736   2.044  13.978 -1.1993  0.1275 -1.7418
 7744SOL    HW234695   0.833   1.937  14.026 -0.1344 -0.4464 -0.2159
 7745SOL     OW34696   4.085   4.129  16.103  0.3248 -0.1281 -0.5802
 7745SOL    HW134697   4.078   4.224  16.099 -0.2187 -0.1427 -0.0835
 7745SOL    HW234698   4.127   4.123  16.188  1.0164  1.2036 -0.8242
 7746SOL     OW34699   2.071   4.583   4.787 -0.3207 -0.7514  0.1183
 7746SOL    HW134700   2.102   4.600   4.698  0.0862  0.7733  0.5434
 7746SOL    HW234701   2.075   4.668   4.831 -1.4550 -0.0486 -1.1331
 7747SOL     OW34702   2.747   4.108   2.064  0.0142 -0.2147 -0.2545
 7747SOL    HW134703   2.664   4.102   2.111  1.5494  1.7863  2.6839
 7747SOL    HW234704   2.787   4.183   2.108  1.7329 -1.1039 -0.2970
 7748SOL     OW34705   2.608   4.268  12.551 -0.8635  0.2838 -0.2120
 7748SOL    HW134706   2.565   4.186  12.526 -0.2164 -0.3396  0.7640
 7748SOL    HW234707   2.625   4.310  12.466 -1.4584 -3.4478 -2.1725
 7749SOL     OW34708   3.488   3.647   7.765  0.0860  0.0982 -0.2101
 7749SOL    HW134709   3.485   3.597   7.847 -1.2516  1.0551  0.3195
 7749SOL    HW234710   3.531   3.729   7.790 -0.7867 -0.4354  3.0648
 7750SOL     OW34711   0.404   1.610   8.589  0.3591 -0.5144 -0.1614
 7750SOL    HW134712   0.318   1.620   8.629  0.9827 -1.5228  1.4219
 7750SOL    HW234713   0.422   1.516   8.592  3.6515  0.1746  1.4343
 7751SOL     OW34714   3.779   0.578   1.416  0.0110  0.0058 -0.3828
 7751SOL    HW134715   3.811   0.604   1.330  0.7893 -0.3229 -0.1892
 7751SOL    HW234716   3.823   0.495   1.434 -0.1416 -0.4052 -1.8839
 7752SOL     OW34717   1.166   2.738  10.480  0.0336 -0.4509 -0.7931
 7752SOL    HW134718   1.198   2.661  10.527  1.9191  0.0976 -1.1603
 7752SOL    HW234719   1.149   2.699  10.394 -1.0892  1.1135 -1.2683
 7753SOL     OW34720   0.597   4.366   6.437  0.2469  0.0174  0.3476
 7753SOL    HW134721   0.540   4.409   6.501  0.8207 -1.1287  1.6341
 7753SOL    HW234722   0.680   4.376   6.483  1.3400  1.0148 -1.8420
 7754SOL     OW34723   1.090   3.442  14.137  0.2687  0.0982 -0.1751
 7754SOL    HW134724   1.103   3.536  14.137  0.6918  0.0324  1.1977
 7754SOL    HW234725   1.025   3.427  14.205 -2.1066 -0.5448 -2.5551
 7755SOL     OW34726   3.978   1.199  10.549 -0.1790  0.5629  0.4283
 7755SOL    HW134727   3.972   1.105  10.530  1.1660  0.2537  1.5720
 7755SOL    HW234728   3.918   1.242  10.487  0.9035  2.2954  0.6073
 7756SOL     OW34729   3.196   4.461   1.571 -0.3511  0.0983 -0.0703
 7756SOL    HW134730   3.126   4.483   1.510 -1.0551  0.8986  1.0276
 7756SOL    HW234731   3.259   4.431   1.505 -0.9356 -2.4528  0.5265
 7757SOL     OW34732   0.647   1.451  10.178  0.4131 -0.6914 -0.2413
 7757SOL    HW134733   0.670   1.542  10.191 -2.2060 -0.2579  1.3723
 7757SOL    HW234734   0.623   1.440  10.085 -0.5921  1.7104 -0.2440
 7758SOL     OW34735   2.412   2.205   1.872 -0.1590 -0.1366 -0.1338
 7758SOL    HW134736   2.425   2.268   1.943 -2.0234  0.7558 -0.5646
 7758SOL    HW234737   2.448   2.253   1.797  6.0512 -2.0361  1.6717
 7759SOL     OW34738   0.224   1.263   5.988 -0.2562 -0.3629  0.3775
 7759SOL    HW134739   0.314   1.269   6.018 -0.2174  0.8920  0.0166
 7759SOL    HW234740   0.199   1.177   6.020  1.5476 -0.8606  0.4112
 7760SOL     OW34741   2.927   3.262   8.176  0.0360 -0.2832  0.1871
 7760SOL    HW134742   2.967   3.214   8.248  1.7913  0.6510 -0.1740
 7760SOL    HW234743   2.836   3.237   8.194 -0.2390 -0.7302 -1.8088
 7761SOL     OW34744   1.901   1.496   9.868 -0.2881 -0.0038 -0.0372
 7761SOL    HW134745   1.928   1.429   9.932  1.1519 -0.6691 -1.3425
 7761SOL    HW234746   1.918   1.581   9.909 -0.2428  0.7681 -1.6736
 7762SOL     OW34747   1.252   0.681  12.439  0.5105 -0.9899 -0.2072
 7762SOL    HW134748   1.322   0.715  12.495  1.3516 -0.2271 -1.7482
 7762SOL    HW234749   1.207   0.619  12.497  1.4398 -0.3522  1.1867
 7763SOL     OW34750   0.646   1.531  15.685 -0.1208  0.3593 -0.2622
 7763SOL    HW134751   0.674   1.623  15.685 -1.5521  0.7882 -0.0836
 7763SOL    HW234752   0.628   1.515  15.592  1.1550  0.0509 -0.4603
 7764SOL     OW34753   2.185   2.259   6.002 -0.5857  0.3805  0.0895
 7764SOL    HW134754   2.186   2.351   6.030  1.7288  0.4081 -0.0536
 7764SOL    HW234755   2.247   2.261   5.929  0.3269  0.0032  0.8635
 7765SOL     OW34756   4.618   3.089   8.150 -0.5467  0.0820  0.2286
 7765SOL    HW134757   4.562   3.012   8.153 -0.5871  0.0290 -2.4904
 7765SOL    HW234758   4.574   3.149   8.210 -0.5081 -0.1294  0.4694
 7766SOL     OW34759   3.073   1.370  15.250  0.4976  0.3322 -0.0230
 7766SOL    HW134760   3.101   1.280  15.241 -0.5250 -0.0903  0.9361
 7766SOL    HW234761   3.156   1.417  15.255 -0.4857  1.8097  2.3780
 7767SOL     OW34762   4.123   2.846   6.935  0.1258  0.3321 -0.0351
 7767SOL    HW134763   4.066   2.916   6.965  0.7998  1.6522 -1.8819
 7767SOL    HW234764   4.168   2.816   7.014  2.2457  0.0407 -1.3304
 7768SOL     OW34765   2.692   2.172   2.346 -0.2585  0.8676  0.2229
 7768SOL    HW134766   2.639   2.128   2.280  1.2432  0.1002 -0.4708
 7768SOL    HW234767   2.735   2.243   2.299  0.7591 -0.4460 -0.8434
 7769SOL     OW34768   1.638   0.888  12.370  0.0715  0.2707  0.3951
 7769SOL    HW134769   1.727   0.856  12.384  0.5457  2.2007  1.8558
 7769SOL    HW234770   1.605   0.858  12.455  1.9283  1.8300  1.6636
 7770SOL     OW34771   4.426   2.040   5.876  0.4936 -0.1781  0.1549
 7770SOL    HW134772   4.392   2.086   5.800 -0.0295 -0.4346  0.2290
 7770SOL    HW234773   4.515   2.074   5.871  0.4620  0.1786  2.1810
 7771SOL     OW34774   0.860   3.432  10.309 -0.5018 -0.5138  0.7487
 7771SOL    HW134775   0.951   3.445  10.282 -1.2573  1.7895 -0.6602
 7771SOL    HW234776   0.851   3.482  10.390  3.5655  0.4414  0.5899
 7772SOL     OW34777   4.317   1.309   8.950 -0.6105 -0.4960  0.1634
 7772SOL    HW134778   4.324   1.378   8.884  0.5385  1.2631  2.1165
 7772SOL    HW234779   4.317   1.224   8.906  1.9753  0.1514 -1.1175
 7773SOL     OW34780   2.237   3.727   4.959  0.1195  0.0200 -0.3735
 7773SOL    HW134781   2.242   3.814   5.000 -2.7027  0.1190 -0.2274
 7773SOL    HW234782   2.152   3.692   4.985  0.8846  0.3878  2.6698
 7774SOL     OW34783   1.670   3.227   0.629 -0.1892  0.5439  0.1893
 7774SOL    HW134784   1.600   3.286   0.656 -1.6166 -0.8306 -0.5237
 7774SOL    HW234785   1.678   3.159   0.695 -2.0935  1.0653  0.9430
 7775SOL     OW34786   1.699   1.387   8.353 -0.2271 -0.3083 -0.3651
 7775SOL    HW134787   1.743   1.306   8.326  1.3645  0.0170  1.2598
 7775SOL    HW234788   1.722   1.410   8.443 -0.2995 -0.8396 -0.2153
 7776SOL     OW34789   3.499   0.272  15.335 -0.3328  0.2306  0.3450
 7776SOL    HW134790   3.509   0.360  15.373 -1.0774  0.9372 -1.0810
 7776SOL    HW234791   3.550   0.221  15.398  0.2209  2.1331  1.4356
 7777SOL     OW34792   2.982   0.302  10.678 -0.3893  0.0163 -0.2330
 7777SOL    HW134793   2.922   0.354  10.623  2.6051  2.9895 -0.6448
 7777SOL    HW234794   2.958   0.335  10.764 -2.2930 -0.0496 -0.7284
 7778SOL     OW34795   3.911   2.499   8.965 -0.0026 -0.0149  0.4456
 7778SOL    HW134796   3.925   2.576   8.909 -0.0985 -0.8239 -0.6926
 7778SOL    HW234797   4.000   2.466   8.966  0.5915  1.5241 -1.8937
 7779SOL     OW34798   1.988   3.447   5.669 -0.2521  0.0582  0.0593
 7779SOL    HW134799   1.962   3.505   5.741 -3.7468 -0.8113 -0.4902
 7779SOL    HW234800   1.965   3.497   5.590  0.4632 -0.4865 -0.4953
 7780SOL     OW34801   1.320   2.909   7.259 -0.2754 -0.7379  0.0145
 7780SOL    HW134802   1.254   2.916   7.329 -2.4875 -1.3285 -1.9958
 7780SOL    HW234803   1.281   2.967   7.193  1.4607 -0.2969 -0.6169
 7781SOL     OW34804   3.818   1.220  16.483  0.1207 -0.0542  0.3906
 7781SOL    HW134805   3.734   1.174  16.483 -1.1898  2.3545 -1.6032
 7781SOL    HW234806   3.859   1.139  16.453 -2.0237 -1.3712  0.9465
 7782SOL     OW34807   2.370   1.739   2.139 -0.2962 -0.2472 -0.3862
 7782SOL    HW134808   2.431   1.686   2.191 -1.1676  0.7785  1.7050
 7782SOL    HW234809   2.418   1.769   2.062  0.3909 -1.9713 -0.6403
 7783SOL     OW34810   0.411   4.528  10.046 -0.1094  0.5624 -0.1524
 7783SOL    HW134811   0.344   4.486   9.993  1.4006 -2.9605  0.7231
 7783SOL    HW234812   0.428   4.461  10.112 -0.7012 -0.4477 -1.0353
 7784SOL     OW34813   2.026   4.211   1.883 -0.3947 -0.1146  0.2819
 7784SOL    HW134814   1.935   4.180   1.885 -0.0771 -0.9106  2.5164
 7784SOL    HW234815   2.071   4.165   1.812 -0.9326 -0.7403  0.3453
 7785SOL     OW34816   1.663   0.881   6.469  0.7023  0.1469 -0.1393
 7785SOL    HW134817   1.690   0.851   6.555  1.8899  0.8037 -0.2839
 7785SOL    HW234818   1.569   0.895   6.483  0.8215 -0.4905  1.2515
 7786SOL     OW34819   4.211   1.389   1.013 -0.1249  0.0676  0.1505
 7786SOL    HW134820   4.281   1.367   0.952 -0.4805 -0.6664 -0.0000
 7786SOL    HW234821   4.136   1.350   0.967  1.5045 -0.7892 -1.7340
 7787SOL     OW34822   0.019   1.762  13.954  0.0120 -0.4576 -0.1409
 7787SOL    HW134823   4.688   1.815  13.896 -1.3697 -0.4974  1.1021
 7787SOL    HW234824   4.688   1.685  13.973  1.6809 -1.8068 -0.8402
 7788SOL     OW34825   4.593   3.623  14.601  0.3304 -0.0700  0.1037
 7788SOL    HW134826   4.530   3.559  14.568  0.2402 -0.9081  1.9072
 7788SOL    HW234827   4.646   3.638  14.524 -0.4356  0.7870 -0.2591
 7789SOL     OW34828   2.758   4.454   6.452 -0.0050  0.1357  0.2584
 7789SOL    HW134829   2.850   4.482   6.450 -0.3376  1.2106  0.1005
 7789SOL    HW234830   2.752   4.428   6.544  0.5475 -0.7709  0.0384
 7790SOL     OW34831   3.208   1.283   1.416 -0.0745 -0.0612 -0.3507
 7790SOL    HW134832   3.267   1.211   1.395  0.7920  0.4960  0.2245
 7790SOL    HW234833   3.121   1.249   1.395  0.8930 -2.5510 -0.3092
 7791SOL     OW34834   4.460   4.230   8.257 -0.1119  0.3313 -0.3226
 7791SOL    HW134835   4.553   4.219   8.276 -0.5842 -0.3581  1.5733
 7791SOL    HW234836   4.465   4.319   8.223  1.6455  0.9542  1.5492
 7792SOL     OW34837   3.650   4.121   7.254 -0.1617  0.0814 -0.1135
 7792SOL    HW134838   3.635   4.197   7.197 -0.6021 -0.3769 -0.6163
 7792SOL    HW234839   3.561   4.084   7.251 -1.2610  2.3714  3.8993
 7793SOL     OW34840   3.809   1.636  10.091  0.1338 -0.2522  0.5102
 7793SOL    HW134841   3.876   1.704  10.098  0.1691 -0.3417  1.0156
 7793SOL    HW234842   3.732   1.673  10.133 -1.2534 -1.4918 -0.9244
 7794SOL     OW34843   1.432   3.209  11.088 -0.7464  0.3555  0.1974
 7794SOL    HW134844   1.460   3.195  11.178 -0.0320 -0.4440 -0.1464
 7794SOL    HW234845   1.508   3.240  11.037 -0.2209 -2.4397 -0.6837
 7795SOL     OW34846   0.945   0.762   5.499  0.1193  0.1042  0.0254
 7795SOL    HW134847   0.861   0.721   5.481  0.0599 -0.2310  1.1161
 7795SOL    HW234848   0.923   0.851   5.527 -1.6246  0.3442 -2.1354
 7796SOL     OW34849   0.881   2.347   4.860 -1.0958 -0.2154  0.5454
 7796SOL    HW134850   0.830   2.374   4.784  0.1735 -0.9651 -0.5639
 7796SOL    HW234851   0.892   2.432   4.904 -1.3430 -0.3649  0.8913
 7797SOL     OW34852   3.190   3.309   4.315  0.0515  0.0651 -0.1985
 7797SOL    HW134853   3.128   3.264   4.258 -0.1098 -1.0736  0.9068
 7797SOL    HW234854   3.230   3.367   4.249 -2.6409 -0.7867 -2.5843
 7798SOL     OW34855   1.026   0.634   3.384  0.4778 -0.7726  0.1005
 7798SOL    HW134856   0.950   0.652   3.330  1.1785  0.7743 -0.3560
 7798SOL    HW234857   1.041   0.540   3.371  0.4684 -0.6857 -0.5134
 7799SOL     OW34858   1.558   0.190  12.328 -0.4741  0.4129 -0.2003
 7799SOL    HW134859   1.561   0.272  12.376  0.7443 -0.7263  1.6623
 7799SOL    HW234860   1.590   0.130  12.396 -1.0015 -1.6840 -1.7864
 7800SOL     OW34861   3.463   3.999   3.946 -0.3535 -0.5396 -0.4522
 7800SOL    HW134862   3.535   4.061   3.945 -2.2898  1.7180  0.1286
 7800SOL    HW234863   3.438   4.009   4.038  1.1391 -2.7379  0.2106
 7801SOL     OW34864   4.363   3.998   3.598 -0.1386  0.0007 -0.7182
 7801SOL    HW134865   4.320   4.038   3.522 -2.2356  0.0141  0.4655
 7801SOL    HW234866   4.449   4.039   3.597  0.6690 -1.7112 -0.8623
 7802SOL     OW34867   0.345   4.655  10.291 -0.6954  0.2065 -0.4451
 7802SOL    HW134868   0.354   4.603  10.211  1.7050 -0.1158  0.0355
 7802SOL    HW234869   0.252   4.679  10.292 -0.9334 -0.6478 -1.9179
 7803SOL     OW34870   4.527   4.658   9.258 -0.2051 -0.1323 -0.1056
 7803SOL    HW134871   4.547   4.690   9.170  1.2653 -1.8635 -0.4089
 7803SOL    HW234872   4.563   0.004   9.313 -0.8226 -0.0353  0.1759
 7804SOL     OW34873   2.450   2.833   3.036  0.1420  0.2804  0.1630
 7804SOL    HW134874   2.366   2.833   2.990 -0.7142 -3.4956  1.6876
 7804SOL    HW234875   2.490   2.892   2.972  0.9170 -1.2226 -0.7359
 7805SOL     OW34876   1.976   1.154  17.434  0.4266 -0.2545 -0.1766
 7805SOL    HW134877   1.956   1.200  17.353  0.3354 -1.8106 -1.0375
 7805SOL    HW234878   1.929   1.219  17.487  1.8111  1.7281 -1.3825
 7806SOL     OW34879   3.704   1.975  15.148  0.7908 -0.4933  0.6556
 7806SOL    HW134880   3.710   2.033  15.225  0.5145  0.9450 -0.4084
 7806SOL    HW234881   3.772   2.021  15.099  0.2654  2.2505  2.5142
 7807SOL     OW34882   0.067   3.134  10.459  0.3948 -0.1901 -0.0455
 7807SOL    HW134883   0.054   3.138  10.364  2.3055 -1.6628 -0.3947
 7807SOL    HW234884   4.701   3.150  10.490  0.2747  0.2301 -0.6028
 7808SOL     OW34885   2.848   0.855   8.968 -0.0278 -0.2658 -0.1689
 7808SOL    HW134886   2.786   0.917   8.930 -1.9075 -0.8075  1.9377
 7808SOL    HW234887   2.865   0.895   9.053  1.5373  1.0526 -1.1127
 7809SOL     OW34888   3.525   2.277   4.588 -0.6457  0.0993  0.6430
 7809SOL    HW134889   3.600   2.331   4.612  0.0513  0.4793 -2.4989
 7809SOL    HW234890   3.566   2.192   4.574 -1.0646  0.1114 -0.5897
 7810SOL     OW34891   3.874   3.870   3.897  0.1363  0.0025 -0.0789
 7810SOL    HW134892   3.869   3.785   3.941  0.9646 -0.2971 -0.5590
 7810SOL    HW234893   3.948   3.870   3.836  0.6749 -0.2488  0.5685
 7811SOL     OW34894   4.531   2.993   5.113 -0.1789  0.3366 -0.2504
 7811SOL    HW134895   4.549   3.014   5.204  0.4396 -0.0627 -0.2822
 7811SOL    HW234896   4.601   3.040   5.069 -1.4098  1.1235 -1.3910
 7812SOL     OW34897   2.792   0.021   1.516 -0.2212  0.0303  0.0887
 7812SOL    HW134898   2.824   4.707   1.599  0.2725  0.1150 -0.0649
 7812SOL    HW234899   2.860   0.083   1.491 -1.7971  1.6249 -0.1992
 7813SOL     OW34900   3.860   1.252   3.322 -0.0711  0.2086  0.5696
 7813SOL    HW134901   3.897   1.297   3.398 -0.2942 -0.3920  1.0313
 7813SOL    HW234902   3.864   1.329   3.265  2.0894 -0.8805 -0.7325
 7814SOL     OW34903   4.508   3.673  14.853 -0.1506 -0.6254 -0.3194
 7814SOL    HW134904   4.541   3.685  14.764 -0.9710 -1.7002 -0.7611
 7814SOL    HW234905   4.571   3.605  14.877 -0.1097 -1.6109 -3.1165
 7815SOL     OW34906   3.114   3.300   7.240 -0.5542  0.4116 -0.3518
 7815SOL    HW134907   3.191   3.346   7.272 -0.3787 -1.7116  2.2796
 7815SOL    HW234908   3.080   3.279   7.327 -0.1740  1.5116  0.0617
 7816SOL     OW34909   2.119   3.928   6.789  0.3034  0.1590  0.2080
 7816SOL    HW134910   2.212   3.921   6.769  0.4043  0.6077  0.5132
 7816SOL    HW234911   2.124   3.928   6.885  0.2010  1.5498  0.2107
 7817SOL     OW34912   4.368   4.194  12.397  0.0191 -0.3380  0.1533
 7817SOL    HW134913   4.454   4.183  12.438  2.0251  0.3389 -3.8590
 7817SOL    HW234914   4.308   4.132  12.438 -0.8434  0.8050  0.6121
 7818SOL     OW34915   0.061   4.011   2.164 -0.7599 -0.3013 -0.3334
 7818SOL    HW134916   0.096   4.036   2.079  0.0521 -3.0031 -0.7792
 7818SOL    HW234917   0.012   3.932   2.141  0.5035 -0.7698 -1.4170
 7819SOL     OW34918   2.931   1.508   7.298  0.1583 -0.0405  0.3731
 7819SOL    HW134919   2.917   1.435   7.358 -1.4405  0.7449  0.9737
 7819SOL    HW234920   2.918   1.479   7.208  2.7248  1.2028 -0.3842
 7820SOL     OW34921   3.331   3.065  12.407  0.1228  0.1314  0.7866
 7820SOL    HW134922   3.299   3.122  12.338  1.2111 -0.7738 -0.4762
 7820SOL    HW234923   3.422   3.051  12.381  0.3185  0.6751  1.1886
 7821SOL     OW34924   1.535   2.821   3.861  0.0685  0.1861 -0.0112
 7821SOL    HW134925   1.487   2.900   3.887 -0.7090 -0.8630  1.7436
 7821SOL    HW234926   1.483   2.802   3.783  2.6046  4.5156 -2.7375
 7822SOL     OW34927   0.849   2.923  12.942 -0.1579  0.0770  0.0041
 7822SOL    HW134928   0.916   2.982  12.904 -0.9549  1.4611  0.7502
 7822SOL    HW234929   0.788   2.996  12.955  0.8327  0.8146  0.5799
 7823SOL     OW34930   1.385   4.064   7.204  0.1377  0.3690 -0.2185
 7823SOL    HW134931   1.362   3.996   7.141 -0.1971 -1.4886  1.9084
 7823SOL    HW234932   1.426   4.018   7.277 -0.1462  1.0940  0.4059
 7824SOL     OW34933   3.532   4.489   5.586 -0.4559  0.0476  0.0157
 7824SOL    HW134934   3.564   4.572   5.621 -1.1709  0.1360  0.4344
 7824SOL    HW234935   3.481   4.523   5.512  1.1105  1.1439 -0.5782
 7825SOL     OW34936   1.988   4.273   6.450 -1.0265  0.2453  0.5793
 7825SOL    HW134937   2.081   4.254   6.438 -1.0930  1.0691 -1.1239
 7825SOL    HW234938   1.984   4.335   6.523  1.8929 -0.5385  1.4209
 7826SOL     OW34939   1.097   0.186  14.651 -0.2126 -0.0505 -0.0432
 7826SOL    HW134940   1.030   0.127  14.618 -0.1416 -0.7665  1.1177
 7826SOL    HW234941   1.149   0.200  14.572  1.0160 -3.4215  0.1904
 7827SOL     OW34942   4.333   1.423   6.747 -0.0046 -0.0288  0.0147
 7827SOL    HW134943   4.291   1.463   6.823 -1.7826 -1.9135  0.0084
 7827SOL    HW234944   4.262   1.412   6.683  0.1396  1.2904 -0.3952
 7828SOL     OW34945   2.189   0.882   7.744  0.2287 -0.2471  0.3500
 7828SOL    HW134946   2.226   0.850   7.826 -1.2251 -1.2257  0.6342
 7828SOL    HW234947   2.223   0.811   7.689  2.4086  2.3343 -1.6768
 7829SOL     OW34948   0.764   1.808  14.951  0.0050 -0.1525 -0.3229
 7829SOL    HW134949   0.765   1.712  14.946  1.6189 -0.1296 -0.4149
 7829SOL    HW234950   0.695   1.833  15.012 -0.4753 -2.5931  0.1171
 7830SOL     OW34951   3.320   1.240  15.155 -1.0273  0.0457 -0.2410
 7830SOL    HW134952   3.375   1.288  15.217 -0.8121  0.1729 -0.5293
 7830SOL    HW234953   3.296   1.168  15.214 -0.0120 -0.0252  0.0813
 7831SOL     OW34954   2.859   3.742   3.712  0.2428  0.3669 -0.4835
 7831SOL    HW134955   2.857   3.657   3.757 -0.8136 -0.9592 -3.0451
 7831SOL    HW234956   2.863   3.798   3.790 -1.3154 -1.1436  0.6897
 7832SOL     OW34957   0.346   3.181  16.641  0.0333 -0.2700 -0.3975
 7832SOL    HW134958   0.418   3.241  16.624 -0.2564 -0.3127 -1.7362
 7832SOL    HW234959   0.279   3.232  16.596 -0.1371 -0.8686 -0.8308
 7833SOL     OW34960   3.788   1.549   6.888 -0.3796  0.0775  0.5293
 7833SOL    HW134961   3.859   1.573   6.947 -0.8282 -1.6663  1.7798
 7833SOL    HW234962   3.771   1.640   6.862  0.1307 -0.0879 -0.3852
 7834SOL     OW34963   3.265   2.124  10.508 -0.3872  0.0297  0.6156
 7834SOL    HW134964   3.294   2.214  10.523  0.9682  0.1607 -2.9825
 7834SOL    HW234965   3.289   2.112  10.417 -0.1481  0.2204  0.6551
 7835SOL     OW34966   0.795   3.751   5.219  0.1422  0.3189  0.0928
 7835SOL    HW134967   0.835   3.666   5.237  0.8347  0.9757  1.6626
 7835SOL    HW234968   0.787   3.759   5.124 -0.6587 -1.2871  0.0290
 7836SOL     OW34969   2.046   2.799   2.514 -0.7813  0.1319  0.3461
 7836SOL    HW134970   2.123   2.768   2.560 -2.5296 -3.4026  0.9088
 7836SOL    HW234971   2.071   2.785   2.423 -0.0631  1.0602  0.3983
 7837SOL     OW34972   2.028   0.888  17.167  0.0513 -0.3283  0.0764
 7837SOL    HW134973   2.011   0.833  17.090 -0.2156 -1.3360  0.8707
 7837SOL    HW234974   2.037   0.979  17.137  0.7328  0.4849  2.7399
 7838SOL     OW34975   2.238   1.373   5.682  0.4469 -0.4508 -0.5040
 7838SOL    HW134976   2.302   1.354   5.614 -0.1554 -1.2604 -0.8527
 7838SOL    HW234977   2.197   1.288   5.701  0.6788 -0.3393  0.5126
 7839SOL     OW34978   0.613   0.978   5.203  0.2952  0.3009 -0.7058
 7839SOL    HW134979   0.579   0.900   5.248  3.1790 -0.4578  0.1349
 7839SOL    HW234980   0.530   1.019   5.178 -0.9588  0.7323  4.1198
 7840SOL     OW34981   0.617   0.751   2.479  0.2108  0.6990  0.0692
 7840SOL    HW134982   0.574   0.731   2.396  0.2641 -0.6619  0.3723
 7840SOL    HW234983   0.654   0.839   2.466 -1.2026  1.5021  1.4831
 7841SOL     OW34984   2.082   1.256  13.856  0.5969 -0.4525  0.6932
 7841SOL    HW134985   2.095   1.280  13.948  2.4851 -2.9591  1.0841
 7841SOL    HW234986   2.154   1.305  13.817 -0.5428  1.0611  0.4849
 7842SOL     OW34987   3.150   0.261   2.871 -0.3317  0.1402 -0.1563
 7842SOL    HW134988   3.146   0.332   2.935 -2.4901  0.1861 -0.3358
 7842SOL    HW234989   3.080   0.202   2.901 -0.9487  1.7555  1.5694
 7843SOL     OW34990   2.294   1.838   0.955 -0.1217 -0.1976 -0.7553
 7843SOL    HW134991   2.383   1.807   0.936  0.2292  1.9187 -2.5866
 7843SOL    HW234992   2.259   1.750   0.943 -0.9486  0.3446 -2.2133
 7844SOL     OW34993   2.108   3.967   2.826  0.5897 -0.2390 -0.2212
 7844SOL    HW134994   2.138   3.899   2.766 -0.0534 -1.1044  0.4392
 7844SOL    HW234995   2.184   4.011   2.863  1.5819 -2.4518  0.3519
 7845SOL     OW34996   1.559   0.237   9.183 -0.0009  0.2593 -0.2752
 7845SOL    HW134997   1.516   0.310   9.139 -0.7216 -0.5056 -0.8293
 7845SOL    HW234998   1.481   0.182   9.187  0.0326  0.3369  1.3751
 7846SOL     OW34999   0.946   3.867   3.877 -0.6498  0.0481  0.2106
 7846SOL    HW135000   0.983   3.881   3.790  0.8708  0.3975  0.9043
 7846SOL    HW235001   0.876   3.931   3.887 -1.2973 -0.3628 -1.6342
 7847SOL     OW35002   2.700   2.769   5.377 -0.1574  0.5178 -0.2927
 7847SOL    HW135003   2.779   2.769   5.431  0.1999 -1.5198 -0.8366
 7847SOL    HW235004   2.684   2.675   5.377  0.1777  0.4692  2.0717
 7848SOL     OW35005   3.364   1.256  11.695 -0.0811  0.4976  0.2419
 7848SOL    HW135006   3.299   1.306  11.646 -0.1900  0.5413  0.4280
 7848SOL    HW235007   3.322   1.257  11.781  3.0600 -0.5706  1.7963
 7849SOL     OW35008   1.332   2.557   6.660 -0.1747  0.0702  0.3231
 7849SOL    HW135009   1.369   2.470   6.642 -1.0191 -0.4250  0.9668
 7849SOL    HW235010   1.244   2.555   6.621  0.2464  0.4731 -0.6459
 7850SOL     OW35011   2.814   0.627   7.164  0.7047 -0.1953 -0.2552
 7850SOL    HW135012   2.902   0.605   7.193  0.9363  2.2313  0.8526
 7850SOL    HW235013   2.787   0.568   7.093  3.0005  0.5033 -1.6826
 7851SOL     OW35014   1.163   4.616  11.601 -0.0642  0.7872 -0.1064
 7851SOL    HW135015   1.073   4.585  11.591  0.2839  0.1096 -1.1679
 7851SOL    HW235016   1.141   4.697  11.646 -3.0034 -0.4618  0.7027
 7852SOL     OW35017   4.114   4.091   1.924 -0.1297 -0.3705 -0.4894
 7852SOL    HW135018   4.169   4.055   1.993 -0.1767  0.1909 -0.1632
 7852SOL    HW235019   4.025   4.097   1.958 -0.1667  0.4338 -0.7316
 7853SOL     OW35020   1.155   0.801   2.868 -0.1956 -0.0433 -0.0662
 7853SOL    HW135021   1.237   0.802   2.818  1.2181 -1.1159  2.2509
 7853SOL    HW235022   1.087   0.773   2.807 -0.3348 -1.2476  0.6364
 7854SOL     OW35023   1.981   0.097   4.598  0.0813 -0.0993 -0.0233
 7854SOL    HW135024   1.972   0.145   4.681 -0.4952 -2.1092  1.0586
 7854SOL    HW235025   2.047   0.150   4.552 -1.9490  0.1140 -2.6747
 7855SOL     OW35026   0.031   0.448   6.982 -0.5795  0.1673 -0.0049
 7855SOL    HW135027   0.074   0.489   7.057 -2.0097 -3.0120  2.5863
 7855SOL    HW235028   0.053   0.355   6.993  0.5388  0.6395  1.7975
 7856SOL     OW35029   0.409   2.354   6.159  0.0020  0.0912  1.1011
 7856SOL    HW135030   0.500   2.386   6.156 -0.4456  1.1130 -0.9918
 7856SOL    HW235031   0.396   2.363   6.065 -0.0734 -1.2580  0.9912
 7857SOL     OW35032   0.370   0.484  15.379 -0.2401  0.3037 -0.6138
 7857SOL    HW135033   0.362   0.474  15.284 -0.6199  0.3136 -0.5827
 7857SOL    HW235034   0.451   0.441  15.406 -0.2102  0.9106  0.2457
 7858SOL     OW35035   0.786   4.574  14.388  0.8026 -0.2735  0.4727
 7858SOL    HW135036   0.719   4.628  14.429 -1.2323 -1.0675 -1.8551
 7858SOL    HW235037   0.723   4.517  14.344 -0.8779  1.1804  1.0235
 7859SOL     OW35038   2.004   1.024  12.399  0.6247  0.1303  0.2370
 7859SOL    HW135039   2.050   1.038  12.316 -0.2275  2.5341  0.1697
 7859SOL    HW235040   1.936   0.961  12.378  1.6584 -0.6610 -0.7399
 7860SOL     OW35041   1.223   4.659   4.231 -0.1143  0.0976 -0.1299
 7860SOL    HW135042   1.264   4.714   4.299 -0.3018 -0.1050  0.1485
 7860SOL    HW235043   1.291   4.599   4.202 -0.9314 -1.5985  1.4696
 7861SOL     OW35044   4.118   0.377   8.044  0.5110  0.3000  0.3635
 7861SOL    HW135045   4.186   0.437   8.075  1.4016 -1.3996  1.6552
 7861SOL    HW235046   4.062   0.374   8.121 -2.5082  0.5174 -1.8217
 7862SOL     OW35047   0.838   3.226   6.738 -0.0899 -0.0456 -0.0158
 7862SOL    HW135048   0.800   3.157   6.684 -0.6082  1.9467 -2.1676
 7862SOL    HW235049   0.767   3.290   6.736 -1.6970 -1.8437 -0.3883
 7863SOL     OW35050   3.856   4.256   9.525  0.3192  0.2466  0.3371
 7863SOL    HW135051   3.920   4.209   9.578 -1.7429 -0.3130  2.2999
 7863SOL    HW235052   3.913   4.325   9.490  1.0241 -1.2848 -1.4968
 7864SOL     OW35053   1.770   3.541  14.643  0.8502  0.2969 -0.3404
 7864SOL    HW135054   1.702   3.476  14.627  1.9703 -1.3644  1.6194
 7864SOL    HW235055   1.803   3.508  14.727 -0.5857 -1.0035 -0.2975
 7865SOL     OW35056   3.331   3.619   7.557 -0.1945 -0.4859  0.5801
 7865SOL    HW135057   3.406   3.611   7.615 -0.1695  1.1625  0.7666
 7865SOL    HW235058   3.269   3.677   7.602 -2.6064 -3.3728  1.0218
 7866SOL     OW35059   2.042   0.573   2.996 -0.0909  0.0730  0.0918
 7866SOL    HW135060   2.016   0.585   3.087  0.6697 -1.1685  0.4767
 7866SOL    HW235061   2.015   0.482   2.981 -0.4564  0.3221 -0.7524
 7867SOL     OW35062   2.004   2.459   6.558  0.8817  0.4913  0.1788
 7867SOL    HW135063   1.971   2.395   6.494 -0.9871  1.1889  0.4334
 7867SOL    HW235064   2.098   2.453   6.542  0.5233 -0.6297 -1.5369
 7868SOL     OW35065   0.675   0.689  15.942  0.5953 -0.2748 -0.0454
 7868SOL    HW135066   0.747   0.718  15.999 -0.5930 -0.0527  1.3294
 7868SOL    HW235067   0.603   0.736  15.983  2.3614  2.4019 -0.0400
 7869SOL     OW35068   1.984   0.615   7.534  0.4404 -0.3468 -0.3077
 7869SOL    HW135069   2.000   0.582   7.446  0.2845  1.7449 -1.1200
 7869SOL    HW235070   2.043   0.556   7.581  2.5018 -1.0168 -3.6739
 7870SOL     OW35071   4.217   4.223   9.907  0.2017  0.7963  0.2823
 7870SOL    HW135072   4.255   4.143   9.943  0.9895  0.2889 -1.6627
 7870SOL    HW235073   4.302   4.262   9.886  0.0525  1.9468  1.8051
 7871SOL     OW35074   2.490   4.721   2.469  0.3470  0.0733 -0.0451
 7871SOL    HW135075   2.582   4.695   2.467 -0.0233 -1.2833  0.9065
 7871SOL    HW235076   2.458   4.682   2.387 -0.3449 -1.2043  0.8402
 7872SOL     OW35077   4.167   3.634  13.204 -0.0112  0.0254 -0.4058
 7872SOL    HW135078   4.073   3.614  13.198  0.0238 -0.0505 -0.6698
 7872SOL    HW235079   4.205   3.577  13.138  1.1897  1.3603 -0.8595
 7873SOL     OW35080   2.123   4.409   3.979  0.1895 -0.0563 -0.5711
 7873SOL    HW135081   2.164   4.491   4.008 -1.2709  0.9150 -1.2272
 7873SOL    HW235082   2.097   4.364   4.059  1.7053  1.0751  0.5604
 7874SOL     OW35083   1.546   1.224   2.351  0.7460  0.5307  0.8437
 7874SOL    HW135084   1.608   1.151   2.352  2.2976  1.8315  1.1640
 7874SOL    HW235085   1.482   1.186   2.411 -0.1737  0.6248 -0.0890
 7875SOL     OW35086   2.457   3.058   3.207 -0.3245  0.0900  0.0926
 7875SOL    HW135087   2.548   3.030   3.199  0.2203  2.4256 -1.8034
 7875SOL    HW235088   2.405   2.983   3.176  0.2499 -0.1214 -0.3505
 7876SOL     OW35089   2.834   2.461  11.238 -0.2033 -0.3679  0.5495
 7876SOL    HW135090   2.806   2.547  11.268  1.3683  0.2294  0.3127
 7876SOL    HW235091   2.913   2.487  11.191 -1.6543  1.6743 -0.7664
 7877SOL     OW35092   3.112   2.115   2.430 -0.0478  0.2490 -0.5640
 7877SOL    HW135093   3.205   2.106   2.412  0.0505  1.0370 -0.4376
 7877SOL    HW235094   3.085   2.130   2.340 -0.9239 -0.1402 -0.3761
 7878SOL     OW35095   0.015   3.421   8.173  0.1329  0.3198  0.5232
 7878SOL    HW135096   0.054   3.395   8.257 -0.4038 -2.5803 -0.1404
 7878SOL    HW235097   4.654   3.375   8.185  1.2570 -1.0289  3.2149
 7879SOL     OW35098   0.164   2.400  12.651  1.0714 -0.7279  0.2493
 7879SOL    HW135099   0.259   2.410  12.652  0.9030  0.7970  0.5840
 7879SOL    HW235100   0.137   2.483  12.690  0.2253 -0.9773  0.2052
 7880SOL     OW35101   3.279   0.860  13.560 -0.2300  0.0329  0.0230
 7880SOL    HW135102   3.206   0.873  13.621  0.3680  0.7521  0.5832
 7880SOL    HW235103   3.341   0.807  13.610 -1.3570 -2.3003 -1.0665
 7881SOL     OW35104   3.764   4.085   1.789 -0.0550 -0.7916  0.4715
 7881SOL    HW135105   3.753   4.155   1.724  0.2187 -1.1823  0.0143
 7881SOL    HW235106   3.824   4.025   1.746  0.1579 -0.1194 -0.1677
 7882SOL     OW35107   2.821   4.432   9.097  0.7865 -0.2234 -0.2839
 7882SOL    HW135108   2.737   4.387   9.098  0.1514  1.0075  0.9249
 7882SOL    HW235109   2.868   4.353   9.125  1.5473 -0.1433 -1.3387
 7883SOL     OW35110   3.043   2.225   7.279  0.1384  0.5026 -0.2048
 7883SOL    HW135111   3.026   2.247   7.370  0.7940  0.4931 -0.0777
 7883SOL    HW235112   3.107   2.154   7.285 -1.6853 -1.2616 -1.6489
 7884SOL     OW35113   3.601   1.079   2.312 -0.0264 -0.4364 -0.8877
 7884SOL    HW135114   3.574   1.138   2.383 -0.8405 -0.1924 -1.3962
 7884SOL    HW235115   3.657   1.141   2.265  1.6172 -0.6276  0.8072
 7885SOL     OW35116   3.135   3.919  13.941  0.5502 -0.1614  0.4143
 7885SOL    HW135117   3.108   3.895  14.030 -1.2560 -1.0622 -0.3605
 7885SOL    HW235118   3.115   4.012  13.931 -0.4934 -0.1337  2.6789
 7886SOL     OW35119   2.622   2.167  12.753 -0.5665  0.0954  0.2034
 7886SOL    HW135120   2.607   2.166  12.848  2.8111 -0.2642  0.7555
 7886SOL    HW235121   2.717   2.157  12.756 -0.7289 -1.6843 -0.4396
 7887SOL     OW35122   2.063   0.364   2.556 -0.1150  0.1253 -0.2079
 7887SOL    HW135123   2.151   0.395   2.578  0.4086 -1.8829  0.5493
 7887SOL    HW235124   2.092   0.313   2.480  0.5860  1.5794 -0.9269
 7888SOL     OW35125   4.320   0.452  16.511  0.2077  0.1999  0.2911
 7888SOL    HW135126   4.358   0.431  16.426  0.3899 -0.1770  0.4643
 7888SOL    HW235127   4.322   0.367  16.555  0.8784 -0.4163 -0.9581
 7889SOL     OW35128   0.861   1.634   4.843 -0.1468  0.2704 -0.6509
 7889SOL    HW135129   0.858   1.544   4.875 -2.5215  0.3814 -0.5119
 7889SOL    HW235130   0.866   1.621   4.748  0.8887  1.5888 -0.7823
 7890SOL     OW35131   3.355   2.291   5.671  0.1472 -0.7885  0.9520
 7890SOL    HW135132   3.409   2.313   5.747  2.0531 -0.5404 -0.4562
 7890SOL    HW235133   3.388   2.203   5.652  2.8271  0.4159 -0.0276
 7891SOL     OW35134   3.524   3.286   5.993 -0.4651 -0.3534  0.1385
 7891SOL    HW135135   3.511   3.380   5.978 -0.6550 -0.5761 -1.0602
 7891SOL    HW235136   3.612   3.285   5.954 -0.4218  2.2725  0.1666
 7892SOL     OW35137   3.522   3.312   3.628 -0.1912 -0.1937 -0.6643
 7892SOL    HW135138   3.451   3.333   3.568 -3.0791 -0.0404  2.8261
 7892SOL    HW235139   3.597   3.332   3.572 -0.3852 -0.8499 -1.1584
 7893SOL     OW35140   3.519   4.401  15.858 -0.6312 -0.1915  0.0660
 7893SOL    HW135141   3.438   4.358  15.882 -1.6264  2.0589  0.7796
 7893SOL    HW235142   3.538   4.451  15.938  0.9870  1.6987 -1.4769
 7894SOL     OW35143   3.579   2.135  13.056 -0.5079  0.3330 -0.0767
 7894SOL    HW135144   3.490   2.122  13.022 -1.3736  0.1606  2.2480
 7894SOL    HW235145   3.568   2.154  13.149 -0.8974  0.7631 -0.2112
 7895SOL     OW35146   4.093   2.285   5.164 -0.0136 -0.0517 -0.3031
 7895SOL    HW135147   4.039   2.293   5.243  0.4415 -0.5278  0.0537
 7895SOL    HW235148   4.048   2.356   5.119 -0.2104  0.4367  0.6495
 7896SOL     OW35149   3.718   1.174   9.116 -0.0784  0.1028 -0.8369
 7896SOL    HW135150   3.708   1.098   9.174 -0.6997  1.5747  0.9622
 7896SOL    HW235151   3.813   1.185   9.111  0.2943 -2.2747  0.7209
 7897SOL     OW35152   3.432   2.962   3.366  0.3756  0.4220  0.4670
 7897SOL    HW135153   3.525   2.970   3.346  0.3257 -2.7858 -0.9936
 7897SOL    HW235154   3.433   2.867   3.378  0.6350  0.3485 -0.1344
 7898SOL     OW35155   1.130   3.169  14.038 -0.5134 -0.2387  0.1336
 7898SOL    HW135156   1.209   3.129  14.073 -0.1204  0.5342  0.1306
 7898SOL    HW235157   1.147   3.263  14.046 -1.0210 -0.4870  3.7221
 7899SOL     OW35158   4.102   0.867   8.784  0.3245  0.0788 -0.1887
 7899SOL    HW135159   4.052   0.948   8.776  0.1799  0.1710  1.5598
 7899SOL    HW235160   4.148   0.850   8.702  2.4034 -0.3617  1.0676
 7900SOL     OW35161   0.796   2.086   4.410 -0.2777 -0.3441  0.0518
 7900SOL    HW135162   0.775   2.122   4.324  0.5478  0.1931  0.0796
 7900SOL    HW235163   0.863   2.146   4.442 -0.7355  1.5390 -2.6305
 7901SOL     OW35164   1.895   3.950   3.271  0.4546  0.4443  0.4573
 7901SOL    HW135165   1.944   3.921   3.194  1.1311  0.1260  1.0052
 7901SOL    HW235166   1.812   3.903   3.269 -0.4714  2.1597 -0.9785
 7902SOL     OW35167   3.387   1.074   5.188 -0.3579  0.3715  0.1983
 7902SOL    HW135168   3.398   1.129   5.111 -1.7285 -1.4201 -1.2667
 7902SOL    HW235169   3.472   1.091   5.229 -0.4128 -0.6572  0.7476
 7903SOL     OW35170   1.795   4.688   6.004  0.1549  0.1001  0.1240
 7903SOL    HW135171   1.771   0.034   6.067 -1.3128 -0.1367 -0.1835
 7903SOL    HW235172   1.867   4.657   6.059 -1.0857  0.7666  2.1236
 7904SOL     OW35173   1.843   2.153  17.390 -0.0303 -0.2729  0.5603
 7904SOL    HW135174   1.885   2.235  17.365  0.3401 -0.8694 -0.7399
 7904SOL    HW235175   1.863   2.102  17.312 -1.3195 -0.6467  0.4774
 7905SOL     OW35176   4.549   3.934   5.358  0.0706  0.1677  0.1311
 7905SOL    HW135177   4.548   3.904   5.267 -0.5961 -0.8104  0.4663
 7905SOL    HW235178   4.642   3.952   5.372 -0.2641  3.6040 -1.8487
 7906SOL     OW35179   2.321   4.410  12.948 -0.0434  0.3771 -0.4834
 7906SOL    HW135180   2.371   4.330  12.966 -1.4489  0.2352  2.7904
 7906SOL    HW235181   2.376   4.477  12.989 -1.5548  0.4511  1.4452
 7907SOL     OW35182   1.750   1.964   8.688 -0.3539 -0.0297 -0.1492
 7907SOL    HW135183   1.790   1.954   8.774  2.0905 -0.3793 -1.3196
 7907SOL    HW235184   1.753   2.060   8.685 -0.1617 -0.0479 -0.7164
 7908SOL     OW35185   0.979   4.263   0.125 -0.0378 -1.1903  0.3287
 7908SOL    HW135186   1.022   4.348   0.122  1.0261 -1.7673 -0.8510
 7908SOL    HW235187   0.893   4.279   0.086  0.9607  1.2595 -0.8811
 7909SOL     OW35188   2.282   3.461   7.009  0.0316 -0.0338 -0.5873
 7909SOL    HW135189   2.198   3.506   7.010 -0.6899 -1.3087 -3.6013
 7909SOL    HW235190   2.293   3.445   7.102  0.3688 -0.9400 -0.7829
 7910SOL     OW35191   3.337   1.985  12.015 -0.3102  0.1806  0.1684
 7910SOL    HW135192   3.368   1.904  11.975 -1.1329  0.3838 -0.8972
 7910SOL    HW235193   3.328   1.953  12.104  0.6637 -0.1098  0.1616
 7911SOL     OW35194   4.543   1.042   7.618  1.0780  0.5431  0.4178
 7911SOL    HW135195   4.498   1.020   7.699  1.5687  1.1829  0.8678
 7911SOL    HW235196   4.557   0.954   7.583  0.1456  0.1426  1.0672
 7912SOL     OW35197   2.160   2.490   4.402  0.3151 -0.3344  0.7918
 7912SOL    HW135198   2.243   2.519   4.439  1.9371 -1.8336 -1.7215
 7912SOL    HW235199   2.192   2.401   4.388 -3.1488 -1.8124  2.1610
 7913SOL     OW35200   1.246   1.877   5.472  0.5572 -0.2583  0.0932
 7913SOL    HW135201   1.184   1.824   5.422  0.5793 -1.8733  1.7718
 7913SOL    HW235202   1.318   1.845   5.417  1.2135  1.5146 -0.0809
 7914SOL     OW35203   0.945   2.285   7.911  0.1376 -0.4328  0.6626
 7914SOL    HW135204   0.916   2.227   7.981 -0.6606  0.0938  0.7750
 7914SOL    HW235205   0.887   2.250   7.844 -0.1621  1.7051 -0.2028
 7915SOL     OW35206   1.161   0.500   5.953  0.0928  0.4360  0.2997
 7915SOL    HW135207   1.215   0.480   5.877  2.2284  1.3263  1.5776
 7915SOL    HW235208   1.235   0.491   6.013 -1.6492 -0.7650  2.2838
 7916SOL     OW35209   4.352   1.807   5.038  0.0280  0.1085  0.6559
 7916SOL    HW135210   4.297   1.735   5.007  2.7261 -1.1075 -1.3056
 7916SOL    HW235211   4.320   1.819   5.127 -1.8315  5.3945 -0.7316
 7917SOL     OW35212   4.509   4.457   6.236 -0.1181  0.0199  0.1404
 7917SOL    HW135213   4.579   4.435   6.174 -0.2145  0.7386 -0.2286
 7917SOL    HW235214   4.482   4.544   6.208  2.3265  2.0170  3.9756
 7918SOL     OW35215   0.416   0.538  11.924 -0.0350 -0.0026 -0.4109
 7918SOL    HW135216   0.481   0.480  11.884  0.7302  0.7136 -0.2189
 7918SOL    HW235217   0.427   0.627  11.889 -0.0601  1.0353  2.2020
 7919SOL     OW35218   0.655   3.260  11.264  0.6025  0.0395  0.0986
 7919SOL    HW135219   0.747   3.272  11.288  0.6203  1.5094 -0.6774
 7919SOL    HW235220   0.649   3.317  11.188 -2.4886 -0.2976  0.1089
 7920SOL     OW35221   2.995   0.800   7.708 -0.1195 -0.0809 -0.2386
 7920SOL    HW135222   2.955   0.741   7.772  1.9512 -0.0548  1.0938
 7920SOL    HW235223   3.087   0.790   7.731 -0.1581  0.2192  0.0478
 7921SOL     OW35224   4.144   2.370   8.926 -0.3109 -0.1096  0.6013
 7921SOL    HW135225   4.148   2.283   8.887  0.2261  0.1473  0.0842
 7921SOL    HW235226   4.237   2.388   8.910 -0.9593  2.1396 -0.6398
 7922SOL     OW35227   3.006   0.788   0.942  0.2429 -0.1035 -0.0364
 7922SOL    HW135228   3.039   0.877   0.937  0.0161 -0.0737 -0.9095
 7922SOL    HW235229   3.045   0.759   1.025 -1.5656 -1.8853  0.2064
 7923SOL     OW35230   0.583   4.025  12.610 -0.3520  0.2562 -0.2256
 7923SOL    HW135231   0.547   4.075  12.537  2.1821  0.2138 -1.5147
 7923SOL    HW235232   0.638   3.965  12.560  0.9258 -0.2227  1.7516
 7924SOL     OW35233   3.327   1.952   9.559 -0.0324 -0.1909  0.6206
 7924SOL    HW135234   3.326   2.036   9.604  0.1739  0.3584 -0.3829
 7924SOL    HW235235   3.320   1.900   9.639  0.6760  0.3146  1.0122
 7925SOL     OW35236   4.416   1.772  11.606 -0.0342  0.8742  1.1358
 7925SOL    HW135237   4.332   1.745  11.643 -1.1119 -0.0679 -2.0026
 7925SOL    HW235238   4.468   1.693  11.615 -2.0207 -0.5216  0.4226
 7926SOL     OW35239   0.658   4.474   4.762  0.1646 -0.1711  0.1771
 7926SOL    HW135240   0.615   4.527   4.695  0.4427  0.5757  0.6006
 7926SOL    HW235241   0.709   4.416   4.705  0.6609 -0.8532  1.3055
 7927SOL     OW35242   4.270   4.407   5.182 -0.1200  0.0886  0.4155
 7927SOL    HW135243   4.357   4.389   5.148  0.8680  4.1697  0.7589
 7927SOL    HW235244   4.243   4.319   5.208 -2.8446  0.8064  0.0747
 7928SOL     OW35245   0.904   1.042   3.655  0.0563 -0.5761  0.9710
 7928SOL    HW135246   0.885   1.012   3.566  1.8597 -0.8183  0.6772
 7928SOL    HW235247   0.988   1.000   3.672  1.3658  1.3613 -0.7769
 7929SOL     OW35248   4.167   4.323  10.649  0.1435 -0.3715 -0.1531
 7929SOL    HW135249   4.173   4.291  10.559 -0.4809 -0.7766 -0.0533
 7929SOL    HW235250   4.176   4.238  10.692  0.4130 -0.4096 -0.2872
 7930SOL     OW35251   3.406   1.991   4.301  0.3372 -0.0343 -0.4559
 7930SOL    HW135252   3.499   2.011   4.294  0.1674  1.2925  0.9814
 7930SOL    HW235253   3.412   1.902   4.335  0.8758  0.5303  0.9113
 7931SOL     OW35254   2.560   3.067   1.695 -0.1265 -0.1848  0.7833
 7931SOL    HW135255   2.578   2.976   1.716 -2.1598 -0.7581  0.0889
 7931SOL    HW235256   2.614   3.067   1.616  0.6066 -0.3671  1.2876
 7932SOL     OW35257   1.663   0.063  11.130  0.0518 -0.1850 -0.5365
 7932SOL    HW135258   1.581   0.042  11.176  0.9638  3.2396  2.7022
 7932SOL    HW235259   1.694   4.696  11.116  2.9175  0.8518 -0.8135
 7933SOL     OW35260   1.279   1.086   3.907 -0.0087 -0.6636  0.6843
 7933SOL    HW135261   1.192   1.080   3.867  0.9566  0.0160 -1.5659
 7933SOL    HW235262   1.277   1.181   3.921 -1.9031 -0.5193 -0.4941
 7934SOL     OW35263   3.208   1.299   4.096  0.0750  0.1622 -0.4143
 7934SOL    HW135264   3.137   1.363   4.087  0.7889  1.1812  1.4120
 7934SOL    HW235265   3.166   1.216   4.073  0.5760 -0.1779 -0.0962
 7935SOL     OW35266   1.330   0.164   4.673 -0.3927 -0.2167  0.0486
 7935SOL    HW135267   1.414   0.154   4.719 -0.6301 -0.6611  0.3800
 7935SOL    HW235268   1.279   0.101   4.723  1.0929 -1.3082  0.2090
 7936SOL     OW35269   0.054   3.981   7.644  0.5152  0.2003  0.0824
 7936SOL    HW135270   0.012   3.981   7.558 -0.3668 -0.0678  0.5097
 7936SOL    HW235271   4.720   3.921   7.693 -0.0239  0.7532  0.1457
 7937SOL     OW35272   3.755   1.445   4.770 -0.0771 -0.1794 -0.2567
 7937SOL    HW135273   3.826   1.452   4.834  1.3758  3.8972 -2.2803
 7937SOL    HW235274   3.697   1.397   4.828  0.4189  2.0771  2.0859
 7938SOL     OW35275   0.419   1.710  15.006 -0.2268 -0.2297  0.1492
 7938SOL    HW135276   0.482   1.766  15.052 -0.6229  1.6809 -1.6230
 7938SOL    HW235277   0.459   1.720  14.920 -0.4758 -1.1123 -0.0712
 7939SOL     OW35278   2.111   4.046   4.488  0.1755 -0.3738 -0.4738
 7939SOL    HW135279   2.039   4.099   4.522 -1.0442  0.2262 -3.9493
 7939SOL    HW235280   2.087   3.962   4.527 -1.1958  0.9743  1.5895
 7940SOL     OW35281   3.334   1.603   2.829  0.0392  0.2419  0.1563
 7940SOL    HW135282   3.417   1.578   2.870  0.4397  0.7370 -0.3447
 7940SOL    HW235283   3.322   1.698   2.838  0.4728  0.3426 -0.3399
 7941SOL     OW35284   4.516   4.498   9.468 -0.1629  0.8104 -0.3227
 7941SOL    HW135285   4.462   4.573   9.493  0.8735  1.6572 -0.6128
 7941SOL    HW235286   4.552   4.531   9.386  1.5192 -0.7437 -0.2182
 7942SOL     OW35287   3.951   3.102   5.446 -0.1043 -0.1975 -0.5087
 7942SOL    HW135288   4.035   3.104   5.401 -0.3207  2.2746 -0.8190
 7942SOL    HW235289   3.896   3.117   5.369  0.0228 -0.2680 -0.6113
 7943SOL     OW35290   0.042   1.882   3.018  0.6367 -0.2633  0.8840
 7943SOL    HW135291   0.046   1.973   2.988 -1.8807 -0.2530  0.5820
 7943SOL    HW235292   0.065   1.885   3.111  0.0726  1.7866  0.9592
 7944SOL     OW35293   1.260   2.824  17.564  0.2533  0.4169 -0.0357
 7944SOL    HW135294   1.320   2.797  17.495  0.4847  1.4066 -0.2260
 7944SOL    HW235295   1.214   2.745  17.593  2.9463 -0.7075  1.1747
 7945SOL     OW35296   2.220   3.061  17.321  0.2461  0.0903  0.6302
 7945SOL    HW135297   2.245   2.971  17.298  1.7688  0.2914  1.5391
 7945SOL    HW235298   2.277   3.092  17.391  0.4818  1.1135 -0.0191
 7946SOL     OW35299   3.056   4.068  14.630 -0.1032 -0.1052 -0.4132
 7946SOL    HW135300   3.087   4.113  14.709  1.1559  0.7976 -1.4202
 7946SOL    HW235301   2.967   4.105  14.634 -0.1384 -0.2074 -0.2103
 7947SOL     OW35302   0.482   3.368  16.468 -0.5185  0.4961  0.7477
 7947SOL    HW135303   0.388   3.385  16.473 -0.2867  1.8569  0.2958
 7947SOL    HW235304   0.478   3.316  16.387 -1.1516 -0.9504  1.6939
 7948SOL     OW35305   0.838   2.769   3.117  0.5142 -0.0632  0.1215
 7948SOL    HW135306   0.929   2.792   3.098  0.4580  0.1773  0.1435
 7948SOL    HW235307   0.805   2.859   3.113  2.0923  0.5494  0.5290
 7949SOL     OW35308   0.265   0.329   9.160 -0.5420  0.0565 -0.4156
 7949SOL    HW135309   0.288   0.414   9.122  0.6233 -0.3403 -0.5877
 7949SOL    HW235310   0.255   0.351   9.252  1.4126 -1.7989  0.2355
 7950SOL     OW35311   2.434   2.837   4.151  0.3241  0.3411 -0.4019
 7950SOL    HW135312   2.439   2.870   4.061 -3.1665 -0.8579 -1.0397
 7950SOL    HW235313   2.363   2.890   4.187 -1.6621 -1.9476 -0.9631
 7951SOL     OW35314   1.956   1.676   7.119 -0.0395  0.4172  0.1437
 7951SOL    HW135315   2.041   1.631   7.118 -0.8602 -1.2105  3.9065
 7951SOL    HW235316   1.972   1.771   7.122  0.5823  0.3038  0.5702
 7952SOL     OW35317   3.925   0.681   6.845 -0.0182  0.3796 -0.0026
 7952SOL    HW135318   3.963   0.723   6.768  2.2509 -0.3114  0.7572
 7952SOL    HW235319   3.998   0.670   6.905  2.9404  1.7921 -3.3412
 7953SOL     OW35320   1.072   3.747   2.858 -0.9403  0.3782 -0.1768
 7953SOL    HW135321   1.036   3.830   2.890  0.6976  0.5403  1.2291
 7953SOL    HW235322   1.044   3.693   2.933 -1.0264 -0.2963 -0.6998
 7954SOL     OW35323   3.413   2.712   4.071  0.3484  0.3130  0.5189
 7954SOL    HW135324   3.476   2.721   3.999 -0.4671  1.5130 -0.0472
 7954SOL    HW235325   3.473   2.722   4.145  1.7220 -2.4552 -0.2075
 7955SOL     OW35326   4.687   1.361  11.985  0.3794  0.7883 -0.5006
 7955SOL    HW135327   4.652   1.291  11.930 -0.2625 -0.5401  1.5588
 7955SOL    HW235328   0.027   1.300  12.024 -0.3963 -0.5897 -1.4342
 7956SOL     OW35329   4.406   1.525   6.401 -0.1078 -0.2705  0.3567
 7956SOL    HW135330   4.394   1.439   6.442  1.5373  1.0278  3.5677
 7956SOL    HW235331   4.488   1.517   6.351 -0.3466 -0.1417 -0.0563
 7957SOL     OW35332   1.557   2.118  14.466  0.8353  0.3247  0.5126
 7957SOL    HW135333   1.523   2.123  14.555  4.1492  0.6518  1.7733
 7957SOL    HW235334   1.578   2.024  14.463 -2.3704 -0.3161 -1.3611
 7958SOL     OW35335   3.670   4.498   1.188  0.1546 -0.0777  0.1002
 7958SOL    HW135336   3.603   4.567   1.184 -1.0437 -1.3384 -1.3226
 7958SOL    HW235337   3.614   4.421   1.190 -0.8172  0.6309  0.6954
 7959SOL     OW35338   0.169   3.218  15.524  0.7856 -0.5822 -0.1148
 7959SOL    HW135339   0.157   3.201  15.618 -0.3426 -1.8080 -0.4822
 7959SOL    HW235340   0.161   3.132  15.482  0.0209 -0.0897 -0.9485
 7960SOL     OW35341   3.905   2.352   5.371 -0.1580  0.3673 -0.2842
 7960SOL    HW135342   3.822   2.328   5.414  0.3677  0.7982  0.9621
 7960SOL    HW235343   3.875   2.370   5.282 -1.7317 -1.5863 -0.1727
 7961SOL     OW35344   1.476   3.364   5.422 -0.0843 -0.0522 -0.5319
 7961SOL    HW135345   1.535   3.289   5.417  1.5384  1.0694  1.8848
 7961SOL    HW235346   1.528   3.422   5.479  0.7047 -1.1438 -0.1451
 7962SOL     OW35347   0.853   4.012   5.080 -0.1838  0.1545 -0.3097
 7962SOL    HW135348   0.868   3.999   4.986  0.4683  0.0963 -0.2034
 7962SOL    HW235349   0.937   4.047   5.110 -2.0494  1.7804  2.9385
 7963SOL     OW35350   2.233   2.535   1.248  0.5153 -0.1579 -0.0294
 7963SOL    HW135351   2.151   2.494   1.276  1.5683  0.3299  3.7395
 7963SOL    HW235352   2.293   2.467   1.219 -0.0513 -1.6184  2.2790
 7964SOL     OW35353   4.211   1.701   7.664 -0.7060  0.0979  0.2319
 7964SOL    HW135354   4.120   1.671   7.670 -0.2630 -1.0661  1.2294
 7964SOL    HW235355   4.264   1.622   7.659 -0.7241  0.1197 -0.2984
 7965SOL     OW35356   2.386   1.178   6.654 -0.3518  0.0525  0.0586
 7965SOL    HW135357   2.338   1.210   6.577 -1.2985 -1.8619 -0.1286
 7965SOL    HW235358   2.453   1.245   6.670 -0.4554  0.2383 -0.2674
 7966SOL     OW35359   4.373   2.232   9.073  0.1619 -0.1429  0.6577
 7966SOL    HW135360   4.301   2.172   9.052  1.3290 -0.7429 -1.6819
 7966SOL    HW235361   4.351   2.259   9.162  1.1111  0.2371  0.7707
 7967SOL     OW35362   1.707   2.921   5.711  0.1506  0.0190 -0.2022
 7967SOL    HW135363   1.795   2.932   5.676 -0.0984  0.0326 -0.8145
 7967SOL    HW235364   1.678   2.833   5.688  2.3192 -0.9844  0.8743
 7968SOL     OW35365   3.827   0.502  12.580  0.3899  0.2144 -0.0997
 7968SOL    HW135366   3.861   0.484  12.492  0.7343 -1.2981  0.3452
 7968SOL    HW235367   3.733   0.495  12.565  0.6408  0.1311 -1.6969
 7969SOL     OW35368   2.631   2.923   1.296 -0.6334 -0.0463 -0.3691
 7969SOL    HW135369   2.659   2.876   1.218  1.1590  1.2767 -0.5235
 7969SOL    HW235370   2.562   2.866   1.330 -0.9085  0.3349 -0.2844
 7970SOL     OW35371   0.850   3.675   8.148 -0.0569 -0.0864  0.0618
 7970SOL    HW135372   0.834   3.602   8.208 -2.6136 -0.6891 -1.3299
 7970SOL    HW235373   0.848   3.751   8.206  0.5995 -0.8567  1.0931
 7971SOL     OW35374   1.692   2.010   6.233  0.3574  0.5358 -0.0395
 7971SOL    HW135375   1.672   1.935   6.176 -0.3579 -0.4685  1.5326
 7971SOL    HW235376   1.786   2.004   6.248 -0.0526  1.3232  2.9112
 7972SOL     OW35377   1.616   0.197   3.059 -0.1255 -0.0120  0.4584
 7972SOL    HW135378   1.524   0.173   3.071 -0.9116  2.0998 -1.2682
 7972SOL    HW235379   1.616   0.248   2.978 -2.6097 -0.5174  0.1426
 7973SOL     OW35380   3.953   3.170   6.402 -0.1426  0.2463  0.1151
 7973SOL    HW135381   3.932   3.083   6.368  1.5382  0.3276 -1.1112
 7973SOL    HW235382   3.886   3.221   6.357  0.6379  1.3971  0.2678
 7974SOL     OW35383   1.521   3.852  13.165  0.0688  0.4041  0.2723
 7974SOL    HW135384   1.499   3.944  13.149  0.6313  0.2915 -1.0778
 7974SOL    HW235385   1.616   3.845  13.176 -0.2997 -2.7706  1.5906
 7975SOL     OW35386   3.296   2.903  13.284  0.0845 -0.1182  0.5708
 7975SOL    HW135387   3.225   2.890  13.221 -0.4050  2.9541  0.4866
 7975SOL    HW235388   3.349   2.824  13.277 -0.2057 -0.2207 -0.4579
 7976SOL     OW35389   0.993   0.281  11.560 -0.0702 -0.1883  0.4822
 7976SOL    HW135390   1.002   0.241  11.646 -0.2429 -1.1838  0.0370
 7976SOL    HW235391   0.998   0.202  11.506  0.2055  0.9529 -1.1414
 7977SOL     OW35392   0.212   4.527   3.803 -0.0571  0.4432 -0.2010
 7977SOL    HW135393   0.235   4.616   3.832  1.0589 -0.3852  1.4770
 7977SOL    HW235394   0.119   4.533   3.826 -0.0412  0.3030 -0.0982
 7978SOL     OW35395   1.266   2.588   9.023 -0.4565 -0.2695  0.0023
 7978SOL    HW135396   1.360   2.599   9.032 -0.9425  1.9482  2.3932
 7978SOL    HW235397   1.242   2.649   9.093  1.0665  0.9722 -0.5695
 7979SOL     OW35398   1.840   4.355   1.088  0.0060 -0.1710 -0.0883
 7979SOL    HW135399   1.879   4.359   1.176  0.0466 -0.9993 -0.0693
 7979SOL    HW235400   1.783   4.278   1.085  1.6360 -1.4166  0.4439
 7980SOL     OW35401   3.510   1.907  14.965 -0.3807  0.1085 -0.0801
 7980SOL    HW135402   3.570   1.900  14.890  0.6125  2.5559  0.5046
 7980SOL    HW235403   3.572   1.910  15.037  2.2179  0.2498 -2.3388
 7981SOL     OW35404   3.918   1.333   3.607  0.3191 -0.3896 -0.5103
 7981SOL    HW135405   4.004   1.303   3.579  1.2859  0.6146  1.3471
 7981SOL    HW235406   3.916   1.315   3.701  1.0535 -0.2849 -0.4736
 7982SOL     OW35407   1.144   3.307   1.812  0.0229 -0.1751  0.4272
 7982SOL    HW135408   1.051   3.305   1.791  0.0513 -1.9361  0.4980
 7982SOL    HW235409   1.176   3.343   1.728  1.5959 -0.1934  1.0156
 7983SOL     OW35410   3.420   2.613   7.498  0.6261  0.2042  0.3468
 7983SOL    HW135411   3.492   2.664   7.461  1.6095 -1.5910 -0.2721
 7983SOL    HW235412   3.414   2.656   7.583  2.2684 -1.0640  1.1136
 7984SOL     OW35413   2.428   4.285   1.835 -0.0263 -0.4241 -0.4488
 7984SOL    HW135414   2.504   4.336   1.809 -0.9228 -0.7401 -3.7115
 7984SOL    HW235415   2.474   4.204   1.853  0.6732  0.1460  0.3097
 7985SOL     OW35416   4.517   3.766   2.548 -0.3433 -0.0731  0.3682
 7985SOL    HW135417   4.492   3.799   2.635  0.2470  0.0819  0.4793
 7985SOL    HW235418   4.564   3.685   2.568 -1.5220 -0.5967  1.0519
 7986SOL     OW35419   1.548   1.533  17.403 -0.5939  0.1140  0.5247
 7986SOL    HW135420   1.548   1.442  17.435 -1.2463  0.5647  1.8242
 7986SOL    HW235421   1.496   1.576  17.472 -0.9244  0.1026  0.2853
 7987SOL     OW35422   1.084   1.766   3.687 -0.3284 -0.0575 -0.3276
 7987SOL    HW135423   1.068   1.753   3.781  0.0535  1.6056 -0.0174
 7987SOL    HW235424   1.140   1.693   3.664  0.8859  1.3865 -1.8701
 7988SOL     OW35425   3.910   3.603  12.922 -0.0404 -0.6677  0.9824
 7988SOL    HW135426   3.919   3.509  12.935 -0.8484 -0.7163  1.1853
 7988SOL    HW235427   3.875   3.632  13.006  2.0755  0.8369  1.3374
 7989SOL     OW35428   2.629   4.722   4.886 -0.1764  0.3133 -0.0613
 7989SOL    HW135429   2.545   0.041   4.907 -0.4353 -0.1441 -0.1839
 7989SOL    HW235430   2.598   4.697   4.798  1.5016 -0.8342 -0.3191
 7990SOL     OW35431   0.333   3.484   7.705 -0.4567  0.5806  0.1942
 7990SOL    HW135432   0.342   3.519   7.616  0.6354  0.4330  0.2450
 7990SOL    HW235433   0.343   3.389   7.698 -0.0927  0.4066  3.3246
 7991SOL     OW35434   0.550   0.277   4.654 -0.1268  0.2981  0.7365
 7991SOL    HW135435   0.611   0.308   4.721  1.2373 -1.0622  0.1287
 7991SOL    HW235436   0.611   0.227   4.600 -0.7772 -0.5743  0.8059
 7992SOL     OW35437   1.081   0.227   5.145 -0.6549 -0.6159  0.0539
 7992SOL    HW135438   1.152   0.287   5.122 -0.1740 -1.7372 -1.4185
 7992SOL    HW235439   1.122   0.166   5.206  0.0175  0.5845  0.7803
 7993SOL     OW35440   4.220   0.786   7.492  0.2420 -0.5914 -0.1805
 7993SOL    HW135441   4.209   0.733   7.413 -0.1422 -0.3472 -0.2932
 7993SOL    HW235442   4.220   0.725   7.565 -0.0344 -0.4649 -0.0724
 7994SOL     OW35443   3.568   0.903   1.630  1.0496  0.0180 -0.8973
 7994SOL    HW135444   3.552   0.818   1.588 -1.4907 -1.9642  4.1489
 7994SOL    HW235445   3.664   0.904   1.631  1.0586  0.1597 -2.0883
 7995SOL     OW35446   0.666   3.345   3.486 -0.1289 -0.0792  0.8857
 7995SOL    HW135447   0.584   3.327   3.532 -1.7387 -0.7574 -2.2031
 7995SOL    HW235448   0.721   3.279   3.528  1.9771  2.0384  1.4039
 7996SOL     OW35449   3.565   4.673   2.259  0.1533  0.4477 -0.7261
 7996SOL    HW135450   3.642   4.719   2.226  1.8176 -1.8096 -0.0187
 7996SOL    HW235451   3.506   0.025   2.259  0.5818  0.7863 -0.6286
 7997SOL     OW35452   1.861   4.325   7.314 -0.1901 -0.1406  0.1249
 7997SOL    HW135453   1.955   4.328   7.293 -0.1886 -0.5964  0.0671
 7997SOL    HW235454   1.851   4.230   7.311 -1.5883  0.1041 -2.4915
 7998SOL     OW35455   3.077   3.209   4.650  0.2918 -0.2852  0.3535
 7998SOL    HW135456   3.032   3.282   4.692 -1.1293  0.1760 -1.9297
 7998SOL    HW235457   3.107   3.159   4.725  2.1778  1.2642  0.6269
 7999SOL     OW35458   1.475   2.462   2.794 -0.4018  0.1610 -0.1219
 7999SOL    HW135459   1.457   2.499   2.708 -2.9071 -0.7632  0.0161
 7999SOL    HW235460   1.403   2.499   2.845 -1.5398 -1.0780 -0.8272
 8000SOL     OW35461   2.324   3.316  11.044 -0.6705  0.1813 -0.2647
 8000SOL    HW135462   2.320   3.363  11.127  1.0090 -1.2352  0.6263
 8000SOL    HW235463   2.278   3.233  11.055  1.7934 -1.2192 -0.4184
 8001SOL     OW35464   2.376   1.011   2.221 -0.2330  0.1579 -0.1262
 8001SOL    HW135465   2.410   0.974   2.303  1.0199  3.4519  0.8444
 8001SOL    HW235466   2.455   1.024   2.168  0.8721  0.2961  1.5424
 8002SOL     OW35467   3.671   0.857   2.975  0.6156 -0.3738  0.0085
 8002SOL    HW135468   3.723   0.877   3.053  2.4158  0.3051 -1.3616
 8002SOL    HW235469   3.658   0.941   2.930  0.8902 -0.0455  0.5425
 8003SOL     OW35470   4.353   1.346   7.926  0.1268  0.4939  0.4013
 8003SOL    HW135471   4.265   1.352   7.962 -0.7819 -0.2262 -1.7247
 8003SOL    HW235472   4.356   1.418   7.863 -1.2904 -0.8707 -1.2197
 8004SOL     OW35473   2.793   1.169  14.873  0.3604  0.1261  0.3029
 8004SOL    HW135474   2.801   1.145  14.781 -0.9133  0.0807  0.2110
 8004SOL    HW235475   2.870   1.227  14.882  0.3501 -0.0770  1.7769
 8005SOL     OW35476   2.435   2.424   2.383  0.0395  0.3956 -0.0777
 8005SOL    HW135477   2.449   2.385   2.296 -0.2847 -0.5448  0.2971
 8005SOL    HW235478   2.345   2.454   2.386  0.0244  0.3966 -0.4585
 8006SOL     OW35479   0.277   4.498   6.142 -0.2563  0.1671  0.2049
 8006SOL    HW135480   0.334   4.424   6.165  1.0926  1.8043  2.0964
 8006SOL    HW235481   0.270   4.481   6.048 -0.3039  1.3618 -0.0026
 8007SOL     OW35482   4.402   2.924   6.036  0.4661  0.5631  0.1580
 8007SOL    HW135483   4.380   2.912   5.944  1.1969  1.3184 -0.1167
 8007SOL    HW235484   4.456   3.004   6.035  0.6125  0.4734  0.9518
 8008SOL     OW35485   2.803   1.905  15.866  0.4674 -0.2642 -0.2874
 8008SOL    HW135486   2.862   1.975  15.894 -0.6717 -0.3419  2.2881
 8008SOL    HW235487   2.857   1.827  15.879  2.1045  0.7817 -0.7502
 8009SOL     OW35488   1.424   4.263   8.132 -0.1436  0.0312 -0.0736
 8009SOL    HW135489   1.343   4.213   8.122  0.6539 -1.1913 -0.3694
 8009SOL    HW235490   1.490   4.230   8.072  0.1970 -1.5103  1.1335
 8010SOL     OW35491   1.628   0.325  14.795 -0.7048  0.5872  0.4249
 8010SOL    HW135492   1.660   0.307  14.707  1.4097  0.7779  1.1702
 8010SOL    HW235493   1.550   0.270  14.790 -0.8123  0.9184 -1.4598
 8011SOL     OW35494   1.707   1.372   7.702 -0.1339 -0.0371 -0.1802
 8011SOL    HW135495   1.700   1.293   7.647  1.1920  1.3027 -2.2809
 8011SOL    HW235496   1.655   1.435   7.651 -2.6891 -2.9966 -1.2921
 8012SOL     OW35497   3.553   2.037  10.339 -0.6130 -0.4462  0.6329
 8012SOL    HW135498   3.612   2.109  10.362 -1.1075  0.3380 -0.5157
 8012SOL    HW235499   3.485   2.089  10.295 -0.0913  0.9800  1.5101
 8013SOL     OW35500   4.003   3.824  16.748 -0.2825 -0.0923  0.0082
 8013SOL    HW135501   3.987   3.770  16.825  0.8638  0.8686  0.9332
 8013SOL    HW235502   3.919   3.870  16.739  0.0466  0.3732 -0.6700
 8014SOL     OW35503   3.473   4.460   6.227 -0.0709 -0.0257 -0.2583
 8014SOL    HW135504   3.522   4.379   6.211 -1.1754 -0.2420 -2.5762
 8014SOL    HW235505   3.454   4.441   6.319 -0.8131  0.2960 -0.3447
 8015SOL     OW35506   4.152   1.453  13.850 -0.4909 -0.8363  0.1331
 8015SOL    HW135507   4.132   1.396  13.775  0.3604 -0.4265 -0.4114
 8015SOL    HW235508   4.076   1.511  13.852  0.4721  0.4721 -1.3666
 8016SOL     OW35509   2.963   3.563  16.656  0.2030 -0.8271  0.3084
 8016SOL    HW135510   2.974   3.653  16.687  1.6920 -0.9724  0.1814
 8016SOL    HW235511   2.886   3.568  16.600  2.4438  1.0521 -2.5737
 8017SOL     OW35512   3.995   0.567   2.330 -0.4405 -0.0180  0.2177
 8017SOL    HW135513   4.018   0.605   2.414  2.9668  0.1007 -0.7659
 8017SOL    HW235514   4.025   0.477   2.346 -1.1853 -0.6575 -1.8400
 8018SOL     OW35515   0.781   4.154   3.123  0.8129 -0.2012 -0.2713
 8018SOL    HW135516   0.716   4.193   3.064  2.3410  1.2988 -0.9637
 8018SOL    HW235517   0.800   4.215   3.194  0.5573  0.0695 -0.4355
 8019SOL     OW35518   3.271   1.670   1.573  0.0967 -0.8821 -0.3687
 8019SOL    HW135519   3.253   1.717   1.654  1.1189 -0.1899 -0.5441
 8019SOL    HW235520   3.237   1.581   1.587  1.4298 -1.1726  0.9930
 8020SOL     OW35521   2.368   2.733   8.918 -0.5589  0.2051 -0.1204
 8020SOL    HW135522   2.392   2.656   8.867  1.0817  1.7408 -1.6573
 8020SOL    HW235523   2.294   2.695   8.965  1.1220 -0.1168  2.2805
 8021SOL     OW35524   3.365   0.662   4.067  0.6766  0.0908  0.0381
 8021SOL    HW135525   3.434   0.611   4.110 -0.0482 -0.7475  0.1990
 8021SOL    HW235526   3.290   0.604   4.076  2.7289 -2.2333  1.8483
 8022SOL     OW35527   0.422   2.946  14.488 -0.2653  0.4883 -0.0524
 8022SOL    HW135528   0.479   2.915  14.558 -0.0218  1.0298 -0.0041
 8022SOL    HW235529   0.350   2.884  14.483 -0.1184  0.3278 -0.1806
 8023SOL     OW35530   2.703   2.477   4.705  0.8035 -0.1730 -0.2732
 8023SOL    HW135531   2.743   2.438   4.782 -1.1255  0.7633  1.2002
 8023SOL    HW235532   2.712   2.403   4.645 -2.4935  0.0817 -1.0574
 8024SOL     OW35533   0.846   3.198   3.660 -0.3433 -0.2287 -0.0231
 8024SOL    HW135534   0.820   3.233   3.745 -0.2696 -3.6209  1.4160
 8024SOL    HW235535   0.940   3.216   3.664 -1.0781  2.8209  3.1037
 8025SOL     OW35536   1.272   3.200   5.770  0.1749  0.5884 -0.1818
 8025SOL    HW135537   1.272   3.292   5.795  4.3337  0.3116  0.8978
 8025SOL    HW235538   1.364   3.187   5.747 -0.3124 -3.7763  0.3298
 8026SOL     OW35539   1.838   3.206   6.318  0.3743 -0.0792  0.2330
 8026SOL    HW135540   1.817   3.299   6.313 -0.5951 -0.3270 -0.2685
 8026SOL    HW235541   1.791   3.175   6.395 -0.1969 -1.6345 -0.7473
 8027SOL     OW35542   1.113   0.512  15.044  0.1195  0.2254 -0.3975
 8027SOL    HW135543   1.028   0.469  15.033  0.8998 -1.0891 -1.3976
 8027SOL    HW235544   1.159   0.487  14.964  2.2017 -0.8874  1.1640
 8028SOL     OW35545   0.153   1.064  14.146  0.2125 -0.1025  0.4528
 8028SOL    HW135546   0.159   0.989  14.088  2.8432 -0.1091  0.7458
 8028SOL    HW235547   0.110   1.020  14.219 -0.8273  1.8974  1.0401
 8029SOL     OW35548   4.472   3.504   0.867  0.3208 -0.2208 -0.5697
 8029SOL    HW135549   4.397   3.553   0.834 -0.9057 -1.4569  0.3882
 8029SOL    HW235550   4.422   3.466   0.939  1.1592  0.5060  0.3900
 8030SOL     OW35551   3.093   0.181   7.758 -0.5973  0.3466 -0.5628
 8030SOL    HW135552   3.168   0.237   7.740 -0.5240 -0.0610 -1.5743
 8030SOL    HW235553   3.113   0.107   7.699 -2.3321 -1.9306  1.7310
 8031SOL     OW35554   3.766   2.024   3.155  0.5738 -0.0402 -0.2154
 8031SOL    HW135555   3.725   2.023   3.069 -0.1612  0.0490  0.1335
 8031SOL    HW235556   3.716   1.957   3.201  0.9878  0.0154  0.3267
 8032SOL     OW35557   0.698   4.559   0.890 -0.6236 -0.0162  0.1629
 8032SOL    HW135558   0.666   4.648   0.905 -0.9500 -0.0588 -0.2869
 8032SOL    HW235559   0.780   4.566   0.938  0.7060 -1.3698 -1.9205
 8033SOL     OW35560   4.450   3.882   2.905  0.4174  0.1910  0.1545
 8033SOL    HW135561   4.402   3.959   2.871  0.0006 -0.5884 -1.0401
 8033SOL    HW235562   4.389   3.814   2.875 -1.4044  2.0634 -0.4392
 8034SOL     OW35563   3.781   1.280   1.903 -0.0768 -0.3145  0.4110
 8034SOL    HW135564   3.822   1.363   1.879  0.9452 -0.9983 -0.2125
 8034SOL    HW235565   3.704   1.271   1.848  1.0026 -0.7215 -1.0390
 8035SOL     OW35566   2.093   2.686   0.102  0.3092  0.2067  0.0890
 8035SOL    HW135567   2.170   2.630   0.088  1.0474  0.4229  3.2644
 8035SOL    HW235568   2.103   2.751   0.033  0.3076  0.1912  0.0741
 8036SOL     OW35569   0.999   0.059  15.896  0.4025 -0.2687  0.1267
 8036SOL    HW135570   0.914   0.024  15.923  0.3419 -0.0466  0.2197
 8036SOL    HW235571   0.990   0.071  15.802  0.1733  0.3207  0.2264
 8037SOL     OW35572   0.519   0.064  17.019 -0.1521  0.0590 -0.1523
 8037SOL    HW135573   0.588   0.095  17.078 -0.1614  2.3202 -1.3038
 8037SOL    HW235574   0.476   0.148  17.003 -2.1057 -1.0448 -0.6351
 8038SOL     OW35575   3.622   2.842   4.213  0.2636 -0.6152 -0.1069
 8038SOL    HW135576   3.582   2.877   4.292 -0.9190 -0.1182 -0.9269
 8038SOL    HW235577   3.716   2.854   4.227  0.5674  0.4885 -3.1109
 8039SOL     OW35578   2.401   0.051  17.401  0.1972  0.3710  0.2530
 8039SOL    HW135579   2.441   0.053  17.314  1.7579 -1.4162  0.9215
 8039SOL    HW235580   2.468   0.096  17.452 -0.7567  1.7241  0.3366
 8040SOL     OW35581   2.216   2.489   6.203 -0.1852  0.2991 -0.3088
 8040SOL    HW135582   2.286   2.553   6.220  0.0226  0.3552 -1.3839
 8040SOL    HW235583   2.217   2.457   6.293 -0.7403  0.3953 -0.2680
 8041SOL     OW35584   2.977   1.761   8.116  0.2502 -0.1888  0.3856
 8041SOL    HW135585   2.885   1.787   8.121  0.4046  0.7929 -1.6288
 8041SOL    HW235586   2.968   1.668   8.134 -1.1693 -0.2636 -0.7673
 8042SOL     OW35587   2.256   1.436   4.594  0.1749 -0.4439  0.5339
 8042SOL    HW135588   2.339   1.391   4.579  0.1776 -0.1145 -0.4147
 8042SOL    HW235589   2.284   1.528   4.591  0.0579 -0.4374 -0.3430
 8043SOL     OW35590   3.420   1.732  15.142 -0.0488 -0.1872  0.7587
 8043SOL    HW135591   3.440   1.801  15.205 -1.5578 -0.9082  2.0128
 8043SOL    HW235592   3.446   1.769  15.058  0.3967  0.3254  1.1251
 8044SOL     OW35593   3.823   0.134  17.042  0.1997 -0.3535  0.5263
 8044SOL    HW135594   3.850   0.217  17.002 -1.5633 -0.8540 -1.6950
 8044SOL    HW235595   3.868   0.058  17.004  1.0375  0.7798 -0.7506
 8045SOL     OW35596   0.110   3.860   2.856 -0.2849 -0.1188 -0.5833
 8045SOL    HW135597   0.190   3.816   2.829  0.1589 -0.2227  0.8721
 8045SOL    HW235598   0.072   3.795   2.917  0.4867  0.6433  0.7077
 8046SOL     OW35599   1.614   4.587   9.154 -0.4495 -0.3020  0.1498
 8046SOL    HW135600   1.638   4.568   9.064 -1.2726  2.5825 -0.6960
 8046SOL    HW235601   1.575   4.503   9.177  1.1331 -0.4072  2.4425
 8047SOL     OW35602   1.339   0.215   7.078  0.3371  0.0206  0.0427
 8047SOL    HW135603   1.329   0.311   7.078  0.4087  0.0270  0.2370
 8047SOL    HW235604   1.262   0.192   7.130  0.4621  1.5430  0.8994
 8048SOL     OW35605   1.779   2.636   4.761 -0.0624  0.3500  0.2377
 8048SOL    HW135606   1.874   2.632   4.771 -0.1516 -1.2542  0.3996
 8048SOL    HW235607   1.751   2.575   4.829  0.1053  1.7121  1.5273
 8049SOL     OW35608   1.261   3.864   1.232  0.4301 -0.6155 -0.4789
 8049SOL    HW135609   1.271   3.872   1.326 -0.0787  0.1617 -0.4896
 8049SOL    HW235610   1.351   3.876   1.202  0.4761  2.6502  0.9390
 8050SOL     OW35611   3.763   0.403   8.907  0.1529 -0.3805  0.2120
 8050SOL    HW135612   3.850   0.413   8.947  0.4863 -1.3071 -0.2918
 8050SOL    HW235613   3.771   0.308   8.905 -2.0475 -0.5825  1.0177
 8051SOL     OW35614   1.291   4.247  11.459 -0.5440 -0.5332 -0.4826
 8051SOL    HW135615   1.226   4.282  11.520 -1.0377  0.8352 -1.7951
 8051SOL    HW235616   1.372   4.254  11.509  0.1789 -1.5402 -1.5130
 8052SOL     OW35617   1.005   0.139   9.142  0.2101  0.7089  0.3191
 8052SOL    HW135618   1.059   0.067   9.109 -2.0461 -1.3638  1.1756
 8052SOL    HW235619   1.027   0.200   9.071  2.9134 -1.5021 -0.7274
 8053SOL     OW35620   1.066   1.839  14.002  0.4903 -0.0054  0.0581
 8053SOL    HW135621   1.144   1.784  14.002 -1.1835 -2.3673 -1.8133
 8053SOL    HW235622   1.059   1.860  13.909 -1.9427 -3.3086 -0.4981
 8054SOL     OW35623   0.037   2.351   6.326  0.3883  0.2197  0.1463
 8054SOL    HW135624   0.033   2.446   6.331 -1.4065  0.1304  0.2227
 8054SOL    HW235625   0.129   2.332   6.344  0.6444 -0.8324 -2.2247
 8055SOL     OW35626   3.716   4.652   0.159  0.3180  0.2711 -0.3626
 8055SOL    HW135627   3.788   4.714   0.172  0.8078 -0.1180 -1.1728
 8055SOL    HW235628   3.730   4.598   0.237 -0.7328  1.3963  0.6058
 8056SOL     OW35629   2.681   0.354  10.754  0.1259  0.3766 -0.6935
 8056SOL    HW135630   2.590   0.351  10.785  0.9698 -0.3543  1.7863
 8056SOL    HW235631   2.716   0.434  10.794  1.0834 -0.7697  0.7941
 8057SOL     OW35632   2.399   3.553   4.521  0.7898 -0.1941  0.1347
 8057SOL    HW135633   2.362   3.576   4.606 -0.1343 -2.8046  0.4578
 8057SOL    HW235634   2.370   3.622   4.461 -0.8260 -2.3604 -1.5908
 8058SOL     OW35635   3.224   2.499   9.676  0.0484 -0.4381  0.0185
 8058SOL    HW135636   3.290   2.561   9.646  0.0412 -0.6584 -0.4645
 8058SOL    HW235637   3.168   2.548   9.736 -1.2844 -1.3238 -0.5053
 8059SOL     OW35638   3.090   1.596   5.149  0.1074 -0.6129  0.8814
 8059SOL    HW135639   3.048   1.510   5.149  1.9854 -1.5239 -0.3433
 8059SOL    HW235640   3.025   1.645   5.199 -1.7906 -1.8102 -0.4199
 8060SOL     OW35641   4.390   4.481  11.377  0.4108 -0.1154  0.2248
 8060SOL    HW135642   4.418   4.399  11.335  0.6712 -0.0836  0.3358
 8060SOL    HW235643   4.377   4.540  11.303  0.5953  0.6457  0.8085
 8061SOL     OW35644   3.105   2.447   5.753  0.2126 -0.2483 -0.0419
 8061SOL    HW135645   3.107   2.538   5.724  2.5960  0.2542  1.6186
 8061SOL    HW235646   3.188   2.411   5.721  1.6397  1.3900  1.8404
 8062SOL     OW35647   2.293   2.149   7.131 -0.0423 -0.2895 -0.2848
 8062SOL    HW135648   2.317   2.216   7.195 -0.7726  0.5184 -0.8582
 8062SOL    HW235649   2.237   2.099   7.190  0.7284 -0.8785 -0.0593
 8063SOL     OW35650   1.801   0.603  13.231  0.2458 -0.1913 -0.0854
 8063SOL    HW135651   1.786   0.673  13.168  0.1567 -0.5524 -0.4691
 8063SOL    HW235652   1.781   0.659  13.306  1.3036 -0.4181  0.3704
 8064SOL     OW35653   4.358   3.055   8.854 -0.0299  0.4146 -0.0842
 8064SOL    HW135654   4.297   3.014   8.915  0.0457  1.6115  0.7764
 8064SOL    HW235655   4.370   3.142   8.891 -1.8835  0.8769 -0.5242
 8065SOL     OW35656   0.019   2.031   4.534  0.0130 -0.4861  0.6203
 8065SOL    HW135657   4.713   2.090   4.604 -3.7427 -3.3161  1.4392
 8065SOL    HW235658   4.663   2.008   4.486  0.8019 -1.2315 -0.3045
 8066SOL     OW35659   3.175   0.569   2.366  0.0311 -0.3633  0.0863
 8066SOL    HW135660   3.097   0.520   2.393 -0.1227 -0.5413 -0.6904
 8066SOL    HW235661   3.232   0.504   2.324  1.7740  0.0132  1.8760
 8067SOL     OW35662   2.173   0.591   5.313 -0.1750  0.3047 -0.4419
 8067SOL    HW135663   2.145   0.505   5.280 -0.8638  0.7159 -0.9387
 8067SOL    HW235664   2.258   0.574   5.353 -0.1976 -2.3947 -1.5011
 8068SOL     OW35665   3.990   1.602   9.424  0.1560 -0.1026 -0.5096
 8068SOL    HW135666   3.980   1.512   9.455 -0.2359 -0.5644 -2.0042
 8068SOL    HW235667   4.017   1.642   9.507 -0.2705 -0.1123 -0.3635
 8069SOL     OW35668   0.076   0.910  10.614  0.4014 -0.7876  0.0908
 8069SOL    HW135669   0.121   0.959  10.544 -0.4800 -1.5134 -0.9851
 8069SOL    HW235670   0.108   0.955  10.692  1.4727  0.2997 -0.9708
 8070SOL     OW35671   1.928   2.140  11.884 -0.8076  0.1484  0.2751
 8070SOL    HW135672   1.948   2.218  11.936  0.7008 -1.5048  2.1488
 8070SOL    HW235673   2.014   2.102  11.864 -0.0363  1.4850  1.0596
 8071SOL     OW35674   4.555   3.368   6.103 -0.7692 -0.3347  0.1841
 8071SOL    HW135675   4.609   3.299   6.064  0.3282  0.1063  0.9426
 8071SOL    HW235676   4.615   3.427   6.149 -0.4792 -0.5932  0.1393
 8072SOL     OW35677   3.433   0.714   2.106 -0.0002 -0.6810  0.5383
 8072SOL    HW135678   3.486   0.650   2.060  0.8763  1.0531 -0.8517
 8072SOL    HW235679   3.442   0.781   2.038 -2.0128 -2.7072 -1.7761
 8073SOL     OW35680   0.642   0.108   1.055  0.0805  0.0702 -0.6244
 8073SOL    HW135681   0.717   0.168   1.060 -1.7826  1.9689  4.1471
 8073SOL    HW235682   0.595   0.152   1.127 -1.4585 -1.5707 -0.6321
 8074SOL     OW35683   4.554   1.322   5.859 -0.6906 -0.5230 -0.2698
 8074SOL    HW135684   4.486   1.351   5.920 -1.1744  1.8940 -1.9645
 8074SOL    HW235685   4.623   1.380   5.889 -0.1311 -2.0139  1.3377
 8075SOL     OW35686   4.396   4.222   6.417  0.5699 -0.2806 -0.3138
 8075SOL    HW135687   4.438   4.300   6.383  0.7977 -0.2674 -0.0050
 8075SOL    HW235688   4.430   4.160   6.353 -0.3637  0.0522 -1.1322
 8076SOL     OW35689   3.900   0.999  17.437 -0.3083  0.1978  0.3378
 8076SOL    HW135690   3.986   1.038  17.447 -0.8027  2.0589 -2.8356
 8076SOL    HW235691   3.837   1.071  17.447  1.5738  1.8056  0.5278
 8077SOL     OW35692   0.139   3.292   1.432 -0.5161  0.9233 -0.1375
 8077SOL    HW135693   0.134   3.246   1.349 -2.4026 -0.7567  0.8997
 8077SOL    HW235694   0.107   3.231   1.499  3.1065  0.4865  1.2472
 8078SOL     OW35695   0.919   1.072  14.474  0.1360  0.5869 -0.3310
 8078SOL    HW135696   0.956   1.113  14.396 -2.6797 -0.5999 -2.2950
 8078SOL    HW235697   0.874   1.145  14.514  0.0480  0.0901  0.4648
 8079SOL     OW35698   3.906   0.617   0.316 -0.1053  0.0274  0.3194
 8079SOL    HW135699   3.853   0.632   0.394  0.0116  1.3701  0.1455
 8079SOL    HW235700   3.847   0.597   0.244  1.0255  0.8389 -0.8257
 8080SOL     OW35701   4.574   1.177   5.556  0.0469  0.2978  0.5704
 8080SOL    HW135702   4.579   1.091   5.514 -2.5780  1.4347 -2.0024
 8080SOL    HW235703   4.482   1.179   5.580 -0.1733 -0.9290 -0.1939
 8081SOL     OW35704   0.529   0.942   5.754 -0.3692  0.1442  0.1307
 8081SOL    HW135705   0.576   1.013   5.710  0.5391  0.3054  1.3632
 8081SOL    HW235706   0.581   0.935   5.834  0.7688  2.1375 -0.4327
 8082SOL     OW35707   0.280   3.995   3.399 -0.1528  0.0674 -0.2707
 8082SOL    HW135708   0.330   3.964   3.324  1.3547  1.0433  0.3140
 8082SOL    HW235709   0.342   4.031   3.463  0.2219 -1.0641 -0.0010
 8083SOL     OW35710   2.402   2.004   5.956  1.1766  0.3612 -0.3759
 8083SOL    HW135711   2.340   2.003   6.028  3.4776  1.4976  1.6366
 8083SOL    HW235712   2.415   1.910   5.944  1.0207  0.2210  0.5923
 8084SOL     OW35713   0.268   4.243   8.520 -0.3724  0.4867  0.2630
 8084SOL    HW135714   0.218   4.232   8.601  0.7095  1.5417  1.0687
 8084SOL    HW235715   0.267   4.338   8.517  0.6347  0.4975  0.2451
 8085SOL     OW35716   4.160   2.971   0.397 -0.0420  0.2565  0.2169
 8085SOL    HW135717   4.132   3.061   0.383  0.6804  0.3854 -0.4576
 8085SOL    HW235718   4.162   2.948   0.304  0.7334 -0.7525  0.4753
 8086SOL     OW35719   2.064   3.704   3.643 -0.2089  0.1556  0.3132
 8086SOL    HW135720   2.114   3.767   3.694  0.0387 -0.0852  0.3672
 8086SOL    HW235721   1.973   3.706   3.675 -0.1644 -0.1982  0.4654
 8087SOL     OW35722   3.651   4.142   5.862 -0.0901  0.5755 -0.1176
 8087SOL    HW135723   3.566   4.107   5.835 -0.1547  0.0437  0.7921
 8087SOL    HW235724   3.704   4.064   5.847  1.1536  1.4054 -0.0562
 8088SOL     OW35725   0.878   4.660  12.430  0.3632 -0.2602 -0.1177
 8088SOL    HW135726   0.932   4.625  12.359  0.8372 -2.9566  1.5495
 8088SOL    HW235727   0.942   4.661  12.502  0.2995  2.6550 -0.1030
 8089SOL     OW35728   1.483   4.234   8.595  0.2886  0.1031  0.0178
 8089SOL    HW135729   1.471   4.320   8.635  1.2872 -0.3339  1.2573
 8089SOL    HW235730   1.413   4.234   8.530  0.1838 -0.5101  0.1223
 8090SOL     OW35731   0.803   3.577  16.709 -1.0559  0.3050 -0.3597
 8090SOL    HW135732   0.817   3.639  16.780 -1.0679 -3.2896  2.8058
 8090SOL    HW235733   0.873   3.592  16.646 -1.2579 -1.1808 -0.9559
 8091SOL     OW35734   1.441   3.355  10.349 -0.5658  0.1837  0.1328
 8091SOL    HW135735   1.530   3.320  10.358  0.9608  3.5148 -1.7765
 8091SOL    HW235736   1.406   3.331  10.435 -0.6978  0.7052  0.2234
 8092SOL     OW35737   4.258   3.015   6.587 -0.0601 -0.2682  0.0380
 8092SOL    HW135738   4.331   2.983   6.640  0.9438 -0.1528 -1.2747
 8092SOL    HW235739   4.279   2.985   6.498 -0.7129  2.8380 -1.1798
 8093SOL     OW35740   3.877   4.528   7.485  0.0010 -0.3172 -0.7293
 8093SOL    HW135741   3.914   4.446   7.453  1.8240  0.6064 -0.9753
 8093SOL    HW235742   3.886   4.587   7.410 -2.4929  1.6981  0.5724
 8094SOL     OW35743   3.685   3.275   1.766  0.0979 -0.9094 -0.2728
 8094SOL    HW135744   3.764   3.226   1.742  1.0182  0.0666  0.7315
 8094SOL    HW235745   3.719   3.336   1.832  0.1801 -1.2516  0.0053
 8095SOL     OW35746   1.045   2.086   7.625  0.1959 -0.2935 -0.4219
 8095SOL    HW135747   0.978   2.022   7.601  0.4025 -1.0999  1.1960
 8095SOL    HW235748   1.027   2.145   7.552 -0.4842 -2.4638 -2.0165
 8096SOL     OW35749   0.757   1.518   5.592 -0.0649  0.0087  0.3822
 8096SOL    HW135750   0.714   1.466   5.524  1.5164  0.9637 -1.3307
 8096SOL    HW235751   0.795   1.584   5.534  1.4614 -1.3514 -0.1538
 8097SOL     OW35752   3.108   3.710  14.427  0.3394  0.7521  0.4205
 8097SOL    HW135753   3.166   3.734  14.500  1.4296  0.3819 -0.3338
 8097SOL    HW235754   3.123   3.615  14.427 -0.2144  0.6540  1.5151
 8098SOL     OW35755   3.842   1.511   6.590 -0.3504  0.0052  0.2043
 8098SOL    HW135756   3.928   1.527   6.629 -0.8195  1.4134  0.6351
 8098SOL    HW235757   3.797   1.467   6.663  0.1333  1.8580  1.6052
 8099SOL     OW35758   2.705   2.010   5.063  0.0139  0.3283 -0.3558
 8099SOL    HW135759   2.795   2.035   5.084 -0.7648  1.1596  2.0860
 8099SOL    HW235760   2.714   1.998   4.969 -1.9640  1.9210 -0.7419
 8100SOL     OW35761   2.643   0.179   6.402  0.0366  0.5761  0.2712
 8100SOL    HW135762   2.668   0.171   6.310  1.6100 -0.5387  0.8127
 8100SOL    HW235763   2.590   0.099   6.411  1.3593 -0.1387  1.6444
 8101SOL     OW35764   1.853   3.718   1.074  0.1711 -0.0778 -0.1790
 8101SOL    HW135765   1.943   3.690   1.089  0.3048  0.1277 -0.5913
 8101SOL    HW235766   1.814   3.636   1.044 -1.6627  1.6956 -2.6033
 8102SOL     OW35767   0.866   4.598   2.949 -0.0991  0.3788  0.0309
 8102SOL    HW135768   0.835   4.657   3.018  1.6643  2.3173 -0.8195
 8102SOL    HW235769   0.880   4.650   2.870  3.2146  0.7509  0.8643
 8103SOL     OW35770   0.980   0.817   2.328  0.0116  0.1811 -0.2204
 8103SOL    HW135771   1.044   0.769   2.378  1.7712  2.6614 -0.0872
 8103SOL    HW235772   0.970   0.894   2.384  3.7357  0.6841 -0.2338
 8104SOL     OW35773   0.955   4.515   3.512 -0.1129 -0.2127 -0.0261
 8104SOL    HW135774   1.047   4.527   3.535  0.2969 -3.0322 -0.1168
 8104SOL    HW235775   0.939   4.440   3.570 -0.1474 -1.0904 -1.1717
 8105SOL     OW35776   2.657   2.220   5.245  0.0769  0.3533 -0.2721
 8105SOL    HW135777   2.713   2.297   5.234  1.5452 -0.5530  0.9732
 8105SOL    HW235778   2.702   2.152   5.194 -0.5574  1.6083 -2.5435
 8106SOL     OW35779   2.131   3.248  13.763  0.2103 -0.2555  0.1853
 8106SOL    HW135780   2.120   3.188  13.837  1.1446 -0.1041  0.4456
 8106SOL    HW235781   2.059   3.223  13.705 -0.7190  0.3275  1.0946
 8107SOL     OW35782   1.480   4.339   6.467 -0.3340  0.3090 -0.0360
 8107SOL    HW135783   1.554   4.387   6.431  2.0505 -1.8889  1.9706
 8107SOL    HW235784   1.404   4.393   6.443  0.6534  2.7255  2.3328
 8108SOL     OW35785   1.600   2.424   1.561  0.0517  0.5736 -0.7131
 8108SOL    HW135786   1.507   2.433   1.578  0.7003  1.7176  2.1283
 8108SOL    HW235787   1.618   2.435   1.654  0.2417  2.9881 -1.0388
 8109SOL     OW35788   3.515   2.852   8.743  0.3704 -0.5549 -0.1159
 8109SOL    HW135789   3.593   2.858   8.798 -0.4361 -2.7313  1.2310
 8109SOL    HW235790   3.483   2.763   8.752 -1.1286  0.0090  0.0799
 8110SOL     OW35791   4.090   3.700  15.975  0.4160 -0.4026  0.3032
 8110SOL    HW135792   4.158   3.705  15.908  0.8849  0.4300  0.8410
 8110SOL    HW235793   4.033   3.774  15.953  0.9649 -0.2558 -0.6373
 8111SOL     OW35794   3.278   2.290  12.414  0.0100 -0.2713  0.2722
 8111SOL    HW135795   3.342   2.292  12.343  1.4454 -1.9787  1.5246
 8111SOL    HW235796   3.199   2.251  12.376  1.1075 -1.0253 -1.2315
 8112SOL     OW35797   4.579   0.772   1.983  0.0768  0.5531  0.2367
 8112SOL    HW135798   4.646   0.783   2.050 -0.5747 -0.3475  1.0310
 8112SOL    HW235799   4.616   0.696   1.939 -0.4191 -0.2291  1.1763
 8113SOL     OW35800   2.493   3.755   6.535  0.7737 -0.6025  0.5377
 8113SOL    HW135801   2.467   3.663   6.537  1.1712 -0.7324 -0.8850
 8113SOL    HW235802   2.528   3.763   6.447 -3.8342  0.4052 -1.2095
 8114SOL     OW35803   2.321   1.154  17.624  0.3489 -0.2398 -0.5433
 8114SOL    HW135804   2.234   1.174  17.589 -0.1286 -1.0914  0.1482
 8114SOL    HW235805   2.294   1.083  17.682  1.1490 -0.9007 -0.9940
 8115SOL     OW35806   0.365   1.127   1.186  0.0156 -0.1699  0.2858
 8115SOL    HW135807   0.386   1.046   1.233 -0.0780  0.4902  1.4609
 8115SOL    HW235808   0.433   1.124   1.119  1.0624 -1.9299  1.4295
 8116SOL     OW35809   2.643   2.774   1.735 -0.5865 -0.0201  0.2405
 8116SOL    HW135810   2.569   2.714   1.739  0.0768 -0.8223  0.6325
 8116SOL    HW235811   2.689   2.738   1.660  0.8032  0.5196  0.8346
 8117SOL     OW35812   3.414   4.378   4.938  0.0089 -0.0584  0.6715
 8117SOL    HW135813   3.352   4.450   4.924 -0.9057 -1.2534 -1.3913
 8117SOL    HW235814   3.430   4.399   5.030  1.6227 -1.6836  0.7571
 8118SOL     OW35815   0.418   1.377  11.954  0.6290 -0.0774  0.0872
 8118SOL    HW135816   0.455   1.294  11.924  0.7875 -0.8058  2.2517
 8118SOL    HW235817   0.359   1.383  11.880  1.3655 -0.7093 -0.5555
 8119SOL     OW35818   1.469   3.582   7.367 -0.4382 -0.5615 -0.0705
 8119SOL    HW135819   1.386   3.611   7.405  1.3559  0.8528  2.7115
 8119SOL    HW235820   1.457   3.608   7.276  0.7994  2.3523  0.5852
 8120SOL     OW35821   0.560   4.015   7.463  0.5291  0.2441 -0.0681
 8120SOL    HW135822   0.655   4.029   7.455  1.0049 -1.9753  1.5815
 8120SOL    HW235823   0.545   3.983   7.374 -1.5069 -0.4367  0.5268
 8121SOL     OW35824   0.793   3.236   5.629  0.0560 -0.4948  0.6620
 8121SOL    HW135825   0.812   3.159   5.683  1.3726 -0.8271 -0.2851
 8121SOL    HW235826   0.750   3.293   5.693 -0.2302  1.2580 -1.1029
 8122SOL     OW35827   3.873   2.760  16.271  0.0769  0.0521 -0.4639
 8122SOL    HW135828   3.884   2.843  16.225  0.1871 -0.4133 -1.2640
 8122SOL    HW235829   3.805   2.785  16.334 -1.0970 -0.0629 -1.6994
 8123SOL     OW35830   3.439   0.703  11.736  0.3596  0.8733 -0.9041
 8123SOL    HW135831   3.450   0.642  11.664 -0.4610  0.0912 -0.3660
 8123SOL    HW235832   3.526   0.703  11.776  0.1392  1.1920 -0.4215
 8124SOL     OW35833   4.502   1.468  12.195  0.0102 -0.1143  0.5300
 8124SOL    HW135834   4.584   1.442  12.152 -0.0051  2.0023 -0.7924
 8124SOL    HW235835   4.506   1.563  12.188 -0.6964 -0.1266 -0.0011
 8125SOL     OW35836   1.512   0.842   4.671  0.2299  0.6581 -0.2431
 8125SOL    HW135837   1.550   0.929   4.661 -0.1357  0.5430 -2.4984
 8125SOL    HW235838   1.420   0.866   4.675  0.9224  3.4381 -1.0221
 8126SOL     OW35839   4.265   1.384   5.076 -0.0842 -0.0377  0.1116
 8126SOL    HW135840   4.302   1.318   5.017  2.0232  0.8597  0.4113
 8126SOL    HW235841   4.228   1.444   5.011 -0.6957  0.0733  0.5617
 8127SOL     OW35842   3.277   0.179   8.457  0.1211  0.3959  0.8195
 8127SOL    HW135843   3.245   0.266   8.482  0.4710  1.2866 -1.8878
 8127SOL    HW235844   3.358   0.176   8.509  2.1760  2.7803 -2.3224
 8128SOL     OW35845   3.794   0.057   2.153 -0.0760 -0.1710  0.1011
 8128SOL    HW135846   3.846   0.015   2.085 -1.6516 -1.3071 -0.4282
 8128SOL    HW235847   3.832   0.030   2.236 -0.8076  2.6302  1.3373
 8129SOL     OW35848   3.143   0.634  11.552  0.0189  0.3791  0.0252
 8129SOL    HW135849   3.186   0.636  11.637 -1.5868  3.1747  0.7788
 8129SOL    HW235850   3.217   0.663  11.497 -0.5877 -0.5834 -1.3100
 8130SOL     OW35851   1.971   1.879   2.580 -0.3047  0.2737  0.2433
 8130SOL    HW135852   1.919   1.959   2.583  1.3324  1.3973 -0.8544
 8130SOL    HW235853   2.053   1.922   2.605 -0.0357 -0.3321  0.4022
 8131SOL     OW35854   3.626   3.276  16.000 -0.5987  0.0214 -0.0778
 8131SOL    HW135855   3.639   3.259  16.094 -2.1266  1.7884  0.4555
 8131SOL    HW235856   3.594   3.365  16.017 -0.4094  0.3509 -1.4475
 8132SOL     OW35857   0.768   4.285  11.063 -0.7054 -0.1179  1.1068
 8132SOL    HW135858   0.834   4.318  11.003 -1.5046  1.1044  0.8950
 8132SOL    HW235859   0.775   4.354  11.129 -1.9853 -1.8369  3.0424
 8133SOL     OW35860   3.412   1.954   3.107  0.0151 -0.1009 -0.0374
 8133SOL    HW135861   3.449   2.039   3.084  2.0365 -1.4115 -1.6424
 8133SOL    HW235862   3.400   1.967   3.201  1.3882 -0.9217  0.2565
 8134SOL     OW35863   3.367   2.902   3.058  0.2047 -0.1076  0.1530
 8134SOL    HW135864   3.272   2.890   3.052  0.1460  0.3743  0.1799
 8134SOL    HW235865   3.370   2.957   3.136 -0.1700 -1.9856  1.4943
 8135SOL     OW35866   3.130   3.741   8.983  0.0105 -0.3233 -0.7406
 8135SOL    HW135867   3.098   3.771   9.068  0.2711 -3.4403  0.4674
 8135SOL    HW235868   3.087   3.790   8.913 -0.7945  0.7733  0.5296
 8136SOL     OW35869   0.813   0.778  13.063  0.0133 -0.3410 -0.1238
 8136SOL    HW135870   0.800   0.807  12.973 -0.5511  1.4746  0.5435
 8136SOL    HW235871   0.908   0.776  13.062  0.0211  0.7809 -2.0980
 8137SOL     OW35872   2.718   3.842  13.881 -0.1119 -0.0896 -0.0718
 8137SOL    HW135873   2.763   3.782  13.822  0.0347 -1.8577  1.8432
 8137SOL    HW235874   2.632   3.800  13.881 -1.3770  2.4742  1.1735
 8138SOL     OW35875   0.770   1.648  13.355  0.2795  0.4245  0.0675
 8138SOL    HW135876   0.676   1.653  13.341  0.1728  3.7740  1.7653
 8138SOL    HW235877   0.788   1.714  13.422  1.3824  0.7639 -0.5575
 8139SOL     OW35878   2.697   1.532   5.190  0.3712 -0.1568  0.4196
 8139SOL    HW135879   2.766   1.555   5.252 -1.6552  0.3094  2.5161
 8139SOL    HW235880   2.738   1.562   5.109 -0.8844  0.6608  0.0811
 8140SOL     OW35881   4.204   1.241  14.092  0.5817 -0.6478  0.2537
 8140SOL    HW135882   4.169   1.275  14.009  0.6282 -0.4504  0.3154
 8140SOL    HW235883   4.127   1.222  14.147  1.3896 -1.9500  0.9281
 8141SOL     OW35884   0.535   1.844   9.897  0.4135 -0.1258 -0.0183
 8141SOL    HW135885   0.522   1.819   9.988 -0.4024  0.5083  0.0370
 8141SOL    HW235886   0.455   1.813   9.854 -0.2974  2.4936 -0.5610
 8142SOL     OW35887   3.028   3.859   2.143  0.1729 -0.1794 -0.4198
 8142SOL    HW135888   2.963   3.849   2.212  0.7431 -0.2452  0.1094
 8142SOL    HW235889   2.984   3.840   2.061 -2.0012  0.1255  0.6764
 8143SOL     OW35890   2.600   3.921  10.355 -0.4328 -0.2431 -0.4285
 8143SOL    HW135891   2.664   3.864  10.398  0.2855  1.3344  0.6293
 8143SOL    HW235892   2.521   3.910  10.407  0.1528 -1.5074  0.1768
 8144SOL     OW35893   2.324   0.912  15.709  0.2346  0.4461 -0.0788
 8144SOL    HW135894   2.244   0.961  15.728  0.4887  1.0261 -0.5022
 8144SOL    HW235895   2.383   0.977  15.747  0.5668  0.6452 -0.9473
 8145SOL     OW35896   4.114   4.456   3.642  0.3219 -0.2196 -0.4468
 8145SOL    HW135897   4.099   4.406   3.562 -1.4547  1.2858 -1.0730
 8145SOL    HW235898   4.165   4.532   3.612  1.6438 -1.1840 -0.6269
 8146SOL     OW35899   3.693   1.302   6.963 -0.5704  0.2365 -0.4355
 8146SOL    HW135900   3.738   1.387   6.962 -0.4940  0.1940 -1.0299
 8146SOL    HW235901   3.611   1.309   7.012 -0.6348 -3.7762 -0.0196
 8147SOL     OW35902   4.103   3.534   2.312 -0.0754  0.2728  0.1869
 8147SOL    HW135903   4.156   3.470   2.266 -0.6038  0.3566 -0.5238
 8147SOL    HW235904   4.102   3.602   2.245  0.4680 -0.0119 -0.1095
 8148SOL     OW35905   1.742   2.113   4.991 -0.4435 -0.5141 -0.0563
 8148SOL    HW135906   1.752   2.055   5.066 -2.0035 -0.3930  0.2436
 8148SOL    HW235907   1.795   2.057   4.935 -2.5135 -0.4325 -2.0484
 8149SOL     OW35908   4.353   1.690   4.579  0.2092  0.0767  0.5498
 8149SOL    HW135909   4.263   1.684   4.548 -0.7810  3.1873  2.8411
 8149SOL    HW235910   4.350   1.624   4.649 -0.0840  0.0498  0.5109
 8150SOL     OW35911   0.304   1.461   6.539 -0.3902 -0.9590 -0.5084
 8150SOL    HW135912   0.261   1.496   6.617  0.0366 -0.5589 -0.4543
 8150SOL    HW235913   0.280   1.528   6.474 -1.1578  0.0533  0.8112
 8151SOL     OW35914   2.672   2.133  13.033 -0.6316  0.0215  0.8036
 8151SOL    HW135915   2.737   2.073  13.070 -0.7702 -0.7595 -0.2203
 8151SOL    HW235916   2.672   2.201  13.101 -4.0386  0.0320  0.7526
 8152SOL     OW35917   0.161   0.284   6.212 -0.2895  0.4320  0.2877
 8152SOL    HW135918   0.160   0.234   6.130 -0.7208  0.1583  0.4624
 8152SOL    HW235919   0.249   0.264   6.244  0.9444  0.2369 -3.1531
 8153SOL     OW35920   3.556   0.449   6.301  0.0845  0.1635 -0.2800
 8153SOL    HW135921   3.623   0.456   6.369 -1.6306  0.8278  1.3717
 8153SOL    HW235922   3.564   0.360   6.269  0.0513 -0.2047  0.7327
 8154SOL     OW35923   3.076   3.647   3.540  0.4197 -0.1644 -0.1649
 8154SOL    HW135924   3.002   3.679   3.591 -1.7246 -3.2971 -1.3044
 8154SOL    HW235925   3.060   3.698   3.460 -0.6986  0.9422  0.7632
 8155SOL     OW35926   2.108   0.592   3.507 -0.3752  0.4675 -0.1416
 8155SOL    HW135927   2.047   0.603   3.580  0.6360  2.6679  0.3712
 8155SOL    HW235928   2.171   0.663   3.523  0.7002 -0.2132 -1.3168
 8156SOL     OW35929   1.510   1.760   4.283  0.1589  0.6161  0.1798
 8156SOL    HW135930   1.446   1.688   4.283  1.1802 -0.2934  0.2055
 8156SOL    HW235931   1.494   1.800   4.197  0.3938 -1.5219 -0.8594
 8157SOL     OW35932   2.930   2.167  11.030  0.1425  0.2139  0.2875
 8157SOL    HW135933   2.901   2.213  10.951  1.2338 -0.2273 -0.3749
 8157SOL    HW235934   3.014   2.213  11.033 -0.1434  0.7799 -0.2506
 8158SOL     OW35935   3.776   3.426  15.468  0.7205  0.2158  0.2172
 8158SOL    HW135936   3.867   3.452  15.454  0.5834  0.3605 -0.3758
 8158SOL    HW235937   3.771   3.402  15.561 -2.3915 -0.0336 -0.0035
 8159SOL     OW35938   1.604   3.963   0.586  0.0936 -0.1282 -0.0872
 8159SOL    HW135939   1.674   4.021   0.559  0.8208 -0.5344  0.9401
 8159SOL    HW235940   1.618   3.946   0.679  1.1497 -0.8901 -0.3887
 8160SOL     OW35941   4.072   3.698  16.397  0.5661  0.1546 -0.4921
 8160SOL    HW135942   4.033   3.644  16.465 -2.4625 -0.1403 -2.4405
 8160SOL    HW235943   4.118   3.766  16.446 -0.1661  1.1568 -1.1943
 8161SOL     OW35944   0.518   3.562  16.720 -0.2645 -1.1138  0.0953
 8161SOL    HW135945   0.558   3.641  16.755  0.3592 -1.3926  0.0135
 8161SOL    HW235946   0.444   3.529  16.770 -3.2138 -0.0811 -3.5543
 8162SOL     OW35947   0.907   2.597   4.417  0.2941  0.0645 -0.1298
 8162SOL    HW135948   0.972   2.560   4.358  0.2249 -1.2495  0.6238
 8162SOL    HW235949   0.860   2.654   4.356 -0.6145  0.1901  0.6785
 8163SOL     OW35950   0.856   4.464  14.654  0.0064 -0.1784  0.5038
 8163SOL    HW135951   0.769   4.504  14.666  0.3518  0.6504  0.2825
 8163SOL    HW235952   0.857   4.489  14.561  0.9454  1.8226  1.0467
 8164SOL     OW35953   2.363   1.231   6.367  0.6839  0.1008 -0.5562
 8164SOL    HW135954   2.429   1.166   6.391  0.6684 -0.1562 -1.2258
 8164SOL    HW235955   2.354   1.226   6.272  1.0940  0.2846 -0.6080
 8165SOL     OW35956   0.501   3.601   5.898 -0.1763  0.0562 -0.2642
 8165SOL    HW135957   0.433   3.557   5.847  0.2560 -0.0247 -0.7742
 8165SOL    HW235958   0.460   3.686   5.909  2.7770  1.0841  2.6077
 8166SOL     OW35959   2.774   4.049   1.794 -0.2094 -0.5059  0.1425
 8166SOL    HW135960   2.740   4.119   1.738 -0.1928 -0.1642  0.5665
 8166SOL    HW235961   2.762   4.083   1.882  1.6300  2.6538 -0.8249
 8167SOL     OW35962   4.602   1.553   6.678 -0.0968 -0.1733 -0.2260
 8167SOL    HW135963   4.548   1.629   6.657  1.5740  0.2645 -2.8685
 8167SOL    HW235964   4.535   1.488   6.699 -2.3719  2.7004  1.3908
 8168SOL     OW35965   0.704   4.016  11.038  0.0018 -0.4566 -0.2035
 8168SOL    HW135966   0.610   4.030  11.034 -0.1218 -1.5492 -1.3831
 8168SOL    HW235967   0.730   4.104  11.064 -0.1619 -0.2095 -0.8897
 8169SOL     OW35968   3.510   4.278   3.895 -0.1010  0.3306  0.0449
 8169SOL    HW135969   3.522   4.270   3.800  1.4926 -1.5330  0.4132
 8169SOL    HW235970   3.596   4.267   3.935 -0.2875 -2.3078 -0.2694
 8170SOL     OW35971   1.242   3.298   5.319 -0.0191  0.4119  0.0963
 8170SOL    HW135972   1.330   3.317   5.351 -0.6918 -0.9771  2.7727
 8170SOL    HW235973   1.211   3.235   5.384  1.4563 -1.0993 -0.6708
 8171SOL     OW35974   2.313   1.393  14.851  0.0437  0.2024 -0.1066
 8171SOL    HW135975   2.305   1.458  14.780 -0.3342 -0.9626 -1.1321
 8171SOL    HW235976   2.408   1.385  14.855  0.0977  1.3323  0.6407
 8172SOL     OW35977   2.103   3.045   6.607 -0.2373 -0.1059 -0.1363
 8172SOL    HW135978   2.072   3.075   6.693  0.3834 -2.7682  1.0233
 8172SOL    HW235979   2.080   2.952   6.604  0.1892 -0.2567  1.3946
 8173SOL     OW35980   1.479   2.662  16.826 -0.3543 -0.0502  0.5446
 8173SOL    HW135981   1.546   2.620  16.880  1.4213  1.5878 -0.3897
 8173SOL    HW235982   1.493   2.751  16.859  0.5464  0.5294 -1.4019
 8174SOL     OW35983   2.738   1.617   3.588 -0.4900 -0.2508 -0.1252
 8174SOL    HW135984   2.826   1.581   3.595 -0.9318 -1.3007 -0.0090
 8174SOL    HW235985   2.705   1.538   3.547 -0.0771 -1.8909  2.7104
 8175SOL     OW35986   1.169   0.031   7.223 -0.7985 -0.0849 -0.3839
 8175SOL    HW135987   1.102   0.015   7.290  0.8460 -0.1431  1.2582
 8175SOL    HW235988   1.242   4.694   7.242 -1.8613 -0.8892  1.2390
 8176SOL     OW35989   4.351   1.121   2.682 -0.2313 -0.6123  0.2853
 8176SOL    HW135990   4.382   1.084   2.600  0.3509  0.4722  0.0233
 8176SOL    HW235991   4.302   1.046   2.717 -2.3774  0.7333  0.1556
 8177SOL     OW35992   0.177   3.301   2.434  0.0705  1.0020 -0.1662
 8177SOL    HW135993   0.100   3.358   2.428 -1.0732 -0.3077  2.3912
 8177SOL    HW235994   0.214   3.313   2.347 -1.2544  2.8183 -0.4789
 8178SOL     OW35995   1.261   3.241   0.170 -0.1049 -0.7745 -0.6276
 8178SOL    HW135996   1.272   3.189   0.090  1.9134 -0.2167 -0.7324
 8178SOL    HW235997   1.329   3.210   0.230  0.6870  1.4353 -0.3679
 8179SOL     OW35998   3.086   1.548   2.934  0.0651 -0.0726  0.3748
 8179SOL    HW135999   3.038   1.485   2.881 -1.2701 -0.2304  1.7596
 8179SOL    HW236000   3.167   1.563   2.885  1.3735 -0.7241  2.3330
 8180SOL     OW36001   3.532   4.466   7.055  0.3090  0.5649 -0.0930
 8180SOL    HW136002   3.526   4.391   6.996 -0.7010 -0.9672  1.9401
 8180SOL    HW236003   3.439   4.474   7.074  0.2869  0.4553 -0.1528
 8181SOL     OW36004   1.530   3.903   7.660  0.4803  0.0002  0.1139
 8181SOL    HW136005   1.466   3.933   7.725 -0.5979 -0.3925 -0.7685
 8181SOL    HW236006   1.561   3.821   7.699  0.4014 -0.6770 -1.2376
 8182SOL     OW36007   1.067   4.108   1.164  0.3875 -0.5465 -0.1055
 8182SOL    HW136008   1.129   4.060   1.218  0.8528 -0.9189 -0.9656
 8182SOL    HW236009   1.057   4.194   1.205  1.1998  1.4632 -4.1007
 8183SOL     OW36010   0.086   4.028  12.123  0.6215 -0.6569  0.3297
 8183SOL    HW136011   0.103   4.121  12.107  0.0949 -0.2144  2.2421
 8183SOL    HW236012   4.717   4.020  12.096  0.0628  0.6360  1.7780
 8184SOL     OW36013   4.123   2.907   4.476  0.1536  0.3627  0.3843
 8184SOL    HW136014   4.030   2.883   4.480  0.4797 -1.1289 -0.9249
 8184SOL    HW236015   4.168   2.823   4.482 -1.3142 -0.4161  0.4371
 8185SOL     OW36016   3.315   0.070   6.739  0.3719  0.1059  0.1769
 8185SOL    HW136017   3.381   0.136   6.717  1.9517 -2.4504 -2.5894
 8185SOL    HW236018   3.336   0.003   6.676 -1.8089  1.6075 -2.1668
 8186SOL     OW36019   3.461   0.738  13.697 -0.3824  0.3688 -0.3088
 8186SOL    HW136020   3.541   0.695  13.667 -0.9017 -2.1305  1.9539
 8186SOL    HW236021   3.488   0.755  13.787 -1.0071 -1.6133  0.2544
 8187SOL     OW36022   2.231   1.854  15.876  0.7360 -0.4815  0.1628
 8187SOL    HW136023   2.154   1.799  15.892 -1.9131  3.0715 -0.3649
 8187SOL    HW236024   2.293   1.815  15.938 -0.9044 -3.6858 -0.2099
 8188SOL     OW36025   3.434   2.852   4.690 -0.1550  0.9287 -0.3529
 8188SOL    HW136026   3.389   2.917   4.636  1.9302  0.4155 -2.6720
 8188SOL    HW236027   3.363   2.819   4.745 -1.5681  1.1904 -2.0436
 8189SOL     OW36028   3.810   0.379   2.559 -0.1763 -0.0038  0.1060
 8189SOL    HW136029   3.898   0.365   2.525  0.6786  1.8751  1.4784
 8189SOL    HW236030   3.769   0.444   2.501 -0.3904  1.7514  2.2110
 8190SOL     OW36031   4.508   3.269   8.330  0.3103 -0.1424 -0.2649
 8190SOL    HW136032   4.413   3.278   8.341  0.4798  0.2422  0.9514
 8190SOL    HW236033   4.546   3.301   8.412 -1.2282  0.9369  0.0363
 8191SOL     OW36034   3.200   3.170   8.974  0.1474 -0.5414  0.2947
 8191SOL    HW136035   3.185   3.179   8.880  2.6475 -1.5901 -0.2016
 8191SOL    HW236036   3.124   3.224   8.994  1.3614  1.3555 -0.1948
 8192SOL     OW36037   2.345   1.974   9.521 -0.2662  0.4191 -0.1087
 8192SOL    HW136038   2.365   2.000   9.610 -0.5900 -1.2824  0.4536
 8192SOL    HW236039   2.252   1.996   9.526 -0.4460 -0.7887  1.6692
 8193SOL     OW36040   2.864   2.732   2.710 -0.3738 -0.7156 -0.3949
 8193SOL    HW136041   2.851   2.642   2.739  2.1959 -1.2427 -0.8191
 8193SOL    HW236042   2.954   2.722   2.678 -0.5164 -1.0458 -0.6971
 8194SOL     OW36043   0.658   3.629  16.433  0.4197  0.2782  0.9296
 8194SOL    HW136044   0.609   3.710  16.437 -1.2335 -0.6850 -0.2289
 8194SOL    HW236045   0.636   3.592  16.348 -0.5669  3.6898 -0.2512
 8195SOL     OW36046   0.140   0.525   2.287  0.2020  0.6306 -0.2158
 8195SOL    HW136047   0.207   0.458   2.270 -1.6792 -0.9653 -1.3681
 8195SOL    HW236048   0.067   0.484   2.241 -0.8275 -0.6780  2.5286
 8196SOL     OW36049   0.397   2.167  17.479 -0.0319 -0.4243 -0.1705
 8196SOL    HW136050   0.310   2.197  17.506  0.0406  0.0611 -0.4789
 8196SOL    HW236051   0.440   2.162  17.564  1.3365 -2.0087 -0.9732
 8197SOL     OW36052   0.041   1.633  11.467 -0.3234 -0.2560  0.3823
 8197SOL    HW136053   0.131   1.601  11.477 -0.3458 -1.1084 -2.0490
 8197SOL    HW236054   0.064   1.713  11.419 -0.1536 -0.8579 -0.5455
 8198SOL     OW36055   4.688   3.727   0.056  0.1912  0.2012 -0.2236
 8198SOL    HW136056   0.013   3.656   0.013 -0.0214  0.0531 -0.2170
 8198SOL    HW236057   4.646   3.786  17.686  0.9341  0.0594 -0.8575
 8199SOL     OW36058   1.428   2.490  13.771 -0.2034  0.3249  0.2013
 8199SOL    HW136059   1.408   2.488  13.865  0.1846  2.3629  0.3224
 8199SOL    HW236060   1.342   2.521  13.741 -1.1035 -1.6725  0.7101
 8200SOL     OW36061   2.721   4.306   1.686 -0.0366 -0.2949 -0.2483
 8200SOL    HW136062   2.775   4.376   1.721 -0.3565 -0.2338  0.1355
 8200SOL    HW236063   2.698   4.332   1.597  1.2560 -1.2428 -0.8520
 8201SOL     OW36064   0.299   3.461  12.052 -0.5513 -0.6708 -0.0605
 8201SOL    HW136065   0.379   3.495  12.092 -0.9402 -1.1212  1.0897
 8201SOL    HW236066   0.240   3.534  12.071 -0.9962 -0.7388 -1.1989
 8202SOL     OW36067   4.263   2.716  12.903 -0.2667  0.1087  0.6443
 8202SOL    HW136068   4.279   2.736  12.811  0.8503 -0.4896  0.7117
 8202SOL    HW236069   4.286   2.623  12.908  1.7841  0.6771  2.1313
 8203SOL     OW36070   1.398   3.888   5.575 -0.6440  0.6907  0.0374
 8203SOL    HW136071   1.424   3.971   5.616  0.7786 -0.9774  2.4646
 8203SOL    HW236072   1.333   3.862   5.640  0.3200 -0.8241  0.3877
 8204SOL     OW36073   3.348   2.916   6.169 -0.4598 -0.4100  0.2204
 8204SOL    HW136074   3.282   2.850   6.191 -1.1926  0.1114 -0.3996
 8204SOL    HW236075   3.298   2.997   6.170  2.5369  1.4633  0.2257
 8205SOL     OW36076   4.313   2.017   2.995  0.3816  0.3805  0.5981
 8205SOL    HW136077   4.382   1.992   2.933  0.1360  0.6734  0.2098
 8205SOL    HW236078   4.336   2.109   3.010  0.8560  0.3535  0.0144
 8206SOL     OW36079   2.535   1.116  17.139 -0.0552 -0.0867 -0.1084
 8206SOL    HW136080   2.526   1.199  17.093  2.2954  0.2660  0.0714
 8206SOL    HW236081   2.460   1.131  17.198 -1.3183 -1.4185 -1.3729
 8207SOL     OW36082   1.699   3.605   5.249  0.2013  0.2600 -0.4605
 8207SOL    HW136083   1.701   3.511   5.232  0.6198  0.4247 -1.3189
 8207SOL    HW236084   1.603   3.611   5.252  0.2480 -0.4779  2.7638
 8208SOL     OW36085   3.922   1.516   1.782  0.1547  0.3938 -0.7924
 8208SOL    HW136086   3.898   1.536   1.691  0.1685 -0.9054 -1.0785
 8208SOL    HW236087   4.001   1.570   1.791  1.8110 -2.2772  0.6158
 8209SOL     OW36088   4.353   0.121  16.656 -0.2108 -0.4506 -0.6090
 8209SOL    HW136089   4.313   0.132  16.743 -0.2354 -1.4254 -0.4928
 8209SOL    HW236090   4.303   0.044  16.629 -0.3659 -1.2292  1.9070
 8210SOL     OW36091   0.018   0.499   8.284  0.1360 -0.3070 -0.4009
 8210SOL    HW136092   4.669   0.498   8.220 -0.0902  4.3635 -0.2063
 8210SOL    HW236093   4.689   0.515   8.362  2.2245 -0.4483  1.0047
 8211SOL     OW36094   1.443   0.863   1.634 -0.5118 -0.3116  0.1480
 8211SOL    HW136095   1.510   0.857   1.566 -0.8014  2.5958 -0.3819
 8211SOL    HW236096   1.488   0.893   1.713  1.3955  0.0993 -1.0847
 8212SOL     OW36097   4.044   3.966   3.692 -0.1074 -0.5428 -0.3092
 8212SOL    HW136098   4.095   3.968   3.611  2.0718 -0.8070  1.0714
 8212SOL    HW236099   4.111   3.939   3.754  0.5982 -0.1158 -0.8862
 8213SOL     OW36100   4.387   4.323  17.690  0.3968  0.2338 -0.3790
 8213SOL    HW136101   4.439   4.249   0.027 -0.5494  0.0986  0.9407
 8213SOL    HW236102   4.369   4.370   0.078  3.1770  0.7504 -0.0757
 8214SOL     OW36103   2.447   0.790  14.286 -0.2973 -0.5404  0.1416
 8214SOL    HW136104   2.363   0.769  14.246  0.3325  1.1966 -2.0751
 8214SOL    HW236105   2.492   0.708  14.268 -0.1356 -0.6127  0.8538
 8215SOL     OW36106   1.061   2.016   5.621  0.7272 -0.2640 -0.4029
 8215SOL    HW136107   1.136   1.961   5.600 -1.7696 -3.4525 -1.0309
 8215SOL    HW236108   1.074   2.023   5.716 -2.8342 -0.7313  0.1354
 8216SOL     OW36109   1.183   4.084   5.527  0.0423  0.0352  0.6958
 8216SOL    HW136110   1.245   4.049   5.464  1.0260  0.5182  1.3809
 8216SOL    HW236111   1.132   4.007   5.553 -0.6269 -0.0165 -0.8003
 8217SOL     OW36112   2.320   0.363   4.440 -0.2329  0.0217 -0.1794
 8217SOL    HW136113   2.330   0.458   4.442 -1.4360  0.1430 -0.0211
 8217SOL    HW236114   2.274   0.350   4.523  0.9861 -0.0825  0.4816
 8218SOL     OW36115   1.624   0.167   0.505 -0.2975  0.0999  0.2945
 8218SOL    HW136116   1.541   0.193   0.465 -1.1585 -2.3001  0.5130
 8218SOL    HW236117   1.597   0.143   0.593  0.9758 -0.3079  0.5691
 8219SOL     OW36118   4.676   0.790   7.419 -0.4338  0.0208  0.4817
 8219SOL    HW136119   4.622   0.857   7.378  0.8258  1.6312  1.4633
 8219SOL    HW236120   4.614   0.719   7.401 -0.0895  0.1272 -1.1250
 8220SOL     OW36121   0.708   1.479  16.449 -0.6330 -0.8539  0.3081
 8220SOL    HW136122   0.627   1.493  16.401 -0.5042 -0.5225  0.1877
 8220SOL    HW236123   0.764   1.553  16.426  0.5570 -2.2308 -1.2216
 8221SOL     OW36124   3.334   3.162   4.987 -0.3417  0.4053 -0.1763
 8221SOL    HW136125   3.242   3.145   5.003 -0.1150 -0.4683  0.2102
 8221SOL    HW236126   3.319   3.226   4.917  1.4698 -1.0781 -1.9568
 8222SOL     OW36127   1.164   1.349   4.211  0.3117 -0.3044  0.0434
 8222SOL    HW136128   1.092   1.386   4.262 -1.1170 -2.3222 -0.5211
 8222SOL    HW236129   1.124   1.347   4.124 -1.1836 -0.5716  0.7370
 8223SOL     OW36130   2.426   3.789   0.720 -0.4200 -0.1582 -0.1432
 8223SOL    HW136131   2.518   3.782   0.744  0.0844  0.0404 -1.9952
 8223SOL    HW236132   2.437   3.732   0.643 -0.3171 -0.6357  0.2270
 8224SOL     OW36133   3.609   0.015   7.010  0.0535  0.2818  0.0019
 8224SOL    HW136134   3.563   4.654   7.011 -1.9007  1.3282 -1.7399
 8224SOL    HW236135   3.640   0.031   7.099 -0.4674  0.5302  0.1402
 8225SOL     OW36136   2.194   1.855   2.309  0.0722  0.0716 -0.5345
 8225SOL    HW136137   2.158   1.933   2.267  0.5000  1.1260  1.0665
 8225SOL    HW236138   2.263   1.827   2.249 -1.4240 -4.1786 -0.2814
 8226SOL     OW36139   2.446   1.732   7.673  0.3469  0.4629  0.7145
 8226SOL    HW136140   2.540   1.751   7.672  0.6466 -1.0822  0.2592
 8226SOL    HW236141   2.446   1.641   7.703  0.9811  0.6476  1.2952
 8227SOL     OW36142   3.381   2.187   6.869 -0.2071 -0.3014  0.5026
 8227SOL    HW136143   3.300   2.142   6.848 -0.4050  1.1869 -1.8896
 8227SOL    HW236144   3.400   2.143   6.952 -0.2736 -1.6831 -0.2266
 8228SOL     OW36145   0.074   2.708   3.353 -0.4168  0.3699 -0.1216
 8228SOL    HW136146   0.011   2.702   3.425 -0.7849 -0.8872 -0.5420
 8228SOL    HW236147   0.148   2.659   3.387  0.5041  1.3598 -0.7248
 8229SOL     OW36148   2.567   3.809   9.479 -0.4275  0.2642  0.1602
 8229SOL    HW136149   2.514   3.761   9.543  1.0966 -0.1048  1.1488
 8229SOL    HW236150   2.623   3.737   9.451  0.8967  1.4758 -0.3306
 8230SOL     OW36151   3.540   1.391  10.499 -0.0784  0.0859 -0.4545
 8230SOL    HW136152   3.506   1.469  10.456 -4.6396 -1.5827  0.0890
 8230SOL    HW236153   3.472   1.329  10.472 -0.4626 -0.0232  0.7232
 8231SOL     OW36154   3.441   1.317   2.976 -0.2754 -0.7427 -0.5720
 8231SOL    HW136155   3.492   1.259   3.032 -0.6300 -1.4398 -0.9691
 8231SOL    HW236156   3.452   1.288   2.886 -3.1375 -2.2813 -0.4416
 8232SOL     OW36157   2.815   4.432   3.767 -0.4895  0.0050  0.8201
 8232SOL    HW136158   2.886   4.376   3.797  0.1763  0.4432  0.0712
 8232SOL    HW236159   2.776   4.461   3.850  1.9436  2.1215  1.2176
 8233SOL     OW36160   0.733   3.240   8.973 -0.5533 -0.8753 -0.1878
 8233SOL    HW136161   0.704   3.215   8.886  1.2960  1.8307 -1.5717
 8233SOL    HW236162   0.737   3.335   8.968 -1.1497 -0.9417 -1.8533
 8234SOL     OW36163   0.143   4.007   7.318  0.6612 -0.0428 -0.5880
 8234SOL    HW136164   0.082   3.934   7.312  0.0823  0.3480  0.6633
 8234SOL    HW236165   0.082   4.078   7.337 -1.2311 -1.2493 -2.0840
 8235SOL     OW36166   3.408   0.815   5.286 -0.0387  0.0516 -0.0277
 8235SOL    HW136167   3.392   0.899   5.243  1.2175 -0.7152 -1.9772
 8235SOL    HW236168   3.329   0.766   5.261  1.6126 -2.9474  0.6529
 8236SOL     OW36169   3.301   2.776   9.611  0.0090 -0.3144 -0.4729
 8236SOL    HW136170   3.339   2.862   9.597 -1.1181  0.0779 -1.1521
 8236SOL    HW236171   3.216   2.793   9.570 -0.3361 -1.2517 -0.1564
 8237SOL     OW36172   2.958   2.187  14.523 -0.0774  0.3236 -0.2879
 8237SOL    HW136173   3.035   2.176  14.578 -1.8171 -0.6197  1.9620
 8237SOL    HW236174   2.985   2.264  14.474  0.9764  0.9700  1.3292
 8238SOL     OW36175   3.643   0.503   4.677  0.4277 -0.4676 -0.3438
 8238SOL    HW136176   3.558   0.505   4.721  0.4194  1.7104 -0.4108
 8238SOL    HW236177   3.682   0.426   4.719  1.6523 -0.1962 -0.9525
 8239SOL     OW36178   3.590   1.744   9.746 -0.1581  0.1913  0.1005
 8239SOL    HW136179   3.524   1.675   9.747 -0.4368  0.4870  1.7224
 8239SOL    HW236180   3.577   1.790   9.829  2.3135 -0.3365  0.7825
 8240SOL     OW36181   1.735   0.826  17.084  0.4975  0.1290 -0.3400
 8240SOL    HW136182   1.768   0.830  17.173 -0.9562 -1.1578  0.2563
 8240SOL    HW236183   1.812   0.782  17.049  0.4989 -0.6844  0.7067
 8241SOL     OW36184   3.855   2.394   1.770  0.3279 -0.3551 -0.7564
 8241SOL    HW136185   3.879   2.484   1.793 -3.4116  0.9289 -1.8472
 8241SOL    HW236186   3.760   2.396   1.783  0.1644 -1.4804 -1.7593
 8242SOL     OW36187   3.943   3.309   2.351  0.5146  0.0712  0.1460
 8242SOL    HW136188   3.894   3.334   2.430  1.5635  0.1889  0.7564
 8242SOL    HW236189   3.956   3.394   2.308  1.4383 -0.5736 -0.8420
 8243SOL     OW36190   4.456   4.049   4.495  0.4680 -0.0049  0.2369
 8243SOL    HW136191   4.478   4.133   4.534 -1.3715 -0.2798  1.9177
 8243SOL    HW236192   4.388   4.068   4.431  0.1472 -0.7484  0.3562
 8244SOL     OW36193   0.811   4.370   0.546 -0.4493  0.4032 -0.0728
 8244SOL    HW136194   0.884   4.365   0.485  0.2705 -0.8428  0.8740
 8244SOL    HW236195   0.744   4.393   0.482  0.8349 -0.7043 -1.8081
 8245SOL     OW36196   3.925   4.519   2.541 -0.4357 -0.0490  0.0344
 8245SOL    HW136197   3.953   4.556   2.457  0.7758 -0.0072  0.4636
 8245SOL    HW236198   3.831   4.531   2.527 -0.7152 -2.3781 -0.0256
 8246SOL     OW36199   1.906   1.787   2.832 -0.0890  0.3231 -0.3952
 8246SOL    HW136200   1.961   1.857   2.867  1.9280 -0.0327 -2.8295
 8246SOL    HW236201   1.898   1.819   2.742  2.3281 -0.9226 -1.0476
 8247SOL     OW36202   0.576   4.314   4.964 -0.1824 -0.3306 -0.1423
 8247SOL    HW136203   0.566   4.394   4.913  2.4596 -0.9257 -1.6262
 8247SOL    HW236204   0.577   4.350   5.053 -0.9911  1.0950 -0.7143
 8248SOL     OW36205   4.657   2.156   5.815 -0.0008 -0.1267 -0.1610
 8248SOL    HW136206   4.708   2.195   5.886  0.8198  0.1435 -0.8983
 8248SOL    HW236207   4.719   2.168   5.743 -0.2303  0.8914 -0.1839
 8249SOL     OW36208   3.300   4.425   3.464 -0.4143 -0.0201  0.1264
 8249SOL    HW136209   3.214   4.384   3.472 -1.5920  2.7725  1.8629
 8249SOL    HW236210   3.294   4.485   3.389 -2.4090  0.7078  0.8644
 8250SOL     OW36211   2.283   1.436   2.084 -0.1857  0.4645 -0.2457
 8250SOL    HW136212   2.345   1.505   2.066 -0.1849  0.5225 -0.0201
 8250SOL    HW236213   2.340   1.362   2.106 -2.1905 -0.8523  0.5702
 8251SOL     OW36214   1.841   2.752  13.378  0.4385  0.0373 -0.1558
 8251SOL    HW136215   1.860   2.717  13.291  0.0667 -0.4461 -0.0381
 8251SOL    HW236216   1.746   2.746  13.382  0.4250 -1.5516 -2.6611
 8252SOL     OW36217   2.296   2.614   2.147 -0.2501  0.1830  0.4890
 8252SOL    HW136218   2.282   2.697   2.192  1.6733  0.9965 -0.4373
 8252SOL    HW236219   2.243   2.556   2.201  1.8252 -0.7360  1.5523
 8253SOL     OW36220   4.012   3.511   8.619 -0.3497  0.0373  0.4631
 8253SOL    HW136221   3.923   3.477   8.607  0.1533 -1.7048  1.5891
 8253SOL    HW236222   4.008   3.506   8.715  2.4512  1.9456  0.6659
 8254SOL     OW36223   2.454   3.964   3.708  0.1926  0.2307 -0.3292
 8254SOL    HW136224   2.405   3.917   3.775  0.4679  0.3142 -0.0725
 8254SOL    HW236225   2.511   4.014   3.767  2.4366 -0.9541 -1.4986
 8255SOL     OW36226   4.205   0.498   4.036  0.6819 -0.2931  0.5644
 8255SOL    HW136227   4.280   0.439   4.047  0.9653  0.4132  2.2685
 8255SOL    HW236228   4.139   0.429   4.029 -0.6389  0.9839  0.4475
 8256SOL     OW36229   1.192   3.941   8.552 -0.0522 -0.5852  0.4950
 8256SOL    HW136230   1.122   3.882   8.523 -0.1261 -0.2624  0.0194
 8256SOL    HW236231   1.272   3.891   8.540 -0.2037 -0.4263 -1.1481
 8257SOL     OW36232   2.848   3.244   9.461  0.2251 -0.2998 -0.2321
 8257SOL    HW136233   2.814   3.162   9.497  0.1252  0.9159  2.4731
 8257SOL    HW236234   2.840   3.307   9.533  0.9902 -1.4950  0.8784
 8258SOL     OW36235   1.704   4.533   4.660  0.2703  0.1405 -0.0873
 8258SOL    HW136236   1.675   4.477   4.733 -1.4266  0.5840 -0.4236
 8258SOL    HW236237   1.794   4.505   4.643  0.5401  0.8398  0.2033
 8259SOL     OW36238   0.523   1.424   0.909 -0.3092  0.2436 -0.2285
 8259SOL    HW136239   0.508   1.518   0.900  2.7418  0.5836 -1.8807
 8259SOL    HW236240   0.470   1.379   0.843  2.1678 -0.8332 -1.4534
 8260SOL     OW36241   3.419   0.695   6.201  0.0764 -0.7816  0.4046
 8260SOL    HW136242   3.501   0.744   6.213  0.0039 -0.5382 -0.0829
 8260SOL    HW236243   3.448   0.606   6.223 -1.4762 -0.9379  1.8200
 8261SOL     OW36244   0.312   3.426  15.427  0.3420  0.1168  0.2522
 8261SOL    HW136245   0.290   3.402  15.337 -0.4345  1.7420  0.0281
 8261SOL    HW236246   0.270   3.353  15.473  0.4704 -0.0403  0.1239
 8262SOL     OW36247   4.581   3.827   7.727  0.4345 -0.3991 -0.4908
 8262SOL    HW136248   4.551   3.772   7.800  0.5406  1.2941  0.8053
 8262SOL    HW236249   4.535   3.792   7.650 -1.5856 -2.0721  1.4806
 8263SOL     OW36250   3.402   4.144   3.259  0.7319 -0.7739  0.3016
 8263SOL    HW136251   3.438   4.222   3.301  0.6703  0.3431 -1.6910
 8263SOL    HW236252   3.383   4.087   3.333 -0.4344  0.1076  0.6854
 8264SOL     OW36253   1.079   0.651  16.410 -0.0791 -0.4485  0.2941
 8264SOL    HW136254   1.154   0.614  16.363 -0.8914 -1.4508 -0.2350
 8264SOL    HW236255   1.128   0.701  16.475  1.7120 -1.0542 -0.5814
 8265SOL     OW36256   0.124   2.942   2.286 -0.1752  0.4808  0.1244
 8265SOL    HW136257   0.197   2.945   2.347 -0.5164  2.0899  0.4700
 8265SOL    HW236258   0.143   3.010   2.221 -1.5413  0.1521 -0.6310
 8266SOL     OW36259   1.200   1.729   2.412  0.1198  0.2508  0.5231
 8266SOL    HW136260   1.251   1.657   2.449 -2.1217 -0.9865  1.1464
 8266SOL    HW236261   1.262   1.800   2.429  0.9872  0.1157 -2.1345
 8267SOL     OW36262   2.592   2.822   6.744 -0.0886 -0.2363  0.3776
 8267SOL    HW136263   2.588   2.786   6.833  0.1224 -0.5430  0.2655
 8267SOL    HW236264   2.687   2.823   6.729 -0.1085  2.5955  0.4891
 8268SOL     OW36265   0.485   1.111   8.925  0.1426 -0.0724  0.8880
 8268SOL    HW136266   0.546   1.121   8.852 -0.6711 -0.7784  0.1103
 8268SOL    HW236267   0.466   1.204   8.942  0.3327  0.2820 -0.7344
 8269SOL     OW36268   2.754   0.244   4.866 -0.5159  0.3788 -0.4855
 8269SOL    HW136269   2.702   0.166   4.850  0.3339 -0.5045  1.1124
 8269SOL    HW236270   2.788   0.262   4.778  1.0919 -1.0458 -0.1639
 8270SOL     OW36271   1.157   3.064   1.960  0.2895  0.3064  0.7151
 8270SOL    HW136272   1.146   3.096   2.050  1.4620  0.5846  0.7615
 8270SOL    HW236273   1.168   3.138   1.900  1.0448 -0.9147 -0.6401
 8271SOL     OW36274   4.330   4.286   8.504 -0.2032  0.9516  0.8100
 8271SOL    HW136275   4.358   4.375   8.482  0.9485  0.5722  0.7300
 8271SOL    HW236276   4.365   4.237   8.430 -0.3324 -1.0950  2.1053
 8272SOL     OW36277   0.761   4.385  10.057 -0.3540  0.1372  0.2789
 8272SOL    HW136278   0.796   4.472  10.039  0.6454 -0.5014 -0.8621
 8272SOL    HW236279   0.820   4.370  10.131  0.7912  1.4177 -0.3809
 8273SOL     OW36280   1.165   2.482   6.379  0.3252  0.4430  0.0248
 8273SOL    HW136281   1.103   2.498   6.308  0.0703  0.2758  0.2109
 8273SOL    HW236282   1.229   2.546   6.347 -0.5537  0.2360 -2.1492
 8274SOL     OW36283   1.035   4.622  11.936 -0.3538  0.1642 -0.2299
 8274SOL    HW136284   1.093   4.546  11.935 -2.0693 -1.1704  1.6547
 8274SOL    HW236285   0.948   4.587  11.954  0.3925 -1.4566  0.1724
 8275SOL     OW36286   2.538   3.751   6.256  0.2132 -0.1725 -0.4315
 8275SOL    HW136287   2.477   3.693   6.211 -1.3038  0.5279  0.7071
 8275SOL    HW236288   2.526   3.833   6.208 -0.5947 -0.5324 -0.8405
 8276SOL     OW36289   3.404   2.164   9.132 -0.0154 -0.1280  0.1661
 8276SOL    HW136290   3.432   2.075   9.154  0.4955  0.0187  0.1273
 8276SOL    HW236291   3.488   2.207   9.118 -0.9923  0.2446 -4.3812
 8277SOL     OW36292   2.768   1.698   2.884  0.4809 -0.3879  0.3563
 8277SOL    HW136293   2.808   1.703   2.798  0.5633 -1.9161  0.3099
 8277SOL    HW236294   2.676   1.715   2.861  0.8442 -0.2701 -0.9848
 8278SOL     OW36295   4.049   0.449  17.345  0.1697 -0.6896  0.0909
 8278SOL    HW136296   3.966   0.403  17.354  0.1039 -0.6191 -0.1571
 8278SOL    HW236297   4.025   0.541  17.343 -0.0942 -0.7547  0.2912
 8279SOL     OW36298   0.785   1.619  16.774 -0.3568 -0.6726 -0.2551
 8279SOL    HW136299   0.873   1.593  16.746  0.1852  0.1335  0.6913
 8279SOL    HW236300   0.745   1.533  16.784  1.2755 -1.3846  0.1863
 8280SOL     OW36301   0.738   2.751   2.309  0.2292 -0.0582 -0.5020
 8280SOL    HW136302   0.648   2.736   2.340 -0.9599 -0.0104 -3.9454
 8280SOL    HW236303   0.769   2.663   2.292  0.9342 -0.1969  1.5164
 8281SOL     OW36304   0.107   2.608   2.641  0.0053  1.2692 -0.0441
 8281SOL    HW136305   0.073   2.638   2.556  0.7457 -0.6423 -1.0126
 8281SOL    HW236306   0.165   2.684   2.646  0.6840  0.8031 -0.9919
 8282SOL     OW36307   4.128   4.089   8.664  0.0963 -0.4015 -0.1355
 8282SOL    HW136308   4.149   3.999   8.691 -1.2415 -0.3635  1.0406
 8282SOL    HW236309   4.217   4.117   8.644 -0.2593 -0.0627 -1.2239
 8283SOL     OW36310   1.573   3.522   2.870  0.2438 -0.0973  0.3039
 8283SOL    HW136311   1.524   3.444   2.847  1.9152 -0.6428 -1.4613
 8283SOL    HW236312   1.632   3.529   2.795 -2.3265 -0.3452 -1.7206
 8284SOL     OW36313   3.208   3.514   7.927 -0.1912 -0.2316 -0.6432
 8284SOL    HW136314   3.301   3.520   7.948  0.1421 -0.5684 -2.0787
 8284SOL    HW236315   3.170   3.598   7.953  1.2531 -0.3454  1.8578
 8285SOL     OW36316   1.459   3.136   1.621 -0.3995 -0.0522  0.1623
 8285SOL    HW136317   1.527   3.125   1.555  0.1082  1.2411  0.4725
 8285SOL    HW236318   1.424   3.047   1.618  0.2090 -0.3836  2.9916
 8286SOL     OW36319   2.727   4.572   8.343  0.2350  0.0503  0.0307
 8286SOL    HW136320   2.649   4.601   8.391  0.5342  0.4676  0.2683
 8286SOL    HW236321   2.738   4.485   8.380  0.1666 -0.1956 -0.5293
 8287SOL     OW36322   3.998   3.945  15.896 -0.0062 -0.1836  0.6067
 8287SOL    HW136323   4.025   3.992  15.975 -0.7171  0.5417  0.4232
 8287SOL    HW236324   4.015   4.016  15.834 -0.1098 -0.1014  0.6718
 8288SOL     OW36325   1.402   4.507   6.763 -0.6422  0.3228 -0.5096
 8288SOL    HW136326   1.437   4.570   6.826 -1.4896 -1.1547  1.4296
 8288SOL    HW236327   1.486   4.493   6.718 -0.2622  2.1912 -0.4026
 8289SOL     OW36328   4.192   2.541  15.672  0.3508  0.0401  0.8054
 8289SOL    HW136329   4.097   2.543  15.688 -0.0214  1.0924 -1.5970
 8289SOL    HW236330   4.216   2.614  15.728 -1.5076  1.1097  0.2015
 8290SOL     OW36331   3.303   3.653   5.501 -0.0010 -0.2370 -0.2165
 8290SOL    HW136332   3.240   3.591   5.465  0.0395 -0.7540  0.5882
 8290SOL    HW236333   3.307   3.632   5.594  1.1502  0.3612 -0.1334
 8291SOL     OW36334   2.739   0.075   2.261 -0.9688 -0.0200 -0.9013
 8291SOL    HW136335   2.708   0.146   2.204 -3.3905 -1.7882 -1.7828
 8291SOL    HW236336   2.700   0.006   2.208 -1.0744 -0.9404  0.3772
 8292SOL     OW36337   4.013   1.547   5.277  0.7453 -0.5709  0.0854
 8292SOL    HW136338   4.041   1.458   5.301 -1.9135 -0.6371  2.9897
 8292SOL    HW236339   4.080   1.581   5.218 -1.9767  1.0667 -2.0468
 8293SOL     OW36340   1.569   0.215   5.662  0.1410 -0.4049  0.2977
 8293SOL    HW136341   1.646   0.269   5.678 -0.0958 -0.1395  0.5387
 8293SOL    HW236342   1.544   0.186   5.749  1.3156  0.9528  1.0793
 8294SOL     OW36343   3.310   0.478   4.592 -0.1317  0.8263 -0.0002
 8294SOL    HW136344   3.328   0.467   4.685 -2.0481 -0.0087  0.2568
 8294SOL    HW236345   3.251   0.404   4.578 -0.4745  1.1679 -0.3693
 8295SOL     OW36346   2.443   4.147  12.948 -0.4479 -0.1080 -0.2661
 8295SOL    HW136347   2.484   4.064  12.972  0.7916  0.6117  0.1316
 8295SOL    HW236348   2.509   4.169  12.882  1.1725  0.6765  1.5848
 8296SOL     OW36349   4.499   1.137   7.885 -0.6359  0.3012 -0.3971
 8296SOL    HW136350   4.435   1.069   7.906 -1.2679  1.2647  0.7487
 8296SOL    HW236351   4.444   1.211   7.910 -0.0836  0.9168 -1.0053
 8297SOL     OW36352   0.315   2.980   7.814  0.0376 -0.3130  0.4183
 8297SOL    HW136353   0.303   2.886   7.824  0.4206 -0.3156  0.8214
 8297SOL    HW236354   0.309   3.006   7.906  1.8594  0.7491  0.2339
 8298SOL     OW36355   4.557   1.159   6.376 -0.1941  0.1053  0.3821
 8298SOL    HW136356   4.573   1.067   6.358 -0.7275  0.3658 -1.3937
 8298SOL    HW236357   4.601   1.172   6.460  0.2951  1.2305 -0.0524
 8299SOL     OW36358   2.494   1.331   3.242  0.1623 -0.0495  0.3640
 8299SOL    HW136359   2.435   1.298   3.309  1.4278  2.2359  2.6437
 8299SOL    HW236360   2.495   1.256   3.183  0.1746 -0.8557  1.4099
 8300SOL     OW36361   1.068   3.139   2.210 -0.2873  0.1446  0.3815
 8300SOL    HW136362   1.022   3.214   2.174  0.5339 -0.6152 -2.2134
 8300SOL    HW236363   1.010   3.065   2.190  1.6514 -1.1587 -0.3766
 8301SOL     OW36364   3.809   1.990  10.579  0.3807 -0.1275 -0.1430
 8301SOL    HW136365   3.832   2.004  10.671  0.5663 -0.4487 -0.1384
 8301SOL    HW236366   3.716   1.970  10.580  0.4972 -0.6240  1.1314
 8302SOL     OW36367   1.172   3.618   5.278  0.3487 -0.1241  0.2409
 8302SOL    HW136368   1.112   3.639   5.349 -0.7879 -2.6428  0.0469
 8302SOL    HW236369   1.134   3.533   5.253 -0.9100  0.5986 -0.2612
 8303SOL     OW36370   0.450   3.535   4.336 -0.5463  0.1816  0.2973
 8303SOL    HW136371   0.456   3.609   4.276 -1.5443 -0.5864 -0.7741
 8303SOL    HW236372   0.482   3.557   4.423  0.2769  2.2857 -0.5337
 8304SOL     OW36373   1.868   0.190  12.426 -0.1963 -0.1387 -0.2629
 8304SOL    HW136374   1.823   0.262  12.471 -0.0373  0.4321 -1.0136
 8304SOL    HW236375   1.829   0.107  12.455 -0.0785 -1.7478 -4.7605
 8305SOL     OW36376   1.877   1.409  15.975  0.2160 -0.0901  0.1884
 8305SOL    HW136377   1.889   1.321  15.940 -1.8319  0.2366 -1.3890
 8305SOL    HW236378   1.791   1.426  15.936 -0.3831 -0.8201  1.2063
 8306SOL     OW36379   1.802   2.087   2.583 -0.4401  0.5984  0.6623
 8306SOL    HW136380   1.756   2.133   2.513  1.4074  1.3714 -0.0379
 8306SOL    HW236381   1.757   2.123   2.660 -0.2578  4.2028 -0.8807
 8307SOL     OW36382   2.070   2.753   9.041 -0.0121  0.7194 -0.3022
 8307SOL    HW136383   1.982   2.790   9.034  0.6019  1.9560 -1.3483
 8307SOL    HW236384   2.110   2.839   9.056  0.1603  0.5439  0.2593
 8308SOL     OW36385   3.073   2.976   3.018 -0.9630  0.0046  0.1187
 8308SOL    HW136386   3.121   3.058   3.010 -1.3845  0.0095 -2.5766
 8308SOL    HW236387   2.992   2.983   2.966  0.2004  0.0593 -1.6706
 8309SOL     OW36388   0.070   1.563   0.669  0.0822  0.0722  0.1598
 8309SOL    HW136389   0.125   1.639   0.690 -2.3963  0.9974  3.3351
 8309SOL    HW236390   4.708   1.592   0.704 -0.0715 -1.1513  0.8006
 8310SOL     OW36391   2.359   3.030   1.978 -0.0461  0.0110 -0.8275
 8310SOL    HW136392   2.326   2.986   1.900  2.9358 -0.1312 -2.0205
 8310SOL    HW236393   2.453   3.012   1.972 -0.0597 -1.6161  4.0769
 8311SOL     OW36394   3.966   0.441   5.890 -0.2611 -0.4627 -0.2621
 8311SOL    HW136395   4.039   0.444   5.828 -0.5348  0.4955 -0.5353
 8311SOL    HW236396   3.999   0.370   5.945 -1.3952 -0.1974  0.7490
 8312SOL     OW36397   3.612   0.791   7.487  0.3200  0.2499 -0.2141
 8312SOL    HW136398   3.551   0.854   7.524  0.1402 -0.5473  0.8799
 8312SOL    HW236399   3.672   0.852   7.444  0.9261 -0.4236 -0.3297
 8313SOL     OW36400   0.030   1.575  11.790 -0.0415  0.4559 -0.1877
 8313SOL    HW136401   4.680   1.595  11.730 -0.4719  0.5723  0.3739
 8313SOL    HW236402   4.713   1.516  11.853  1.2473 -0.2818 -0.0593
 8314SOL     OW36403   1.555   0.492   0.511 -0.0251  0.0916  0.0925
 8314SOL    HW136404   1.508   0.409   0.496 -0.2904  0.3869 -0.6967
 8314SOL    HW236405   1.646   0.463   0.516  0.2486  1.0659  0.6984
 8315SOL     OW36406   0.695   2.362  16.434 -0.3167 -0.3222  0.4305
 8315SOL    HW136407   0.625   2.407  16.387  1.1672  0.1890 -1.2750
 8315SOL    HW236408   0.640   2.292  16.468 -0.3033 -0.8778 -0.7290
 8316SOL     OW36409   1.822   0.735   7.950 -0.3408  0.4050 -0.3570
 8316SOL    HW136410   1.820   0.706   7.858 -1.9136  1.3519 -0.6115
 8316SOL    HW236411   1.907   0.705   7.984 -1.4732 -1.3923  0.8451
 8317SOL     OW36412   4.616   0.796   8.429 -0.4724  0.4064 -0.3698
 8317SOL    HW136413   4.624   0.713   8.476 -0.1997 -0.0919 -1.2996
 8317SOL    HW236414   4.560   0.846   8.488  0.3857  1.4868 -0.4711
 8318SOL     OW36415   4.236   0.813   1.270  0.5233 -0.8238  0.5620
 8318SOL    HW136416   4.210   0.883   1.210 -0.6678 -0.7032  1.2209
 8318SOL    HW236417   4.185   0.850   1.342  1.5989  0.7583  0.5242
 8319SOL     OW36418   4.361   3.968   0.082 -0.0771 -0.4327 -0.4689
 8319SOL    HW136419   4.404   3.923   0.009 -1.2625 -2.7101  0.2537
 8319SOL    HW236420   4.268   3.948   0.071 -0.3127  1.1226 -1.4080
 8320SOL     OW36421   3.648   2.508   2.694  0.1949 -0.2935  0.5025
 8320SOL    HW136422   3.727   2.526   2.642  0.7170  1.3867  1.8606
 8320SOL    HW236423   3.677   2.456   2.768 -0.3052 -0.6775  0.4245
 8321SOL     OW36424   2.144   4.278   3.543  0.3135  0.0259 -0.0705
 8321SOL    HW136425   2.071   4.218   3.557  0.5403  0.0578  1.2707
 8321SOL    HW236426   2.202   4.265   3.618  2.3172  1.6592 -1.3345
 8322SOL     OW36427   2.930   1.392   6.674 -0.8516  0.4961  0.3577
 8322SOL    HW136428   2.948   1.328   6.743  1.2248  1.9475  1.1758
 8322SOL    HW236429   3.009   1.446   6.680 -0.6132  0.2697 -0.7901
 8323SOL     OW36430   2.693   4.595   7.369  0.2404 -0.2662 -0.0940
 8323SOL    HW136431   2.640   4.588   7.448  1.7080  0.1430  0.9103
 8323SOL    HW236432   2.694   4.689   7.355 -2.5644 -0.6027 -2.6448
 8324SOL     OW36433   4.664   1.046   5.832 -0.0985  0.5379 -0.5658
 8324SOL    HW136434   4.618   1.128   5.852  1.8214  2.1916 -2.8954
 8324SOL    HW236435   4.715   1.029   5.911  0.3094  0.8242 -0.7701
 8325SOL     OW36436   2.494   1.132  15.694 -0.1459  0.3130  0.2378
 8325SOL    HW136437   2.441   1.165  15.622 -0.1933  0.2958  0.2649
 8325SOL    HW236438   2.570   1.113  15.639  1.5005 -2.0025  3.3387
 8326SOL     OW36439   3.219   2.744   3.790 -0.3706  0.1466 -0.1406
 8326SOL    HW136440   3.223   2.809   3.861  0.0460  1.3011 -1.2191
 8326SOL    HW236441   3.148   2.786   3.743  0.8595  2.6415  0.2450
 8327SOL     OW36442   3.215   3.279   3.599  0.5466  0.0152  0.8553
 8327SOL    HW136443   3.234   3.186   3.611  1.7210  0.1783  0.2781
 8327SOL    HW236444   3.213   3.282   3.503  0.8892  0.3611  0.8593
 8328SOL     OW36445   4.086   0.830   6.634 -0.0602 -0.3526 -0.9339
 8328SOL    HW136446   4.108   0.858   6.546  2.0017 -0.6180 -0.5000
 8328SOL    HW236447   4.001   0.874   6.641 -0.5296 -1.7040  2.1949
 8329SOL     OW36448   0.344   0.183   2.989 -0.0246  0.2342 -0.7680
 8329SOL    HW136449   0.432   0.201   2.956 -0.1665 -0.8391 -1.7116
 8329SOL    HW236450   0.317   0.111   2.932  0.0707 -1.2572  1.0914
 8330SOL     OW36451   0.771   1.402   6.927  0.3351 -0.4105  0.0672
 8330SOL    HW136452   0.728   1.439   7.004 -1.3290 -1.8439 -0.1614
 8330SOL    HW236453   0.716   1.424   6.851  2.0200  2.5428 -0.2865
 8331SOL     OW36454   2.301   3.838   3.916  0.5026  0.0405 -0.2595
 8331SOL    HW136455   2.210   3.839   3.946  0.7168  1.4446  0.3125
 8331SOL    HW236456   2.336   3.768   3.972  1.1010  1.8160  1.6008
 8332SOL     OW36457   1.912   0.840   2.996  0.0935  0.4357  0.1177
 8332SOL    HW136458   1.937   0.748   3.008 -0.2824  0.5940  2.1512
 8332SOL    HW236459   2.001   0.877   2.998 -0.4005  1.6062 -0.0491
 8333SOL     OW36460   1.720   4.527  11.099 -0.5795  0.9063 -0.4123
 8333SOL    HW136461   1.677   4.463  11.042  2.2939  0.5169 -2.1481
 8333SOL    HW236462   1.813   4.507  11.090 -0.9591  0.1838 -2.6375
 8334SOL     OW36463   3.936   0.830   0.160 -0.0352 -0.4247 -0.3003
 8334SOL    HW136464   3.933   0.760   0.225  0.9836  0.1812  0.3894
 8334SOL    HW236465   3.874   0.897   0.190 -0.7324 -0.6999 -1.1065
 8335SOL     OW36466   4.203   1.756   9.209  0.0414  0.1140  0.6091
 8335SOL    HW136467   4.290   1.719   9.192 -0.0400  0.5778 -0.8020
 8335SOL    HW236468   4.189   1.791   9.121 -1.5469 -1.0990  0.3885
 8336SOL     OW36469   1.471   0.529  12.150  0.0147  0.9512  0.5941
 8336SOL    HW136470   1.439   0.619  12.159 -1.9200  0.3108  0.0212
 8336SOL    HW236471   1.550   0.531  12.205  0.5852  0.9681 -0.2257
 8337SOL     OW36472   1.486   3.519   0.060  0.0565 -0.0401  0.2895
 8337SOL    HW136473   1.493   3.432   0.020 -0.8433  0.9798 -2.1250
 8337SOL    HW236474   1.500   3.496   0.152 -3.7084  0.1813  0.9166
 8338SOL     OW36475   3.478   0.384   7.472  0.1587  0.3715 -0.1339
 8338SOL    HW136476   3.554   0.427   7.510 -0.8955  2.8544 -0.8415
 8338SOL    HW236477   3.504   0.294   7.455  0.3028  0.3364  0.2618
 8339SOL     OW36478   1.317   2.603  13.444 -0.2963 -0.0493 -0.0636
 8339SOL    HW136479   1.270   2.613  13.527  0.4582  0.9674  0.2434
 8339SOL    HW236480   1.265   2.663  13.392  0.6173  0.7363 -0.0684
 8340SOL     OW36481   0.113   0.035  13.493  0.0134 -0.1790 -0.3376
 8340SOL    HW136482   0.108   0.105  13.558 -1.3384  1.5053 -2.2045
 8340SOL    HW236483   0.041   0.066  13.437  1.2339 -3.1867 -3.5743
 8341SOL     OW36484   2.879   1.630  11.160  0.3609 -0.4628  0.2816
 8341SOL    HW136485   2.963   1.611  11.119  1.7054  0.7349  2.5212
 8341SOL    HW236486   2.912   1.639  11.249  0.3487 -0.3389  0.2723
 8342SOL     OW36487   3.895   2.645  17.151 -0.1435  0.3152  0.1342
 8342SOL    HW136488   3.904   2.664  17.058 -1.2798 -1.4779 -0.3403
 8342SOL    HW236489   3.895   2.549  17.148 -0.8085  0.4162 -2.3108
 8343SOL     OW36490   3.326   1.783  14.802  0.1888  0.4071  0.3414
 8343SOL    HW136491   3.255   1.847  14.798  0.6103  0.6921 -2.2869
 8343SOL    HW236492   3.388   1.828  14.859 -1.3306 -0.6851  2.9027
 8344SOL     OW36493   0.156   1.586   6.751 -0.2861  0.4375  0.2668
 8344SOL    HW136494   0.076   1.542   6.720 -0.3532  1.1339 -0.5385
 8344SOL    HW236495   0.130   1.677   6.738 -0.6236  1.0271  5.0853
 8345SOL     OW36496   3.686   1.563   7.674 -0.1207 -0.0490 -0.4541
 8345SOL    HW136497   3.645   1.570   7.588 -0.4402 -0.2018 -0.3124
 8345SOL    HW236498   3.655   1.477   7.701 -0.8713  0.5427  0.5817
 8346SOL     OW36499   0.930   0.050  14.519 -0.4147 -0.1125 -0.7009
 8346SOL    HW136500   0.862   0.000  14.473 -2.0580 -1.2086  2.8886
 8346SOL    HW236501   0.989   0.081  14.450 -1.4875  0.3567 -1.4210
 8347SOL     OW36502   3.209   3.413  16.744  0.5187  0.0954 -0.3245
 8347SOL    HW136503   3.171   3.410  16.832  0.3445 -3.3718 -0.4973
 8347SOL    HW236504   3.142   3.467  16.702  0.4801 -1.1192 -1.8564
 8348SOL     OW36505   1.816   4.348   4.035  0.1496  0.1499  0.0480
 8348SOL    HW136506   1.782   4.427   4.075  0.0588 -0.5261  1.3116
 8348SOL    HW236507   1.886   4.382   3.978 -1.1981 -0.6792 -2.1212
 8349SOL     OW36508   1.282   0.103   6.776  0.4275 -0.2104  0.4072
 8349SOL    HW136509   1.203   0.074   6.821  1.8916 -3.6438  0.7894
 8349SOL    HW236510   1.335   0.069   6.848 -0.4730  1.1251  1.7012
 8350SOL     OW36511   3.807   2.019  17.374  0.1540 -0.5912 -0.2402
 8350SOL    HW136512   3.877   2.085  17.368  0.9398 -1.4389 -0.3646
 8350SOL    HW236513   3.782   2.032  17.283 -0.5734  0.6011  0.1185
 8351SOL     OW36514   2.939   2.274   8.307 -0.3165  0.3795  0.1171
 8351SOL    HW136515   2.936   2.271   8.211 -2.2817  3.3568  0.0794
 8351SOL    HW236516   2.988   2.199   8.339 -1.7418  0.1286  1.6929
 8352SOL     OW36517   1.006   0.547   7.250 -0.1525 -0.1572  0.5527
 8352SOL    HW136518   0.912   0.550   7.264 -0.2860  1.5234 -0.7907
 8352SOL    HW236519   1.043   0.548   7.338  1.7398  2.2128 -0.2727
 8353SOL     OW36520   0.302   2.831   8.679  0.0376 -0.5323 -0.2677
 8353SOL    HW136521   0.394   2.855   8.693 -0.0729  0.6122 -1.5345
 8353SOL    HW236522   0.312   2.736   8.689  2.2410 -0.2094  0.6683
 8354SOL     OW36523   2.033   3.445   8.181 -0.1459  0.3243  0.8228
 8354SOL    HW136524   2.059   3.518   8.237 -3.2634  1.0231  1.3749
 8354SOL    HW236525   2.118   3.406   8.162 -0.1359  0.1510  1.2273
 8355SOL     OW36526   3.754   2.968   9.758  0.0451 -0.1012 -0.6705
 8355SOL    HW136527   3.772   3.003   9.845  2.5413 -0.6729 -0.9389
 8355SOL    HW236528   3.686   2.908   9.786 -0.2245  0.9168  0.8654
 8356SOL     OW36529   0.511   4.506   2.447  0.1746  0.2421  0.6162
 8356SOL    HW136530   0.531   4.463   2.364  1.6863  0.2198  0.9942
 8356SOL    HW236531   0.599   4.509   2.483  1.1996 -1.5480 -1.7129
 8357SOL     OW36532   2.847   1.205  12.661 -0.2267  0.0600  0.3892
 8357SOL    HW136533   2.904   1.132  12.638  2.8616  3.0282 -1.4023
 8357SOL    HW236534   2.856   1.207  12.756 -0.6489  1.0960  0.4134
 8358SOL     OW36535   3.779   4.192   0.431  1.0181 -0.5828 -0.5840
 8358SOL    HW136536   3.837   4.193   0.355  1.4946  0.5579 -0.1983
 8358SOL    HW236537   3.765   4.097   0.437  0.3651 -0.4428  0.0316
 8359SOL     OW36538   0.429   0.694   1.545 -0.1498 -0.3883  0.5157
 8359SOL    HW136539   0.454   0.610   1.506 -1.8816 -1.4200  1.6259
 8359SOL    HW236540   0.485   0.674   1.620  2.1270  1.5812 -0.6728
 8360SOL     OW36541   2.232   1.331  11.869  0.1330  0.2735  0.0128
 8360SOL    HW136542   2.153   1.371  11.907 -0.9317 -0.3431 -1.5250
 8360SOL    HW236543   2.226   1.361  11.778 -1.0066  0.1059  0.0334
 8361SOL     OW36544   3.275   3.837   3.644  0.4275  0.0952 -0.2839
 8361SOL    HW136545   3.274   3.874   3.556  1.6645 -2.5027 -1.3762
 8361SOL    HW236546   3.223   3.758   3.631  1.6605 -1.1158  2.0697
 8362SOL     OW36547   3.231   0.108  16.562 -0.7731  0.4207  0.4222
 8362SOL    HW136548   3.252   0.199  16.539 -1.0191  0.6394  1.0555
 8362SOL    HW236549   3.143   0.117  16.598  0.3365  0.9128  2.9831
 8363SOL     OW36550   4.539   1.673  11.286 -0.4390 -0.3474  0.1678
 8363SOL    HW136551   4.586   1.754  11.266 -1.5656  0.4121  0.5464
 8363SOL    HW236552   4.600   1.637  11.350 -0.3726 -2.7579 -1.2797
 8364SOL     OW36553   3.807   2.994  11.013 -0.4536  0.7778 -0.0584
 8364SOL    HW136554   3.870   3.065  11.021 -2.5170  2.2414  3.5389
 8364SOL    HW236555   3.739   3.043  10.967 -1.9348  1.9194  3.2835
 8365SOL     OW36556   3.863   3.828   4.214  0.2960 -0.5929  0.1195
 8365SOL    HW136557   3.839   3.794   4.128  2.4409  1.6347 -1.3638
 8365SOL    HW236558   3.957   3.813   4.219  0.6096  1.7474  1.2851
 8366SOL     OW36559   1.254   2.033   4.765 -0.0779 -0.2656 -0.7379
 8366SOL    HW136560   1.233   1.979   4.689  1.2579  1.4183 -2.2909
 8366SOL    HW236561   1.346   2.007   4.768  0.1807  0.7017 -0.2281
 8367SOL     OW36562   0.234   1.193  15.232 -0.1067  0.7074 -0.4821
 8367SOL    HW136563   0.166   1.257  15.212  0.1022  0.6650 -1.3559
 8367SOL    HW236564   0.269   1.183  15.143  1.1081 -2.3843  0.3399
 8368SOL     OW36565   3.879   0.632   6.340  0.2256  0.6666 -0.5201
 8368SOL    HW136566   3.964   0.659   6.305  0.6316 -1.4298 -1.1991
 8368SOL    HW236567   3.879   0.552   6.286 -0.1166 -0.8371  1.7283
 8369SOL     OW36568   1.677   3.343  11.817  0.0408 -0.2091  0.0420
 8369SOL    HW136569   1.731   3.328  11.894  1.7110 -0.3003 -1.1430
 8369SOL    HW236570   1.591   3.319  11.852 -0.9962  3.1570 -0.2077
 8370SOL     OW36571   2.028   0.435   8.383  0.1337 -0.2523 -0.3326
 8370SOL    HW136572   2.119   0.441   8.353  0.7600 -2.5148  1.1572
 8370SOL    HW236573   2.017   0.344   8.353  0.4438 -0.4441  0.1390
 8371SOL     OW36574   4.513   1.720   8.710  0.1795  0.0102 -0.4610
 8371SOL    HW136575   4.569   1.796   8.699  0.1486  0.2086  0.7547
 8371SOL    HW236576   4.456   1.720   8.633  1.2408 -0.3280 -1.2443
 8372SOL     OW36577   3.832   2.496   6.412  0.3460 -0.0947  0.5620
 8372SOL    HW136578   3.821   2.541   6.496 -0.9937 -1.5216  1.1411
 8372SOL    HW236579   3.767   2.427   6.403  0.8128 -0.3301 -1.0095
 8373SOL     OW36580   0.572   2.970   5.899 -0.3930  0.0352 -0.2929
 8373SOL    HW136581   0.544   2.890   5.855  0.2510 -0.3450 -0.0195
 8373SOL    HW236582   0.660   2.985   5.864 -0.1998  3.5091  1.6690
 8374SOL     OW36583   4.529   0.132   6.675  0.1125  0.6914 -0.1988
 8374SOL    HW136584   4.583   0.210   6.686 -0.6665  1.0375  1.2669
 8374SOL    HW236585   4.563   0.086   6.598 -0.5036  1.3322 -0.8585
 8375SOL     OW36586   0.296   4.055   7.708 -0.4541  0.0085 -1.0850
 8375SOL    HW136587   0.297   3.973   7.758 -0.7461  1.7699  1.8393
 8375SOL    HW236588   0.217   4.049   7.655  0.1225 -2.1876 -1.6726
 8376SOL     OW36589   1.554   2.728   3.439 -0.1766  0.1894  0.2500
 8376SOL    HW136590   1.492   2.748   3.509  0.2017  0.8268  0.3986
 8376SOL    HW236591   1.592   2.644   3.465 -0.0458  1.0673  2.8886
 8377SOL     OW36592   2.242   1.693   8.356 -0.1150 -0.3020  0.6251
 8377SOL    HW136593   2.261   1.618   8.299 -0.3125 -0.2195  0.4519
 8377SOL    HW236594   2.152   1.720   8.340  0.0599 -0.1939 -0.1280
 8378SOL     OW36595   2.182   1.500  11.289 -0.0202  0.5136 -0.5552
 8378SOL    HW136596   2.212   1.588  11.268  1.1040  0.9540  2.9996
 8378SOL    HW236597   2.227   1.441  11.228 -0.5813  1.6339 -2.0597
 8379SOL     OW36598   0.361   1.184   6.288  1.2419 -0.3502 -0.0146
 8379SOL    HW136599   0.389   1.247   6.222 -0.6402  1.5218  0.9741
 8379SOL    HW236600   0.297   1.228   6.344  0.3430  1.6029 -2.5814
 8380SOL     OW36601   4.197   0.602   4.883 -0.0967  0.1709 -0.0598
 8380SOL    HW136602   4.173   0.674   4.941  0.8261 -0.5865  1.2628
 8380SOL    HW236603   4.214   0.652   4.803 -0.7976 -0.8200 -0.8353
 8381SOL     OW36604   0.995   3.253  11.805 -0.7439 -0.3873  0.0575
 8381SOL    HW136605   0.954   3.303  11.876  0.4819 -0.3487  0.7285
 8381SOL    HW236606   0.983   3.322  11.740  1.9288 -0.4850 -0.5227
 8382SOL     OW36607   4.655   1.920   1.544  0.4224  0.1371  0.4454
 8382SOL    HW136608   4.564   1.895   1.525  0.8841 -1.7268  0.7275
 8382SOL    HW236609   4.649   1.923   1.639 -1.5223 -0.8066  0.3604
 8383SOL     OW36610   3.951   3.001   7.291 -0.4268 -0.9198  0.3795
 8383SOL    HW136611   4.013   3.068   7.265 -0.4185 -0.8855  0.4859
 8383SOL    HW236612   3.920   2.964   7.208 -0.1583  0.6508 -0.3986
 8384SOL     OW36613   3.974   4.675   8.799 -0.0881 -0.1109  0.1034
 8384SOL    HW136614   4.054   4.688   8.850  0.4897 -0.3858 -0.7287
 8384SOL    HW236615   4.004   4.628   8.721 -0.1009  1.9236 -1.1388
 8385SOL     OW36616   1.780   1.173   6.829  0.5454 -0.0548 -0.0423
 8385SOL    HW136617   1.795   1.184   6.736  1.3797 -2.4457 -0.1994
 8385SOL    HW236618   1.707   1.111   6.835  0.9989 -0.3764  2.3109
 8386SOL     OW36619   1.214   4.473   9.644 -0.5188  0.2027 -0.0162
 8386SOL    HW136620   1.128   4.470   9.603 -0.5598 -0.4718  0.1050
 8386SOL    HW236621   1.263   4.472   9.561 -0.0725 -0.7610  0.2498
 8387SOL     OW36622   3.373   1.817   3.559 -0.0306 -0.2769 -0.3791
 8387SOL    HW136623   3.443   1.773   3.607 -1.7314 -1.1900  1.2830
 8387SOL    HW236624   3.341   1.739   3.513 -2.8433  0.3979  0.4462
 8388SOL     OW36625   1.701   4.120   1.720 -0.1718  0.0320  0.5203
 8388SOL    HW136626   1.717   4.113   1.814  1.5566 -0.5367  0.1751
 8388SOL    HW236627   1.611   4.087   1.719 -0.2237  0.1557  1.1171
 8389SOL     OW36628   3.961   2.641   1.254  0.1802  0.1649 -1.0150
 8389SOL    HW136629   3.886   2.593   1.218  0.1077 -1.3684  1.1422
 8389SOL    HW236630   4.029   2.611   1.194  2.4301  0.6442  1.3075
 8390SOL     OW36631   0.175   3.132   5.233 -0.2318  0.3290  0.2437
 8390SOL    HW136632   0.147   3.044   5.207  0.4917  0.0039  0.5490
 8390SOL    HW236633   0.249   3.133   5.172 -0.1488  2.5413  0.3862
 8391SOL     OW36634   0.949   2.284   6.673 -0.0148  0.0050 -0.9803
 8391SOL    HW136635   0.938   2.379   6.672 -0.7258 -0.0661 -0.1597
 8391SOL    HW236636   1.038   2.274   6.640  1.6086  3.0340  2.5019
 8392SOL     OW36637   2.351   3.752   2.860 -0.0585  0.4902 -0.1409
 8392SOL    HW136638   2.437   3.719   2.834  0.6721 -0.0053  3.0248
 8392SOL    HW236639   2.305   3.753   2.776 -3.1139 -3.0750  1.4581
 8393SOL     OW36640   1.185   0.066   2.603  0.6127 -0.1299 -0.2020
 8393SOL    HW136641   1.203   0.000   2.536 -2.2216 -1.9099  0.8056
 8393SOL    HW236642   1.122   0.120   2.556 -1.5295 -0.6235  2.0792
 8394SOL     OW36643   1.164   3.954  16.237 -0.3448  0.4496  0.2433
 8394SOL    HW136644   1.115   3.919  16.162 -0.5527 -1.0704  1.0842
 8394SOL    HW236645   1.137   4.045  16.251 -1.4078  0.0768  0.5772
 8395SOL     OW36646   2.983   0.682   6.157  0.0250  0.4127  0.0261
 8395SOL    HW136647   2.986   0.752   6.091 -2.5713 -0.3474 -0.8712
 8395SOL    HW236648   3.018   0.730   6.233  1.5064 -0.1228 -0.3233
 8396SOL     OW36649   1.265   1.913   6.256 -0.2304 -0.4516 -0.1520
 8396SOL    HW136650   1.260   1.887   6.348  1.2869  0.8205  0.2909
 8396SOL    HW236651   1.304   2.000   6.268  1.9468 -1.2405 -1.5105
 8397SOL     OW36652   0.115   3.227   1.163  0.7571 -0.5090  0.2121
 8397SOL    HW136653   0.148   3.316   1.148  1.3329 -0.7347  0.1416
 8397SOL    HW236654   0.037   3.217   1.109 -1.2284  0.7371  2.8231
 8398SOL     OW36655   1.186   4.233   0.919 -0.3133  0.2920  0.4980
 8398SOL    HW136656   1.199   4.174   0.845  1.9689 -0.9610  1.8833
 8398SOL    HW236657   1.174   4.178   0.997 -0.6848  1.8383  1.5479
 8399SOL     OW36658   2.844   0.412   3.640 -0.0466 -0.0944 -0.5074
 8399SOL    HW136659   2.867   0.321   3.658 -0.8114 -0.7436 -2.8071
 8399SOL    HW236660   2.809   0.417   3.551 -0.2932  0.3747 -0.3824
 8400SOL     OW36661   1.265   0.984  13.543 -0.1327  0.2050  0.3703
 8400SOL    HW136662   1.248   0.890  13.546 -0.2278  0.1917 -0.5588
 8400SOL    HW236663   1.176   1.016  13.529 -0.4411  0.8233  3.7554
 8401SOL     OW36664   0.258   0.037   3.235  0.0089  0.1180  0.3330
 8401SOL    HW136665   0.216   0.109   3.189  0.1778 -0.1090 -0.1793
 8401SOL    HW236666   0.348   0.065   3.253  0.8217 -2.5265  0.3774
 8402SOL     OW36667   4.536   3.171   9.602 -0.6500 -0.1635  0.0443
 8402SOL    HW136668   4.534   3.176   9.506 -2.2758  2.8397  0.2307
 8402SOL    HW236669   4.451   3.208   9.625 -0.6897 -0.6593  0.6808
 8403SOL     OW36670   2.191   1.602   2.596 -0.1263  0.2804 -0.7450
 8403SOL    HW136671   2.147   1.682   2.569 -0.8494 -0.6641 -2.3511
 8403SOL    HW236672   2.225   1.564   2.515 -0.1282  0.5198 -0.8583
 8404SOL     OW36673   4.627   2.467  13.812  0.3168  0.6462 -0.2326
 8404SOL    HW136674   4.687   2.496  13.881  0.5044  0.8292 -0.4747
 8404SOL    HW236675   4.558   2.533  13.815 -0.6313 -0.2557 -1.9287
 8405SOL     OW36676   0.178   0.582  14.329 -0.2404 -0.1933 -1.0803
 8405SOL    HW136677   0.170   0.489  14.350 -1.1815  0.2207  0.3282
 8405SOL    HW236678   0.246   0.572  14.261  0.8904 -2.1595  0.3401
 8406SOL     OW36679   2.123   2.674   8.221 -0.4929  0.3243 -0.6433
 8406SOL    HW136680   2.110   2.589   8.178 -0.0362 -0.2179  0.2874
 8406SOL    HW236681   2.197   2.657   8.279 -2.2897 -0.0514  1.5469
 8407SOL     OW36682   0.742   0.524   2.534  0.6719 -0.2899 -0.4195
 8407SOL    HW136683   0.821   0.516   2.480  0.3347 -0.5282 -0.8712
 8407SOL    HW236684   0.713   0.609   2.503 -2.7430 -1.2063  0.3000
 8408SOL     OW36685   2.963   0.971   3.780  0.2199 -0.2186  0.1856
 8408SOL    HW136686   2.934   1.027   3.708  0.8163  1.5594  1.3129
 8408SOL    HW236687   3.028   0.915   3.738  0.3507 -1.1696  1.6612
 8409SOL     OW36688   3.671   1.608  13.697 -0.0945  0.0823 -0.2500
 8409SOL    HW136689   3.602   1.543  13.678  0.7315 -0.6822 -0.6315
 8409SOL    HW236690   3.610   1.675  13.726  1.6963  1.6339 -0.1121
 8410SOL     OW36691   0.087   2.143   5.592  0.1988  0.0181 -0.0945
 8410SOL    HW136692   0.147   2.071   5.574  2.6685  2.0321  0.1285
 8410SOL    HW236693   0.024   2.133   5.521  1.0649  3.5046 -1.3360
 8411SOL     OW36694   2.706   2.063  10.101 -0.0192 -0.0868  0.3007
 8411SOL    HW136695   2.682   1.975  10.128 -0.6679 -0.6955 -2.2774
 8411SOL    HW236696   2.649   2.115  10.157 -0.9018 -0.4395 -0.2749
 8412SOL     OW36697   2.001   4.465   6.651  0.4113  0.2440  0.0608
 8412SOL    HW136698   1.926   4.524   6.650 -0.6476 -1.0707  0.5141
 8412SOL    HW236699   1.982   4.418   6.733  1.5021 -0.6716 -0.2049
 8413SOL     OW36700   0.008   2.973  17.386 -0.1082 -0.2374 -0.0628
 8413SOL    HW136701   0.080   2.909  17.390  0.8860  0.9938  1.6989
 8413SOL    HW236702   4.676   2.931  17.319  0.2463 -1.5502  0.4554
 8414SOL     OW36703   3.851   3.633   4.011 -0.1520 -0.0100 -0.4936
 8414SOL    HW136704   3.901   3.556   4.035  0.6794  0.5588 -0.4065
 8414SOL    HW236705   3.781   3.595   3.957 -0.3192 -0.6531  0.1726
 8415SOL     OW36706   2.072   1.950   1.145  0.5392 -0.0038 -0.6964
 8415SOL    HW136707   2.106   1.953   1.056  0.8823  0.1665 -0.5574
 8415SOL    HW236708   2.102   2.027   1.192 -0.4183  0.3465 -0.6484
 8416SOL     OW36709   0.304   1.444  12.903  0.9051  0.0873 -0.0438
 8416SOL    HW136710   0.272   1.454  12.813 -0.7427  2.6894  0.8282
 8416SOL    HW236711   0.344   1.357  12.907 -1.0540 -0.8043 -0.0995
 8417SOL     OW36712   0.706   1.990   2.754  0.1612 -0.2583 -0.1664
 8417SOL    HW136713   0.649   2.054   2.712  1.6490  1.1836  0.0367
 8417SOL    HW236714   0.688   2.012   2.846  0.3377  0.0553 -0.2071
 8418SOL     OW36715   2.010   3.065   3.086 -0.1159 -0.1547  0.2106
 8418SOL    HW136716   2.056   3.093   3.006  2.7568  0.3724  2.0436
 8418SOL    HW236717   2.018   3.146   3.135  0.2898 -0.9393  1.4229
 8419SOL     OW36718   0.596   3.864   3.534  0.3274 -0.6171  0.1135
 8419SOL    HW136719   0.585   3.811   3.456 -2.2667  1.6864 -1.0832
 8419SOL    HW236720   0.652   3.938   3.508  0.0070  0.5927  2.8667
 8420SOL     OW36721   3.281   2.999   8.731 -0.0714  0.7310  0.2220
 8420SOL    HW136722   3.277   3.055   8.809  0.3542  0.9220  0.1064
 8420SOL    HW236723   3.346   2.932   8.752 -2.5013 -1.0746  1.8997
 8421SOL     OW36724   0.845   3.977   6.694  0.5266 -0.1529  0.7311
 8421SOL    HW136725   0.844   3.932   6.779  0.9126 -0.5410  0.5287
 8421SOL    HW236726   0.937   4.000   6.707  0.5988 -1.3933  2.4520
 8422SOL     OW36727   3.823   1.504   2.834 -0.1634  0.3024 -0.0087
 8422SOL    HW136728   3.897   1.558   2.806  0.4758 -1.9356 -2.6168
 8422SOL    HW236729   3.758   1.541   2.775 -0.2993  1.7445  1.0291
 8423SOL     OW36730   0.830   0.381   2.987  0.4047  0.0122  0.2300
 8423SOL    HW136731   0.915   0.424   2.971  0.3463 -0.3223 -0.9395
 8423SOL    HW236732   0.771   0.449   2.953 -0.7301 -1.3134 -0.4139
 8424SOL     OW36733   3.782   4.455   7.163  0.1785 -0.1407  0.0227
 8424SOL    HW136734   3.687   4.461   7.147  0.1147 -2.7846 -0.7283
 8424SOL    HW236735   3.828   4.512   7.102 -1.1785 -1.2237 -2.0336
 8425SOL     OW36736   3.511   4.047   4.900  0.1066  0.1192  0.1057
 8425SOL    HW136737   3.441   4.076   4.842 -1.5816 -0.6350  1.7794
 8425SOL    HW236738   3.478   4.073   4.987  0.6907  1.1077  0.0413
 8426SOL     OW36739   2.945   2.247   8.036 -0.3282  0.3668 -0.8387
 8426SOL    HW136740   2.966   2.154   8.022 -2.3333 -0.1491 -0.3214
 8426SOL    HW236741   2.957   2.280   7.947 -0.7411 -0.1530 -1.0914
 8427SOL     OW36742   4.174   4.218   4.892  0.2262  0.1497 -0.0445
 8427SOL    HW136743   4.137   4.198   4.978 -0.7285 -3.1328 -1.2220
 8427SOL    HW236744   4.256   4.168   4.894 -0.3685 -0.8680 -1.6862
 8428SOL     OW36745   3.663   0.087   7.260  0.6610 -0.0948 -0.1649
 8428SOL    HW136746   3.594   0.099   7.326  0.3389 -0.8026 -0.3704
 8428SOL    HW236747   3.735   0.088   7.324  0.8627 -2.6864 -0.3531
 8429SOL     OW36748   3.943   2.373  15.485  0.3099  0.1346 -0.8073
 8429SOL    HW136749   3.852   2.379  15.453  0.6913  0.6773 -1.8167
 8429SOL    HW236750   3.946   2.432  15.560  1.0801  0.1376 -0.8459
 8430SOL     OW36751   4.708   3.354   5.308  0.0443 -0.3246  0.2215
 8430SOL    HW136752   0.067   3.311   5.285 -0.0805 -0.5202  0.1370
 8430SOL    HW236753   4.700   3.407   5.228  0.3174  1.2269  1.2116
 8431SOL     OW36754   2.595   0.062   8.513  0.2594 -0.3161 -0.9200
 8431SOL    HW136755   2.614   0.155   8.496  3.4778 -0.8381 -0.2629
 8431SOL    HW236756   2.620   0.046   8.604  0.1469 -1.3944 -1.0738
 8432SOL     OW36757   3.025   1.862   5.735  0.0674  0.3517 -0.3979
 8432SOL    HW136758   3.033   1.957   5.734 -0.2702  0.4017  3.1283
 8432SOL    HW236759   3.108   1.839   5.776  1.3031  0.7872 -2.6228
 8433SOL     OW36760   2.847   0.002  10.390  0.3826  0.2686  0.1187
 8433SOL    HW136761   2.825   4.647  10.340  0.5226  1.6060 -2.0499
 8433SOL    HW236762   2.915   0.038  10.333 -1.2464  2.1359 -0.6612
 8434SOL     OW36763   0.732   4.535   4.367 -0.3598  0.4629 -0.1542
 8434SOL    HW136764   0.816   4.527   4.411 -1.5837 -0.7524  2.0152
 8434SOL    HW236765   0.767   4.506   4.283 -1.6017 -0.3760 -0.3985
 8435SOL     OW36766   2.395   3.025  11.957  0.1637 -0.4171  0.5109
 8435SOL    HW136767   2.354   3.010  12.042 -2.6981 -0.3166 -0.8564
 8435SOL    HW236768   2.347   2.960  11.907  1.0255 -1.1749  0.6728
 8436SOL     OW36769   2.085   3.382   4.320  0.1283  0.1575  0.0096
 8436SOL    HW136770   2.180   3.390   4.306  0.5071 -2.1993  1.3079
 8436SOL    HW236771   2.064   3.349   4.232  4.9265 -0.8002 -0.8104
 8437SOL     OW36772   3.324   4.655   4.623  0.0951 -0.4289 -0.2216
 8437SOL    HW136773   3.328   4.565   4.654 -0.1751 -0.2508  0.3304
 8437SOL    HW236774   3.411   4.667   4.584  1.4879 -1.5748  2.5582
 8438SOL     OW36775   0.861   3.057   3.137 -0.0463 -0.3601 -0.1424
 8438SOL    HW136776   0.923   3.096   3.076 -0.2312  1.3802  0.7695
 8438SOL    HW236777   0.882   3.105   3.218  0.9508 -0.7308 -0.1781
 8439SOL     OW36778   4.163   3.685   1.602 -0.5239  0.0653  0.0160
 8439SOL    HW136779   4.239   3.638   1.637 -0.2211  1.2564  0.9456
 8439SOL    HW236780   4.205   3.749   1.544 -0.9030 -0.5203 -0.9074
 8440SOL     OW36781   4.213   4.015   6.932 -0.3901 -0.1439  0.5798
 8440SOL    HW136782   4.127   4.014   6.975 -0.3733 -3.4995  0.4758
 8440SOL    HW236783   4.199   4.087   6.870  2.5733 -1.6550 -1.8292
 8441SOL     OW36784   3.489   4.018  15.777 -0.1622 -0.2028  1.0581
 8441SOL    HW136785   3.492   4.015  15.873  1.3327  0.6599  1.0448
 8441SOL    HW236786   3.396   4.023  15.755 -0.0471  0.7081  0.7908
 8442SOL     OW36787   2.233   4.425  16.755 -0.2884 -0.0789 -0.1735
 8442SOL    HW136788   2.270   4.340  16.730  0.7940  0.9107 -1.9884
 8442SOL    HW236789   2.301   4.492  16.758  0.9192 -1.3426  0.5165
 8443SOL     OW36790   2.830   3.142   2.088  0.3746 -0.2701  0.3230
 8443SOL    HW136791   2.781   3.224   2.093 -0.6929 -0.8676 -0.2818
 8443SOL    HW236792   2.759   3.088   2.054  2.2441 -2.0761 -0.7017
 8444SOL     OW36793   0.654   3.273   4.921 -0.0458  0.1976 -0.4588
 8444SOL    HW136794   0.567   3.233   4.922  0.8120 -1.6454 -0.8662
 8444SOL    HW236795   0.667   3.295   4.828  1.1047 -2.4452 -0.8976
 8445SOL     OW36796   4.130   0.978   6.399 -0.1575  0.3956 -0.3507
 8445SOL    HW136797   4.153   1.044   6.333  0.1353 -1.1323 -1.7700
 8445SOL    HW236798   4.220   0.946   6.403 -0.7554 -1.4927 -2.1363
 8446SOL     OW36799   1.499   3.046  14.623 -0.6178 -0.2529 -0.2263
 8446SOL    HW136800   1.420   3.100  14.617 -0.3299  0.0923 -0.9650
 8446SOL    HW236801   1.503   3.012  14.533 -5.0159 -0.9899 -0.1398
 8447SOL     OW36802   2.172   3.264  16.355 -0.6995  0.4961  0.0310
 8447SOL    HW136803   2.121   3.274  16.274  0.6263 -0.9342 -0.9761
 8447SOL    HW236804   2.172   3.352  16.392 -1.1245 -0.3625  2.0195
 8448SOL     OW36805   1.848   1.253   2.018 -0.7447  0.4036 -0.7676
 8448SOL    HW136806   1.927   1.298   1.988  1.0327 -0.7417  2.1158
 8448SOL    HW236807   1.781   1.320   2.032 -0.2918  0.5648  0.6226
 8449SOL     OW36808   2.625   1.744  10.039 -0.0590  0.1526  0.1121
 8449SOL    HW136809   2.608   1.793   9.959  3.3008  1.0585 -0.0375
 8449SOL    HW236810   2.557   1.778  10.098  1.5207 -0.0674  2.0490
 8450SOL     OW36811   0.651   1.929  12.115  0.5344  0.3797  0.2263
 8450SOL    HW136812   0.718   1.881  12.164  2.9465  1.8703 -1.6600
 8450SOL    HW236813   0.633   1.871  12.041  0.8536 -3.0005  2.7768
 8451SOL     OW36814   3.430   3.337   7.440 -0.4577 -0.4008  0.1621
 8451SOL    HW136815   3.512   3.367   7.480 -0.0018 -1.3917 -0.0240
 8451SOL    HW236816   3.411   3.259   7.493  0.6057  1.3751  3.1683
 8452SOL     OW36817   3.016   1.313  14.870  0.0023 -0.0875 -0.1381
 8452SOL    HW136818   3.005   1.349  14.782 -1.7263  0.3621  0.2712
 8452SOL    HW236819   3.109   1.323  14.888  0.6067 -0.1040 -3.1049
 8453SOL     OW36820   4.268   2.950  13.736  0.1223  0.2239  0.5944
 8453SOL    HW136821   4.318   2.934  13.816 -1.2448  0.9552  1.6130
 8453SOL    HW236822   4.252   3.045  13.741 -0.3491  0.1545  0.4309
 8454SOL     OW36823   2.386   2.603   7.464  0.1972  0.3137  1.0094
 8454SOL    HW136824   2.441   2.671   7.503  0.6899  1.4406 -1.6815
 8454SOL    HW236825   2.444   2.528   7.478 -0.3192 -0.2638  0.0657
 8455SOL     OW36826   4.229   0.279   1.902  0.1336  0.1424  0.0143
 8455SOL    HW136827   4.235   0.197   1.951  1.8963  0.7915  0.8817
 8455SOL    HW236828   4.149   0.325   1.928  0.1615  0.2570 -0.1037
 8456SOL     OW36829   4.448   2.758   8.422  0.4378  0.1709 -0.6886
 8456SOL    HW136830   4.359   2.792   8.423 -0.1984 -1.4410 -1.8959
 8456SOL    HW236831   4.488   2.818   8.358  0.1792  1.6936  0.5675
 8457SOL     OW36832   3.418   1.058   9.083 -0.6252  0.1946 -0.4210
 8457SOL    HW136833   3.331   1.022   9.065 -0.0730 -1.4237  0.1859
 8457SOL    HW236834   3.407   1.118   9.157 -0.1513 -1.5566  1.0668
 8458SOL     OW36835   0.498   4.001   1.451 -0.5984 -0.5233  0.0252
 8458SOL    HW136836   0.480   4.092   1.430 -0.7628 -0.5346  0.1131
 8458SOL    HW236837   0.498   3.962   1.363 -2.8832 -0.4436 -0.0237
 8459SOL     OW36838   4.495   0.218   1.322  0.4671  0.1892 -0.0074
 8459SOL    HW136839   4.469   0.283   1.388 -1.4807 -1.4404  0.8119
 8459SOL    HW236840   4.498   0.270   1.242 -1.2123  0.9823  0.4541
 8460SOL     OW36841   0.541   2.141  15.169  0.1517 -0.0248  0.4084
 8460SOL    HW136842   0.631   2.165  15.149  0.6780 -2.5552 -0.1627
 8460SOL    HW236843   0.516   2.089  15.093  1.9004  0.8946 -0.8176
 8461SOL     OW36844   0.526   0.325   6.740 -0.1478  0.4678 -0.4292
 8461SOL    HW136845   0.601   0.336   6.682  0.9539 -0.7880  0.7884
 8461SOL    HW236846   0.523   0.229   6.732 -1.2936  0.5500 -1.1682
 8462SOL     OW36847   4.431   2.666  13.862  0.0884 -0.1290 -0.2479
 8462SOL    HW136848   4.463   2.756  13.874 -0.9852  0.5023 -2.2919
 8462SOL    HW236849   4.349   2.670  13.910  0.5083 -3.5686  0.7498
 8463SOL     OW36850   3.168   4.613   2.528  0.5729  0.5800  0.2347
 8463SOL    HW136851   3.107   4.613   2.602  2.4261 -1.7745  1.7488
 8463SOL    HW236852   3.100   4.628   2.462 -0.2502 -1.4785  0.6347
 8464SOL     OW36853   1.125   4.600   7.631 -0.2670  0.0628 -0.1109
 8464SOL    HW136854   1.209   4.645   7.632 -1.2344  1.8452  0.6293
 8464SOL    HW236855   1.147   4.530   7.694 -1.5644  0.7755  1.1361
 8465SOL     OW36856   3.226   1.087   6.991 -0.0222 -0.1400  0.0879
 8465SOL    HW136857   3.184   1.122   7.070 -0.1416  0.4700 -0.2426
 8465SOL    HW236858   3.234   0.992   6.996 -0.4779 -0.1856 -0.0053
 8466SOL     OW36859   1.489   2.351   6.575  0.1685  0.5335 -0.0744
 8466SOL    HW136860   1.515   2.377   6.487  0.7801 -3.5862 -1.1270
 8466SOL    HW236861   1.569   2.302   6.598 -0.2767 -0.0747  0.1779
 8467SOL     OW36862   0.219   4.638  13.066  0.1320 -0.4060  0.7716
 8467SOL    HW136863   0.309   4.621  13.092  0.3223 -0.0316  0.3652
 8467SOL    HW236864   0.185   4.554  13.036 -0.8908  1.0810 -2.2541
 8468SOL     OW36865   3.973   4.006   7.045 -0.2460 -0.4796  0.5135
 8468SOL    HW136866   3.881   3.985   7.025  0.2748 -0.9335 -1.4248
 8468SOL    HW236867   3.978   3.983   7.138  0.8194 -1.9653  0.0841
 8469SOL     OW36868   2.549   1.790   1.944  0.8727 -0.1483 -0.2738
 8469SOL    HW136869   2.632   1.826   1.975  0.9715 -0.9618  0.3710
 8469SOL    HW236870   2.576   1.700   1.929  3.1426  0.3782  0.6721
 8470SOL     OW36871   1.850   1.239  11.360 -0.2932  0.5621  0.6066
 8470SOL    HW136872   1.903   1.305  11.406 -0.8260  0.6729  1.0599
 8470SOL    HW236873   1.790   1.301  11.319 -0.8213  0.0875  0.6580
 8471SOL     OW36874   3.322   1.504   9.443 -0.4609 -0.1250  0.2168
 8471SOL    HW136875   3.227   1.497   9.444 -0.3663 -1.7523 -1.3182
 8471SOL    HW236876   3.353   1.427   9.491 -0.4074  0.2092  0.7124
 8472SOL     OW36877   2.528   1.853  14.085 -0.0144  0.8121  0.3687
 8472SOL    HW136878   2.574   1.843  14.168  0.5867 -0.5652 -0.1356
 8472SOL    HW236879   2.588   1.802  14.032 -1.0073 -0.6852  0.6837
 8473SOL     OW36880   0.628   3.432   8.048  0.2773  0.1546 -0.0403
 8473SOL    HW136881   0.663   3.485   8.119 -1.7019  0.8361  0.4314
 8473SOL    HW236882   0.563   3.381   8.096 -0.2840  1.9284  1.0857
 8474SOL     OW36883   3.882   3.668   7.856 -0.1500 -0.9683 -0.1193
 8474SOL    HW136884   3.852   3.746   7.902 -0.2440 -1.2691  0.3273
 8474SOL    HW236885   3.864   3.590   7.908 -3.0982  0.4410  0.9565
 8475SOL     OW36886   2.103   4.520  13.998 -0.2487 -0.0693  0.0067
 8475SOL    HW136887   2.129   4.596  14.050  1.7460 -0.6452 -0.1487
 8475SOL    HW236888   2.151   4.455  14.049  0.1410  1.0828  1.1002
 8476SOL     OW36889   3.454   0.641   6.862 -0.0751  0.2686  0.5695
 8476SOL    HW136890   3.382   0.589   6.897 -1.9878  2.6445  0.1045
 8476SOL    HW236891   3.529   0.584   6.882 -1.9507 -2.4359 -0.1198
 8477SOL     OW36892   2.459   1.074   5.822 -0.2386 -0.4506  0.6465
 8477SOL    HW136893   2.517   1.134   5.775 -0.8700 -0.4668 -0.1575
 8477SOL    HW236894   2.492   0.989   5.791  1.5705  1.6538 -3.2277
 8478SOL     OW36895   4.334   0.584  13.597  0.2552  0.2047  0.1767
 8478SOL    HW136896   4.355   0.650  13.664  0.1899 -0.0778  0.4739
 8478SOL    HW236897   4.360   0.502  13.638  0.0532  0.8910  1.6696
 8479SOL     OW36898   1.869   4.600   7.407 -0.1450 -0.5966 -0.0769
 8479SOL    HW136899   1.889   4.553   7.488 -0.0333 -0.1831  0.1352
 8479SOL    HW236900   1.841   4.519   7.365  0.7069 -0.5834 -0.6716
 8480SOL     OW36901   1.877   3.220   4.815  0.0513 -0.6718 -0.1122
 8480SOL    HW136902   1.919   3.298   4.851 -1.0115 -0.9688  1.7641
 8480SOL    HW236903   1.958   3.172   4.798  0.2484  0.2424 -1.7311
 8481SOL     OW36904   1.866   1.773   9.948 -0.0030 -0.2267  0.3810
 8481SOL    HW136905   1.894   1.861   9.923  0.8474 -0.7045 -0.3421
 8481SOL    HW236906   1.772   1.780   9.962  0.0731 -0.5699  1.0445
 8482SOL     OW36907   0.691   0.031   8.740 -0.1420 -0.0069 -0.5643
 8482SOL    HW136908   0.763   4.691   8.745 -0.5841 -0.1881  3.0330
 8482SOL    HW236909   0.723   0.081   8.815 -1.0715 -0.8564  0.3840
 8483SOL     OW36910   4.683   1.334  13.943  0.3471 -0.4165  0.0926
 8483SOL    HW136911   4.633   1.415  13.956  1.1596  0.2791 -1.1127
 8483SOL    HW236912   0.028   1.349  14.009  0.9536  1.5663 -0.9627
 8484SOL     OW36913   4.362   4.548  12.202 -0.2522 -0.1131 -0.4592
 8484SOL    HW136914   4.353   4.601  12.281  2.3747 -1.0792  0.4736
 8484SOL    HW236915   4.457   4.539  12.201 -0.2102  0.2393  1.0255
 8485SOL     OW36916   2.360   2.852   8.350  0.1149  0.0232 -0.1104
 8485SOL    HW136917   2.372   2.758   8.358 -1.8519 -0.2031  0.1726
 8485SOL    HW236918   2.424   2.879   8.415 -0.8917  1.1223  0.4360
 8486SOL     OW36919   1.680   3.953   4.842 -0.2803 -0.0800 -0.2128
 8486SOL    HW136920   1.648   4.026   4.789 -0.3965  2.4582  3.2870
 8486SOL    HW236921   1.672   3.878   4.784 -1.1357 -0.0390 -0.1488
 8487SOL     OW36922   3.816   1.028   0.954 -0.2078  0.4009 -0.1255
 8487SOL    HW136923   3.826   1.072   0.869  2.9635  0.3043  0.2304
 8487SOL    HW236924   3.909   1.012   0.970 -0.1006  1.4113  0.2863
 8488SOL     OW36925   1.775   2.395   5.410 -0.0433  0.2192  0.1824
 8488SOL    HW136926   1.853   2.342   5.394 -0.7398 -1.1813  1.4289
 8488SOL    HW236927   1.754   2.410   5.318  1.7190  0.9703 -0.1030
 8489SOL     OW36928   3.872   1.046   6.334 -0.0131 -0.4728 -0.0578
 8489SOL    HW136929   3.943   0.984   6.350 -0.8965 -1.5120 -0.1474
 8489SOL    HW236930   3.795   1.015   6.383  0.3981 -1.1043  0.1931
 8490SOL     OW36931   1.751   4.521   3.253  0.4682  0.3750  0.0026
 8490SOL    HW136932   1.698   4.442   3.250  1.0343 -0.0964  2.0654
 8490SOL    HW236933   1.684   4.585   3.230 -1.0423 -1.0371  0.5167
 8491SOL     OW36934   1.009   1.042   6.339  0.5606 -0.2316  0.1508
 8491SOL    HW136935   0.975   0.954   6.317 -0.2959 -0.0557  0.7614
 8491SOL    HW236936   0.941   1.082   6.393 -1.2292 -1.5374 -1.1040
 8492SOL     OW36937   2.338   4.185  10.002 -0.2940  0.2557 -0.3599
 8492SOL    HW136938   2.360   4.174  10.095  1.7565 -2.4991 -1.1493
 8492SOL    HW236939   2.245   4.166  10.007 -0.0532  0.0166  3.0043
 8493SOL     OW36940   4.466   0.785   4.176 -0.7780  0.2395 -0.3074
 8493SOL    HW136941   4.417   0.863   4.152  0.5484  1.8287  2.1298
 8493SOL    HW236942   4.534   0.824   4.232 -1.3211 -1.1070  1.2821
 8494SOL     OW36943   2.437   1.698   3.799  0.1151  0.0217  0.2754
 8494SOL    HW136944   2.476   1.783   3.776  0.4654 -0.5470 -1.2416
 8494SOL    HW236945   2.346   1.725   3.806  0.3602  0.9853 -0.1883
 8495SOL     OW36946   0.925   3.902   3.214  0.1130  0.3829  0.0495
 8495SOL    HW136947   0.882   3.986   3.226  3.0806  2.0479 -0.8945
 8495SOL    HW236948   0.954   3.886   3.304 -1.7184 -0.0029  0.5722
 8496SOL     OW36949   1.716   3.349   5.158 -0.1616 -0.6966 -0.1918
 8496SOL    HW136950   1.674   3.276   5.112 -0.9760  0.3579 -1.1015
 8496SOL    HW236951   1.795   3.305   5.191  2.4492  3.6752 -0.6996
 8497SOL     OW36952   1.646   3.881   2.385  0.3163 -0.2279 -0.0345
 8497SOL    HW136953   1.707   3.848   2.319  0.1455  2.4307 -1.5258
 8497SOL    HW236954   1.570   3.831   2.358 -0.0064  1.1749 -1.7452
 8498SOL     OW36955   1.500   3.931   2.823  0.2898 -0.5010  0.0613
 8498SOL    HW136956   1.451   3.895   2.749 -2.4709 -0.9760  2.1269
 8498SOL    HW236957   1.511   4.021   2.790 -2.6577 -0.9576 -2.0898
 8499SOL     OW36958   2.365   3.101  10.425 -0.1642 -0.8962  0.1209
 8499SOL    HW136959   2.383   3.065  10.338 -0.1119  1.6053 -0.9080
 8499SOL    HW236960   2.318   3.028  10.466  0.6128 -0.5654  1.6023
 8500SOL     OW36961   0.019   0.385   1.488  0.3477  0.1202  0.2183
 8500SOL    HW136962   0.075   0.316   1.451 -0.3420 -1.2468  1.7618
 8500SOL    HW236963   0.088   0.442   1.521  0.8546 -0.3552 -0.0159
 8501SOL     OW36964   0.469   0.987   0.005  0.1727  0.1207 -0.1642
 8501SOL    HW136965   0.486   0.919  17.634  2.1343  1.0221 -0.5889
 8501SOL    HW236966   0.470   0.940   0.088  1.8234 -2.0379 -1.4198
 8502SOL     OW36967   2.849   1.027   9.490  0.3719 -0.0124 -0.2655
 8502SOL    HW136968   2.760   1.056   9.512  0.1366 -1.1817  0.3775
 8502SOL    HW236969   2.896   1.070   9.561  1.2860 -0.3319 -0.6881
 8503SOL     OW36970   1.985   3.198  17.293  0.0396  0.1092 -0.2072
 8503SOL    HW136971   1.917   3.143  17.333  2.2942 -1.7205  1.1292
 8503SOL    HW236972   2.063   3.144  17.312  0.4627  0.3156 -1.3314
 8504SOL     OW36973   4.199   2.446   5.955  0.4685  0.3578 -0.2746
 8504SOL    HW136974   4.177   2.445   6.048 -1.1502  1.4688 -0.6397
 8504SOL    HW236975   4.295   2.441   5.964  0.1882  0.0849  2.5436
 8505SOL     OW36976   3.896   4.184   8.500  0.1833  0.1788 -0.1305
 8505SOL    HW136977   3.805   4.197   8.527  1.3903  5.1349  1.4527
 8505SOL    HW236978   3.948   4.158   8.576 -1.3550  1.6986  1.4421
 8506SOL     OW36979   2.965   2.313  10.088  0.1161  0.5125  0.1377
 8506SOL    HW136980   2.901   2.381  10.070  0.1436  0.4373 -0.2397
 8506SOL    HW236981   3.024   2.327  10.014  1.2463 -0.6254  0.8175
 8507SOL     OW36982   0.464   4.562   3.074  0.2597 -0.6995  0.0555
 8507SOL    HW136983   0.414   4.489   3.036 -0.6259 -0.5169  0.9017
 8507SOL    HW236984   0.400   4.586   3.140 -0.4179 -0.4914 -0.6847
 8508SOL     OW36985   1.069   2.634  17.591 -0.4390  0.0326 -0.7890
 8508SOL    HW136986   1.048   2.670  17.505 -1.5642  1.4229  0.0752
 8508SOL    HW236987   1.008   2.561  17.579  0.8310 -1.4175  1.4224
 8509SOL     OW36988   0.801   2.977  16.475 -0.2293 -0.0620 -0.3389
 8509SOL    HW136989   0.827   3.033  16.402  0.8397 -0.8804 -0.5861
 8509SOL    HW236990   0.884   2.932  16.489 -0.1558  0.2064  0.1064
 8510SOL     OW36991   1.066   1.730  16.933  0.0653 -0.2372  0.7014
 8510SOL    HW136992   1.107   1.788  16.997  1.5599 -1.6037  0.9800
 8510SOL    HW236993   1.121   1.759  16.860 -0.2290 -4.0320 -1.0199
 8511SOL     OW36994   1.526   1.565   7.630  0.3021 -0.1110  0.7521
 8511SOL    HW136995   1.435   1.556   7.600 -0.0632  0.3692  1.7253
 8511SOL    HW236996   1.532   1.660   7.629 -3.2823  0.1012 -0.0408
 8512SOL     OW36997   2.043   1.309   8.036 -0.2481  0.1149  0.1128
 8512SOL    HW136998   2.101   1.235   8.052 -1.7333 -0.1708  4.3165
 8512SOL    HW236999   1.967   1.260   8.006  0.1373  0.6571 -1.7207
 8513SOL     OW37000   2.559   1.414   2.227  0.0283  0.1436 -0.3412
 8513SOL    HW137001   2.602   1.487   2.182  2.8516 -2.4141 -1.8018
 8513SOL    HW237002   2.629   1.351   2.241  0.3877  0.2597 -1.5825
 8514SOL     OW37003   0.629   0.603   6.281  0.2220 -0.5216 -0.3547
 8514SOL    HW137004   0.659   0.694   6.284  0.2939 -0.5487 -0.2671
 8514SOL    HW237005   0.700   0.561   6.233  0.2425 -0.1357 -0.6702
 8515SOL     OW37006   4.080   3.649   0.845  0.3103 -0.0895 -0.1553
 8515SOL    HW137007   4.040   3.603   0.772  1.1346  0.6735 -1.0957
 8515SOL    HW237008   4.153   3.691   0.800  0.8137 -1.2805 -0.4308
 8516SOL     OW37009   1.458   4.349  13.798  0.0699 -0.2213 -0.2987
 8516SOL    HW137010   1.510   4.428  13.783  0.1346 -0.4593 -1.3470
 8516SOL    HW237011   1.419   4.368  13.883 -0.4010 -0.2660 -0.5039
 8517SOL     OW37012   4.473   1.063  14.257 -0.7668  0.1678  0.3764
 8517SOL    HW137013   4.439   1.065  14.167 -1.0003 -1.1659  0.4355
 8517SOL    HW237014   4.460   1.156  14.273  0.1045  0.1171  1.3538
 8518SOL     OW37015   3.164   4.366   4.633  0.8277  0.1165  0.1563
 8518SOL    HW137016   3.126   4.316   4.561 -0.2574  1.8939 -0.4949
 8518SOL    HW237017   3.088   4.410   4.672  1.9940  0.8163  1.6543
 8519SOL     OW37018   1.000   1.517  14.077  0.0471  0.5089  0.2475
 8519SOL    HW137019   0.938   1.578  14.038 -0.3291  1.1259  1.7830
 8519SOL    HW237020   1.070   1.582  14.084 -0.7260  1.3171  0.3928
 8520SOL     OW37021   0.373   4.273  16.006 -0.4478  0.3584 -0.8115
 8520SOL    HW137022   0.422   4.341  15.959  0.0789  0.2086 -0.4867
 8520SOL    HW237023   0.294   4.323  16.027 -0.2919 -0.2740  1.3219
 8521SOL     OW37024   3.858   4.448  12.829 -0.2001  0.1138  0.2011
 8521SOL    HW137025   3.937   4.397  12.843  0.4980  1.0967 -0.1527
 8521SOL    HW237026   3.902   4.533  12.827 -2.6642  1.3525 -0.9205
 8522SOL     OW37027   4.158   2.135   8.806  0.2295 -0.5389  0.0397
 8522SOL    HW137028   4.088   2.120   8.743 -0.5598 -1.0789  1.0417
 8522SOL    HW237029   4.233   2.101   8.757 -0.0215 -0.7391 -0.2056
 8523SOL     OW37030   0.633   0.438   3.219 -0.2130 -0.2258 -0.2873
 8523SOL    HW137031   0.627   0.459   3.125  1.2988 -1.5319 -0.6792
 8523SOL    HW237032   0.693   0.363   3.219  0.0030 -0.0547 -1.2596
 8524SOL     OW37033   3.428   2.444  11.239 -0.3007 -0.2388  0.1792
 8524SOL    HW137034   3.448   2.453  11.332 -1.1546  0.4804  0.2924
 8524SOL    HW237035   3.496   2.383  11.210 -0.9598 -0.4468 -0.9615
 8525SOL     OW37036   2.956   1.916   8.655  0.0273  0.3093  0.5910
 8525SOL    HW137037   2.881   1.962   8.692 -1.4351 -1.2194 -0.4571
 8525SOL    HW237038   2.979   1.969   8.578 -0.7654  1.4740  1.1685
 8526SOL     OW37039   4.650   0.746  11.568  0.6789  0.4383 -0.3840
 8526SOL    HW137040   4.652   0.680  11.499 -0.4958 -0.5774  0.5547
 8526SOL    HW237041   4.678   0.829  11.530  1.8814 -0.1557 -0.7868
 8527SOL     OW37042   2.849   4.207   4.433  0.5311 -0.2372  0.3544
 8527SOL    HW137043   2.805   4.175   4.354  3.6670 -0.1192 -1.4844
 8527SOL    HW237044   2.787   4.231   4.502 -1.2770  1.9738 -2.0459
 8528SOL     OW37045   3.951   1.486   7.643  0.2185  0.5517 -0.1859
 8528SOL    HW137046   3.960   1.431   7.720 -0.7103 -0.7553 -1.0041
 8528SOL    HW237047   3.861   1.517   7.644 -0.0777 -0.2893 -0.2922
 8529SOL     OW37048   1.755   2.757   6.140 -0.3498 -0.0863 -0.0340
 8529SOL    HW137049   1.785   2.681   6.091  2.1919  0.7060  0.3172
 8529SOL    HW237050   1.713   2.713   6.215 -0.6964 -1.6367 -1.1314
 8530SOL     OW37051   4.465   2.994   2.555 -0.3351 -0.1718 -0.5093
 8530SOL    HW137052   4.401   3.037   2.499 -1.2239  0.4929  1.0470
 8530SOL    HW237053   4.551   3.029   2.529 -0.0615  1.0166  2.0021
 8531SOL     OW37054   3.472   4.288   2.893 -0.4103  0.1420 -0.1119
 8531SOL    HW137055   3.530   4.348   2.940 -1.3892 -0.2204  1.5875
 8531SOL    HW237056   3.415   4.353   2.853  0.9149  0.7252 -1.0315
 8532SOL     OW37057   1.992   1.937   3.865 -0.3625  0.2107  0.6520
 8532SOL    HW137058   1.905   1.900   3.875 -0.2241 -0.3814 -0.4332
 8532SOL    HW237059   1.988   1.954   3.771  1.8882  1.6753  0.7909
 8533SOL     OW37060   0.359   3.039   6.236 -0.0173  0.2869  0.2137
 8533SOL    HW137061   0.329   3.114   6.286  2.7528  0.6041  1.4139
 8533SOL    HW237062   0.376   3.086   6.154 -0.9776  1.0494  0.4541
 8534SOL     OW37063   4.218   2.842   7.183  0.1258 -0.0233  0.2543
 8534SOL    HW137064   4.191   2.752   7.202 -0.0123  0.0902  0.5991
 8534SOL    HW237065   4.198   2.887   7.265  0.9321 -1.3085  1.1602
 8535SOL     OW37066   4.477   2.687   6.146 -0.6243 -0.1642  0.1165
 8535SOL    HW137067   4.557   2.642   6.117  0.4341  0.9852  1.2359
 8535SOL    HW237068   4.477   2.757   6.081 -0.6624  0.4294  0.7586
 8536SOL     OW37069   0.086   1.230   1.570  0.0714  0.0424 -0.6458
 8536SOL    HW137070   0.007   1.176   1.580 -0.1138  0.6570  1.1513
 8536SOL    HW237071   0.068   1.313   1.612  0.2797 -0.9792  1.4559
 8537SOL     OW37072   3.157   3.220  11.561 -0.0849 -0.6311 -0.5550
 8537SOL    HW137073   3.111   3.156  11.507 -2.1088 -1.3351  2.0541
 8537SOL    HW237074   3.139   3.298  11.508 -0.5603  1.3389  2.4957
 8538SOL     OW37075   4.462   1.594   0.434 -0.3350 -0.5373  0.1656
 8538SOL    HW137076   4.431   1.517   0.385 -1.2798 -1.7441  2.6227
 8538SOL    HW237077   4.553   1.565   0.447 -0.5095 -2.1532 -2.1692
 8539SOL     OW37078   2.709   4.559   2.115 -0.1836 -0.3313  0.1453
 8539SOL    HW137079   2.763   4.480   2.126  0.2276 -0.0569  0.0852
 8539SOL    HW237080   2.622   4.537   2.148  1.3435 -1.6135  3.4086
 8540SOL     OW37081   4.347   4.666   1.690 -0.5258 -0.0637  0.3055
 8540SOL    HW137082   4.370   0.027   1.649  0.7424  1.0819  3.3798
 8540SOL    HW237083   4.421   4.647   1.747  0.2466 -0.2374 -0.7524
 8541SOL     OW37084   3.868   1.737  12.527  0.4505 -0.4025  0.4569
 8541SOL    HW137085   3.942   1.796  12.537  0.6302 -0.1733 -2.0290
 8541SOL    HW237086   3.830   1.735  12.615  1.4354 -0.1006  0.8757
 8542SOL     OW37087   4.685   0.375   4.175  0.5486  0.0302  0.4089
 8542SOL    HW137088   4.618   0.419   4.122  0.1254  0.8728  1.6339
 8542SOL    HW237089   4.694   0.282   4.154 -0.6088 -0.2628  1.2263
 8543SOL     OW37090   3.323   1.221   4.332  0.3735  0.3147  0.5626
 8543SOL    HW137091   3.331   1.273   4.252 -1.1593  0.1688  0.3071
 8543SOL    HW237092   3.256   1.162   4.298  1.5296 -0.5087 -0.2642
 8544SOL     OW37093   0.017   1.438   2.337  0.1184  0.3174  0.1369
 8544SOL    HW137094   4.722   1.356   2.382 -0.0504  0.4620  0.3382
 8544SOL    HW237095   0.102   1.418   2.298 -1.7033 -0.1987 -3.5432
 8545SOL     OW37096   2.623   3.045   7.986  0.0826 -0.2940  0.0833
 8545SOL    HW137097   2.654   3.061   7.897  1.5545 -4.2286 -0.0798
 8545SOL    HW237098   2.546   2.991   7.970 -0.3008  0.4755 -0.6656
 8546SOL     OW37099   0.418   2.797   6.322 -0.0535  0.1839  0.1824
 8546SOL    HW137100   0.378   2.810   6.408 -1.6290  0.9016 -0.6764
 8546SOL    HW237101   0.403   2.873   6.266  2.4594 -0.4396 -1.3376
 8547SOL     OW37102   2.432   4.192  10.535  0.1006  0.1163 -0.0698
 8547SOL    HW137103   2.422   4.214  10.628  1.2007 -0.0798  0.0898
 8547SOL    HW237104   2.447   4.097  10.535  1.9973  0.4199  1.6148
 8548SOL     OW37105   3.655   2.599   4.443 -0.7223 -0.5776  0.2138
 8548SOL    HW137106   3.563   2.623   4.433  0.1566  2.0306 -1.4551
 8548SOL    HW237107   3.662   2.559   4.530 -0.2923  0.6015  0.7181
 8549SOL     OW37108   4.334   4.068  13.522  0.0376  0.0376 -0.5442
 8549SOL    HW137109   4.364   3.980  13.499 -0.3234 -0.6265  1.5052
 8549SOL    HW237110   4.243   4.050  13.544  0.6391 -1.5931  0.6728
 8550SOL     OW37111   4.384   0.328   3.358 -0.1256  0.0081 -0.2762
 8550SOL    HW137112   4.323   0.307   3.287  1.8189 -0.3631 -1.8443
 8550SOL    HW237113   4.464   0.331   3.305  0.4791 -2.2602  0.5018
 8551SOL     OW37114   2.374   4.522   7.019 -0.8137 -0.1182  0.4474
 8551SOL    HW137115   2.401   4.584   7.087 -2.4590 -0.1374  1.1359
 8551SOL    HW237116   2.315   4.576   6.966 -1.9743 -0.3653  1.4943
 8552SOL     OW37117   2.296   0.374   6.900 -1.1091 -0.0505  0.9825
 8552SOL    HW137118   2.203   0.399   6.897 -1.6798 -2.1266  0.9472
 8552SOL    HW237119   2.325   0.443   6.840 -0.7798 -1.0359  0.0043
 8553SOL     OW37120   0.005   3.814   3.846  0.7268 -0.1725  0.0719
 8553SOL    HW137121   0.024   3.795   3.938  2.5927 -0.8553 -0.4544
 8553SOL    HW237122   0.020   3.735   3.793  2.8699  0.8277 -0.8071
 8554SOL     OW37123   3.066   3.874   5.931 -0.2260  0.4001  0.2197
 8554SOL    HW137124   2.983   3.920   5.925 -0.6791 -0.2963  1.1105
 8554SOL    HW237125   3.080   3.857   5.838 -1.0177  0.0868  0.1580
 8555SOL     OW37126   3.727   3.994  15.967  0.0903 -0.3397  0.4927
 8555SOL    HW137127   3.803   3.969  15.916 -0.1343  1.4392 -0.7053
 8555SOL    HW237128   3.728   4.087  15.945 -1.9938 -0.5834 -0.5836
 8556SOL     OW37129   1.352   4.186  16.123 -0.1422  0.0216 -0.6122
 8556SOL    HW137130   1.408   4.109  16.121  0.9633  0.8159 -0.3864
 8556SOL    HW237131   1.274   4.152  16.166  0.9391 -1.0359  0.4929
 8557SOL     OW37132   3.013   1.151   5.645 -0.3957  0.0501  0.2182
 8557SOL    HW137133   2.960   1.080   5.683 -0.3675  0.4931  1.1011
 8557SOL    HW237134   3.057   1.191   5.720 -0.7082  2.1808 -0.7252
 8558SOL     OW37135   2.757   2.829   9.079  0.0504  0.6001  0.5179
 8558SOL    HW137136   2.729   2.864   8.995  0.7278 -2.2862 -0.9042
 8558SOL    HW237137   2.804   2.755   9.040 -2.5026 -0.7669  0.0422
 8559SOL     OW37138   2.791   0.493   0.568  0.1901 -0.3403 -0.2740
 8559SOL    HW137139   2.735   0.447   0.629  0.5434 -0.4337 -0.0191
 8559SOL    HW237140   2.875   0.461   0.601  0.5395 -1.0786 -1.8733
 8560SOL     OW37141   3.305   4.441   4.002 -0.0574  0.0346  0.3509
 8560SOL    HW137142   3.372   4.376   3.983 -1.0750 -0.3606 -1.8999
 8560SOL    HW237143   3.230   4.382   4.007 -0.0760  0.1695  1.5492
 8561SOL     OW37144   0.500   0.524   3.764 -0.3410 -0.2595  0.1942
 8561SOL    HW137145   0.409   0.493   3.767 -0.7594  1.1465  1.7353
 8561SOL    HW237146   0.498   0.557   3.674 -2.1277  0.9201  0.6579
 8562SOL     OW37147   0.552   4.144   7.723 -0.0804  0.0312 -0.0508
 8562SOL    HW137148   0.562   4.113   7.633 -0.5892  2.5689 -0.9965
 8562SOL    HW237149   0.457   4.134   7.737 -0.0456 -0.7810 -0.4415
 8563SOL     OW37150   1.891   3.245   6.734 -0.0015  0.3430 -0.3443
 8563SOL    HW137151   1.923   3.334   6.746  0.0224  0.5155 -1.7393
 8563SOL    HW237152   1.931   3.201   6.809  0.9941 -0.1516 -1.1591
 8564SOL     OW37153   4.130   2.824   8.363 -0.3571 -0.0730 -0.0676
 8564SOL    HW137154   4.069   2.899   8.360 -2.1083 -1.5268 -1.0611
 8564SOL    HW237155   4.125   2.812   8.458 -0.5348  0.0923 -0.0554
 8565SOL     OW37156   3.458   3.536   2.802  0.3778  0.2926  0.2101
 8565SOL    HW137157   3.428   3.611   2.750 -0.9268  0.4994  1.2757
 8565SOL    HW237158   3.478   3.584   2.882  1.7153  0.4145 -0.1986
 8566SOL     OW37159   1.532   3.959   6.127 -0.2604  0.0042  0.2689
 8566SOL    HW137160   1.620   3.979   6.159  1.2079 -1.6354 -2.7581
 8566SOL    HW237161   1.528   4.023   6.056  0.0648  0.1418  0.3767
 8567SOL     OW37162   4.271   4.497  14.789 -0.4234  0.4168 -0.1076
 8567SOL    HW137163   4.323   4.426  14.828 -1.5926  0.0593  0.8013
 8567SOL    HW237164   4.271   4.550  14.869 -0.5842 -1.4720  1.1510
 8568SOL     OW37165   2.990   1.118   2.523  0.3766 -0.3272  0.1414
 8568SOL    HW137166   2.898   1.101   2.546 -0.6706  2.7389 -1.7502
 8568SOL    HW237167   3.007   1.035   2.480 -1.4596 -0.2175 -0.8267
 8569SOL     OW37168   3.080   1.083   4.018 -0.1587 -0.3378 -0.6983
 8569SOL    HW137169   3.047   1.044   3.937 -0.9147  0.6482 -0.8601
 8569SOL    HW237170   2.996   1.118   4.048  1.0565  2.3517 -0.4440
 8570SOL     OW37171   1.556   1.893   4.686  0.5590  0.5773  0.7346
 8570SOL    HW137172   1.515   1.826   4.741  0.5263  1.4438  1.7585
 8570SOL    HW237173   1.608   1.833   4.633  0.3968  0.9003  0.2026
 8571SOL     OW37174   4.109   1.478   1.400 -0.4215 -0.9931  0.5627
 8571SOL    HW137175   4.201   1.462   1.382 -0.7248 -2.1976  0.1226
 8571SOL    HW237176   4.072   1.404   1.448 -0.6568 -0.9346  0.4766
 8572SOL     OW37177   1.050   3.732  10.093 -0.1824  0.2023 -0.2103
 8572SOL    HW137178   1.109   3.687  10.153  0.7393 -0.8994 -1.9319
 8572SOL    HW237179   1.105   3.724  10.015 -0.3166 -3.2564  0.0552
 8573SOL     OW37180   1.610   2.957   5.984 -0.4614 -0.3296 -0.4284
 8573SOL    HW137181   1.651   2.883   6.029  0.2489  0.3837  0.0948
 8573SOL    HW237182   1.638   2.949   5.893 -3.1504 -1.5467 -1.1487
 8574SOL     OW37183   4.022   0.067  14.025 -0.0575  0.6605  0.1729
 8574SOL    HW137184   4.081   0.107  13.962  1.9647  0.4663  1.9458
 8574SOL    HW237185   4.057   0.108  14.104 -1.3557  0.5261  0.8123
 8575SOL     OW37186   1.715   3.614   2.613 -0.0636  0.3431 -0.2555
 8575SOL    HW137187   1.635   3.659   2.588 -1.2871 -0.5710  1.9648
 8575SOL    HW237188   1.679   3.525   2.614 -3.5887  1.8224  1.6951
 8576SOL     OW37189   0.422   4.379   4.008  0.2855  0.1436  0.0684
 8576SOL    HW137190   0.481   4.367   3.934  0.8702 -1.0092  0.7157
 8576SOL    HW237191   0.345   4.412   3.962 -0.6404  1.7875  2.8458
 8577SOL     OW37192   0.807   1.324   1.975  0.4505 -0.1138 -0.3686
 8577SOL    HW137193   0.735   1.335   2.037  1.5151  0.2313  0.8037
 8577SOL    HW237194   0.810   1.405   1.924  1.3156 -0.1522 -0.3641
 8578SOL     OW37195   2.288   0.402  15.584 -0.2978 -0.6487 -0.1988
 8578SOL    HW137196   2.287   0.367  15.495 -2.0062 -0.6482 -0.1807
 8578SOL    HW237197   2.281   0.495  15.563  0.5712 -0.6997 -0.6787
 8579SOL     OW37198   3.332   1.772   9.361  0.2712  0.5201 -0.1178
 8579SOL    HW137199   3.341   1.831   9.435 -0.1413 -0.7065  0.8985
 8579SOL    HW237200   3.335   1.684   9.398  2.1815  1.8345  2.8418
 8580SOL     OW37201   0.479   1.559   7.384 -0.0238  1.0958 -0.1597
 8580SOL    HW137202   0.485   1.641   7.432 -4.7826  0.6401  1.1904
 8580SOL    HW237203   0.435   1.601   7.310 -0.4028 -0.2979 -0.7315
 8581SOL     OW37204   2.743   2.576   7.511  0.0002  0.3106  0.1173
 8581SOL    HW137205   2.726   2.626   7.591 -0.6544  1.1277 -0.5316
 8581SOL    HW237206   2.679   2.505   7.506  1.3049 -1.0876  3.4635
 8582SOL     OW37207   4.567   4.429  12.861 -0.5408 -0.1776  0.0646
 8582SOL    HW137208   4.610   4.467  12.785 -1.8581 -2.3039 -1.7261
 8582SOL    HW237209   4.644   4.400  12.910 -0.0701 -3.3822 -2.5433
 8583SOL     OW37210   0.074   1.342   4.684  0.5706  0.4824 -0.2294
 8583SOL    HW137211   0.139   1.294   4.736  1.0569  1.8614  0.4321
 8583SOL    HW237212   0.143   1.391   4.640  1.8087  0.8615  2.1238
 8584SOL     OW37213   4.265   0.221  10.560  0.5016  0.2323  0.1352
 8584SOL    HW137214   4.330   0.256  10.621  0.8929  2.1977 -1.3916
 8584SOL    HW237215   4.183   0.238  10.607 -1.0170  0.2543 -2.4841
 8585SOL     OW37216   1.554   0.184  16.276 -0.0335  0.1585  0.3987
 8585SOL    HW137217   1.538   0.090  16.266 -3.0852  0.7664 -0.3518
 8585SOL    HW237218   1.475   0.216  16.231  2.0603  1.2093 -2.5582
 8586SOL     OW37219   0.976   0.757   6.495  0.3330  0.2635 -0.4381
 8586SOL    HW137220   1.051   0.717   6.540 -0.8467 -0.7345  0.6418
 8586SOL    HW237221   0.958   0.686   6.433 -1.3751 -1.4729  2.0433
 8587SOL     OW37222   4.487   2.526   9.217 -0.2625 -0.8294  0.0899
 8587SOL    HW137223   4.413   2.570   9.175 -0.3548 -2.5700 -1.5629
 8587SOL    HW237224   4.461   2.436   9.238  1.5694 -1.2815  0.4469
 8588SOL     OW37225   3.406   1.619  12.828  1.0550 -0.8527 -0.2426
 8588SOL    HW137226   3.324   1.668  12.828  0.4846 -1.7813  1.4271
 8588SOL    HW237227   3.373   1.532  12.851 -0.8951  0.3149  1.4750
 8589SOL     OW37228   1.976   1.751   6.241 -0.5196  0.0810  0.5076
 8589SOL    HW137229   1.986   1.656   6.240  0.0110  0.1438 -0.6379
 8589SOL    HW237230   2.043   1.764   6.174 -1.9855 -1.3990 -1.2538
 8590SOL     OW37231   3.002   4.693  12.060  0.1994 -0.1992 -0.7554
 8590SOL    HW137232   3.024   0.042  12.119 -1.0983 -0.6831  0.2977
 8590SOL    HW237233   3.086   4.660  12.027 -0.3100 -2.6449  0.4008
 8591SOL     OW37234   4.536   2.438   5.982 -0.6172 -0.2698 -0.6400
 8591SOL    HW137235   4.535   2.386   6.062  0.8854 -1.1099 -1.1583
 8591SOL    HW237236   4.619   2.413   5.941 -1.0162 -0.8497 -1.0883
 8592SOL     OW37237   1.501   3.469  13.492  0.4760  0.0926  0.6770
 8592SOL    HW137238   1.406   3.456  13.492  0.6159 -0.7765 -2.6127
 8592SOL    HW237239   1.532   3.383  13.465  1.9383  0.9458 -0.3663
 8593SOL     OW37240   1.610   0.953  16.633  0.2720  0.7487  0.1599
 8593SOL    HW137241   1.610   1.045  16.606  2.4340  1.1780  1.6173
 8593SOL    HW237242   1.612   0.968  16.728 -0.1170 -0.4085  0.3577
 8594SOL     OW37243   2.824   4.681  16.123 -0.4012 -0.3552  0.3157
 8594SOL    HW137244   2.876   4.622  16.069 -0.3234 -0.7588  0.8242
 8594SOL    HW237245   2.890   0.012  16.167 -0.1234  0.0763 -0.6458
 8595SOL     OW37246   2.428   3.828   7.536  0.1825  0.3160 -0.2877
 8595SOL    HW137247   2.341   3.791   7.524 -0.5775  2.0912 -0.3314
 8595SOL    HW237248   2.425   3.864   7.624  3.2757  1.8034 -0.7871
 8596SOL     OW37249   1.111   1.661   0.029 -0.9462 -0.5860 -0.4462
 8596SOL    HW137250   1.166   1.682  17.647  1.5394  1.6491  2.0532
 8596SOL    HW237251   1.083   1.746   0.061 -1.1237  0.8819 -4.5129
 8597SOL     OW37252   2.857   1.737   9.411  0.1154  0.0880  0.3627
 8597SOL    HW137253   2.831   1.668   9.349 -0.9405  0.9134 -0.1149
 8597SOL    HW237254   2.905   1.683   9.474  1.1954 -0.2912 -0.7739
 8598SOL     OW37255   2.930   1.690  15.302  0.0753  0.1865 -0.0315
 8598SOL    HW137256   3.002   1.661  15.246 -0.7631 -0.6036 -0.6952
 8598SOL    HW237257   2.875   1.727  15.233 -0.1848 -0.8240 -0.3683
 8599SOL     OW37258   0.034   3.132   6.676 -0.5252 -0.0664  0.1843
 8599SOL    HW137259   0.043   3.211   6.623  0.7676 -0.9320 -0.8756
 8599SOL    HW237260   0.005   3.168   6.760  1.4028  1.1506  0.3131
 8600SOL     OW37261   1.591   1.600   3.249  0.3815  0.4065  0.1047
 8600SOL    HW137262   1.639   1.664   3.196 -1.4600  1.5781 -0.1263
 8600SOL    HW237263   1.512   1.646   3.277  0.5205 -0.4304  1.9020
 8601SOL     OW37264   0.323   0.670   7.830 -0.5897  0.0353 -0.4137
 8601SOL    HW137265   0.373   0.750   7.847 -0.2655  0.3322 -2.6691
 8601SOL    HW237266   0.352   0.613   7.901  1.4883  2.1101  0.3993
 8602SOL     OW37267   0.683   0.021   4.895 -0.0566 -0.0086 -0.2414
 8602SOL    HW137268   0.672   4.662   4.847 -0.0374 -0.3555  0.3474
 8602SOL    HW237269   0.743   4.715   4.963 -1.8582  0.8142  1.6954
 8603SOL     OW37270   3.251   1.855   9.789 -0.0424 -0.4557 -0.6951
 8603SOL    HW137271   3.231   1.762   9.781  2.3078 -0.8623 -1.9595
 8603SOL    HW237272   3.314   1.866   9.861 -0.5232 -3.3356  0.1693
 8604SOL     OW37273   1.177   1.471   5.737 -0.6819 -0.1498 -0.1033
 8604SOL    HW137274   1.182   1.427   5.822  0.9690 -0.2771 -0.2741
 8604SOL    HW237275   1.196   1.561   5.761  2.4633 -0.7566 -0.2896
 8605SOL     OW37276   2.348   3.147   1.544 -0.2618 -0.3047  0.6347
 8605SOL    HW137277   2.420   3.116   1.599 -1.3174 -2.2156  0.9254
 8605SOL    HW237278   2.267   3.108   1.578  0.2893 -0.5364  1.7074
 8606SOL     OW37279   3.518   3.815   8.146 -0.5071  0.4038  0.1042
 8606SOL    HW137280   3.514   3.786   8.237  1.4238 -0.8020 -0.1982
 8606SOL    HW237281   3.560   3.744   8.099 -0.5591  0.7688 -0.4947
 8607SOL     OW37282   1.692   1.741   6.111  0.9492  0.0810  0.7517
 8607SOL    HW137283   1.688   1.647   6.094 -1.9462  0.1828  0.7271
 8607SOL    HW237284   1.781   1.751   6.144  0.8938 -1.4380  1.3760
 8608SOL     OW37285   1.754   2.256   3.951  0.1598 -0.2393  0.2112
 8608SOL    HW137286   1.705   2.277   3.872  2.8130 -0.9400 -1.6484
 8608SOL    HW237287   1.723   2.166   3.959 -1.9291  0.5257  0.6509
 8609SOL     OW37288   0.232   3.780   8.666  0.1683  0.0179  0.4794
 8609SOL    HW137289   0.229   3.766   8.571  1.6333  1.1707  0.2672
 8609SOL    HW237290   0.182   3.860   8.685  0.4996  0.5674 -0.9103
 8610SOL     OW37291   0.134   2.096   2.726 -0.8160  0.0430  0.7311
 8610SOL    HW137292   0.153   2.162   2.659 -1.0640  0.3744  0.9955
 8610SOL    HW237293   0.182   2.028   2.678 -0.7000  0.5424  0.1354
 8611SOL     OW37294   0.786   4.369   8.697 -0.2111  0.3325  0.2226
 8611SOL    HW137295   0.734   4.380   8.617 -0.4009 -0.0486  0.2919
 8611SOL    HW237296   0.873   4.369   8.658  0.2248  0.1687  1.2026
 8612SOL     OW37297   0.605   1.863  14.192  0.3065  0.5657 -0.3578
 8612SOL    HW137298   0.522   1.878  14.146  1.3235  0.9747 -2.0556
 8612SOL    HW237299   0.668   1.876  14.122 -0.0399 -1.0713 -0.9786
 8613SOL     OW37300   0.462   3.035   6.556  0.2302  0.3907 -0.0735
 8613SOL    HW137301   0.418   3.037   6.642 -3.7125  2.7815 -2.1427
 8613SOL    HW237302   0.413   3.098   6.504 -0.5250  0.9852  1.3472
 8614SOL     OW37303   3.707   1.445   6.033 -0.4927 -0.1684  0.3747
 8614SOL    HW137304   3.770   1.509   6.002 -0.5648 -0.2985 -0.0407
 8614SOL    HW237305   3.728   1.370   5.977 -0.3568  1.1294 -1.3155
 8615SOL     OW37306   2.543   1.722  15.348 -0.3694  0.1176 -0.1160
 8615SOL    HW137307   2.484   1.654  15.380 -0.1217 -0.2056 -0.3478
 8615SOL    HW237308   2.604   1.734  15.420 -0.1429  0.6759 -0.4006
 8616SOL     OW37309   1.869   4.125   4.601 -0.0033  0.2222  0.3723
 8616SOL    HW137310   1.792   4.135   4.657  0.8881 -0.1489  1.6409
 8616SOL    HW237311   1.837   4.057   4.542 -1.3275 -0.3326  1.7400
 8617SOL     OW37312   3.206   0.981   1.206 -0.5283 -0.6036  0.5729
 8617SOL    HW137313   3.278   0.930   1.245  0.4363 -0.6224 -1.2476
 8617SOL    HW237314   3.149   0.906   1.190 -0.2313 -0.4441 -1.2086
 8618SOL     OW37315   1.118   3.895   7.864 -0.0597 -0.3989 -0.1154
 8618SOL    HW137316   1.105   3.866   7.774  2.1459 -0.5505 -0.3703
 8618SOL    HW237317   1.043   3.955   7.874 -0.9282 -1.4217 -0.4881
 8619SOL     OW37318   2.487   4.098   2.159 -0.1182  1.0050  0.4098
 8619SOL    HW137319   2.428   4.076   2.087  0.5272 -0.0956  0.2239
 8619SOL    HW237320   2.501   4.014   2.202  1.9733  0.9423 -0.4198
 8620SOL     OW37321   2.394   2.789  16.153 -0.2600 -0.2996 -0.6884
 8620SOL    HW137322   2.431   2.720  16.097 -1.7429  0.9842 -3.2406
 8620SOL    HW237323   2.394   2.738  16.234  0.5933 -0.4571 -0.7830
 8621SOL     OW37324   1.658   2.766  11.999 -0.4040  0.1253  0.4853
 8621SOL    HW137325   1.645   2.740  11.908 -1.1599  0.0001  0.6342
 8621SOL    HW237326   1.569   2.760  12.032 -1.0293  1.1344 -1.0154
 8622SOL     OW37327   1.766   3.827   7.126 -0.1554 -0.2153 -0.5905
 8622SOL    HW137328   1.769   3.771   7.049 -0.3557 -0.2946 -0.5423
 8622SOL    HW237329   1.736   3.776   7.201 -2.7671  1.0739 -0.7450
 8623SOL     OW37330   3.845   0.799  13.450 -0.3738  0.1785 -0.6778
 8623SOL    HW137331   3.916   0.734  13.450 -0.3738  0.1786 -0.8815
 8623SOL    HW237332   3.829   0.798  13.544 -1.8090 -0.5047 -0.9231
 8624SOL     OW37333   2.794   0.070  10.819 -0.3262 -0.1327  0.0335
 8624SOL    HW137334   2.774   0.164  10.819 -1.0360 -0.2873  0.5877
 8624SOL    HW237335   2.727   0.038  10.879 -0.6935  0.4032 -0.0883
 8625SOL     OW37336   2.754   0.989   2.789 -0.5366  0.0012 -0.0128
 8625SOL    HW137337   2.819   1.031   2.847 -2.5043  0.6235  1.7412
 8625SOL    HW237338   2.744   1.054   2.720 -0.9311 -0.2469 -0.1856
 8626SOL     OW37339   0.937   4.485   4.212  0.8353 -0.1235  0.5163
 8626SOL    HW137340   0.928   4.518   4.122  2.7930 -1.5652 -0.2163
 8626SOL    HW237341   1.032   4.475   4.217  0.6003 -2.4609  0.5112
 8627SOL     OW37342   0.759   0.386  17.144 -0.6087  0.9528  0.2049
 8627SOL    HW137343   0.732   0.299  17.173 -1.2421  0.5041 -1.7105
 8627SOL    HW237344   0.802   0.361  17.061 -1.7990  0.5035 -0.2745
 8628SOL     OW37345   3.057   0.241  12.536 -0.5284 -0.1794  0.3610
 8628SOL    HW137346   3.106   0.323  12.538  1.7079 -1.5412  1.1146
 8628SOL    HW237347   3.095   0.192  12.609 -0.7796 -0.4981  0.2772
 8629SOL     OW37348   1.552   4.602  13.766 -0.0728  0.2097  0.0350
 8629SOL    HW137349   1.552   4.647  13.682 -0.4013  1.3075  0.6265
 8629SOL    HW237350   1.584   4.668  13.829  1.1195  0.2552 -0.6076
 8630SOL     OW37351   0.092   4.380  16.058 -0.0107  0.5390 -0.4021
 8630SOL    HW137352   0.014   4.410  16.011  0.3142 -1.5581 -2.2612
 8630SOL    HW237353   0.061   4.291  16.073  2.0721  0.0048  0.6849
 8631SOL     OW37354   3.015   3.831  16.702 -0.3792  0.2328  0.4270
 8631SOL    HW137355   2.967   3.853  16.623  0.9329  3.8080  0.6347
 8631SOL    HW237356   3.002   3.909  16.756  0.1311  0.4464  0.2429
 8632SOL     OW37357   4.404   2.671   3.037  0.3473  0.1073 -0.1842
 8632SOL    HW137358   4.360   2.753   3.012 -0.0875  0.0101  0.2606
 8632SOL    HW237359   4.491   2.707   3.055 -0.7242  2.8093 -0.3629
 8633SOL     OW37360   0.310   3.373   2.178 -0.4991  0.1615 -0.1512
 8633SOL    HW137361   0.338   3.443   2.238 -0.4929  1.4335 -1.6366
 8633SOL    HW237362   0.324   3.406   2.089 -1.4268 -2.2213 -1.1821
 8634SOL     OW37363   4.527   3.460   4.392  0.4585 -0.0510  0.1254
 8634SOL    HW137364   4.575   3.462   4.475 -0.0776  3.1082  0.3931
 8634SOL    HW237365   4.555   3.374   4.362 -4.2075 -1.0132 -1.3508
 8635SOL     OW37366   4.330   2.023   2.557 -0.1894  0.0765 -0.3189
 8635SOL    HW137367   4.334   2.093   2.491  3.0448 -0.4842 -0.7446
 8635SOL    HW237368   4.420   2.019   2.591 -0.2652  0.1050 -0.1193
 8636SOL     OW37369   4.415   4.090   8.866  0.3429  0.0855 -0.1113
 8636SOL    HW137370   4.394   3.997   8.851 -0.1249  0.4264 -1.5347
 8636SOL    HW237371   4.334   4.117   8.910  0.1833 -0.9683  0.2572
 8637SOL     OW37372   4.248   3.697   4.470  0.9559 -0.3226 -0.6379
 8637SOL    HW137373   4.164   3.658   4.447  1.7642 -3.8688  2.4050
 8637SOL    HW237374   4.218   3.787   4.467  0.8044 -0.3287  0.8309
 8638SOL     OW37375   0.894   2.135  12.024  0.1934  0.9679 -0.3862
 8638SOL    HW137376   0.825   2.095  12.077  0.8602 -3.4558 -2.8573
 8638SOL    HW237377   0.885   2.230  12.023  0.7781  1.0176 -0.8560
 8639SOL     OW37378   1.355   2.064   1.876  0.4637 -0.1741 -0.5011
 8639SOL    HW137379   1.289   2.131   1.858  1.5269  1.2602  0.9562
 8639SOL    HW237380   1.314   1.977   1.879 -2.4441  1.2026 -0.4802
 8640SOL     OW37381   4.591   1.058  15.131 -0.5309  0.2665 -0.6210
 8640SOL    HW137382   4.650   1.132  15.147 -0.4609  0.1742 -0.4561
 8640SOL    HW237383   4.535   1.066  15.208  0.1984 -2.8269  0.2423
 8641SOL     OW37384   3.580   3.837  12.783 -0.7839 -0.2362 -0.0763
 8641SOL    HW137385   3.675   3.847  12.783 -0.6487 -1.6055  0.4400
 8641SOL    HW237386   3.571   3.746  12.755 -0.6164 -0.0166 -0.8264
 8642SOL     OW37387   4.048   2.335   0.905  0.0183  0.2694  0.4948
 8642SOL    HW137388   4.128   2.284   0.896 -0.1374 -0.2224  1.8552
 8642SOL    HW237389   4.009   2.307   0.822  2.7308  1.0963 -1.0504
 8643SOL     OW37390   4.258   4.472  15.935  0.3373  0.3409 -0.2193
 8643SOL    HW137391   4.245   4.515  16.019 -0.9084 -0.0113 -0.2407
 8643SOL    HW237392   4.178   4.422  15.919  0.8036  0.1089 -1.8723
 8644SOL     OW37393   0.814   4.228   5.344  1.0496  0.4603 -0.4485
 8644SOL    HW137394   0.782   4.195   5.428 -1.1917  1.3481 -0.9517
 8644SOL    HW237395   0.876   4.162   5.312 -1.4558 -1.8007 -0.7144
 8645SOL     OW37396   3.921   1.001   2.177 -0.5895  0.1371  0.1309
 8645SOL    HW137397   3.982   1.058   2.224 -0.7150  1.1570 -0.9249
 8645SOL    HW237398   3.834   1.026   2.206 -0.4651  1.0982 -0.3110
 8646SOL     OW37399   3.268   1.389  10.893  0.1719  0.0233  0.0198
 8646SOL    HW137400   3.354   1.422  10.918  0.7266 -1.2771 -0.2364
 8646SOL    HW237401   3.216   1.461  10.931 -1.0984 -0.2778 -1.1307
 8647SOL     OW37402   0.053   3.839   2.419 -0.1454 -0.3631 -0.2251
 8647SOL    HW137403   0.052   3.935   2.421 -1.2502 -0.4501  2.4465
 8647SOL    HW237404   4.683   3.818   2.418 -0.7944  2.5079  0.3234
 8648SOL     OW37405   2.166   0.200  13.338  0.3884 -0.7922 -0.0042
 8648SOL    HW137406   2.189   0.173  13.249  0.8607 -0.0317 -0.1194
 8648SOL    HW237407   2.244   0.178  13.390  0.8587  0.8992  0.0199
 8649SOL     OW37408   2.185   4.578   3.499  0.0910 -0.0605  0.1052
 8649SOL    HW137409   2.185   4.484   3.519  2.2283  0.0583  0.6900
 8649SOL    HW237410   2.108   4.616   3.541  0.6588  1.7256 -0.4619
 8650SOL     OW37411   0.589   1.134   3.556  0.4658 -0.0179  0.4490
 8650SOL    HW137412   0.538   1.215   3.556  2.0356  0.9752  1.2289
 8650SOL    HW237413   0.609   1.124   3.463 -4.0093  2.5004 -0.7702
 8651SOL     OW37414   1.304   2.081  13.718 -0.2177 -0.2656 -0.4722
 8651SOL    HW137415   1.347   2.159  13.682 -5.7643  2.4981 -1.1599
 8651SOL    HW237416   1.240   2.066  13.649 -0.7456  0.8902 -0.2380
 8652SOL     OW37417   2.419   1.861   2.475 -0.1921  0.2643  0.5970
 8652SOL    HW137418   2.448   1.949   2.498  1.4488 -0.2094  0.3282
 8652SOL    HW237419   2.330   1.881   2.445  0.0584  1.4001  0.6151
 8653SOL     OW37420   1.590   3.735   6.499 -0.2758 -0.0013  0.9616
 8653SOL    HW137421   1.520   3.671   6.511  0.2357 -0.7026  0.1910
 8653SOL    HW237422   1.538   3.813   6.480  0.9466  0.0887 -1.9040
 8654SOL     OW37423   2.308   2.008   6.890 -0.4254 -0.1036  0.6497
 8654SOL    HW137424   2.298   2.054   6.974 -1.2157  0.6345  0.1427
 8654SOL    HW237425   2.379   1.948   6.912 -1.5220 -1.9194 -0.8504
 8655SOL     OW37426   2.631   4.536  15.281 -0.5009  0.7418 -0.0675
 8655SOL    HW137427   2.723   4.561  15.276  0.4297 -2.6067  0.3240
 8655SOL    HW237428   2.588   4.621  15.287 -0.0860  0.8933  0.7717
 8656SOL     OW37429   2.848   2.730  10.128  0.7439 -0.1731  0.0478
 8656SOL    HW137430   2.935   2.719  10.165  1.1674 -0.0412 -0.8970
 8656SOL    HW237431   2.875   2.800  10.068  0.2083 -0.6003 -0.6950
 8657SOL     OW37432   0.656   3.715   3.800 -0.3331  0.1660 -0.4388
 8657SOL    HW137433   0.630   3.732   3.710 -0.9228  2.3312  0.1493
 8657SOL    HW237434   0.618   3.795   3.837  0.3097  0.3455 -0.1589
 8658SOL     OW37435   3.008   0.995   0.621 -0.6069  0.4416 -0.1903
 8658SOL    HW137436   3.083   1.051   0.600 -0.6410  0.8751  0.8458
 8658SOL    HW237437   2.978   1.042   0.698 -0.3981 -1.4076  1.0286
 8659SOL     OW37438   2.998   2.738   0.194 -0.1875  0.0843  0.2803
 8659SOL    HW137439   3.043   2.657   0.216 -2.2111 -1.2486 -0.5080
 8659SOL    HW237440   3.058   2.805   0.228  0.2016 -0.5439  0.8250
 8660SOL     OW37441   3.418   3.723   2.015 -0.0273  0.9923 -0.5493
 8660SOL    HW137442   3.397   3.632   2.035  2.4589  0.7026  0.6955
 8660SOL    HW237443   3.386   3.744   1.928 -0.4729  3.1189  0.1116
 8661SOL     OW37444   3.138   1.258   2.674  0.1834 -0.2622  0.2042
 8661SOL    HW137445   3.102   1.195   2.611  0.1546 -1.0004  0.9605
 8661SOL    HW237446   3.174   1.194   2.736 -0.5674 -0.5771  0.3073
 8662SOL     OW37447   1.294   1.465  13.695 -0.2416  0.6138 -0.6079
 8662SOL    HW137448   1.280   1.515  13.614 -1.7972  0.9305 -0.1452
 8662SOL    HW237449   1.337   1.387  13.659 -2.3192 -2.4292  3.5341
 8663SOL     OW37450   3.720   3.192   6.788 -0.4286 -0.6517  0.0576
 8663SOL    HW137451   3.684   3.149   6.710 -0.2711  1.5982 -1.2438
 8663SOL    HW237452   3.676   3.143   6.857 -0.0050 -1.9115 -0.5607
 8664SOL     OW37453   2.904   3.722   8.384 -0.2863 -0.7019 -0.1793
 8664SOL    HW137454   2.958   3.713   8.463  0.2438  1.1891 -0.3213
 8664SOL    HW237455   2.940   3.657   8.323  0.9946 -1.2547  1.1520
 8665SOL     OW37456   2.231   1.024   2.508  0.0197 -0.1268  0.0164
 8665SOL    HW137457   2.315   1.040   2.464 -0.2053  0.6876 -0.1084
 8665SOL    HW237458   2.183   1.099   2.474 -1.9112 -1.0333  0.7461
 8666SOL     OW37459   3.057   3.083   9.386  0.0750 -0.1435 -0.3691
 8666SOL    HW137460   3.016   3.042   9.310  0.2894  1.1293 -1.1947
 8666SOL    HW237461   2.992   3.152   9.398  0.0018 -0.7500  2.5227
 8667SOL     OW37462   0.480   2.405  17.324 -0.0076 -0.0055  0.2436
 8667SOL    HW137463   0.435   2.344  17.382  0.0695 -0.5751 -0.2939
 8667SOL    HW237464   0.437   2.384  17.241  2.8376  0.3258 -1.2849
 8668SOL     OW37465   2.321   0.857   4.888 -0.2410 -0.2092 -0.0206
 8668SOL    HW137466   2.271   0.846   4.970  1.6008  3.0050  1.5444
 8668SOL    HW237467   2.269   0.917   4.835  0.7672  2.2241  1.7419
 8669SOL     OW37468   2.097   0.994   4.783  0.6670 -0.6018 -0.7532
 8669SOL    HW137469   2.077   1.048   4.858  1.6853  0.6219 -1.3551
 8669SOL    HW237470   2.048   0.912   4.796  1.4720 -0.7068  1.5721
 8670SOL     OW37471   2.228   0.112   3.108 -0.1722  0.5098 -0.0760
 8670SOL    HW137472   2.194   0.024   3.126 -0.4469  0.8153  0.8722
 8670SOL    HW237473   2.310   0.094   3.062  1.0978  0.6036  2.1916
 8671SOL     OW37474   2.907   2.280   5.432  0.3208 -0.5119 -0.6457
 8671SOL    HW137475   2.872   2.350   5.376 -0.8499 -0.6855 -0.1290
 8671SOL    HW237476   2.993   2.322   5.439 -0.3131  0.2972  2.1256
 8672SOL     OW37477   2.735   0.346   7.518  0.4857 -0.2911  0.4518
 8672SOL    HW137478   2.768   0.258   7.498 -0.6918 -0.8166  0.8323
 8672SOL    HW237479   2.822   0.386   7.515  0.6559 -0.5215  2.7580
 8673SOL     OW37480   1.839   3.002   1.735 -0.0520 -0.2823  0.5578
 8673SOL    HW137481   1.886   3.069   1.785  0.4615 -0.7802  0.7375
 8673SOL    HW237482   1.751   3.019   1.768 -0.4534  0.6537 -1.0061
 8674SOL     OW37483   0.261   2.656   6.641 -0.5671 -0.3651 -0.0040
 8674SOL    HW137484   0.302   2.671   6.727  1.5998  4.4440 -1.8350
 8674SOL    HW237485   0.223   2.743   6.630  2.4941  1.2508  1.9774
 8675SOL     OW37486   1.559   0.144   2.525  0.3278 -0.0137 -0.2188
 8675SOL    HW137487   1.624   0.153   2.594 -0.6551  0.3661  0.6526
 8675SOL    HW237488   1.535   0.054   2.550 -2.8277  1.3364  1.6487
 8676SOL     OW37489   1.914   1.765   7.477  0.2755  0.0791  0.4679
 8676SOL    HW137490   1.994   1.781   7.527  0.4693  0.7824 -0.0707
 8676SOL    HW237491   1.886   1.677   7.502 -0.0315 -0.6765 -2.4987
 8677SOL     OW37492   1.122   0.966  11.276 -0.5668 -0.3411 -0.0302
 8677SOL    HW137493   1.138   0.905  11.204 -0.9433  0.2934 -0.6438
 8677SOL    HW237494   1.113   0.891  11.336  0.5410  0.7655  1.5141
 8678SOL     OW37495   4.327   3.916   1.826  0.3629  0.4145 -0.1332
 8678SOL    HW137496   4.236   3.940   1.807  0.8205  1.0875 -1.4977
 8678SOL    HW237497   4.343   3.936   1.919 -0.4723  0.6777 -0.0436
 8679SOL     OW37498   2.595   3.104   6.479  0.4539 -1.1758  0.4859
 8679SOL    HW137499   2.514   3.091   6.528  0.4414  1.6698  1.2388
 8679SOL    HW237500   2.564   3.109   6.388  0.9765 -0.3427  0.3473
 8680SOL     OW37501   2.510   4.124   5.772 -0.2706 -0.0959 -0.0801
 8680SOL    HW137502   2.516   4.219   5.762  2.1523  0.0346  2.6774
 8680SOL    HW237503   2.593   4.099   5.813  1.2369  1.3119 -2.2429
 8681SOL     OW37504   4.460   0.691  16.499 -0.2218  0.3231 -0.3713
 8681SOL    HW137505   4.384   0.749  16.494  0.5989  1.3301 -1.1150
 8681SOL    HW237506   4.415   0.616  16.539 -0.4167  0.4892 -0.2790
 8682SOL     OW37507   4.111   2.799   5.997  0.1802 -0.2629 -0.3635
 8682SOL    HW137508   4.170   2.868   5.965 -0.6072  0.4097 -0.3663
 8682SOL    HW237509   4.164   2.788   6.076  2.7513  1.3144 -1.8723
 8683SOL     OW37510   3.868   1.427   8.029 -0.1151 -0.1706  0.3249
 8683SOL    HW137511   3.809   1.500   8.011  2.2101  0.7139 -3.7500
 8683SOL    HW237512   3.850   1.364   7.959  4.5277  0.2585 -1.3091
 8684SOL     OW37513   2.170   2.094   7.665  0.0133  0.6247  0.7671
 8684SOL    HW137514   2.223   2.060   7.738  1.7779  0.6683 -0.4837
 8684SOL    HW237515   2.087   2.047   7.660  0.5194  0.1950 -3.3824
 8685SOL     OW37516   0.540   3.570   6.654 -0.1870 -0.4091 -0.1306
 8685SOL    HW137517   0.585   3.645   6.615 -1.5940  0.2119 -0.5200
 8685SOL    HW237518   0.545   3.511   6.578  2.2859  0.7455 -0.8624
 8686SOL     OW37519   3.306   3.263   5.229 -0.0607 -0.7631  0.0048
 8686SOL    HW137520   3.318   3.220   5.144 -0.2676  0.0559 -0.4401
 8686SOL    HW237521   3.280   3.188   5.282 -0.2518  0.6414  1.8837
 8687SOL     OW37522   0.530   3.101   2.737 -0.2323  0.0686 -0.0766
 8687SOL    HW137523   0.464   3.160   2.701 -1.2655 -1.0420 -0.0108
 8687SOL    HW237524   0.577   3.082   2.656 -2.3259  1.9837 -1.7424
 8688SOL     OW37525   3.450   0.302  15.755  0.1946 -0.0138  0.5640
 8688SOL    HW137526   3.407   0.372  15.804  1.9375  2.1010 -0.9039
 8688SOL    HW237527   3.532   0.338  15.721  0.4400  0.5825  1.8076
 8689SOL     OW37528   4.717   4.423  11.955 -0.3726  0.3315 -0.2327
 8689SOL    HW137529   4.669   4.441  12.036  1.9662 -3.1389  1.8893
 8689SOL    HW237530   4.679   4.482  11.889 -0.1074  0.2598 -0.4512
 8690SOL     OW37531   2.957   0.402   8.920  0.0508  0.2138 -0.3043
 8690SOL    HW137532   2.892   0.362   8.862  3.1006 -2.5624 -1.7893
 8690SOL    HW237533   2.902   0.465   8.967 -2.0813 -0.5900 -1.7014
 8691SOL     OW37534   0.532   4.283  14.577  0.1157  0.2239  0.0724
 8691SOL    HW137535   0.593   4.264  14.507 -0.5564  0.1697 -0.4932
 8691SOL    HW237536   0.492   4.196  14.581 -1.7041  0.9614 -1.9731
 8692SOL     OW37537   2.493   1.562   3.127 -0.2227  0.1710  0.0609
 8692SOL    HW137538   2.518   1.477   3.165 -0.3149 -0.5862 -1.5698
 8692SOL    HW237539   2.541   1.573   3.044  0.2220 -1.3031  0.1251
 8693SOL     OW37540   3.844   0.113   0.318 -0.1382 -0.4080  0.4176
 8693SOL    HW137541   3.834   0.203   0.351  3.3473  0.5085 -1.0473
 8693SOL    HW237542   3.806   0.073   0.396  1.6837 -0.2279  1.4059
 8694SOL     OW37543   0.510   1.668  12.763  0.4910  0.1355  0.0253
 8694SOL    HW137544   0.527   1.582  12.724 -0.0787  0.6012 -1.2425
 8694SOL    HW237545   0.601   1.697  12.772  0.0378  2.0793 -1.6925
 8695SOL     OW37546   0.120   0.212  14.186 -0.1712  0.2663 -0.1840
 8695SOL    HW137547   0.073   0.174  14.112 -1.4110  0.3947  0.5272
 8695SOL    HW237548   0.208   0.211  14.148 -0.5245  2.8017 -1.1092
 8696SOL     OW37549   4.451   4.353   2.325  0.4750  0.2257 -0.1837
 8696SOL    HW137550   4.512   4.280   2.317  0.1551  0.2520 -2.8549
 8696SOL    HW237551   4.477   4.413   2.255  1.5869 -0.0919 -0.0484
 8697SOL     OW37552   3.506   4.070  17.549 -0.3796  0.2483  0.0947
 8697SOL    HW137553   3.413   4.051  17.564 -0.2998 -0.8145 -0.6761
 8697SOL    HW237554   3.501   4.150  17.497  1.0585 -0.5604 -1.3018
 8698SOL     OW37555   4.287   4.644   6.614  0.0994 -0.1912  0.3046
 8698SOL    HW137556   4.325   4.683   6.693  4.4837 -4.0253  0.0715
 8698SOL    HW237557   4.364   4.633   6.557 -1.5589  1.9080 -2.3667
 8699SOL     OW37558   4.549   0.570   6.609  0.4629  0.5315  0.2765
 8699SOL    HW137559   4.618   0.635   6.592  1.2183 -0.8244 -1.8242
 8699SOL    HW237560   4.589   0.508   6.670  0.0972 -0.4567 -0.4802
 8700SOL     OW37561   4.446   3.655   7.932 -0.0973 -0.0016  0.2831
 8700SOL    HW137562   4.511   3.588   7.954  1.4698  1.1890 -0.7206
 8700SOL    HW237563   4.366   3.617   7.968 -1.1911  1.6860 -0.3274
 8701SOL     OW37564   2.031   3.419   4.581  0.1414  0.1016 -0.4237
 8701SOL    HW137565   2.041   3.328   4.609 -0.1819 -0.2475 -1.4421
 8701SOL    HW237566   2.049   3.403   4.488 -2.0789  1.4813 -1.0712
 8702SOL     OW37567   1.537   1.066   6.825  0.1285 -0.7211 -0.0590
 8702SOL    HW137568   1.510   1.113   6.904  3.2689  1.9650 -0.5742
 8702SOL    HW237569   1.452   1.042   6.788 -0.0145 -0.0120 -0.1849
 8703SOL     OW37570   1.822   2.594   1.503 -0.6563  0.1041 -0.7560
 8703SOL    HW137571   1.899   2.555   1.460 -0.4950 -2.9895  2.3028
 8703SOL    HW237572   1.754   2.526   1.499 -0.6658 -0.0691  2.2769
 8704SOL     OW37573   1.150   3.277  10.782  0.0742 -0.7639  0.3777
 8704SOL    HW137574   1.131   3.189  10.751 -2.3764 -0.4250  0.9242
 8704SOL    HW237575   1.182   3.317  10.701 -0.9231  1.8185  1.2593
 8705SOL     OW37576   3.490   3.793  16.387 -0.5255  0.3613 -0.2332
 8705SOL    HW137577   3.552   3.721  16.377  0.4076  1.0074  0.9191
 8705SOL    HW237578   3.531   3.858  16.330  1.5107 -0.9017 -0.2064
 8706SOL     OW37579   4.418   3.113  11.251  0.0610  0.2452  0.2457
 8706SOL    HW137580   4.492   3.135  11.195  0.3350 -1.7840 -0.1899
 8706SOL    HW237581   4.463   3.058  11.315 -1.8124 -0.2551  1.1232
 8707SOL     OW37582   3.294   1.088   6.006  0.1745  0.1029 -0.1615
 8707SOL    HW137583   3.219   1.146   6.017 -0.4660 -0.0306 -3.6634
 8707SOL    HW237584   3.346   1.132   5.939  0.0345  1.0393  0.3531
 8708SOL     OW37585   2.126   4.213   4.798  0.0640 -0.2019  0.7145
 8708SOL    HW137586   2.166   4.132   4.829 -0.7837 -0.6494  0.6408
 8708SOL    HW237587   2.050   4.184   4.747  1.1784 -0.2639 -0.9104
 8709SOL     OW37588   2.396   3.771  13.377  0.0126  0.0989  0.0591
 8709SOL    HW137589   2.337   3.728  13.439 -0.1222  2.6362  1.6876
 8709SOL    HW237590   2.336   3.826  13.327 -0.1724  0.1060  0.2906
 8710SOL     OW37591   2.530   2.342   1.627 -0.0109  0.1389 -0.4261
 8710SOL    HW137592   2.625   2.338   1.637 -0.0407 -0.5023 -0.3902
 8710SOL    HW237593   2.511   2.274   1.563  2.8320 -0.4467 -0.6374
 8711SOL     OW37594   4.450   2.643   5.777  0.2351  0.1559 -0.8692
 8711SOL    HW137595   4.498   2.603   5.850 -0.9259 -0.4348 -0.4219
 8711SOL    HW237596   4.452   2.577   5.709  1.1991 -0.7000 -0.0121
 8712SOL     OW37597   1.102   0.704   0.226 -0.0507  0.9010 -0.0274
 8712SOL    HW137598   1.083   0.706   0.319 -1.1029  0.2166 -0.2241
 8712SOL    HW237599   1.020   0.739   0.190  1.0674  3.1618 -0.3412
 8713SOL     OW37600   3.536   3.720   6.018 -0.7593  0.1597 -0.0805
 8713SOL    HW137601   3.572   3.756   5.937  0.6149 -0.5032  0.2308
 8713SOL    HW237602   3.607   3.728   6.083 -0.0815  1.8453 -1.0243
 8714SOL     OW37603   0.618   1.424   2.150 -0.7579 -0.2857  0.5794
 8714SOL    HW137604   0.557   1.466   2.089  0.4926  2.8112  1.4833
 8714SOL    HW237605   0.562   1.361   2.194  0.3476 -0.0883  2.2552
 8715SOL     OW37606   4.562   3.682   4.826 -0.4125  0.2844 -0.0427
 8715SOL    HW137607   4.655   3.695   4.804 -0.8016  3.0474 -0.0397
 8715SOL    HW237608   4.539   3.770   4.854 -1.5342  0.3792 -1.2339
 8716SOL     OW37609   0.119   2.424   8.503 -0.5310  0.2286 -0.5709
 8716SOL    HW137610   0.105   2.400   8.411 -0.1772 -1.3290 -0.2298
 8716SOL    HW237611   0.064   2.501   8.515 -3.7858 -1.5252 -3.9694
 8717SOL     OW37612   2.665   2.334  11.080  0.1388  0.3356 -0.1717
 8717SOL    HW137613   2.706   2.392  11.145 -1.3694 -0.8977  1.8971
 8717SOL    HW237614   2.736   2.270  11.088  0.6666  0.8799 -0.4454
 8718SOL     OW37615   0.190   1.357  14.155  0.1037  0.2801 -0.0628
 8718SOL    HW137616   0.116   1.354  14.215  0.2385 -0.9697  0.0370
 8718SOL    HW237617   0.205   1.263  14.146  1.1730  0.3516  1.0970
 8719SOL     OW37618   0.736   1.770  15.658 -0.1477  0.6175  0.7272
 8719SOL    HW137619   0.696   1.857  15.666 -0.3383  1.0660 -4.4981
 8719SOL    HW237620   0.827   1.799  15.658  0.0541 -0.0376  0.9107
 8720SOL     OW37621   2.387   3.894   6.752  0.2838 -0.1592  0.1864
 8720SOL    HW137622   2.442   3.852   6.818 -1.3600  0.6317  2.0461
 8720SOL    HW237623   2.420   3.857   6.669 -1.6383 -2.2759  0.3448
 8721SOL     OW37624   1.352   0.579  15.128 -0.0742 -0.1978  0.0368
 8721SOL    HW137625   1.276   0.531  15.096  0.9948 -1.3575 -0.7913
 8721SOL    HW237626   1.409   0.555  15.055 -0.7467  1.6395 -1.1041
 8722SOL     OW37627   2.594   4.113   7.191 -0.2870 -0.5906  0.0905
 8722SOL    HW137628   2.675   4.072   7.159 -0.8859 -1.0324 -0.8321
 8722SOL    HW237629   2.620   4.202   7.215 -0.9805  0.1120 -1.8255
 8723SOL     OW37630   1.399   3.035  17.377  0.0568  0.3096 -0.2575
 8723SOL    HW137631   1.370   2.970  17.313  1.4181  1.7494 -2.3342
 8723SOL    HW237632   1.320   3.088  17.388  0.3053  0.7967 -0.8016
 8724SOL     OW37633   1.843   4.202   3.079  0.4893  0.1221  0.1147
 8724SOL    HW137634   1.912   4.238   3.135  1.2052 -1.4941  0.2577
 8724SOL    HW237635   1.882   4.196   2.992  1.2615 -5.2225  0.8196
 8725SOL     OW37636   3.649   3.331   2.299  0.5901 -0.3508  0.0868
 8725SOL    HW137637   3.676   3.415   2.263 -1.6799  0.0554 -0.6837
 8725SOL    HW237638   3.568   3.315   2.250  1.1756  1.4066 -1.4498
 8726SOL     OW37639   3.143   2.000   2.007 -0.1334  0.5542  0.2051
 8726SOL    HW137640   3.228   2.023   2.043  0.9925  0.7845 -2.6640
 8726SOL    HW237641   3.122   1.924   2.062  0.1095 -1.1457 -2.0526
 8727SOL     OW37642   1.165   1.927   4.387  0.2383 -0.4074  0.2911
 8727SOL    HW137643   1.207   1.882   4.461  1.1483  0.6863  0.4376
 8727SOL    HW237644   1.149   2.010   4.433 -2.1651 -1.6926  1.7933
 8728SOL     OW37645   0.260   1.374   2.229  0.0858 -0.2631  0.0740
 8728SOL    HW137646   0.306   1.330   2.301 -0.0143 -0.0987  0.2352
 8728SOL    HW237647   0.307   1.352   2.148 -1.1219  0.4385 -0.8189
 8729SOL     OW37648   1.597   2.793  15.716 -0.3870  0.4220 -0.1347
 8729SOL    HW137649   1.615   2.881  15.748 -0.7336  0.3679  0.2092
 8729SOL    HW237650   1.684   2.753  15.717 -0.8861 -0.7269 -1.7246
 8730SOL     OW37651   1.831   0.418   2.427  0.0009  0.2783 -0.0782
 8730SOL    HW137652   1.912   0.391   2.469  1.3672  0.8105 -2.3354
 8730SOL    HW237653   1.764   0.441   2.491 -0.1713 -0.1891 -0.0926
 8731SOL     OW37654   4.351   1.967  16.253  0.0717  0.1099 -0.3193
 8731SOL    HW137655   4.376   2.057  16.277 -1.4552  1.1730 -2.7991
 8731SOL    HW237656   4.314   1.975  16.165  2.7831 -1.8430 -1.6397
 8732SOL     OW37657   1.893   4.342   5.716  0.2296 -0.1788 -0.2367
 8732SOL    HW137658   1.940   4.372   5.794 -1.2927  1.7430 -0.0396
 8732SOL    HW237659   1.947   4.361   5.639  0.6226 -2.8471 -0.6104
 8733SOL     OW37660   2.845   1.205   4.065  0.0648  0.2483 -0.0250
 8733SOL    HW137661   2.798   1.275   4.109  1.6937  2.2302 -1.4427
 8733SOL    HW237662   2.813   1.216   3.975 -0.6391  2.5575  0.5034
 8734SOL     OW37663   1.138   3.508  10.294 -0.0382 -0.3305 -0.4117
 8734SOL    HW137664   1.138   3.483  10.202 -2.2523 -0.8147 -0.2903
 8734SOL    HW237665   1.184   3.591  10.306 -0.4266 -0.2726  0.7436
 8735SOL     OW37666   0.026   3.629   4.322  0.1058 -0.4326  0.6300
 8735SOL    HW137667   4.662   3.664   4.339  0.3269  0.8484 -0.8243
 8735SOL    HW237668   0.034   3.578   4.402  3.1262 -0.7126  0.1777
 8736SOL     OW37669   2.174   2.184   4.429  0.0266 -0.4270 -0.4628
 8736SOL    HW137670   2.270   2.179   4.429 -0.0311 -1.7189 -0.4521
 8736SOL    HW237671   2.148   2.156   4.341  0.5900 -1.0551 -0.4331
 8737SOL     OW37672   0.258   0.833   3.577  0.2005  0.3340  0.7257
 8737SOL    HW137673   0.305   0.876   3.648  1.0913 -0.1980  0.4599
 8737SOL    HW237674   0.321   0.763   3.561 -1.3879 -0.8278 -0.5049
 8738SOL     OW37675   1.917   3.089   4.416  0.2233 -0.2517  0.0173
 8738SOL    HW137676   1.854   3.125   4.479  0.2747  0.9619 -0.6223
 8738SOL    HW237677   1.924   2.998   4.446 -0.6949 -0.4626 -0.4092
 8739SOL     OW37678   1.710   2.609   7.445  0.4927 -0.1867 -0.0185
 8739SOL    HW137679   1.644   2.633   7.380  0.2776 -2.1309 -0.5185
 8739SOL    HW237680   1.769   2.683   7.460 -0.8593  0.5039  1.7754
 8740SOL     OW37681   3.695   3.372   6.501 -0.6435  0.2657 -0.1427
 8740SOL    HW137682   3.730   3.400   6.417  0.8037 -2.2934 -0.3985
 8740SOL    HW237683   3.612   3.417   6.513 -1.2274 -0.7334 -0.4290
 8741SOL     OW37684   2.044   1.147  10.862 -0.4594 -0.0965 -0.8971
 8741SOL    HW137685   2.076   1.203  10.792 -2.5735 -0.8470 -2.4730
 8741SOL    HW237686   2.050   1.195  10.945  1.3103  1.9688 -2.2284
 8742SOL     OW37687   1.942   2.112   6.614  0.2234  0.2484 -0.3952
 8742SOL    HW137688   2.024   2.064   6.626 -0.7023 -1.9594 -2.8267
 8742SOL    HW237689   1.936   2.102   6.519  0.6704  1.2081 -0.5246
 8743SOL     OW37690   3.206   0.801  10.830 -0.7389  0.1012  0.3012
 8743SOL    HW137691   3.187   0.874  10.772  0.4413 -1.2405 -1.7506
 8743SOL    HW237692   3.300   0.807  10.845 -0.7209 -0.0175  0.2366
 8744SOL     OW37693   0.335   2.315  14.881  0.7691  0.0047  0.1960
 8744SOL    HW137694   0.380   2.230  14.887  0.9987  0.0858 -0.3868
 8744SOL    HW237695   0.420   2.359  14.894  1.7255 -1.3553 -1.4988
 8745SOL     OW37696   2.062   2.315   5.718 -0.6089  0.4942  0.3305
 8745SOL    HW137697   2.068   2.390   5.660  2.7592  0.0871  0.1977
 8745SOL    HW237698   1.978   2.325   5.763 -1.8989 -2.2592 -1.4471
 8746SOL     OW37699   0.927   1.826   8.096 -0.0439  0.0178  0.5353
 8746SOL    HW137700   0.853   1.776   8.129 -0.0784 -0.3419 -0.0774
 8746SOL    HW237701   0.886   1.896   8.045 -0.0583  0.5003  1.2042
 8747SOL     OW37702   1.417   1.554   1.961 -0.4579 -0.6728  0.3133
 8747SOL    HW137703   1.335   1.552   2.010 -0.2678  0.4172  0.6748
 8747SOL    HW237704   1.385   1.617   1.897 -1.0739  0.8454  2.1150
 8748SOL     OW37705   1.284   3.443   3.364  0.0559  0.1202 -0.4774
 8748SOL    HW137706   1.193   3.422   3.339 -1.1199 -0.1026  4.0426
 8748SOL    HW237707   1.310   3.373   3.423 -1.9608  2.2008  2.8709
 8749SOL     OW37708   2.433   0.004   7.190 -0.8235 -0.1530 -0.4450
 8749SOL    HW137709   2.518   0.023   7.231 -1.3529  0.2675  0.4506
 8749SOL    HW237710   2.406   0.094   7.174  0.5171  0.2976 -0.1472
 8750SOL     OW37711   2.532   3.043   8.470  0.1120 -0.9143  0.3706
 8750SOL    HW137712   2.476   3.117   8.447 -1.5789 -2.7721 -1.4926
 8750SOL    HW237713   2.563   3.078   8.554 -0.1889  0.4723 -0.0958
 8751SOL     OW37714   1.470   3.145   7.570  0.2918  0.0328  0.1589
 8751SOL    HW137715   1.557   3.183   7.565  0.7001 -0.8945  0.3823
 8751SOL    HW237716   1.447   3.173   7.659  0.0644 -3.0485  1.0854
 8752SOL     OW37717   0.056   3.398   9.712  0.3281  0.0190  0.1876
 8752SOL    HW137718   4.714   3.462   9.743  0.9839  0.0127  1.5732
 8752SOL    HW237719   0.037   3.400   9.618 -0.0310  1.5090  0.3034
 8753SOL     OW37720   0.924   3.576   3.938  0.0527  0.3738 -0.2910
 8753SOL    HW137721   0.896   3.667   3.929  3.7112  1.6349  0.9851
 8753SOL    HW237722   0.979   3.573   3.860  0.5582  0.1483  0.0725
 8754SOL     OW37723   1.900   0.714   1.963 -0.2064  0.0644 -0.5573
 8754SOL    HW137724   1.921   0.807   1.950 -1.6563  0.6227  1.1048
 8754SOL    HW237725   1.901   0.707   2.059 -0.1789  1.9762 -0.4085
 8755SOL     OW37726   2.426   0.493   2.924 -0.5961  0.3309  0.5976
 8755SOL    HW137727   2.429   0.579   2.883  1.0518 -0.7768 -1.6307
 8755SOL    HW237728   2.336   0.464   2.910 -0.5047  0.4692 -0.2665
 8756SOL     OW37729   2.561   3.725  14.904  0.8916  0.5712 -0.5025
 8756SOL    HW137730   2.605   3.710  14.820  1.4628 -1.9276  0.2430
 8756SOL    HW237731   2.511   3.643  14.909  2.8007 -0.4908  1.0072
 8757SOL     OW37732   3.688   1.945  12.117  0.2261 -0.2526 -0.2468
 8757SOL    HW137733   3.634   1.900  12.181 -0.2243  2.4192  1.2224
 8757SOL    HW237734   3.694   2.028  12.162 -1.3006  0.3423 -1.1214
 8758SOL     OW37735   0.231   3.979   5.069  0.3658  0.4851 -0.4917
 8758SOL    HW137736   0.241   3.955   4.976  0.9526  0.4243 -0.4177
 8758SOL    HW237737   0.305   4.040   5.074  0.8386 -0.2357  1.2162
 8759SOL     OW37738   1.944   1.771   8.259 -0.4007  0.4937  0.4106
 8759SOL    HW137739   1.967   1.855   8.299 -1.6338  0.7130  0.6420
 8759SOL    HW237740   1.849   1.775   8.250 -0.4629  0.5920  1.1113
 8760SOL     OW37741   0.390   0.194  14.954 -0.6482 -0.0473 -0.5913
 8760SOL    HW137742   0.399   0.193  14.858  0.6104  0.3412 -0.4848
 8760SOL    HW237743   0.366   0.286  14.961 -2.4488 -0.5837  0.1407
 8761SOL     OW37744   2.281   3.113   8.277  0.3496  0.8605 -0.7725
 8761SOL    HW137745   2.318   3.104   8.190  2.0502 -1.3851  0.1689
 8761SOL    HW237746   2.292   3.023   8.306 -0.6884  0.8853 -0.2928
 8762SOL     OW37747   3.357   1.934  12.289 -0.5069 -0.2826  0.4620
 8762SOL    HW137748   3.333   1.973  12.373 -1.0394 -1.0780  0.6808
 8762SOL    HW237749   3.356   1.846  12.327  0.0077  0.3435  1.9318
 8763SOL     OW37750   0.687   2.317   7.364  0.1745 -0.2691 -0.4429
 8763SOL    HW137751   0.759   2.268   7.403 -0.4290  0.1209  1.1559
 8763SOL    HW237752   0.732   2.383   7.311  0.7279 -0.4657 -0.2158
 8764SOL     OW37753   1.455   1.885  11.066  0.2081 -0.0073  0.8027
 8764SOL    HW137754   1.504   1.819  11.116  0.9308  0.7634  1.1206
 8764SOL    HW237755   1.452   1.951  11.134  1.3040  1.9748 -1.0675
 8765SOL     OW37756   2.541   4.577  13.007 -0.5370 -0.1049  0.0610
 8765SOL    HW137757   2.575   4.665  13.020 -2.3662  0.8617 -1.6848
 8765SOL    HW237758   2.592   4.560  12.928  0.0527 -0.7585  0.5861
 8766SOL     OW37759   2.348   3.478  11.265  0.1304  0.1417  0.1818
 8766SOL    HW137760   2.406   3.520  11.202  0.2529  1.2007  1.0123
 8766SOL    HW237761   2.318   3.557  11.309 -0.4117  0.1398 -0.1797
 8767SOL     OW37762   3.215   1.056   7.921 -0.2653 -0.4022  0.3455
 8767SOL    HW137763   3.232   0.970   7.883  0.4601  1.3341 -3.2696
 8767SOL    HW237764   3.134   1.035   7.968 -0.4548  1.3138  0.8049
 8768SOL     OW37765   1.673   1.057   8.075  0.0849 -0.5792  0.1922
 8768SOL    HW137766   1.665   1.008   7.993  2.7032 -1.5777  0.5458
 8768SOL    HW237767   1.676   1.146   8.039 -2.1059  0.2635  1.9979
 8769SOL     OW37768   3.815   0.325   9.248 -0.3605  0.4856 -0.1322
 8769SOL    HW137769   3.775   0.348   9.332  0.6444 -0.3836  0.5808
 8769SOL    HW237770   3.819   0.412   9.208 -0.6352 -1.4318 -4.3498
 8770SOL     OW37771   3.907   0.401   3.091  0.4148  0.2210  0.3805
 8770SOL    HW137772   3.881   0.429   3.004 -1.3273  2.3345  1.5788
 8770SOL    HW237773   3.968   0.470   3.115 -1.2641  1.0397  2.3522
 8771SOL     OW37774   2.456   0.912   7.243 -0.1535  1.1131 -0.4660
 8771SOL    HW137775   2.439   1.003   7.219 -1.5871  0.6326 -1.3280
 8771SOL    HW237776   2.466   0.927   7.337 -1.1047  4.1634 -0.8613
 8772SOL     OW37777   1.960   3.840   3.039 -0.4911  0.6046 -0.3913
 8772SOL    HW137778   1.991   3.896   2.968 -0.2598 -0.0083 -0.7680
 8772SOL    HW237779   1.873   3.813   3.009 -1.1834  2.0351  0.2975
 8773SOL     OW37780   3.378   0.213   8.104 -0.0304  0.1961 -0.5094
 8773SOL    HW137781   3.401   0.222   8.197 -1.7464 -2.8523  0.2257
 8773SOL    HW237782   3.452   0.244   8.053 -1.3275  1.6439 -1.4979
 8774SOL     OW37783   0.427   0.464   6.383 -0.3503 -0.2861 -0.0397
 8774SOL    HW137784   0.403   0.536   6.442  1.8051 -0.7406  1.3933
 8774SOL    HW237785   0.497   0.510   6.335 -0.7722  2.8171  2.3353
 8775SOL     OW37786   1.586   0.847   5.683 -0.8809  0.3387 -0.1258
 8775SOL    HW137787   1.582   0.939   5.658 -1.3361 -0.1968 -2.0057
 8775SOL    HW237788   1.671   0.829   5.642 -1.3810  0.6236 -1.2885
 8776SOL     OW37789   1.910   2.157   7.134 -0.0633 -0.0515  0.8302
 8776SOL    HW137790   1.928   2.167   7.228  0.2834  1.3982  0.6106
 8776SOL    HW237791   1.958   2.234   7.102  0.9212 -0.9129  0.2267
 8777SOL     OW37792   3.015   1.577   9.553 -0.6050 -0.0490 -0.2482
 8777SOL    HW137793   2.953   1.506   9.569 -0.1909 -0.4110 -0.2583
 8777SOL    HW237794   3.059   1.584   9.637 -2.5366 -2.0700  0.9354
 8778SOL     OW37795   2.828   2.391   3.273  0.5664  0.2896 -0.0179
 8778SOL    HW137796   2.873   2.398   3.189 -1.6957 -0.8307 -1.3443
 8778SOL    HW237797   2.894   2.431   3.328 -0.0207  0.3245  0.6706
 8779SOL     OW37798   0.332   0.983   2.296 -0.5018 -0.3857  0.1994
 8779SOL    HW137799   0.393   0.912   2.276 -2.1758 -1.3568 -1.3777
 8779SOL    HW237800   0.255   0.933   2.321 -0.1908 -1.3478 -0.7646
 8780SOL     OW37801   3.438   4.049   1.447  0.1416 -0.2301 -0.2490
 8780SOL    HW137802   3.441   3.961   1.485  2.1522 -0.3634 -0.7009
 8780SOL    HW237803   3.418   4.034   1.355 -0.4671 -0.5512 -0.0645
 8781SOL     OW37804   1.413   3.636   1.425  0.3729 -0.3753 -0.4292
 8781SOL    HW137805   1.377   3.601   1.344  0.5866  2.1066 -1.5711
 8781SOL    HW237806   1.356   3.584   1.482 -1.3453 -0.4567 -2.2227
 8782SOL     OW37807   3.215   2.003   6.711 -0.5566 -0.4424  0.1490
 8782SOL    HW137808   3.300   2.017   6.668 -1.2288  2.0348 -0.3949
 8782SOL    HW237809   3.191   1.921   6.668  1.3719 -1.6166  1.2533
 8783SOL     OW37810   4.510   0.199   2.274  0.0918 -0.0574  0.4138
 8783SOL    HW137811   4.549   0.122   2.234 -0.1030  0.7278 -1.3010
 8783SOL    HW237812   4.554   0.202   2.359 -2.7535  0.0768  1.8899
 8784SOL     OW37813   3.925   2.500  15.195 -0.6745 -0.4474 -0.3959
 8784SOL    HW137814   3.893   2.561  15.262  2.0917  0.3961  0.1369
 8784SOL    HW237815   3.948   2.420  15.242 -1.6271 -0.2442  0.4204
 8785SOL     OW37816   4.627   0.211  10.550  0.2371 -0.3906 -0.4713
 8785SOL    HW137817   4.667   0.288  10.591 -0.1424 -0.1282 -0.6007
 8785SOL    HW237818   4.663   0.214  10.462 -0.0644 -1.2479 -0.6234
 8786SOL     OW37819   2.109   1.773   6.022 -0.0324  0.2626 -0.2435
 8786SOL    HW137820   2.083   1.752   5.932 -0.4849 -1.0818  0.2020
 8786SOL    HW237821   2.081   1.865   6.018 -0.8530  0.0048 -0.4972
 8787SOL     OW37822   0.156   2.189   1.476 -0.1808  0.5098 -0.2746
 8787SOL    HW137823   0.129   2.268   1.429  0.1888 -0.3316 -1.9019
 8787SOL    HW237824   0.225   2.161   1.416 -0.9315  0.1297 -0.9550
 8788SOL     OW37825   1.479   4.557   2.586 -0.5360 -0.0514 -0.1154
 8788SOL    HW137826   1.407   4.500   2.615 -0.8005 -0.3928 -1.4563
 8788SOL    HW237827   1.439   4.598   2.509 -1.2326 -0.2638  0.1348
 8789SOL     OW37828   3.714   4.698  15.842  0.2147 -0.1917 -0.0397
 8789SOL    HW137829   3.710   4.602  15.840 -0.4647 -0.1553 -0.3678
 8789SOL    HW237830   3.623   0.000  15.826  0.3862 -0.4729 -1.4689
 8790SOL     OW37831   4.572   0.742   5.634  0.2405  0.9894  0.0131
 8790SOL    HW137832   4.621   0.756   5.552 -0.8181 -0.2072 -0.8128
 8790SOL    HW237833   4.517   0.819   5.622  1.4525  1.7209 -0.9107
 8791SOL     OW37834   3.638   4.352   9.643 -0.0780 -0.5447 -0.3974
 8791SOL    HW137835   3.556   4.347   9.594  0.0456  0.6217 -0.7269
 8791SOL    HW237836   3.704   4.320   9.582  0.3677  0.0779 -0.2348
 8792SOL     OW37837   1.447   3.141   6.432 -0.7547  0.2412  0.5427
 8792SOL    HW137838   1.478   3.223   6.391  0.7052 -0.3771  0.4048
 8792SOL    HW237839   1.498   3.072   6.391  1.6644  1.4130  1.5501
 8793SOL     OW37840   2.192   3.367   1.165  0.6925  0.1826  0.0927
 8793SOL    HW137841   2.281   3.338   1.146  1.2731  1.8285  0.3014
 8793SOL    HW237842   2.179   3.333   1.254  0.3400 -1.4320 -0.5867
 8794SOL     OW37843   3.189   2.527   0.234  0.2115 -0.0696  0.1112
 8794SOL    HW137844   3.274   2.568   0.218 -0.2423  0.0106 -1.9999
 8794SOL    HW237845   3.213   2.438   0.260 -0.9294 -0.5885 -0.6242
 8795SOL     OW37846   3.067   2.660  13.249  0.0498 -0.0812 -0.2205
 8795SOL    HW137847   3.143   2.623  13.294  0.8414  1.1726 -0.5324
 8795SOL    HW237848   3.103   2.681  13.162 -0.7161 -0.5610 -0.6521
 8796SOL     OW37849   3.811   0.657   7.134 -0.1288 -0.0377 -0.3776
 8796SOL    HW137850   3.816   0.684   7.043 -0.2249 -0.7830 -0.6025
 8796SOL    HW237851   3.801   0.739   7.183 -3.3975 -0.6654 -0.0360
 8797SOL     OW37852   2.085   4.185   7.154  0.6835 -0.2481 -0.2588
 8797SOL    HW137853   2.167   4.172   7.107  0.2450  1.2233 -1.4499
 8797SOL    HW237854   2.071   4.100   7.195 -1.1999 -0.7707 -1.9807
 8798SOL     OW37855   1.560   0.137  13.066 -0.0213 -0.6747  0.0933
 8798SOL    HW137856   1.568   0.107  12.975  2.3221  2.6519 -0.8038
 8798SOL    HW237857   1.640   0.095  13.099  1.8990 -0.3635 -4.1264
 8799SOL     OW37858   0.009   0.093   7.919  0.0055 -0.0802 -0.4297
 8799SOL    HW137859   0.087   0.104   7.973  0.3776  1.7019 -1.3113
 8799SOL    HW237860   0.025   0.002   7.892 -2.2221 -0.3899 -0.7082
 8800SOL     OW37861   0.714   3.014   1.213  0.0462  0.0479  0.1029
 8800SOL    HW137862   0.770   3.079   1.170  0.8955 -0.4106  0.5185
 8800SOL    HW237863   0.772   2.939   1.209  0.5666  0.4698 -0.4054
 8801SOL     OW37864   0.128   3.996   5.788  0.3365 -0.4910  0.3683
 8801SOL    HW137865   0.057   4.051   5.754 -1.6383 -1.1187  3.5149
 8801SOL    HW237866   0.210   4.042   5.772  1.5640 -1.5903  3.6242
 8802SOL     OW37867   0.343   0.895   4.784 -0.2184  0.1403 -0.2371
 8802SOL    HW137868   0.402   0.957   4.741 -1.3750  1.1213 -0.3750
 8802SOL    HW237869   0.295   0.861   4.709  0.9814 -0.4118 -0.7659
 8803SOL     OW37870   2.589   0.328   5.269  0.3725  0.1296 -0.1257
 8803SOL    HW137871   2.644   0.338   5.347  0.3444 -0.1382 -0.0689
 8803SOL    HW237872   2.657   0.286   5.215  0.3581 -0.4160  0.2746
 8804SOL     OW37873   3.721   3.245   7.260 -0.3318  0.3541 -0.1005
 8804SOL    HW137874   3.695   3.324   7.307  1.7665  0.5262  0.7738
 8804SOL    HW237875   3.722   3.191   7.339 -1.4408  1.1304  0.4493
 8805SOL     OW37876   3.009   0.159   8.557  0.9677  0.3249 -0.1922
 8805SOL    HW137877   3.098   0.143   8.524  1.1153  0.0020  0.3691
 8805SOL    HW237878   2.997   0.254   8.566 -0.4185  0.0115  1.0887
 8806SOL     OW37879   0.232   1.005   8.356 -0.3271 -0.3010  0.4156
 8806SOL    HW137880   0.282   0.962   8.287 -0.0791 -0.4893  0.7146
 8806SOL    HW237881   0.297   1.055   8.405  1.0618 -1.1667 -0.5544
 8807SOL     OW37882   1.713   2.648   3.929 -0.6493  0.1927 -0.5594
 8807SOL    HW137883   1.672   2.577   3.979  1.9807 -0.3393  0.8405
 8807SOL    HW237884   1.647   2.710   3.897  1.4202  1.4898 -2.2968
 8808SOL     OW37885   4.512   4.227   6.988  0.0392 -0.0871  0.1234
 8808SOL    HW137886   4.523   4.287   6.915 -1.5624 -0.4980 -0.4480
 8808SOL    HW237887   4.454   4.276   7.047 -0.4729 -0.2414 -0.2548
 8809SOL     OW37888   3.710   0.152   4.396 -0.1951 -0.7081 -0.0165
 8809SOL    HW137889   3.727   0.184   4.485 -0.3277  0.8424 -0.5474
 8809SOL    HW237890   3.681   0.235   4.357 -1.4406 -0.2843  1.8018
 8810SOL     OW37891   0.446   1.424  16.601 -0.2084  0.0681 -0.4252
 8810SOL    HW137892   0.465   1.445  16.510  0.3731  0.5056 -0.2099
 8810SOL    HW237893   0.359   1.387  16.588 -0.1712  0.1451 -0.8665
 8811SOL     OW37894   2.015   3.487   4.854  0.0176 -0.0638 -0.1731
 8811SOL    HW137895   2.013   3.506   4.760 -0.6874  3.0991  0.4870
 8811SOL    HW237896   1.936   3.534   4.882  0.8862  1.0076  0.4537
 8812SOL     OW37897   1.788   2.731   7.799 -0.5107 -0.4718 -0.4858
 8812SOL    HW137898   1.772   2.775   7.883  0.6754  1.7560 -1.4568
 8812SOL    HW237899   1.754   2.795   7.737 -1.5371 -2.1769 -1.6798
 8813SOL     OW37900   3.685   3.847   5.825  0.2315 -0.6880  0.3465
 8813SOL    HW137901   3.694   3.832   5.731  1.7787  0.7233  0.2692
 8813SOL    HW237902   3.777   3.848   5.852  0.3073  0.7663  0.0663
 8814SOL     OW37903   0.924   0.368   8.497 -0.2971 -0.1623  0.3495
 8814SOL    HW137904   0.830   0.380   8.509 -0.1685  1.5493 -0.4770
 8814SOL    HW237905   0.915   0.298   8.432 -0.3914  1.0640 -0.9646
 8815SOL     OW37906   0.509   0.290   6.068 -0.6411  0.3072  0.2159
 8815SOL    HW137907   0.514   0.251   6.155  2.1115 -0.9502 -0.5104
 8815SOL    HW237908   0.587   0.346   6.068 -0.4670  0.0507  1.9613
 8816SOL     OW37909   3.624   4.178   2.009  0.1414 -0.0138 -0.3821
 8816SOL    HW137910   3.644   4.131   1.928  1.3169 -1.7653  0.9305
 8816SOL    HW237911   3.666   4.262   1.988 -0.2013  0.4691  0.8478
 8817SOL     OW37912   4.675   2.027   5.400 -0.3889 -0.2663  0.6436
 8817SOL    HW137913   0.000   1.961   5.351  0.2577 -0.4961  1.5957
 8817SOL    HW237914   4.584   2.001   5.385  0.4750 -4.1430  2.2041
 8818SOL     OW37915   4.669   3.343   8.883  0.1269  0.5272 -0.2135
 8818SOL    HW137916   4.699   3.434   8.884  1.6075  0.0573 -2.0074
 8818SOL    HW237917   0.028   3.298   8.901 -0.3532 -0.6006 -0.8237
 8819SOL     OW37918   4.026   3.465  12.040 -0.4219  0.5241  0.3098
 8819SOL    HW137919   4.060   3.542  12.085  0.2947 -0.8936  2.1637
 8819SOL    HW237920   3.938   3.497  12.023 -1.0407 -1.7520 -0.7204
 8820SOL     OW37921   3.841   2.914   9.524 -0.5073 -0.4436 -0.5524
 8820SOL    HW137922   3.810   2.908   9.615  1.9006 -1.7387  0.1814
 8820SOL    HW237923   3.935   2.927   9.530 -0.7221  0.3155  1.2722
 8821SOL     OW37924   2.854   1.613   2.397  0.1291 -0.0466  0.4657
 8821SOL    HW137925   2.934   1.584   2.352  2.1354  3.0451  2.0831
 8821SOL    HW237926   2.809   1.650   2.322  2.2813 -0.7240 -1.1676
 8822SOL     OW37927   0.292   4.415   2.700  0.3824 -0.2990 -0.6327
 8822SOL    HW137928   0.333   4.333   2.727  0.9631  0.3406  0.4028
 8822SOL    HW237929   0.200   4.392   2.712  0.0119  1.9992  0.9437
 8823SOL     OW37930   0.297   4.197   5.251  0.2115 -0.4551 -0.0314
 8823SOL    HW137931   0.282   4.250   5.173 -0.8822 -1.6374 -0.6272
 8823SOL    HW237932   0.358   4.249   5.304 -0.3924 -0.2203  0.4411
 8824SOL     OW37933   3.568   1.793   6.252 -0.1885  1.0045  0.4680
 8824SOL    HW137934   3.592   1.866   6.194  0.1861  1.8345  1.6732
 8824SOL    HW237935   3.650   1.774   6.297 -0.6212 -0.9351  0.4669
 8825SOL     OW37936   3.847   3.802  12.750 -0.0089 -0.3232 -0.2512
 8825SOL    HW137937   3.875   3.725  12.800  3.1189  2.2215  1.9665
 8825SOL    HW237938   3.937   3.834  12.741 -0.0517 -0.3949 -0.9075
 8826SOL     OW37939   2.410   3.715   5.947  0.0553  0.1813  0.1516
 8826SOL    HW137940   2.372   3.785   5.893 -1.4040  0.5943  1.7295
 8826SOL    HW237941   2.335   3.656   5.952 -0.4560  1.0395  2.6016
 8827SOL     OW37942   1.238   1.572   3.579 -0.1342 -0.5315  0.3004
 8827SOL    HW137943   1.259   1.492   3.627  0.1020 -1.5407 -1.4796
 8827SOL    HW237944   1.294   1.572   3.501  0.6379  0.9131  0.8731
 8828SOL     OW37945   0.525   4.618   4.574 -0.3317 -0.3413  0.1572
 8828SOL    HW137946   0.596   4.643   4.515 -0.2722 -2.0242 -0.4940
 8828SOL    HW237947   0.486   4.535   4.543  0.6648 -0.8264  0.2193
 8829SOL     OW37948   3.948   0.729   1.269  0.4915 -0.0634 -0.4292
 8829SOL    HW137949   3.966   0.690   1.183 -1.1974  1.5778 -1.5263
 8829SOL    HW237950   3.997   0.670   1.327 -0.6198 -1.6793 -1.1413
 8830SOL     OW37951   2.794   3.170   0.810 -0.0380 -0.4957 -0.0785
 8830SOL    HW137952   2.774   3.098   0.870  1.1678  1.0204  2.1340
 8830SOL    HW237953   2.763   3.247   0.857  2.9124  2.7363 -3.3394
 8831SOL     OW37954   2.841   2.349   4.913  0.3764 -0.6549  0.1336
 8831SOL    HW137955   2.874   2.264   4.884 -0.9153 -1.6626  1.6138
 8831SOL    HW237956   2.903   2.382   4.978 -0.2793 -1.3972  1.1269
 8832SOL     OW37957   2.930   3.362   3.639  0.0968  0.6775 -0.4707
 8832SOL    HW137958   3.022   3.384   3.624 -0.1532  2.2733  0.2787
 8832SOL    HW237959   2.949   3.278   3.680 -0.0685  1.1584  0.6158
 8833SOL     OW37960   2.243   4.628   5.996 -0.7293  0.3261  0.1621
 8833SOL    HW137961   2.301   4.580   6.055 -3.0171 -0.7203  1.5653
 8833SOL    HW237962   2.291   4.711   5.990  1.9166 -1.1349  0.8675
 8834SOL     OW37963   2.434   0.232  16.572  0.0246  1.1190 -0.2830
 8834SOL    HW137964   2.517   0.225  16.620 -0.2050  0.4259  0.0222
 8834SOL    HW237965   2.459   0.234  16.480 -2.1339  1.2704 -0.8634
 8835SOL     OW37966   4.071   2.615   6.749  0.2284 -0.1316 -0.5432
 8835SOL    HW137967   3.993   2.606   6.803  0.6884 -2.8565 -0.3410
 8835SOL    HW237968   4.123   2.679   6.798  0.1749 -0.4564 -0.0600
 8836SOL     OW37969   3.716   3.200   8.454  0.2745 -0.1375 -0.0604
 8836SOL    HW137970   3.689   3.290   8.439 -0.9827 -0.6363 -0.7644
 8836SOL    HW237971   3.679   3.193   8.542  0.1150 -0.6045 -0.1642
 8837SOL     OW37972   0.667   2.724   3.777 -0.2759  0.2770 -0.6023
 8837SOL    HW137973   0.579   2.732   3.741  0.4599  1.6542 -2.0740
 8837SOL    HW237974   0.691   2.817   3.782  1.1519 -0.0525 -1.3327
 8838SOL     OW37975   4.623   4.055   1.478 -0.1422 -0.3361 -0.1960
 8838SOL    HW137976   4.712   4.020   1.476 -0.3174 -0.8382  1.0692
 8838SOL    HW237977   4.562   3.982   1.462  1.3560 -1.3561 -1.2650
 8839SOL     OW37978   2.321   4.003   1.955  0.1898 -0.4569  0.3787
 8839SOL    HW137979   2.229   3.991   1.929  0.3324 -1.3903  0.3059
 8839SOL    HW237980   2.346   3.911   1.943 -2.3948 -1.2478  0.9502
 8840SOL     OW37981   2.598   4.435   1.471  0.6719  0.5234 -0.8474
 8840SOL    HW137982   2.600   4.378   1.395 -0.1474  1.2007 -1.3754
 8840SOL    HW237983   2.645   4.515   1.446  1.3569  0.5418  0.4412
 8841SOL     OW37984   3.707   2.493   3.642  0.0312  0.2770 -0.3573
 8841SOL    HW137985   3.640   2.505   3.575 -0.1139  0.0323 -0.2583
 8841SOL    HW237986   3.775   2.552   3.610 -2.0922  1.4863 -2.6683
 8842SOL     OW37987   0.556   4.109   2.444 -0.7025 -0.2065 -0.4183
 8842SOL    HW137988   0.579   4.174   2.379  0.0154  0.5087  0.5519
 8842SOL    HW237989   0.465   4.095   2.421 -1.0256 -1.3005  1.4981
 8843SOL     OW37990   3.213   0.385   2.623  0.4739 -0.1424  0.0220
 8843SOL    HW137991   3.188   0.331   2.698 -0.0020  0.0187 -0.0224
 8843SOL    HW237992   3.198   0.332   2.545 -2.4746  1.3412 -0.4068
 8844SOL     OW37993   0.793   1.393   9.678 -0.9343  0.2240 -0.2445
 8844SOL    HW137994   0.888   1.404   9.682 -1.0543  1.8796 -1.8833
 8844SOL    HW237995   0.772   1.473   9.629 -2.4188  1.4391  2.3583
 8845SOL     OW37996   2.911   1.402  11.798 -0.3432  0.4128 -0.0739
 8845SOL    HW137997   2.854   1.379  11.724 -0.0473 -3.2567  0.8800
 8845SOL    HW237998   2.921   1.316  11.838 -3.0628 -0.0044 -0.2900
 8846SOL     OW37999   3.795   1.231   5.884 -0.2017  0.2818  0.0877
 8846SOL    HW138000   3.782   1.159   5.945 -1.5861  0.7707  0.3757
 8846SOL    HW238001   3.797   1.189   5.797  1.7095 -1.9773  1.2098
 8847SOL     OW38002   4.069   2.695  16.471  0.6401  0.1486 -0.1412
 8847SOL    HW138003   4.027   2.703  16.385  1.2874 -0.2826 -0.4996
 8847SOL    HW238004   4.051   2.786  16.497  0.1343 -0.1396  0.5203
 8848SOL     OW38005   2.375   1.637  17.030  0.3865  0.1672 -0.1522
 8848SOL    HW138006   2.285   1.659  17.008  0.2335  0.7886  1.1141
 8848SOL    HW238007   2.412   1.726  17.028 -0.5274  0.5439 -0.1893
 8849SOL     OW38008   1.899   3.003   6.102 -0.3980 -0.5231  0.8411
 8849SOL    HW138009   1.856   3.073   6.150 -0.2865  0.6520 -0.7799
 8849SOL    HW238010   1.832   2.935   6.104  0.6638 -1.5794  1.0605
 8850SOL     OW38011   0.157   2.555  13.004 -0.0251 -0.8025  0.6104
 8850SOL    HW138012   0.138   2.582  12.915 -0.2994 -0.5500  0.7490
 8850SOL    HW238013   0.094   2.597  13.062 -1.7668 -0.9570 -1.2052
 8851SOL     OW38014   3.238   0.476   9.150  0.4634  0.1193  1.1614
 8851SOL    HW138015   3.187   0.540   9.198 -0.1240  0.4437  0.1062
 8851SOL    HW238016   3.224   0.516   9.064  0.6170  0.9434  1.5214
 8852SOL     OW38017   0.446   0.110  17.521 -0.0445  0.6022  0.9240
 8852SOL    HW138018   0.436   0.018  17.499 -0.3110  1.4384 -2.5017
 8852SOL    HW238019   0.533   0.123  17.484  0.3919 -0.8712  1.4157
 8853SOL     OW38020   3.749   1.837   8.591  0.4260 -0.2886 -0.3056
 8853SOL    HW138021   3.749   1.764   8.653 -0.2396  0.4600  0.5859
 8853SOL    HW238022   3.731   1.783   8.515 -0.7608 -2.0831  1.2419
 8854SOL     OW38023   3.802   2.317   7.603  0.3100 -0.0460 -0.7100
 8854SOL    HW138024   3.878   2.342   7.655 -1.2864  1.0216  1.0910
 8854SOL    HW238025   3.770   2.399   7.566 -1.2092 -0.7299 -0.9081
 8855SOL     OW38026   1.241   1.137   4.868 -0.1365  0.0481  0.1500
 8855SOL    HW138027   1.148   1.152   4.854  0.2578 -0.6950 -3.3227
 8855SOL    HW238028   1.257   1.053   4.824 -0.1434 -0.1565  0.5378
 8856SOL     OW38029   3.011   3.528   7.651  0.5620 -0.2034 -0.3898
 8856SOL    HW138030   2.932   3.515   7.703  1.3438 -0.2058  0.7919
 8856SOL    HW238031   3.066   3.566   7.720  0.6001 -0.6450 -0.1817
 8857SOL     OW38032   2.406   2.611   5.950 -0.0041 -0.5556  0.1418
 8857SOL    HW138033   2.402   2.580   6.041  1.2484  1.3016  0.8432
 8857SOL    HW238034   2.474   2.678   5.954 -1.1970  0.4805  3.8100
 8858SOL     OW38035   4.078   4.270   0.508  0.5549 -0.1321 -0.3225
 8858SOL    HW138036   4.003   4.240   0.560  0.3102  2.8516  1.0607
 8858SOL    HW238037   4.138   4.302   0.575 -0.5647 -0.1071  0.6787
 8859SOL     OW38038   3.723   0.207  15.546 -0.2800 -0.1031 -0.1176
 8859SOL    HW138039   3.640   0.171  15.577 -0.3701  1.2855  1.2520
 8859SOL    HW238040   3.723   0.301  15.565 -0.9226 -0.0462 -0.4175
 8860SOL     OW38041   0.503   0.187   5.816 -0.4564 -0.6192 -0.2179
 8860SOL    HW138042   0.490   0.280   5.797  2.0140 -0.4360 -0.9845
 8860SOL    HW238043   0.506   0.196   5.911  1.9838 -0.6484 -0.3025
 8861SOL     OW38044   1.887   4.564   3.679 -0.2790 -0.2053 -0.5313
 8861SOL    HW138045   1.900   4.650   3.639 -0.8966 -0.8135 -2.0514
 8861SOL    HW238046   1.864   4.595   3.766  0.6831 -0.7997 -0.0762
 8862SOL     OW38047   2.382   0.908   8.516 -0.4062 -0.6360  0.1723
 8862SOL    HW138048   2.359   0.878   8.604 -0.1918  0.3835  0.5815
 8862SOL    HW238049   2.350   0.998   8.514 -0.5786 -0.7796 -2.6468
 8863SOL     OW38050   0.319   0.256   2.509 -0.1572  0.2923 -0.1460
 8863SOL    HW138051   0.262   0.325   2.544 -0.3538  0.3257 -0.5267
 8863SOL    HW238052   0.392   0.253   2.570  0.0355 -1.7861 -0.4852
 8864SOL     OW38053   1.635   3.782  17.337 -0.1556  0.2079 -0.3458
 8864SOL    HW138054   1.608   3.721  17.406 -1.4963  0.8129 -0.3417
 8864SOL    HW238055   1.724   3.750  17.323 -0.4186  0.6398 -2.8871
 8865SOL     OW38056   3.027   3.566   5.996  0.2012 -0.2561 -0.8018
 8865SOL    HW138057   3.067   3.653   5.998  0.4481 -0.3741 -0.5959
 8865SOL    HW238058   2.957   3.583   6.058  0.0172  1.7348 -1.5648
 8866SOL     OW38059   2.648   0.049   3.056  0.4409 -0.4233  0.0194
 8866SOL    HW138060   2.612   0.135   3.080 -0.7507 -0.4774 -1.6446
 8866SOL    HW238061   2.564   0.005   3.045  0.4264 -0.4867  0.3818
 8867SOL     OW38062   0.706   2.821   8.259  0.2845 -0.0654 -0.3488
 8867SOL    HW138063   0.716   2.804   8.166  0.3086 -0.7630 -0.2210
 8867SOL    HW238064   0.718   2.734   8.298 -1.3761 -0.1990 -0.1583
 8868SOL     OW38065   2.086   3.850   4.674 -1.0598 -0.2864 -0.1655
 8868SOL    HW138066   2.011   3.814   4.627 -1.3396  2.1881 -1.6406
 8868SOL    HW238067   2.051   3.838   4.762  0.5905 -0.2900  0.5039
 8869SOL     OW38068   4.407   2.663   7.315  0.2805  0.3296  0.0625
 8869SOL    HW138069   4.343   2.678   7.384  0.3856 -0.2503  0.2872
 8869SOL    HW238070   4.381   2.724   7.246  0.5312  1.2368  0.7684
 8870SOL     OW38071   3.248   3.710  10.109 -0.0643 -0.6736 -0.2776
 8870SOL    HW138072   3.331   3.749  10.081 -0.8051  0.9525 -0.2022
 8870SOL    HW238073   3.278   3.622  10.132 -0.3628  0.2013  3.3655
 8871SOL     OW38074   3.805   4.660   1.359 -0.4271 -0.1335 -0.3713
 8871SOL    HW138075   3.858   4.602   1.413 -1.3666 -1.1324 -0.5040
 8871SOL    HW238076   3.765   4.595   1.301  1.1649 -0.5083 -1.0304
 8872SOL     OW38077   1.860   2.346   2.926 -0.0346  0.1424  0.1697
 8872SOL    HW138078   1.831   2.419   2.981  0.0687 -1.2431  2.0661
 8872SOL    HW238079   1.911   2.295   2.989 -2.3674 -1.6779  0.5855
 8873SOL     OW38080   0.480   1.744  14.736  0.1848  0.0976  0.4850
 8873SOL    HW138081   0.509   1.771  14.649  0.3648 -1.3097  0.1036
 8873SOL    HW238082   0.395   1.788  14.748  1.2113  1.7975  1.6171
 8874SOL     OW38083   1.271   1.793   4.615 -0.1284 -0.4376  0.0617
 8874SOL    HW138084   1.364   1.815   4.618  0.2923 -2.2671  0.3460
 8874SOL    HW238085   1.263   1.701   4.637  0.0610 -0.7802 -1.2872
 8875SOL     OW38086   2.275   4.469  17.102  0.1172  0.3311 -0.1298
 8875SOL    HW138087   2.214   4.494  17.172 -0.0135  0.0099 -0.1273
 8875SOL    HW238088   2.287   4.551  17.054  0.3638  1.8676  2.5381
 8876SOL     OW38089   1.716   2.226  14.247 -0.1324  0.7169 -0.1828
 8876SOL    HW138090   1.671   2.183  14.320  1.4365  0.3987  0.5858
 8876SOL    HW238091   1.769   2.155  14.211 -0.8035  0.5501 -0.8407
 8877SOL     OW38092   0.339   1.030   7.422 -0.1260 -0.0308 -0.1932
 8877SOL    HW138093   0.288   1.041   7.342  0.4574  0.1296 -0.5398
 8877SOL    HW238094   0.296   0.959   7.469 -0.4750 -0.5336 -1.2865
 8878SOL     OW38095   0.273   2.064   7.580  0.1889  0.2697 -0.2781
 8878SOL    HW138096   0.352   2.112   7.603  2.5198 -2.4096 -2.7613
 8878SOL    HW238097   0.204   2.130   7.567  0.4201  0.6945  0.6527
 8879SOL     OW38098   3.207   1.756  17.304  0.1204  0.4988 -0.2359
 8879SOL    HW138099   3.209   1.667  17.340  0.0240  1.0548  1.1538
 8879SOL    HW238100   3.126   1.783  17.347  0.6025 -0.8221  1.4908
 8880SOL     OW38101   2.374   2.320   9.729  0.1486  0.3873 -0.2850
 8880SOL    HW138102   2.467   2.309   9.746  0.3317  1.7740 -0.4117
 8880SOL    HW238103   2.366   2.232   9.766  0.5502  0.3543 -0.2794
 8881SOL     OW38104   2.960   4.625   3.642  0.1075  0.0886  0.2004
 8881SOL    HW138105   2.887   4.574   3.676 -0.3612  0.3001 -0.4888
 8881SOL    HW238106   2.981   4.576   3.562 -1.8659  0.4651 -0.5311
 8882SOL     OW38107   3.334   1.241   7.603  0.0420 -0.0960 -0.0915
 8882SOL    HW138108   3.344   1.180   7.530  0.7536 -0.1733  0.0703
 8882SOL    HW238109   3.258   1.207   7.649 -0.5482 -0.0843 -1.0416
 8883SOL     OW38110   3.489   4.619   1.437  0.0494 -0.2458 -0.5360
 8883SOL    HW138111   3.446   4.533   1.437  1.4542 -0.9575 -1.8183
 8883SOL    HW238112   3.556   4.604   1.503  1.6200 -3.2061 -2.8270
 8884SOL     OW38113   3.810   4.353  12.037 -0.3224 -0.0803  0.3636
 8884SOL    HW138114   3.836   4.436  12.076 -0.0402  0.1752 -0.3704
 8884SOL    HW238115   3.716   4.358  12.053 -0.7509 -0.5415 -1.8811
 8885SOL     OW38116   2.456   1.636   4.320 -0.3970 -0.1317 -0.3941
 8885SOL    HW138117   2.381   1.615   4.265  1.5992 -2.2770 -2.2622
 8885SOL    HW238118   2.429   1.620   4.411  2.7321 -3.0305 -0.0136
 8886SOL     OW38119   2.875   3.022   4.820  0.2530  0.0458  0.1115
 8886SOL    HW138120   2.815   3.049   4.890 -0.6938  1.5098 -1.2930
 8886SOL    HW238121   2.843   3.076   4.748 -0.5362 -0.1026  0.3516
 8887SOL     OW38122   3.167   0.113  12.742 -0.3050  0.0926  0.4586
 8887SOL    HW138123   3.237   0.086  12.801 -1.0140 -2.8688 -0.0829
 8887SOL    HW238124   3.104   0.155  12.799 -0.9929 -1.1741  0.6318
 8888SOL     OW38125   4.602   0.931  13.871  0.0549  0.3916 -0.1289
 8888SOL    HW138126   4.550   1.009  13.891 -1.2459 -0.8107  1.1386
 8888SOL    HW238127   4.636   0.896  13.953  0.5602 -1.8389 -1.3099
 8889SOL     OW38128   1.923   3.752  11.810  0.1939 -0.1270  0.1255
 8889SOL    HW138129   1.903   3.705  11.891  2.3455 -0.2512  0.5847
 8889SOL    HW238130   1.847   3.735  11.754  1.2311 -0.5695 -1.1452
 8890SOL     OW38131   1.317   1.278   5.514  0.3800  0.5268 -0.1159
 8890SOL    HW138132   1.286   1.242   5.598  0.1882  2.9147  0.8480
 8890SOL    HW238133   1.257   1.352   5.503  0.3326  0.6339  0.7960
 8891SOL     OW38134   2.648   2.131   6.066  0.1301 -0.0290 -0.0928
 8891SOL    HW138135   2.618   2.054   6.017 -2.7084  2.0505 -1.5994
 8891SOL    HW238136   2.741   2.117   6.080 -0.3710 -2.2363  1.1217
 8892SOL     OW38137   0.284   2.797   5.998 -0.1035  0.4131  0.1907
 8892SOL    HW138138   0.367   2.779   5.952  0.8980  1.1462  1.7090
 8892SOL    HW238139   0.241   2.714   5.978 -0.1731  0.3450  0.6340
 8893SOL     OW38140   4.274   2.220   1.783  1.1068  0.1240  0.2882
 8893SOL    HW138141   4.304   2.168   1.708  0.1995  1.4410 -1.0090
 8893SOL    HW238142   4.226   2.288   1.736  1.3059 -1.4557 -2.2066
 8894SOL     OW38143   1.313   1.614   5.079  0.0584  0.0430  0.0797
 8894SOL    HW138144   1.332   1.565   5.159 -3.4633  2.0129  2.1451
 8894SOL    HW238145   1.311   1.544   5.013 -1.7908  0.9126 -0.7739
 8895SOL     OW38146   3.785   1.520   9.155  0.4108 -0.0180  0.5874
 8895SOL    HW138147   3.707   1.572   9.174  1.0916  0.7056  1.4383
 8895SOL    HW238148   3.757   1.444   9.206 -0.0998  0.5587  1.1663
 8896SOL     OW38149   4.540   2.209   2.017  0.5384 -0.0300  0.2711
 8896SOL    HW138150   4.621   2.239   1.978  1.0244 -0.3324  1.0462
 8896SOL    HW238151   4.500   2.294   2.032  0.0665 -0.2827  0.4495
 8897SOL     OW38152   2.702   3.616   2.458 -0.1340  0.6862 -0.3257
 8897SOL    HW138153   2.700   3.689   2.519 -1.7746  0.1588  0.2661
 8897SOL    HW238154   2.610   3.622   2.432  0.3047  1.7683 -1.6646
 8898SOL     OW38155   2.588   1.166   7.596 -0.7738  0.2199 -0.4063
 8898SOL    HW138156   2.585   1.094   7.658 -0.5731  1.9324  1.5848
 8898SOL    HW238157   2.519   1.141   7.534 -0.8212  0.4815 -0.4604
 8899SOL     OW38158   0.361   4.648  14.988 -0.0753 -0.0354 -0.3397
 8899SOL    HW138159   0.334   0.012  14.960 -1.1050 -0.0473  0.5978
 8899SOL    HW238160   0.279   4.630  15.034 -0.9134 -0.0610 -1.8280
 8900SOL     OW38161   2.876   0.473  16.239  0.5242 -0.1587  0.3741
 8900SOL    HW138162   2.926   0.549  16.206  1.6806 -1.2674 -0.4360
 8900SOL    HW238163   2.852   0.506  16.325 -0.8610  0.2868 -0.1787
 8901SOL     OW38164   0.000   2.368   8.208 -0.2199 -0.3296  0.1913
 8901SOL    HW138165   0.078   2.330   8.168 -0.3176 -2.0670  1.6584
 8901SOL    HW238166   4.664   2.293   8.197  0.2057 -0.6131 -0.1617
 8902SOL     OW38167   1.688   0.096   3.434 -0.2548  0.1738 -0.4508
 8902SOL    HW138168   1.750   0.112   3.363  0.2897 -0.2231 -0.0591
 8902SOL    HW238169   1.604   0.076   3.392 -1.9253  1.6374  2.1978
 8903SOL     OW38170   2.646   4.190   5.398  0.5829  0.0707 -0.0162
 8903SOL    HW138171   2.675   4.168   5.487 -2.3611  0.1097  0.9619
 8903SOL    HW238172   2.722   4.225   5.352  0.4416  0.8895  0.3747
 8904SOL     OW38173   3.645   3.551   3.558  0.0729  0.7074 -0.1154
 8904SOL    HW138174   3.706   3.542   3.485  0.6932 -0.7554  0.5814
 8904SOL    HW238175   3.564   3.529   3.512  0.5388  1.3473 -1.2424
 8905SOL     OW38176   1.566   4.187   2.722 -0.2982  0.5033 -0.0566
 8905SOL    HW138177   1.536   4.267   2.766 -0.3056  1.4242 -1.7008
 8905SOL    HW238178   1.651   4.213   2.685 -1.6176  0.2322 -3.3126
 8906SOL     OW38179   2.430   3.388   3.806 -0.3941 -0.5704  0.0013
 8906SOL    HW138180   2.352   3.367   3.754 -0.3012 -0.3388 -0.2297
 8906SOL    HW238181   2.486   3.420   3.735 -0.2091  0.0017  0.4053
 8907SOL     OW38182   1.926   0.985  16.799 -0.3209 -0.5402 -0.0995
 8907SOL    HW138183   1.835   0.986  16.830  0.0294  0.9886  0.9299
 8907SOL    HW238184   1.954   0.895  16.814 -1.7834 -1.5005 -3.0675
 8908SOL     OW38185   3.717   3.484   0.766 -0.0662  0.3340 -0.3292
 8908SOL    HW138186   3.647   3.537   0.728  0.8155  1.4031 -0.4505
 8908SOL    HW238187   3.793   3.501   0.710 -0.0774  0.2399 -0.3737
 8909SOL     OW38188   1.011   3.441   6.689 -0.2433 -0.4466  0.4151
 8909SOL    HW138189   0.962   3.365   6.720 -0.5632  0.0816  1.2330
 8909SOL    HW238190   0.958   3.510   6.729 -0.7327  0.4585 -1.7712
 8910SOL     OW38191   2.187   3.106   5.006 -0.5165  0.0543 -0.1544
 8910SOL    HW138192   2.100   3.137   5.033 -0.3829  1.5631 -1.3974
 8910SOL    HW238193   2.185   3.096   4.911  2.8588  2.6343 -0.4853
 8911SOL     OW38194   1.170   3.835  13.242 -0.5188  0.5208  0.0149
 8911SOL    HW138195   1.229   3.759  13.237 -0.5406  0.4466  0.9617
 8911SOL    HW238196   1.211   3.886  13.312 -0.0903 -0.3455  0.3900
 8912SOL     OW38197   4.218   4.174  11.531  0.4050 -0.0231  0.0503
 8912SOL    HW138198   4.192   4.138  11.446 -0.7348 -1.0816  0.8526
 8912SOL    HW238199   4.145   4.235  11.544  0.6552  1.0245 -3.2918
 8913SOL     OW38200   3.552   1.409  11.259  0.1234  0.2385 -0.1358
 8913SOL    HW138201   3.485   1.472  11.285 -0.5137 -0.0816 -1.0205
 8913SOL    HW238202   3.510   1.326  11.279 -0.5784  0.8724  1.0462
 8914SOL     OW38203   1.475   4.261   2.245 -0.1064 -0.2179 -0.2309
 8914SOL    HW138204   1.386   4.264   2.211 -0.1744  1.9417  0.1273
 8914SOL    HW238205   1.467   4.203   2.320 -0.0267 -0.7326 -0.6197
 8915SOL     OW38206   3.747   0.185   1.460  0.0528  0.5147 -0.6510
 8915SOL    HW138207   3.775   0.113   1.403  1.0111  0.6656 -0.3725
 8915SOL    HW238208   3.730   0.145   1.545  2.1029  1.0961  0.0394
 8916SOL     OW38209   3.916   1.793   6.827  0.0999  0.2913 -0.1133
 8916SOL    HW138210   4.008   1.779   6.806 -0.5457 -0.9641 -2.2258
 8916SOL    HW238211   3.908   1.888   6.832 -0.0393  0.2648  0.1817
 8917SOL     OW38212   1.059   0.617   9.450 -0.1486  0.2551 -0.1025
 8917SOL    HW138213   1.010   0.700   9.455  0.8662  0.9896 -2.6351
 8917SOL    HW238214   1.029   0.587   9.536 -1.4679 -3.9868 -2.0587
 8918SOL     OW38215   2.494   0.744   7.676 -0.1426  0.1795 -0.3503
 8918SOL    HW138216   2.584   0.732   7.645 -0.0859 -1.1472  0.3172
 8918SOL    HW238217   2.487   0.680   7.747  0.1844 -0.3433 -0.7905
 8919SOL     OW38218   1.266   3.281   1.260 -0.2611  0.3581 -0.1096
 8919SOL    HW138219   1.190   3.225   1.277  0.5803 -0.7224  0.0008
 8919SOL    HW238220   1.228   3.369   1.270  0.0466  0.6328 -1.2943
 8920SOL     OW38221   1.710   0.820   5.287  0.3133 -0.2867  0.4575
 8920SOL    HW138222   1.684   0.889   5.349  1.9031  0.9698 -0.2896
 8920SOL    HW238223   1.625   0.803   5.246  0.1388 -1.4366  1.2909
 8921SOL     OW38224   2.676   3.342   7.258 -0.3268 -0.6735  0.1983
 8921SOL    HW138225   2.590   3.382   7.246  0.3727  0.4392 -1.1011
 8921SOL    HW238226   2.709   3.381   7.339  0.7364 -0.5800 -0.2739
 8922SOL     OW38227   0.692   1.923   1.784  0.6055 -0.4041 -0.3125
 8922SOL    HW138228   0.625   1.992   1.780  1.1652  0.1307 -0.4225
 8922SOL    HW238229   0.637   1.858   1.741  1.3911  0.0055 -1.9240
 8923SOL     OW38230   1.544   0.575   4.542 -0.2411 -0.1147  0.5797
 8923SOL    HW138231   1.591   0.649   4.502  1.4996 -2.0754 -0.9750
 8923SOL    HW238232   1.481   0.625   4.594 -0.0995  1.4737 -0.7766
 8924SOL     OW38233   1.300   3.403  13.846  0.3293  0.1156 -0.1017
 8924SOL    HW138234   1.284   3.496  13.858  0.6187  0.1169  0.2680
 8924SOL    HW238235   1.396   3.402  13.835  0.3335  2.5138 -0.3049
 8925SOL     OW38236   1.194   0.358  14.833 -0.0317 -0.0890  0.1783
 8925SOL    HW138237   1.213   0.295  14.903 -1.6826  0.0730  0.7708
 8925SOL    HW238238   1.167   0.302  14.761  0.9418  2.2054 -1.9724
 8926SOL     OW38239   1.301   0.971  13.852  0.5308 -0.3795  0.1781
 8926SOL    HW138240   1.321   0.886  13.813 -0.5074  0.4540 -2.1927
 8926SOL    HW238241   1.322   1.024  13.774  1.8542 -2.3850 -0.8240
 8927SOL     OW38242   1.782   0.467   4.700 -0.1396 -0.2699 -0.2799
 8927SOL    HW138243   1.810   0.397   4.758  0.1622  0.8266  0.9064
 8927SOL    HW238244   1.738   0.414   4.633 -0.0030 -0.9948  0.2021
 8928SOL     OW38245   1.128   1.631   6.359 -0.0223  0.0532 -0.1651
 8928SOL    HW138246   1.184   1.692   6.311 -0.2688 -1.1029 -1.9181
 8928SOL    HW238247   1.157   1.553   6.311  0.5579  0.2119 -0.0691
 8929SOL     OW38248   1.359   1.678  16.332 -0.5348 -0.5252 -0.0907
 8929SOL    HW138249   1.325   1.760  16.297 -1.4163  0.2360  2.5857
 8929SOL    HW238250   1.438   1.705  16.379  0.7692 -0.9468 -2.0635
 8930SOL     OW38251   0.368   1.894  16.107  0.5389  0.5153 -0.1623
 8930SOL    HW138252   0.424   1.971  16.099  0.9296  0.1704 -0.7903
 8930SOL    HW238253   0.371   1.859  16.018 -1.6861 -0.2012  0.0443
 8931SOL     OW38254   1.592   3.592   4.649 -0.1881 -0.2951  0.2119
 8931SOL    HW138255   1.671   3.564   4.602  0.5194 -0.7981  1.6962
 8931SOL    HW238256   1.571   3.667   4.592  0.6638  0.3644  0.7694
 8932SOL     OW38257   2.131   3.409   2.003 -0.0313  0.0521  0.1144
 8932SOL    HW138258   2.181   3.447   1.931 -0.4607  0.7723  0.1931
 8932SOL    HW238259   2.209   3.394   2.056  0.0412  1.6883  0.4655
 8933SOL     OW38260   3.247   3.525   8.882  0.7103  0.2212 -0.1109
 8933SOL    HW138261   3.213   3.612   8.905  0.1934  0.1547 -0.6195
 8933SOL    HW238262   3.190   3.470   8.935 -0.2382 -0.5127 -1.9055
 8934SOL     OW38263   2.578   0.394   7.287  0.2313  0.1991 -0.2675
 8934SOL    HW138264   2.563   0.486   7.308  0.0999 -0.0751  0.8670
 8934SOL    HW238265   2.643   0.376   7.355  0.5936  0.9320 -0.4189
 8935SOL     OW38266   3.423   3.302   7.047  0.3341 -0.2458 -0.1663
 8935SOL    HW138267   3.421   3.369   7.116 -0.9012  0.7946 -1.1951
 8935SOL    HW238268   3.450   3.358   6.974  0.1767 -2.7629 -2.1079
 8936SOL     OW38269   3.640   2.045  12.721 -0.1919  0.1167  0.1228
 8936SOL    HW138270   3.563   2.037  12.777  0.2813 -0.1064  0.7389
 8936SOL    HW238271   3.621   1.977  12.656 -0.9401 -0.6422  1.1392
 8937SOL     OW38272   4.087   3.829   8.145 -0.6417  0.2284 -0.6886
 8937SOL    HW138273   4.165   3.772   8.143 -0.5663  0.3473 -1.0933
 8937SOL    HW238274   4.029   3.767   8.189  1.2003  1.1039  2.9860
 8938SOL     OW38275   3.457   2.495   9.417  0.1639 -0.0212 -0.2705
 8938SOL    HW138276   3.380   2.445   9.390  0.6850 -0.4959 -0.8981
 8938SOL    HW238277   3.478   2.470   9.507  1.2848  0.4439 -0.4038
 8939SOL     OW38278   3.291   0.100   1.460  0.3876  0.1567  0.0618
 8939SOL    HW138279   3.330   0.172   1.410 -0.1151  1.9043  2.2058
 8939SOL    HW238280   3.364   0.038   1.452 -1.3029 -1.7865 -0.3569
 8940SOL     OW38281   0.117   0.128   9.083  0.1821 -0.3253  0.4600
 8940SOL    HW138282   0.148   0.056   9.140 -2.3451 -0.1033  2.1048
 8940SOL    HW238283   0.170   0.204   9.108  1.0817 -1.2088  1.2667
 8941SOL     OW38284   0.002   0.981  14.362  0.2094  0.3787  0.3861
 8941SOL    HW138285   4.704   1.059  14.414  0.4517  2.3373 -2.4587
 8941SOL    HW238286   4.645   0.981  14.308  0.2672 -0.2355  0.3097
 8942SOL     OW38287   3.625   3.113   7.034 -0.6014 -0.2284 -0.6908
 8942SOL    HW138288   3.658   3.133   7.121 -0.4201  1.5448 -1.1504
 8942SOL    HW238289   3.545   3.166   7.026 -0.3886 -0.0030 -1.3744
 8943SOL     OW38290   2.684   2.142   7.749 -0.0384  0.3663 -0.5509
 8943SOL    HW138291   2.590   2.145   7.731  0.4987  2.1436 -3.0475
 8943SOL    HW238292   2.675   2.151   7.844  1.0583  0.9073 -0.5043
 8944SOL     OW38293   3.377   1.771  10.515 -0.6440 -0.0678  0.0331
 8944SOL    HW138294   3.320   1.704  10.552 -1.2827 -0.8124 -2.3221
 8944SOL    HW238295   3.361   1.844  10.575  1.8688  0.2348  0.3616
 8945SOL     OW38296   4.051   2.881   5.671 -0.6895 -0.0433  0.8602
 8945SOL    HW138297   4.028   2.972   5.653  0.8430  0.3027  0.6699
 8945SOL    HW238298   4.114   2.856   5.603 -1.3866 -0.2830  0.3120
 8946SOL     OW38299   2.644   4.254  16.164  0.4630 -0.3220  0.4831
 8946SOL    HW138300   2.548   4.255  16.159  0.5055  0.1211 -0.2011
 8946SOL    HW238301   2.655   4.235  16.071  1.3589  2.8204 -0.0277
 8947SOL     OW38302   3.717   1.686  15.356  0.3724  0.0637  0.2114
 8947SOL    HW138303   3.638   1.738  15.341 -0.3142 -0.2723  2.6506
 8947SOL    HW238304   3.739   1.655  15.268  2.3474  0.2734  0.6370
 8948SOL     OW38305   4.235   1.345   1.752  0.0223  0.0907 -0.5692
 8948SOL    HW138306   4.201   1.304   1.672 -0.3011 -0.1476 -0.3074
 8948SOL    HW238307   4.330   1.345   1.741  0.0267 -0.4601 -0.5441
 8949SOL     OW38308   2.195   1.245   3.311  0.4776 -0.2550  0.0535
 8949SOL    HW138309   2.195   1.298   3.231 -1.3152  2.1835  1.6952
 8949SOL    HW238310   2.107   1.210   3.323  0.4216 -0.1700 -0.1180
 8950SOL     OW38311   0.980   2.827   5.050 -0.1211 -0.1123 -0.5542
 8950SOL    HW138312   1.015   2.832   4.961 -0.3744 -1.9687 -0.7563
 8950SOL    HW238313   0.921   2.903   5.044 -0.6892 -0.4256  1.0613
 8951SOL     OW38314   0.894   2.072  12.724  0.1292  0.5946 -0.4507
 8951SOL    HW138315   0.822   2.078  12.662 -0.6923  2.1485  0.6482
 8951SOL    HW238316   0.940   1.998  12.685 -1.0197  0.8036 -2.1995
 8952SOL     OW38317   3.688   3.163   7.884 -0.4604 -0.7553 -0.6053
 8952SOL    HW138318   3.652   3.088   7.836 -1.8816 -0.4735  0.0122
 8952SOL    HW238319   3.615   3.193   7.938 -0.1641  1.0525 -1.1877
 8953SOL     OW38320   4.332   1.251  15.539 -0.4510  0.3447  0.6500
 8953SOL    HW138321   4.249   1.231  15.582 -0.3937  0.1364  0.6673
 8953SOL    HW238322   4.301   1.332  15.500 -0.6465 -0.0852 -0.0910
 8954SOL     OW38323   3.032   3.543  15.644  0.0718 -0.1395 -0.3334
 8954SOL    HW138324   3.083   3.471  15.606  0.1949 -0.8607  1.2151
 8954SOL    HW238325   2.941   3.514  15.651 -0.6315  2.5009  1.3865
 8955SOL     OW38326   1.229   0.658   1.890  0.9922  0.2496  0.0698
 8955SOL    HW138327   1.291   0.632   1.823 -0.6653  0.2546 -1.4733
 8955SOL    HW238328   1.227   0.572   1.933 -1.3502  0.5452  0.5649
 8956SOL     OW38329   4.388   3.256   3.075  0.0221  0.0331 -0.5780
 8956SOL    HW138330   4.426   3.231   3.159 -0.2409 -0.4156 -0.5927
 8956SOL    HW238331   4.405   3.175   3.026  1.5316 -0.1650  0.2853
 8957SOL     OW38332   0.611   4.488   7.329  0.3252 -0.4529  1.1074
 8957SOL    HW138333   0.590   4.480   7.422  1.0991  0.7300  1.3888
 8957SOL    HW238334   0.590   4.398   7.304 -0.2886  0.8291 -2.9630
 8958SOL     OW38335   4.133   2.977   9.259 -0.4282 -0.4470  0.2099
 8958SOL    HW138336   4.202   3.015   9.205 -2.2217 -1.1754 -2.5739
 8958SOL    HW238337   4.066   3.021   9.208  0.5032  0.0404 -0.5749
 8959SOL     OW38338   1.788   1.837   2.143  0.4819 -0.3022 -0.2719
 8959SOL    HW138339   1.867   1.806   2.187  0.1480 -1.1931 -0.3036
 8959SOL    HW238340   1.731   1.844   2.219 -1.5420  1.4393 -1.9372
 8960SOL     OW38341   3.984   2.726   8.797  0.0050 -0.2665 -0.2239
 8960SOL    HW138342   4.041   2.752   8.725  0.4635  0.2293  0.3168
 8960SOL    HW238343   3.919   2.795   8.808  1.8593  1.1363  2.0334
 8961SOL     OW38344   0.418   1.937  16.476 -0.3157 -0.3540  0.1500
 8961SOL    HW138345   0.390   2.025  16.501  1.6807 -0.1474  1.6207
 8961SOL    HW238346   0.445   1.891  16.556  3.6976  1.4384 -0.2154
 8962SOL     OW38347   3.194   0.892   3.644  0.6219  0.2092 -0.0964
 8962SOL    HW138348   3.244   0.872   3.723  0.0631  2.4329  0.8239
 8962SOL    HW238349   3.168   0.803   3.618 -0.8928  0.1703  1.5893
 8963SOL     OW38350   0.939   1.713   5.398 -0.2220 -0.8416  0.1008
 8963SOL    HW138351   1.003   1.707   5.328 -0.6133  1.4273 -0.4622
 8963SOL    HW238352   0.920   1.807   5.393 -0.5407 -0.9082  0.0581
 8964SOL     OW38353   3.777   1.565  11.100 -0.8410 -0.3607  0.2762
 8964SOL    HW138354   3.784   1.496  11.166  2.9326 -0.5133 -0.2850
 8964SOL    HW238355   3.852   1.618  11.125 -0.1918 -1.3199  0.3383
 8965SOL     OW38356   2.923   2.891  10.866  0.4464  0.2017 -0.4483
 8965SOL    HW138357   2.864   2.936  10.926  1.2645 -0.5895  0.9495
 8965SOL    HW238358   2.875   2.881  10.784  0.5089  0.3064 -0.4985
 8966SOL     OW38359   1.066   0.584  10.630 -0.1645 -0.1308  0.3262
 8966SOL    HW138360   1.064   0.556  10.539  1.5621 -0.5005  0.3871
 8966SOL    HW238361   1.072   0.497  10.668  0.3809  0.5676  1.8265
 8967SOL     OW38362   2.378   4.653   9.664  0.5532 -0.0870  0.3965
 8967SOL    HW138363   2.330   4.656   9.581 -1.3640  0.5395  1.5140
 8967SOL    HW238364   2.347   0.006   9.714  0.8341  0.6402 -0.5301
 8968SOL     OW38365   3.991   1.724   5.464  0.1557 -0.2835 -0.2212
 8968SOL    HW138366   4.000   1.662   5.392 -1.5257  0.8935 -1.4295
 8968SOL    HW238367   3.986   1.660   5.536  0.8289 -0.2700 -0.1586
 8969SOL     OW38368   3.706   4.639  17.163  0.1054  0.5486  0.0047
 8969SOL    HW138369   3.627   4.617  17.113  0.2806  0.8341 -0.3973
 8969SOL    HW238370   3.732   4.720  17.119 -0.7993  2.9443  3.8793
 8970SOL     OW38371   0.901   1.432  14.357  0.4408  0.3709 -0.1355
 8970SOL    HW138372   0.809   1.451  14.376  0.0757  0.8917 -2.3397
 8970SOL    HW238373   0.936   1.516  14.385  0.0191  0.5414 -0.1212
 8971SOL     OW38374   0.673   1.951   6.626  0.0167 -0.2352  0.0803
 8971SOL    HW138375   0.740   1.933   6.691  1.0439 -2.7471 -1.6456
 8971SOL    HW238376   0.676   2.044   6.605 -0.7206 -0.3310 -0.4814
 8972SOL     OW38377   2.979   0.989   4.332 -0.2904  0.3826 -0.0708
 8972SOL    HW138378   2.948   1.077   4.351 -0.7813  0.5046 -1.3938
 8972SOL    HW238379   2.900   0.956   4.289 -0.2669  2.5447 -1.7794
 8973SOL     OW38380   2.861   3.047   6.571  0.2192  0.4916  0.1365
 8973SOL    HW138381   2.771   3.071   6.551  0.4897  1.6274  0.2835
 8973SOL    HW238382   2.845   2.971   6.627  1.3891  0.4929  0.4751
 8974SOL     OW38383   1.908   0.960   5.765 -0.2270 -0.0188  0.1557
 8974SOL    HW138384   1.883   0.878   5.808  1.3085 -1.5703 -1.8767
 8974SOL    HW238385   1.886   0.929   5.677 -0.8528  1.1701 -0.0930
 8975SOL     OW38386   4.341   4.030   3.172  0.4558  0.2942 -0.0970
 8975SOL    HW138387   4.400   3.955   3.178 -1.4514 -1.2973 -1.5401
 8975SOL    HW238388   4.406   4.095   3.145 -0.1264 -0.1198 -2.4479
 8976SOL     OW38389   2.046   2.139  15.280  0.3687  0.6508 -0.5643
 8976SOL    HW138390   1.976   2.074  15.291  1.5689 -0.2213  1.8887
 8976SOL    HW238391   2.118   2.102  15.330 -0.3892  1.6828  1.2757
 8977SOL     OW38392   1.726   3.891   5.285 -0.0575  0.2193 -0.4629
 8977SOL    HW138393   1.664   3.939   5.231 -0.1512  0.9169  0.2572
 8977SOL    HW238394   1.695   3.803   5.265 -2.3514  0.2993  2.6622
 8978SOL     OW38395   2.202   3.882  13.207  0.1160 -0.4195 -0.3149
 8978SOL    HW138396   2.142   3.888  13.133  0.5359  1.9502 -0.4397
 8978SOL    HW238397   2.160   3.916  13.286 -1.9595 -0.6251 -1.3365
 8979SOL     OW38398   3.530   3.633   4.424 -0.2413  0.0253  0.2390
 8979SOL    HW138399   3.571   3.694   4.484  1.3746 -2.5853  1.7919
 8979SOL    HW238400   3.457   3.691   4.400 -0.7156 -1.7259 -2.6399
 8980SOL     OW38401   4.182   0.016   8.976 -0.2607  0.0332 -0.2630
 8980SOL    HW138402   4.267   4.700   8.995 -0.7739 -0.6140  0.7142
 8980SOL    HW238403   4.196   0.109   8.993 -0.3868 -0.2069  1.1178
 8981SOL     OW38404   4.094   0.774   5.959 -0.1364  0.2975  0.5395
 8981SOL    HW138405   4.117   0.867   5.966  2.9358 -0.5111  0.9717
 8981SOL    HW238406   4.169   0.733   5.916 -0.4209 -0.6039  0.9141
 8982SOL     OW38407   3.914   3.500  13.346 -0.3813 -0.5500  0.0564
 8982SOL    HW138408   3.879   3.416  13.374 -0.9699 -0.5521 -0.6841
 8982SOL    HW238409   3.990   3.511  13.404 -0.2075 -1.2535 -0.0300
 8983SOL     OW38410   0.884   3.749  16.908 -0.8126 -0.3328  0.0715
 8983SOL    HW138411   0.891   3.806  16.832 -0.8978 -1.1189 -0.5261
 8983SOL    HW238412   0.900   3.813  16.978 -1.6224 -1.7349  1.5569
 8984SOL     OW38413   2.430   0.032   8.099  0.0832 -0.3937  0.2940
 8984SOL    HW138414   2.343   0.011   8.064  1.0495 -1.6506 -1.3414
 8984SOL    HW238415   2.407   0.049   8.191 -0.3822  0.5542  0.0000
 8985SOL     OW38416   3.670   0.829   2.443 -0.0223 -0.0483  0.0113
 8985SOL    HW138417   3.585   0.803   2.478 -0.2351 -1.5959 -1.6685
 8985SOL    HW238418   3.644   0.917   2.414 -0.7259 -0.1673  0.2824
 8986SOL     OW38419   0.184   3.144   2.095 -0.8260 -0.1100 -0.4433
 8986SOL    HW138420   0.215   3.117   2.008  1.1874  2.2948 -0.4947
 8986SOL    HW238421   0.238   3.217   2.127 -1.2596  0.6640 -1.4534
 8987SOL     OW38422   3.462   3.601   3.187  0.8800 -0.6362  0.4696
 8987SOL    HW138423   3.490   3.670   3.127 -2.6669  0.8651  0.5495
 8987SOL    HW238424   3.367   3.603   3.183  0.9278 -2.0298 -0.9982
 8988SOL     OW38425   1.111   4.507   1.061 -0.0780 -0.5078  0.1843
 8988SOL    HW138426   1.112   4.467   1.149  0.3909 -1.1037 -0.0878
 8988SOL    HW238427   1.117   4.599   1.085  0.2939 -0.2542 -0.8852
 8989SOL     OW38428   0.828   3.061   4.974  0.4913 -0.4258  0.3294
 8989SOL    HW138429   0.866   3.069   4.887 -1.7828  2.9778 -0.3316
 8989SOL    HW238430   0.773   3.138   4.983  3.3355  1.4724  1.4002
 8990SOL     OW38431   1.765   4.051   6.515 -0.2436 -0.4821 -0.5931
 8990SOL    HW138432   1.860   4.048   6.525 -0.1438 -0.5872 -1.5766
 8990SOL    HW238433   1.745   4.136   6.554  0.2021 -0.6079 -0.0907
 8991SOL     OW38434   3.912   2.321   6.012  0.3750  0.1441 -0.8271
 8991SOL    HW138435   3.942   2.394   6.066 -1.3552 -1.3360  2.1366
 8991SOL    HW238436   3.959   2.332   5.929  0.8429 -1.4733 -0.7765
 8992SOL     OW38437   2.207   0.286  17.348  0.1265  0.0753  0.1473
 8992SOL    HW138438   2.177   0.296  17.438  0.8252 -1.6406  0.5750
 8992SOL    HW238439   2.274   0.220  17.365 -2.3558 -2.3468  0.4186
 8993SOL     OW38440   1.854   4.296  12.813 -0.2700  0.2658  0.0865
 8993SOL    HW138441   1.768   4.318  12.778 -0.3235 -1.8001 -1.1130
 8993SOL    HW238442   1.902   4.365  12.769  1.2565 -2.7103 -2.8969
 8994SOL     OW38443   2.412   0.512   2.431  0.1376 -0.3504  0.2931
 8994SOL    HW138444   2.330   0.543   2.393  1.5542  0.6601 -1.8971
 8994SOL    HW238445   2.468   0.503   2.354 -0.5325 -0.0421 -0.2396
 8995SOL     OW38446   0.298   3.623   4.978 -0.2262 -0.6345 -1.0874
 8995SOL    HW138447   0.347   3.695   5.019  0.9611 -1.5324 -0.9266
 8995SOL    HW238448   0.355   3.546   4.973 -0.4079 -0.7906 -0.7417
 8996SOL     OW38449   3.562   4.473  12.887 -0.3415 -0.2923  0.1968
 8996SOL    HW138450   3.641   4.447  12.839 -0.3707  1.2198 -0.6592
 8996SOL    HW238451   3.495   4.413  12.853 -1.1636  1.3963 -1.1515
 8997SOL     OW38452   2.539   4.410  14.945 -0.1362 -0.4229 -0.1621
 8997SOL    HW138453   2.566   4.357  15.020 -0.2402 -1.2604 -0.7137
 8997SOL    HW238454   2.591   4.374  14.872 -0.1536  0.1469 -0.4518
 8998SOL     OW38455   1.855   3.140   9.093  0.8768  0.4117 -0.1879
 8998SOL    HW138456   1.947   3.157   9.114  1.0459 -0.7119 -0.0457
 8998SOL    HW238457   1.845   3.189   9.011  1.9875 -0.8835 -1.0888
 8999SOL     OW38458   2.876   1.479   3.129 -0.5300 -0.1658 -0.1298
 8999SOL    HW138459   2.828   1.406   3.088 -0.6577  0.4403 -1.0641
 8999SOL    HW238460   2.916   1.515   3.050 -2.5022 -0.1408 -1.1205
 9000SOL     OW38461   1.718   1.226   5.854  0.3156 -0.5937  0.0151
 9000SOL    HW138462   1.794   1.280   5.832  0.0536 -0.2067  0.0660
 9000SOL    HW238463   1.744   1.204   5.943 -1.3839  0.5378  0.7780
 9001SOL     OW38464   4.563   0.888   2.869 -0.4725  0.5820 -0.3774
 9001SOL    HW138465   4.485   0.926   2.828  0.0257 -1.5280 -3.2177
 9001SOL    HW238466   4.542   0.904   2.962  1.4888 -0.5409  0.2434
 9002SOL     OW38467   4.374   0.833   6.457 -0.0725 -0.3235  0.3906
 9002SOL    HW138468   4.406   0.770   6.393  2.1396  1.0236  0.1855
 9002SOL    HW238469   4.431   0.818   6.532 -0.7497 -0.1446  0.9469
 9003SOL     OW38470   3.750   0.243   6.954 -0.1811  0.0833 -0.4228
 9003SOL    HW138471   3.816   0.202   7.009  0.2436  0.8261 -0.3837
 9003SOL    HW238472   3.679   0.182   6.972 -0.3190  0.7171  1.1303
 9004SOL     OW38473   2.950   0.291  15.861  0.2254  0.1071  0.6092
 9004SOL    HW138474   2.906   0.344  15.795 -2.1422  0.6500  2.6150
 9004SOL    HW238475   2.885   0.301  15.931 -2.9314 -1.2486 -2.2041
 9005SOL     OW38476   2.578   3.650   2.751 -0.3083 -0.4858 -0.2198
 9005SOL    HW138477   2.559   3.557   2.737 -0.4050 -0.4695 -0.1905
 9005SOL    HW238478   2.660   3.630   2.798 -0.3603  0.4526  0.2719
 9006SOL     OW38479   3.920   2.327   2.691 -0.1013  0.6698  0.0653
 9006SOL    HW138480   3.889   2.276   2.616 -2.6417 -1.1042  2.3341
 9006SOL    HW238481   3.941   2.249   2.743 -0.7390 -0.2009 -0.9896
 9007SOL     OW38482   3.136   3.454   5.130 -0.3744  0.3030 -0.1404
 9007SOL    HW138483   3.210   3.415   5.177 -0.9345 -3.6233 -2.5180
 9007SOL    HW238484   3.180   3.532   5.093 -1.7345  0.4165 -1.5132
 9008SOL     OW38485   2.035   1.669  14.482  0.0066  0.8740 -0.4915
 9008SOL    HW138486   2.095   1.687  14.554 -2.0992  4.7312  0.3137
 9008SOL    HW238487   2.034   1.755  14.439  2.0292  1.4088  0.5348
 9009SOL     OW38488   4.256   2.735   4.726 -0.3429  0.4945  0.2437
 9009SOL    HW138489   4.327   2.705   4.783 -0.5509 -1.3821 -0.4989
 9009SOL    HW238490   4.239   2.821   4.763  0.5290  1.1054 -0.7485
 9010SOL     OW38491   3.390   0.858   7.003 -0.0299  0.3557 -0.0590
 9010SOL    HW138492   3.427   0.782   6.958  0.2636  0.6149 -0.2601
 9010SOL    HW238493   3.407   0.924   6.935 -0.5095 -0.5475 -1.0509
 9011SOL     OW38494   0.420   0.742   4.252  0.3456 -0.0828 -0.3163
 9011SOL    HW138495   0.447   0.672   4.193  3.0382  1.3789 -0.8033
 9011SOL    HW238496   0.328   0.751   4.227  0.8926  2.8590 -1.2297
 9012SOL     OW38497   0.304   1.056   3.378  0.6435 -0.0223  0.4023
 9012SOL    HW138498   0.264   1.098   3.453  0.0013 -0.5494  0.3585
 9012SOL    HW238499   0.234   1.011   3.330  0.0369  0.1458  1.1467
 9013SOL     OW38500   3.503   2.236   8.190  0.0684 -0.1551  0.0875
 9013SOL    HW138501   3.441   2.263   8.122 -1.7555 -1.7676  1.1321
 9013SOL    HW238502   3.480   2.288   8.267  0.7575  0.7766 -0.3398
 9014SOL     OW38503   1.707   1.473   6.067  0.3520  0.5865 -0.7442
 9014SOL    HW138504   1.787   1.449   6.021 -0.7440 -1.7450 -1.4126
 9014SOL    HW238505   1.662   1.389   6.063  2.2004 -0.3812 -0.9977
 9015SOL     OW38506   0.032   3.691   8.338 -0.5821 -0.2802  0.4453
 9015SOL    HW138507   4.707   3.765   8.300 -1.1854 -1.9573 -2.0248
 9015SOL    HW238508   4.687   3.624   8.330  1.1176 -1.8891 -0.4038
 9016SOL     OW38509   4.001   1.704  11.459 -0.3343  0.3706  0.2922
 9016SOL    HW138510   3.926   1.753  11.426 -1.5491 -1.2168  0.7241
 9016SOL    HW238511   4.073   1.739  11.406 -1.8915  1.6316 -0.9813
 9017SOL     OW38512   1.270   2.167   5.030 -0.4534 -0.6436  0.2454
 9017SOL    HW138513   1.177   2.177   5.012 -0.0116 -1.0107 -2.3191
 9017SOL    HW238514   1.280   2.098   4.963  2.8987  0.6242 -0.5759
 9018SOL     OW38515   3.734   3.652   7.215 -0.1171  0.0998 -0.5477
 9018SOL    HW138516   3.680   3.583   7.176 -0.7782  0.1594  0.2396
 9018SOL    HW238517   3.695   3.733   7.183  0.9551  0.6225 -0.5061
 9019SOL     OW38518   3.615   1.882  13.871 -0.4464 -0.2332  0.1106
 9019SOL    HW138519   3.706   1.892  13.844 -0.0815 -2.3029  0.5396
 9019SOL    HW238520   3.576   1.912  13.789 -1.0483 -1.1558  0.0582
 9020SOL     OW38521   0.688   4.022  16.751  0.3522 -0.4237  0.0583
 9020SOL    HW138522   0.770   4.000  16.706 -0.9714 -0.1018 -2.5124
 9020SOL    HW238523   0.642   4.079  16.691 -0.3517 -0.5092  0.5215
 9021SOL     OW38524   1.015   4.602  10.439 -0.4718  0.2901 -0.7633
 9021SOL    HW138525   1.047   4.685  10.474  0.8816 -0.7483  0.4519
 9021SOL    HW238526   1.089   4.573  10.385  0.5717  0.0546  0.8081
 9022SOL     OW38527   1.433   1.854  13.775 -0.2311 -0.5382  0.1836
 9022SOL    HW138528   1.369   1.924  13.788 -2.1814 -2.5921  1.5973
 9022SOL    HW238529   1.426   1.846  13.680  0.2996  2.7520 -0.1368
 9023SOL     OW38530   3.696   2.754   7.951 -0.5119  0.3064  0.2591
 9023SOL    HW138531   3.655   2.680   7.996 -1.8526 -0.2541 -1.8841
 9023SOL    HW238532   3.741   2.785   8.030  1.4013 -0.1785 -0.6428
 9024SOL     OW38533   3.865   2.350   9.602  0.1793  0.7850 -0.1939
 9024SOL    HW138534   3.945   2.304   9.573  0.8127  0.3444  2.2826
 9024SOL    HW238535   3.886   2.372   9.693  0.6004 -0.3135 -0.0255
 9025SOL     OW38536   2.256   1.640  14.666  0.8638  0.0038 -0.1685
 9025SOL    HW138537   2.344   1.626  14.701  0.2774 -0.2770  1.1739
 9025SOL    HW238538   2.249   1.734  14.680 -0.2338 -0.5174  2.8271
 9026SOL     OW38539   2.493   3.254   5.027  0.3137 -0.3170  0.2809
 9026SOL    HW138540   2.433   3.321   5.059 -1.9850 -1.5332 -1.4787
 9026SOL    HW238541   2.474   3.257   4.933 -2.0891 -1.5588  0.7184
 9027SOL     OW38542   4.589   2.443   3.128 -0.8237  0.2197  0.2747
 9027SOL    HW138543   4.683   2.457   3.111 -0.8572  0.9277  0.6679
 9027SOL    HW238544   4.554   2.530   3.113 -2.6989 -0.7241 -0.7692
 9028SOL     OW38545   2.230   4.561   1.494 -0.2023 -0.7479 -0.7452
 9028SOL    HW138546   2.161   4.527   1.551  0.0853 -2.2846 -1.2895
 9028SOL    HW238547   2.295   4.573   1.564  0.1729 -1.8753 -0.8857
 9029SOL     OW38548   1.297   3.764   8.315 -0.0179 -0.7963 -0.9191
 9029SOL    HW138549   1.231   3.833   8.313  0.8058  0.0345  0.7789
 9029SOL    HW238550   1.249   3.687   8.283  0.1099 -1.3579  0.2531
 9030SOL     OW38551   0.316   0.637  12.337 -0.1975 -0.0290 -0.0118
 9030SOL    HW138552   0.279   0.722  12.360  1.0637  0.6899 -0.6635
 9030SOL    HW238553   0.304   0.601  12.425  0.4308  0.2925  0.1993
 9031SOL     OW38554   0.986   2.151   5.008  0.0433 -0.1149  0.4116
 9031SOL    HW138555   0.955   2.218   4.948 -0.8464 -1.5612 -0.7400
 9031SOL    HW238556   0.911   2.092   5.015  0.1411 -0.3288 -0.3298
 9032SOL     OW38557   0.011   0.584   4.703  0.0015  0.0153  0.1939
 9032SOL    HW138558   0.103   0.608   4.709 -0.3293  1.3731 -0.0769
 9032SOL    HW238559   0.013   0.514   4.637  1.7724 -0.3732  0.6503
 9033SOL     OW38560   0.080   2.867   6.354  0.3564 -0.5323  0.6389
 9033SOL    HW138561   0.016   2.938   6.345  0.4042 -0.3226  2.0994
 9033SOL    HW238562   0.117   2.871   6.266  0.2829  0.2001  0.6387
 9034SOL     OW38563   0.454   2.047  14.923 -0.1676  0.2483  0.3371
 9034SOL    HW138564   0.530   2.022  14.870 -1.3369 -1.8448 -0.3825
 9034SOL    HW238565   0.381   1.999  14.884 -0.7280  2.4269 -1.2759
 9035SOL     OW38566   1.309   0.214   3.422  0.2346 -0.6867  0.6161
 9035SOL    HW138567   1.269   0.261   3.348 -2.5650 -0.9763  1.9495
 9035SOL    HW238568   1.237   0.159   3.453 -1.2012  1.6145  1.3883
 9036SOL     OW38569   2.522   4.213   2.791 -0.5013 -0.1147  0.1196
 9036SOL    HW138570   2.439   4.212   2.744 -0.9029  1.2851  0.8005
 9036SOL    HW238571   2.582   4.272   2.745 -1.2819  1.4017  1.0452
 9037SOL     OW38572   0.351   0.647   9.961 -0.0999 -0.2019  0.2555
 9037SOL    HW138573   0.323   0.733   9.931 -0.7590  0.8669  3.8301
 9037SOL    HW238574   0.281   0.634  10.025  1.0674 -0.9407  1.3902
 9038SOL     OW38575   1.231   2.221   7.063 -0.1480 -0.6983  0.2443
 9038SOL    HW138576   1.278   2.281   7.121  0.0127 -1.8488  1.3051
 9038SOL    HW238577   1.151   2.195   7.108 -1.0087 -0.7102 -1.2579
 9039SOL     OW38578   1.120   3.867   5.682 -0.3152  0.3651 -0.3028
 9039SOL    HW138579   1.169   3.857   5.763 -1.2361 -0.3780  0.1666
 9039SOL    HW238580   1.040   3.895   5.726 -0.4477  0.0221 -0.3273
 9040SOL     OW38581   2.960   1.155  10.630 -0.1454 -0.0105  0.3659
 9040SOL    HW138582   2.873   1.162  10.670 -1.3071 -2.5595 -1.6342
 9040SOL    HW238583   2.990   1.243  10.649  0.9791 -0.3108 -0.0648
 9041SOL     OW38584   1.599   4.066   5.852  0.1231  0.0807 -0.5236
 9041SOL    HW138585   1.669   4.070   5.788 -1.3868 -1.0862 -2.2577
 9041SOL    HW238586   1.526   4.110   5.807 -0.2102  1.2871  1.1974
 9042SOL     OW38587   0.434   3.462   1.951  0.3150  0.2931 -0.1473
 9042SOL    HW138588   0.514   3.413   1.970 -0.0112 -0.3127 -0.3175
 9042SOL    HW238589   0.409   3.418   1.869 -3.7262  1.1256  0.6555
 9043SOL     OW38590   1.710   3.034   0.831  0.3429 -0.6274  0.2653
 9043SOL    HW138591   1.774   2.985   0.882  0.3645  0.1015  0.9392
 9043SOL    HW238592   1.630   3.016   0.880  0.4337 -1.6724  0.0199
 9044SOL     OW38593   4.024   0.729  17.351  0.5587  0.7306  0.6235
 9044SOL    HW138594   3.970   0.805  17.374  3.0011  2.1124  1.7927
 9044SOL    HW238595   4.050   0.716  17.443  0.6446  0.8513  0.6166
 9045SOL     OW38596   0.859   4.410   7.791  0.0401 -0.1411 -0.2342
 9045SOL    HW138597   0.939   4.433   7.838 -1.2420 -0.8945  2.2621
 9045SOL    HW238598   0.811   4.492   7.785 -0.4044 -0.4346 -0.6949
 9046SOL     OW38599   0.230   4.083   4.339 -0.0977  0.1534  0.2086
 9046SOL    HW138600   0.303   4.112   4.394  0.1066  0.7834 -0.3860
 9046SOL    HW238601   0.189   4.019   4.396 -2.4279  0.0736 -1.5382
 9047SOL     OW38602   1.163   4.084  10.991  0.3173  0.0069 -0.3523
 9047SOL    HW138603   1.240   4.028  10.987 -0.6372 -1.5007  1.9479
 9047SOL    HW238604   1.214   4.164  10.979  0.2036  0.3688  1.5210
 9048SOL     OW38605   0.223   1.886  10.281 -0.0736 -0.0121 -0.3896
 9048SOL    HW138606   0.270   1.954  10.329  2.9297 -2.2855 -0.1315
 9048SOL    HW238607   0.217   1.820  10.350  1.9125  0.3779  0.1561
 9049SOL     OW38608   3.008   0.572   2.904 -0.0112  0.0015  0.2790
 9049SOL    HW138609   2.919   0.550   2.878 -0.6000  1.5946  0.9355
 9049SOL    HW238610   3.002   0.616   2.989 -2.5918 -0.5457  0.3614
 9050SOL     OW38611   4.477   2.054   7.093 -0.0503  0.4678 -0.1669
 9050SOL    HW138612   4.500   2.102   7.173 -3.4975  1.0197  0.4794
 9050SOL    HW238613   4.382   2.058   7.095 -0.0161  0.3551  2.0763
 9051SOL     OW38614   0.295   0.995   9.145  0.2372  0.6057  0.2890
 9051SOL    HW138615   0.268   0.913   9.105  0.4636  1.2242 -1.1124
 9051SOL    HW238616   0.359   1.028   9.082 -0.1858  2.8086  1.0007
 9052SOL     OW38617   2.748   2.876   8.806  0.0513  0.5829  0.5541
 9052SOL    HW138618   2.755   2.783   8.783 -1.5205  1.2795 -2.8532
 9052SOL    HW238619   2.830   2.899   8.762 -0.7274  0.8306 -0.7714
 9053SOL     OW38620   1.938   2.962   7.637  0.1365  0.3260 -0.0005
 9053SOL    HW138621   1.929   2.995   7.726  1.5032 -0.0954  0.2934
 9053SOL    HW238622   2.030   2.935   7.626  0.2910  0.4514  1.0203
 9054SOL     OW38623   3.445   0.831  15.080  0.2681  0.0017  0.1916
 9054SOL    HW138624   3.503   0.762  15.048  0.3894 -0.3871  1.2388
 9054SOL    HW238625   3.422   0.888  15.006 -2.4109 -0.2644  0.7969
 9055SOL     OW38626   4.289   0.746   9.144 -0.5498  0.1654 -0.1901
 9055SOL    HW138627   4.247   0.775   9.225 -0.2798  0.9260 -0.3187
 9055SOL    HW238628   4.378   0.779   9.160  0.1316 -1.6625 -0.2282
 9056SOL     OW38629   1.459   0.171  14.662  0.3440 -0.0861 -0.3857
 9056SOL    HW138630   1.412   0.221  14.595  1.0677  2.3894  0.9607
 9056SOL    HW238631   1.435   0.082  14.636  1.0439 -0.0667 -1.0886
 9057SOL     OW38632   2.801   3.904   6.716  0.3429 -0.2226  0.0001
 9057SOL    HW138633   2.719   3.883   6.671  0.2402 -0.3698  0.2581
 9057SOL    HW238634   2.812   3.829   6.773 -0.0022  0.0965  0.4910
 9058SOL     OW38635   3.856   3.918  16.375  0.2849  0.5782  0.0812
 9058SOL    HW138636   3.817   3.880  16.454 -0.1708 -1.8531 -1.3412
 9058SOL    HW238637   3.930   3.858  16.368 -1.5571 -1.6720 -0.2655
 9059SOL     OW38638   3.252   2.931   2.110  0.0807 -0.0685 -0.5376
 9059SOL    HW138639   3.162   2.936   2.144  0.5282  0.1465  0.6296
 9059SOL    HW238640   3.249   2.895   2.022 -1.8640 -0.2176 -0.4040
 9060SOL     OW38641   4.165   0.750   4.018 -0.5202  0.0378  0.0673
 9060SOL    HW138642   4.091   0.777   4.072  0.2692 -1.1227  1.7181
 9060SOL    HW238643   4.163   0.654   4.018 -0.7463  0.0471 -1.6676
 9061SOL     OW38644   0.431   0.310   8.028  0.1624 -0.2257 -0.2964
 9061SOL    HW138645   0.470   0.255   8.096  1.6503 -0.4361 -1.3200
 9061SOL    HW238646   0.346   0.317   8.072  1.0011 -0.8654  1.4350
 9062SOL     OW38647   2.496   1.462  15.918  0.3289 -0.6471 -0.8253
 9062SOL    HW138648   2.458   1.397  15.977  1.2506 -0.2252  0.2267
 9062SOL    HW238649   2.423   1.478  15.859  1.3822  0.4330 -1.8483
 9063SOL     OW38650   4.395   2.749   1.686  0.8869 -0.1470  0.2985
 9063SOL    HW138651   4.430   2.836   1.667 -0.0875  0.4667  1.2527
 9063SOL    HW238652   4.350   2.730   1.604  0.9436  2.0364 -0.2390
 9064SOL     OW38653   3.078   3.517  15.911  0.0968 -0.3797 -0.2419
 9064SOL    HW138654   3.064   3.533  15.818  0.9695  2.8850  0.1819
 9064SOL    HW238655   3.083   3.423  15.924  1.0823 -0.4480 -1.1706
 9065SOL     OW38656   4.069   2.208  11.918 -0.1344  0.4347 -0.3285
 9065SOL    HW138657   4.080   2.120  11.882 -1.2096 -0.6265  2.0110
 9065SOL    HW238658   4.142   2.219  11.980 -0.5226  2.6301 -0.2593
 9066SOL     OW38659   1.054   3.736   3.473 -0.5419  0.5474 -0.3241
 9066SOL    HW138660   1.103   3.703   3.397 -0.0412  0.4759  0.0317
 9066SOL    HW238661   0.977   3.680   3.481 -0.2036  0.1498  0.1338
 9067SOL     OW38662   3.641   1.180   6.718  0.1926 -0.2844 -0.1530
 9067SOL    HW138663   3.658   1.243   6.788 -4.0002 -1.8835  2.3268
 9067SOL    HW238664   3.615   1.237   6.646  0.0100 -0.4485 -0.2166
 9068SOL     OW38665   1.052   4.111  11.480 -0.4947 -0.0846  0.3616
 9068SOL    HW138666   1.040   4.062  11.398 -1.7477  0.7140  0.0624
 9068SOL    HW238667   1.136   4.152  11.463 -0.5028  0.2532  1.1619
 9069SOL     OW38668   1.374   3.731  17.296  0.1057  0.2379  0.3336
 9069SOL    HW138669   1.349   3.818  17.330  1.0037  0.6426 -0.0472
 9069SOL    HW238670   1.468   3.747  17.290 -0.1050  1.3559 -0.0520
 9070SOL     OW38671   4.077   0.329  10.731  0.5335  0.2407 -0.6281
 9070SOL    HW138672   4.054   0.257  10.790 -0.1831  0.0151 -1.1832
 9070SOL    HW238673   4.069   0.407  10.786 -2.2110 -1.7481  1.8250
 9071SOL     OW38674   3.809   2.070  16.760  0.0454 -0.8831  0.2020
 9071SOL    HW138675   3.864   1.999  16.794  0.6099 -0.0736  0.9913
 9071SOL    HW238676   3.733   2.057  16.817  0.1757  1.3350  0.8568
 9072SOL     OW38677   1.423   1.099   7.863 -0.2820 -0.9012 -0.0826
 9072SOL    HW138678   1.368   1.166   7.903  0.1263 -1.1518  0.9244
 9072SOL    HW238679   1.422   1.033   7.933  1.4492 -1.9529 -1.0436
 9073SOL     OW38680   2.855   0.471   2.266  0.2867  0.2140 -0.0219
 9073SOL    HW138681   2.847   0.407   2.337  0.9711  0.2920  0.1237
 9073SOL    HW238682   2.920   0.433   2.207 -0.7972 -1.0530 -0.4053
 9074SOL     OW38683   0.578   0.127   3.726  0.1627 -0.1633  0.3004
 9074SOL    HW138684   0.579   0.045   3.677 -2.1908  0.4596 -0.7696
 9074SOL    HW238685   0.579   0.194   3.658  1.1625  0.8700  1.3300
 9075SOL     OW38686   4.580   2.110   8.886 -0.1719 -0.1187 -0.1723
 9075SOL    HW138687   4.614   2.172   8.822  0.4084 -2.8977 -2.5674
 9075SOL    HW238688   4.520   2.161   8.941 -1.0500 -1.1741 -0.1467
 9076SOL     OW38689   3.249   1.474   7.552  0.3074 -0.0056 -0.1293
 9076SOL    HW138690   3.161   1.463   7.587 -0.5587  1.1501 -1.9291
 9076SOL    HW238691   3.277   1.384   7.572 -1.2451 -0.1857  1.2628
 9077SOL     OW38692   2.886   2.284   8.654  0.2443  0.5035 -0.0522
 9077SOL    HW138693   2.958   2.223   8.639 -0.1223  0.0543 -0.0025
 9077SOL    HW238694   2.825   2.253   8.586  0.7795  0.2718 -0.4230
 9078SOL     OW38695   1.321   3.465   7.651 -0.0524  0.9852 -0.4187
 9078SOL    HW138696   1.327   3.490   7.743 -3.2573  0.2399  0.0146
 9078SOL    HW238697   1.413   3.474   7.627  1.3781  0.5683  5.0308
 9079SOL     OW38698   2.464   1.831   8.291  0.7568 -0.3356  0.4610
 9079SOL    HW138699   2.510   1.839   8.375  0.2862 -0.4548  0.7264
 9079SOL    HW238700   2.389   1.775   8.313  1.7289 -1.9394 -0.2573
 9080SOL     OW38701   3.951   2.690   2.316  0.2044  0.3946  0.1808
 9080SOL    HW138702   3.885   2.705   2.249 -2.5752  0.5246  2.9613
 9080SOL    HW238703   3.903   2.688   2.399 -0.7571  1.1780 -0.3665
 9081SOL     OW38704   3.475   1.596   2.196  0.5978 -0.0070 -0.0457
 9081SOL    HW138705   3.417   1.535   2.243  0.8303 -0.4664 -0.3576
 9081SOL    HW238706   3.558   1.581   2.242  0.4583  0.7354  0.4564
 9082SOL     OW38707   0.811   1.655   3.095  0.0256 -0.1773 -0.3863
 9082SOL    HW138708   0.767   1.573   3.118 -0.3692  0.1077 -0.1208
 9082SOL    HW238709   0.870   1.660   3.169 -1.2571 -1.8680  0.7673
 9083SOL     OW38710   3.923   2.489   7.810  0.8848  0.5372 -0.2924
 9083SOL    HW138711   4.015   2.517   7.801  1.6764 -1.4512  1.6453
 9083SOL    HW238712   3.933   2.464   7.902  1.0834  0.7720 -0.2493
 9084SOL     OW38713   2.076   0.517  15.910 -0.2380 -0.3886  0.6285
 9084SOL    HW138714   2.002   0.456  15.903  0.7176 -1.6166  1.2343
 9084SOL    HW238715   2.128   0.499  15.832 -1.6330  2.0070 -0.8684
 9085SOL     OW38716   0.293   1.294   2.863  0.2693  0.1340 -0.1857
 9085SOL    HW138717   0.333   1.211   2.891  1.3733  0.1543 -1.7083
 9085SOL    HW238718   0.314   1.294   2.770 -0.3455  1.2738 -0.3275
 9086SOL     OW38719   0.442   0.809   5.303  0.0690 -0.4119  0.1515
 9086SOL    HW138720   0.386   0.769   5.237  1.3808 -3.2923  0.7804
 9086SOL    HW238721   0.401   0.770   5.380  0.9166  0.9758  1.3113
 9087SOL     OW38722   2.705   3.440  15.175  0.5349 -0.1603 -0.2402
 9087SOL    HW138723   2.745   3.432  15.261  0.4202  0.4491 -0.1265
 9087SOL    HW238724   2.793   3.448  15.138 -0.1166 -0.7025 -1.9395
 9088SOL     OW38725   2.930   4.691   1.780  0.6348  0.1998 -0.0433
 9088SOL    HW138726   2.980   4.610   1.791 -0.1608 -0.6636 -2.9096
 9088SOL    HW238727   2.993   0.034   1.754 -0.6412  1.8682  1.0683
 9089SOL     OW38728   0.727   1.638   0.502 -0.0884  0.2519 -0.2784
 9089SOL    HW138729   0.710   1.677   0.417  0.2508 -0.0056 -0.4659
 9089SOL    HW238730   0.683   1.698   0.562 -0.5529 -0.8605  0.5179
 9090SOL     OW38731   1.218   4.719   0.059  0.2039  0.0586  0.6206
 9090SOL    HW138732   1.235   0.083   0.023  2.4872 -0.4607  0.4699
 9090SOL    HW238733   1.146   0.011   0.121  0.5975  0.3823  1.0034
 9091SOL     OW38734   4.465   0.418   1.509  0.7809 -1.0625 -0.3163
 9091SOL    HW138735   4.555   0.391   1.526  0.9796  0.2577  0.6787
 9091SOL    HW238736   4.477   0.510   1.485 -0.1922 -0.3073  2.1951
 9092SOL     OW38737   4.672   3.756  13.866 -0.0182  0.5561  0.9804
 9092SOL    HW138738   4.664   3.710  13.782  1.0936 -0.4983  1.4491
 9092SOL    HW238739   0.042   3.769  13.887 -0.2420  1.5555  1.3174
 9093SOL     OW38740   3.775   3.514   3.007  0.7971 -0.3543  0.4475
 9093SOL    HW138741   3.868   3.510   2.984  0.6725  0.5542 -0.1742
 9093SOL    HW238742   3.753   3.554   2.923  2.1675 -0.0680  0.2189
 9094SOL     OW38743   3.960   2.014   7.302  0.6754 -0.3759 -0.0649
 9094SOL    HW138744   3.902   2.089   7.291  1.5209 -0.1119 -2.9497
 9094SOL    HW238745   4.037   2.059   7.336 -0.6818  2.0887 -0.2900
 9095SOL     OW38746   1.887   2.114  15.597 -0.1066 -0.4497 -0.0745
 9095SOL    HW138747   1.895   2.056  15.521 -0.0731  0.0002 -0.4158
 9095SOL    HW238748   1.914   2.202  15.572  1.7449 -0.7833  0.7172
 9096SOL     OW38749   0.050   0.089   5.349  0.1253 -0.2395  0.0812
 9096SOL    HW138750   0.063   0.076   5.255  0.3433 -0.1645  0.1002
 9096SOL    HW238751   4.678   0.104   5.347  0.1122 -0.2615  0.5315
 9097SOL     OW38752   0.065   3.437   7.405  0.7335 -0.1566 -0.0088
 9097SOL    HW138753   0.146   3.488   7.408 -0.3303  1.3726  3.1036
 9097SOL    HW238754   0.047   3.449   7.312  0.6426  2.0060  0.2947
 9098SOL     OW38755   0.722   4.094   5.590 -0.2062  0.5762  0.0459
 9098SOL    HW138756   0.755   4.018   5.541 -0.7211 -0.4585  1.3321
 9098SOL    HW238757   0.801   4.127   5.633  0.8021  1.2290 -2.2851
 9099SOL     OW38758   0.529   0.055   4.312  0.1251 -0.2693  0.3546
 9099SOL    HW138759   0.608   0.040   4.363  0.4325 -0.2629 -0.1281
 9099SOL    HW238760   0.579   0.104   4.247  0.4527  0.7548  1.3878
 9100SOL     OW38761   3.824   2.424   4.287  0.1602 -0.6109 -0.4901
 9100SOL    HW138762   3.885   2.404   4.357 -1.7315  0.2474  1.4212
 9100SOL    HW238763   3.737   2.433   4.328  0.5819 -1.6720  0.6225
 9101SOL     OW38764   2.126   2.772   1.568  0.5797  0.2682 -0.4088
 9101SOL    HW138765   2.081   2.763   1.483 -2.0841  2.6033  0.7559
 9101SOL    HW238766   2.142   2.680   1.587 -1.1875  0.6035  2.6038
 9102SOL     OW38767   1.458   2.901   4.924 -0.0963 -0.0423  0.0558
 9102SOL    HW138768   1.410   2.848   4.988 -0.6732  1.7083  1.0498
 9102SOL    HW238769   1.388   2.944   4.876 -0.1294  0.4531  0.5543
 9103SOL     OW38770   1.860   0.301   6.675  0.0426 -0.5240 -0.6093
 9103SOL    HW138771   1.947   0.263   6.689 -0.3269 -0.9046  0.7107
 9103SOL    HW238772   1.881   0.393   6.686  1.1408 -0.8849  0.3399
 9104SOL     OW38773   4.583   1.881   6.912  1.0910  0.4288 -0.2452
 9104SOL    HW138774   4.532   1.935   6.852  0.6100  0.2373 -0.0062
 9104SOL    HW238775   4.534   1.902   6.992  0.0899 -0.7374 -0.5744
 9105SOL     OW38776   0.772   0.143   3.086 -0.1203  0.1623 -0.0808
 9105SOL    HW138777   0.703   0.143   3.020 -1.2432  0.4040  1.0827
 9105SOL    HW238778   0.807   0.230   3.064 -0.2469  0.6489  1.6377
 9106SOL     OW38779   3.383   0.428   0.400  0.8421 -0.2712  0.2743
 9106SOL    HW138780   3.329   0.357   0.434  0.8031 -0.4687 -0.1923
 9106SOL    HW238781   3.321   0.498   0.421 -1.9601 -2.3949 -1.0321
 9107SOL     OW38782   1.172   3.093   7.120 -0.0175  0.0256 -0.1819
 9107SOL    HW138783   1.140   3.130   7.038 -0.1065  0.5599  0.0891
 9107SOL    HW238784   1.093   3.110   7.172  1.1407 -2.2630  2.3343
 9108SOL     OW38785   3.947   1.271   5.025  0.1639 -0.4088 -0.4534
 9108SOL    HW138786   4.033   1.240   4.996 -0.3663 -2.4477  0.1316
 9108SOL    HW238787   3.970   1.360   5.051  2.0971 -1.0630  0.1029
 9109SOL     OW38788   1.025   2.189  11.773 -0.2363 -0.1603 -0.1302
 9109SOL    HW138789   0.983   2.155  11.852  2.4466 -0.8651  0.9565
 9109SOL    HW238790   1.017   2.277  11.809 -3.4429  0.1939 -1.6376
 9110SOL     OW38791   2.069   1.163  13.599  0.4148 -0.2280 -0.4254
 9110SOL    HW138792   2.140   1.190  13.541  0.1356  0.7062 -0.3259
 9110SOL    HW238793   2.109   1.174  13.685 -0.0632 -3.6267  0.2656
 9111SOL     OW38794   2.508   1.258   1.892  0.4289 -0.6374  0.7450
 9111SOL    HW138795   2.439   1.205   1.853 -0.0557  0.2647  0.3776
 9111SOL    HW238796   2.550   1.201   1.957  4.6697  1.4839 -0.1311
 9112SOL     OW38797   1.090   3.955   7.296 -0.2484  0.5860  0.7750
 9112SOL    HW138798   1.077   4.005   7.216 -0.1771  0.7604  0.8722
 9112SOL    HW238799   1.106   4.025   7.360  2.2844  1.6003 -0.9858
 9113SOL     OW38800   4.204   1.372   4.767 -0.1703 -0.6438 -0.1443
 9113SOL    HW138801   4.164   1.337   4.688  3.0170 -1.3041 -1.4551
 9113SOL    HW238802   4.298   1.378   4.749 -0.0021 -1.1812  0.5599
 9114SOL     OW38803   4.294   0.598   5.887  1.1570 -0.7349 -0.1775
 9114SOL    HW138804   4.362   0.540   5.922  0.8003 -2.7835 -2.9202
 9114SOL    HW238805   4.313   0.592   5.794 -0.7501  1.6915 -0.7075
 9115SOL     OW38806   2.111   1.428   6.984  0.1202  0.7473 -0.2970
 9115SOL    HW138807   2.104   1.464   6.896 -0.4983  0.7328 -0.2533
 9115SOL    HW238808   2.065   1.345   6.972 -0.5605  0.8505  1.5957
 9116SOL     OW38809   3.095   2.345   1.715  0.0377  0.2409  0.2402
 9116SOL    HW138810   3.188   2.365   1.700  0.1156 -0.7569 -0.5929
 9116SOL    HW238811   3.090   2.250   1.717 -0.3628  0.2734  0.8802
 9117SOL     OW38812   0.486   4.649   7.157 -0.1022  0.0456  0.3248
 9117SOL    HW138813   0.548   4.607   7.217 -1.5227  0.8331  2.3659
 9117SOL    HW238814   0.457   4.713   7.222 -1.2280  0.1406 -0.2613
 9118SOL     OW38815   3.901   4.348   4.757  0.8764  0.1008  0.3893
 9118SOL    HW138816   3.820   4.399   4.763  1.6658  1.2586  1.3721
 9118SOL    HW238817   3.891   4.289   4.832 -0.1893  0.6328  0.6734
 9119SOL     OW38818   4.061   3.611   9.751 -0.1027 -0.5851 -0.4980
 9119SOL    HW138819   4.148   3.578   9.773  0.8108 -0.1024 -3.4122
 9119SOL    HW238820   4.081   3.691   9.703 -1.9338 -0.4071 -0.9532
 9120SOL     OW38821   3.193   4.696   6.956  0.0349 -0.6446  0.2998
 9120SOL    HW138822   3.235   0.011   6.879 -0.8142  0.2624  0.2821
 9120SOL    HW238823   3.112   0.023   6.948 -1.3406 -2.7508  1.2992
 9121SOL     OW38824   2.990   2.915   8.709  0.4544 -0.6210  0.3219
 9121SOL    HW138825   3.065   2.880   8.757  0.7560 -0.5242 -0.0889
 9121SOL    HW238826   3.000   2.868   8.627  0.6180 -0.6003  0.3317
 9122SOL     OW38827   4.507   1.597   7.387  0.5693  0.1181  0.1668
 9122SOL    HW138828   4.555   1.516   7.375  1.0784  0.7823 -2.1541
 9122SOL    HW238829   4.423   1.571   7.349  0.5348  0.3048  0.1158
 9123SOL     OW38830   1.464   2.234   5.849 -0.3021 -0.3166 -0.3758
 9123SOL    HW138831   1.499   2.253   5.763 -0.2655  1.1956 -0.0292
 9123SOL    HW238832   1.458   2.320   5.891  0.5992  0.3989 -1.7231
 9124SOL     OW38833   0.343   1.736   2.767 -0.2045 -0.3033 -0.2828
 9124SOL    HW138834   0.414   1.703   2.712  1.0217  2.0348 -0.1131
 9124SOL    HW238835   0.312   1.803   2.706  0.1696 -0.1469 -0.3054
 9125SOL     OW38836   3.944   4.704  16.017  0.1596  1.0721  0.1915
 9125SOL    HW138837   4.006   4.650  15.968 -2.2069 -0.9837 -0.5670
 9125SOL    HW238838   3.877   0.007  15.953 -0.3529 -1.1658 -0.1827
 9126SOL     OW38839   0.990   1.570   7.700  0.0932  0.1453  0.2818
 9126SOL    HW138840   1.028   1.628   7.767  1.7036 -0.0019 -0.5064
 9126SOL    HW238841   0.902   1.569   7.738  0.2085 -0.4605  0.5225
 9127SOL     OW38842   2.556   2.886   2.281  0.0072  0.4179  0.1617
 9127SOL    HW138843   2.646   2.876   2.314 -0.2759 -2.3874  0.1288
 9127SOL    HW238844   2.564   2.939   2.202  0.7292  0.4254  0.2378
 9128SOL     OW38845   3.154   3.567  13.758 -0.1151  0.3711  0.3567
 9128SOL    HW138846   3.166   3.526  13.672 -1.3739  3.7847 -1.4611
 9128SOL    HW238847   3.132   3.657  13.735 -1.9407 -0.4321 -1.0785
 9129SOL     OW38848   4.019   2.646   4.595  0.3610  0.0464  0.0382
 9129SOL    HW138849   4.101   2.665   4.642  0.0160  1.4170  0.0728
 9129SOL    HW238850   4.029   2.561   4.552 -1.1678  0.4551 -1.0828
 9130SOL     OW38851   0.050   1.111   8.749  0.0620  0.4505  0.1453
 9130SOL    HW138852   0.066   1.146   8.661 -1.6248  1.9987  0.4398
 9130SOL    HW238853   0.129   1.061   8.767 -0.2651 -1.1896 -2.9111
 9131SOL     OW38854   3.829   1.079  11.407 -0.5164  0.1939 -0.1754
 9131SOL    HW138855   3.761   1.021  11.442 -1.2030 -0.5122 -2.6720
 9131SOL    HW238856   3.901   1.057  11.465 -0.3171  0.5900 -0.2750
 9132SOL     OW38857   4.466   1.184   8.569 -0.5050  0.4775  0.2693
 9132SOL    HW138858   4.467   1.276   8.596  1.8945  0.2726  0.8720
 9132SOL    HW238859   4.552   1.180   8.528 -0.8750 -0.9202 -0.3777
 9133SOL     OW38860   2.797   1.877   2.056  0.2615  0.2464  0.0139
 9133SOL    HW138861   2.879   1.859   2.101  0.1636  0.3550  0.2344
 9133SOL    HW238862   2.817   1.967   2.030  1.1364  0.6543  2.1264
 9134SOL     OW38863   2.285   0.024  15.085 -0.0843 -0.4300  0.1505
 9134SOL    HW138864   2.301   4.677  15.021 -0.2374  1.3281 -1.7959
 9134SOL    HW238865   2.210   0.072  15.050 -0.3570 -0.8257  0.1898
 9135SOL     OW38866   2.956   2.895   9.930  0.7240 -0.0277 -0.0491
 9135SOL    HW138867   3.038   2.919   9.974  0.5201 -2.0789  1.3883
 9135SOL    HW238868   2.902   2.966   9.964  0.4045 -0.5150  0.4472
 9136SOL     OW38869   2.642   0.501   3.799 -0.1143 -0.0801 -0.2492
 9136SOL    HW138870   2.560   0.486   3.753  0.1254 -0.5213 -0.5322
 9136SOL    HW238871   2.697   0.457   3.735 -0.0569 -0.9378  0.3823
 9137SOL     OW38872   0.537   1.980   5.498 -0.1243 -0.8698  0.1641
 9137SOL    HW138873   0.584   1.918   5.443 -0.4624  0.2011 -1.3306
 9137SOL    HW238874   0.581   1.969   5.582 -1.8113 -0.5839  1.0916
 9138SOL     OW38875   1.157   2.917   5.776  0.3795 -0.0093  0.1667
 9138SOL    HW138876   1.095   2.912   5.703  2.5556  0.1159 -1.6831
 9138SOL    HW238877   1.226   2.979   5.753  2.0531 -0.7323  3.2633
 9139SOL     OW38878   3.765   3.895   7.595  0.2740  0.0535 -0.1246
 9139SOL    HW138879   3.820   3.973   7.598 -0.6534  0.7405 -0.9907
 9139SOL    HW238880   3.725   3.899   7.682 -1.4431 -0.6730 -0.8711
 9140SOL     OW38881   2.873   1.685  17.650  0.3331 -1.0716  0.0342
 9140SOL    HW138882   2.903   1.652   0.042  1.0418  1.1272  0.6379
 9140SOL    HW238883   2.789   1.639  17.655  0.8769 -2.1287 -0.6620
 9141SOL     OW38884   0.288   1.077   5.739 -0.1683 -0.2916  0.5287
 9141SOL    HW138885   0.369   1.027   5.752  0.2382  0.3330  0.4101
 9141SOL    HW238886   0.269   1.120   5.822  2.1991  0.9588  0.4172
 9142SOL     OW38887   0.411   0.203   6.323  0.2159  0.1240  0.4763
 9142SOL    HW138888   0.422   0.291   6.360  1.0472  0.9905 -1.8273
 9142SOL    HW238889   0.356   0.174   6.396  0.3383 -0.3983  0.3574
 9143SOL     OW38890   2.128   2.086   2.182  0.4762  0.0915 -0.0016
 9143SOL    HW138891   2.144   2.076   2.088  0.1755 -1.5836  0.1148
 9143SOL    HW238892   2.081   2.167   2.166  0.3207  0.0142  0.0630
 9144SOL     OW38893   4.579   2.118   2.342  0.1123  0.4220 -0.2778
 9144SOL    HW138894   4.615   2.176   2.410 -0.5465 -0.8124  1.1172
 9144SOL    HW238895   4.517   2.173   2.295  0.8700  2.3204  0.9341
 9145SOL     OW38896   0.314   4.381   3.389  0.1524  0.2197  0.0168
 9145SOL    HW138897   0.306   4.350   3.479  0.0377  0.8355  0.2177
 9145SOL    HW238898   0.233   4.433   3.388 -0.5174 -0.8664 -1.8989
 9146SOL     OW38899   2.623   0.188  17.534  0.0806  0.3706 -0.5033
 9146SOL    HW138900   2.618   0.277  17.500  2.0297  0.9385  0.7280
 9146SOL    HW238901   2.553   0.186  17.599  1.6228 -1.8003  1.1088
 9147SOL     OW38902   1.680   0.279   7.636  0.1809 -0.1954 -0.0089
 9147SOL    HW138903   1.592   0.311   7.615 -0.7031 -2.1095  0.8195
 9147SOL    HW238904   1.709   0.350   7.693  2.1908 -0.6944 -0.4196
 9148SOL     OW38905   0.800   2.090   2.296  0.3261 -0.0404 -0.7766
 9148SOL    HW138906   0.749   2.162   2.334  0.2893 -0.6136  0.2580
 9148SOL    HW238907   0.840   2.056   2.376  0.5144  0.9076 -0.4654
 9149SOL     OW38908   4.049   3.184   3.694 -0.3131  0.0288  0.2278
 9149SOL    HW138909   4.134   3.191   3.739  0.5602 -1.7183 -1.1379
 9149SOL    HW238910   4.008   3.268   3.710 -0.4507 -0.2423  1.3049
 9150SOL     OW38911   3.662   1.551   4.333 -0.4395 -0.3616 -0.4511
 9150SOL    HW138912   3.700   1.480   4.385  0.2474  0.3040 -0.0336
 9150SOL    HW238913   3.652   1.506   4.249  0.7504 -0.5842 -0.4766
 9151SOL     OW38914   4.675   4.227   2.266  0.6285 -0.0048 -0.0681
 9151SOL    HW138915   0.031   4.271   2.298  1.5911 -1.6305 -0.1775
 9151SOL    HW238916   4.721   4.154   2.225  1.2232 -0.2766  1.0851
 9152SOL     OW38917   0.978   2.333   7.443 -0.3641 -0.2004  0.0008
 9152SOL    HW138918   0.942   2.388   7.513  2.1479  1.2720  0.1504
 9152SOL    HW238919   1.057   2.382   7.419  0.0743  0.2385  2.4036
 9153SOL     OW38920   0.424   3.306   2.557 -0.7940 -0.6696  0.4245
 9153SOL    HW138921   0.454   3.241   2.494  0.5965  1.6924 -1.3465
 9153SOL    HW238922   0.333   3.313   2.528 -0.8156  0.1571  0.6817
 9154SOL     OW38923   4.444   3.331   4.017 -0.0055 -0.0464 -0.4584
 9154SOL    HW138924   4.467   3.287   4.099 -1.0806 -2.7047 -1.5965
 9154SOL    HW238925   4.513   3.397   4.008  0.9257 -1.0348 -0.7159
 9155SOL     OW38926   1.012   4.304   2.428  0.2689  0.2045  0.1564
 9155SOL    HW138927   0.954   4.229   2.441  0.3696  0.0324 -0.3391
 9155SOL    HW238928   1.090   4.257   2.396 -0.6727 -0.8789 -0.5313
 9156SOL     OW38929   3.645   0.419   7.186  0.5425  0.4745  0.0852
 9156SOL    HW138930   3.695   0.419   7.268 -1.3353 -1.4971  1.2335
 9156SOL    HW238931   3.703   0.464   7.125  2.8688 -1.0902  1.1355
 9157SOL     OW38932   1.511   2.140   8.113 -0.4816 -0.2710 -0.1523
 9157SOL    HW138933   1.488   2.055   8.076  0.7295 -0.6678 -0.0226
 9157SOL    HW238934   1.568   2.100   8.180  0.5648  0.1257 -0.8057
 9158SOL     OW38935   0.752   1.284  13.662 -0.2554 -0.1025  0.2464
 9158SOL    HW138936   0.716   1.204  13.623  0.2820  0.7142 -1.9104
 9158SOL    HW238937   0.668   1.326  13.680  0.3911  1.0033  0.6822
 9159SOL     OW38938   4.516   2.477   8.771  0.4472 -0.7071 -0.0980
 9159SOL    HW138939   4.549   2.556   8.729  1.4329 -1.3210 -0.4690
 9159SOL    HW238940   4.467   2.507   8.848 -1.4419 -0.3958 -1.4032
 9160SOL     OW38941   4.427   2.753   3.867  0.4106 -0.1641 -0.6198
 9160SOL    HW138942   4.388   2.724   3.950  0.7837 -0.1822 -0.4525
 9160SOL    HW238943   4.381   2.834   3.846 -0.1172 -0.5255 -0.8572
 9161SOL     OW38944   4.672   0.837  10.264 -0.0154 -0.0812  0.2723
 9161SOL    HW138945   0.039   0.805  10.256 -0.4901 -1.8125  2.0414
 9161SOL    HW238946   4.655   0.886  10.183 -0.8240 -0.0933  0.4387
 9162SOL     OW38947   4.435   4.721  10.506  0.1571  0.5462  0.0952
 9162SOL    HW138948   4.501   0.057  10.543  3.0850 -2.9309  0.3523
 9162SOL    HW238949   4.363   0.058  10.527  1.4166  2.2728 -0.4596
 9163SOL     OW38950   1.182   1.241  16.424  0.2630 -0.8958  0.5701
 9163SOL    HW138951   1.174   1.336  16.410  2.3160 -0.4588  2.4561
 9163SOL    HW238952   1.106   1.229  16.481 -0.4651  2.2940  0.2801
 9164SOL     OW38953   0.886   1.387   8.820  0.0005  0.5085  0.6904
 9164SOL    HW138954   0.867   1.385   8.913 -0.9122  0.1284  0.4959
 9164SOL    HW238955   0.835   1.465   8.799 -1.3864 -0.5871 -0.0322
 9165SOL     OW38956   0.285   0.226   4.126 -0.3173 -0.4806 -0.0379
 9165SOL    HW138957   0.300   0.216   4.220  0.1108 -0.9092 -0.1534
 9165SOL    HW238958   0.190   0.214   4.127 -0.3440 -0.2791 -0.1324
 9166SOL     OW38959   3.858   1.955   4.821 -0.3186 -0.4786  0.2226
 9166SOL    HW138960   3.880   1.910   4.902  0.4231 -2.7829 -1.2718
 9166SOL    HW238961   3.792   1.899   4.780 -1.0943  1.0674 -0.6865
 9167SOL     OW38962   0.712   0.258   8.102  0.6452  0.4359 -0.4093
 9167SOL    HW138963   0.730   0.288   8.013 -2.2405  0.0889 -1.0917
 9167SOL    HW238964   0.729   0.336   8.155  1.3668  0.4595 -0.6764
 9168SOL     OW38965   2.509   1.179   1.243  0.0521 -0.1408  0.3643
 9168SOL    HW138966   2.509   1.083   1.238  0.3883 -0.0845 -0.8768
 9168SOL    HW238967   2.438   1.207   1.185 -0.2334  1.2564  1.3968
 9169SOL     OW38968   1.947   0.762  13.036  0.0462  0.2347  0.0990
 9169SOL    HW138969   1.960   0.669  13.019 -0.7548  0.6666 -2.8680
 9169SOL    HW238970   2.038   0.789  13.037  0.8978 -2.7129  3.0778
 9170SOL     OW38971   2.416   1.356   5.498  0.3841 -0.0894 -0.1314
 9170SOL    HW138972   2.495   1.410   5.496  1.0427 -1.1011 -1.4281
 9170SOL    HW238973   2.399   1.338   5.406 -3.1057 -1.2620  0.7723
 9171SOL     OW38974   4.140   1.315   8.319 -0.6217 -0.0308  0.0153
 9171SOL    HW138975   4.110   1.398   8.356  2.3504  0.1652  1.9368
 9171SOL    HW238976   4.060   1.285   8.276 -1.5080 -0.6197  2.0731
 9172SOL     OW38977   0.466   3.052   6.838  0.3002  0.0117 -0.3382
 9172SOL    HW138978   0.409   3.001   6.895  0.0682  0.1714 -0.4250
 9172SOL    HW238979   0.426   3.137   6.858 -0.2932 -0.4060  0.2276
 9173SOL     OW38980   4.152   3.948   6.641  0.5125 -0.2511 -0.5234
 9173SOL    HW138981   4.177   4.026   6.592 -0.0643 -0.8119 -1.7152
 9173SOL    HW238982   4.236   3.933   6.685 -0.2815 -3.4603 -0.1222
 9174SOL     OW38983   4.202   1.262  12.990 -0.2276 -0.6106  0.0045
 9174SOL    HW138984   4.294   1.286  12.989 -0.0194 -1.3452  0.9975
 9174SOL    HW238985   4.191   1.211  13.071 -0.9626  0.7088  0.7358
 9175SOL     OW38986   4.375   0.473  13.979 -0.3994  0.3572  0.3139
 9175SOL    HW138987   4.445   0.419  14.018 -1.2752 -0.3873  0.8580
 9175SOL    HW238988   4.292   0.452  14.021  0.6705 -1.5930  1.4553
 9176SOL     OW38989   1.504   3.974  16.039  0.0405 -0.1015 -0.3799
 9176SOL    HW138990   1.448   3.925  15.980 -0.3851 -1.0323  0.7930
 9176SOL    HW238991   1.578   3.981  15.979 -1.1808 -0.2047 -1.8814
 9177SOL     OW38992   0.172   0.690   5.898  0.0993 -0.0725 -0.0840
 9177SOL    HW138993   0.167   0.785   5.890  0.1968  0.1495  2.2792
 9177SOL    HW238994   0.265   0.672   5.889  1.0755  4.9947  0.2739
 9178SOL     OW38995   4.260   0.898   2.824  0.4530  0.1470 -0.3123
 9178SOL    HW138996   4.254   0.803   2.823 -1.7323  0.3026 -1.1390
 9178SOL    HW238997   4.184   0.912   2.881  0.5950 -0.4468  0.0253
 9179SOL     OW38998   4.144   1.379   6.562 -0.0175 -0.4172  0.0831
 9179SOL    HW138999   4.209   1.335   6.507 -1.6078 -3.3647  0.5199
 9179SOL    HW239000   4.070   1.320   6.578  0.0572 -1.0878 -2.0979
 9180SOL     OW39001   3.307   2.014  12.540 -0.1921 -0.2534  0.3706
 9180SOL    HW139002   3.316   2.044  12.630 -2.0072  2.0122 -0.2019
 9180SOL    HW239003   3.276   2.092  12.493  0.6621 -0.3923 -0.4312
 9181SOL     OW39004   3.810   2.842  14.821  0.8351  0.4508 -0.3097
 9181SOL    HW139005   3.737   2.784  14.843  1.3341 -0.6034 -1.4487
 9181SOL    HW239006   3.859   2.808  14.895 -1.0252 -1.6507 -0.0408
 9182SOL     OW39007   2.740   3.131   0.546  0.0791  0.0642  0.4272
 9182SOL    HW139008   2.645   3.122   0.555 -0.0455  0.4649 -0.4566
 9182SOL    HW239009   2.767   3.158   0.634  0.0987 -0.2261  0.5130
 9183SOL     OW39010   2.016   2.200   5.057  0.6817 -0.1015 -0.5079
 9183SOL    HW139011   2.030   2.236   5.144  0.7382 -0.8030 -0.2252
 9183SOL    HW239012   1.924   2.174   5.061  0.2792  1.2193 -1.1148
 9184SOL     OW39013   4.682   0.008   2.192 -0.2453  0.2341  0.1724
 9184SOL    HW139014   4.712   4.658   2.138 -0.3909  0.8874 -0.7737
 9184SOL    HW239015   4.678   4.678   2.273 -1.0510  1.3040  0.8275
 9185SOL     OW39016   4.406   4.073   0.536  0.6439 -0.2030 -0.3251
 9185SOL    HW139017   4.313   4.053   0.525  1.0625 -1.8735 -0.8515
 9185SOL    HW239018   4.414   4.048   0.628  0.7962  1.0805  0.0194
 9186SOL     OW39019   0.245   4.574   4.801  0.3472 -0.0632  0.3386
 9186SOL    HW139020   0.253   4.669   4.791 -0.0658 -0.1854 -1.1728
 9186SOL    HW239021   0.150   4.571   4.794  0.3911 -2.1187  0.7566
 9187SOL     OW39022   2.871   0.380  11.749  0.5597  0.3363 -0.2601
 9187SOL    HW139023   2.799   0.330  11.788 -0.0569  0.6317 -1.0149
 9187SOL    HW239024   2.896   0.310  11.689  0.2805  0.3559 -0.4000
 9188SOL     OW39025   4.582   2.583  14.639  0.0494  0.1239  0.0262
 9188SOL    HW139026   4.577   2.623  14.552  0.3599  3.3911  1.5359
 9188SOL    HW239027   4.633   2.651  14.683  1.4681 -1.6596  1.1556
 9189SOL     OW39028   3.138   3.794   4.847 -0.1005  0.1891 -0.0833
 9189SOL    HW139029   3.050   3.770   4.816 -0.7223  0.2160  1.6294
 9189SOL    HW239030   3.146   3.875   4.798  1.1496 -0.3411 -0.7528
 9190SOL     OW39031   3.294   0.023   9.060 -0.0700  0.6615 -0.5128
 9190SOL    HW139032   3.242   0.103   9.070  1.0784  1.0817  2.1408
 9190SOL    HW239033   3.228   4.676   9.068 -1.1266  1.9091  1.8305
 9191SOL     OW39034   0.028   3.087   2.522 -0.5491  0.0812  0.2405
 9191SOL    HW139035   0.062   3.014   2.471 -1.2635  2.7990 -4.1616
 9191SOL    HW239036   0.102   3.145   2.501  0.6467 -0.9114  1.8085
 9192SOL     OW39037   3.858   0.144   0.677 -0.2247  0.2194  0.0047
 9192SOL    HW139038   3.780   0.110   0.722 -0.8635 -2.5314 -3.2071
 9192SOL    HW239039   3.907   0.062   0.675 -1.4552 -0.5450  0.6711
 9193SOL     OW39040   3.330   4.162   5.340 -0.7102  0.5789  0.4831
 9193SOL    HW139041   3.255   4.200   5.386 -0.9703  1.1012 -0.3587
 9193SOL    HW239042   3.325   4.071   5.370 -0.7991  0.7722  1.0539
 9194SOL     OW39043   3.498   0.647   3.189  0.0474 -0.0336 -0.0383
 9194SOL    HW139044   3.491   0.628   3.096  0.4739  1.2838 -0.3411
 9194SOL    HW239045   3.424   0.708   3.204  2.1119  2.8141 -1.4411
 9195SOL     OW39046   0.320   3.294   6.961 -0.3068  1.0955  0.2917
 9195SOL    HW139047   0.284   3.251   7.039  1.1964 -0.2801  0.2283
 9195SOL    HW239048   0.373   3.359   7.007  2.7170  1.2423 -3.4400
 9196SOL     OW39049   4.436   4.028   2.365 -0.8336 -0.3383 -0.2541
 9196SOL    HW139050   4.375   4.059   2.432 -1.8463 -2.5628 -0.1509
 9196SOL    HW239051   4.515   4.074   2.394 -2.2226  1.8631 -0.0185
 9197SOL     OW39052   1.562   0.367   3.292 -0.4447  0.2583  0.1721
 9197SOL    HW139053   1.535   0.279   3.268 -0.9631 -0.0496  1.8673
 9197SOL    HW239054   1.581   0.394   3.202  1.2307 -0.5349  0.2847
 9198SOL     OW39055   3.188   0.746   9.168  0.2932 -0.2678 -0.1100
 9198SOL    HW139056   3.158   0.801   9.095 -0.5508  1.4483  1.5198
 9198SOL    HW239057   3.263   0.784   9.213  0.5195 -1.6301  0.6348
 9199SOL     OW39058   3.518   2.736  10.916  0.0360  0.4478 -0.2392
 9199SOL    HW139059   3.454   2.750  10.846  0.8640 -2.2618 -1.5193
 9199SOL    HW239060   3.603   2.751  10.876  1.4102 -4.3101  0.8819
 9200SOL     OW39061   3.295   0.167  13.163  0.1581  0.4144  0.2753
 9200SOL    HW139062   3.250   0.239  13.118  0.5720 -0.5827 -1.7275
 9200SOL    HW239063   3.335   0.133  13.083  0.4832  0.2803  0.4971
 9201SOL     OW39064   2.369   1.058   7.478  0.6740  0.4393 -0.7113
 9201SOL    HW139065   2.296   0.998   7.463  2.2588 -0.9960 -2.5162
 9201SOL    HW239066   2.352   1.114   7.402 -0.0186  1.4456  0.1778
 9202SOL     OW39067   0.363   2.337   2.738  0.4370  0.2936  0.4107
 9202SOL    HW139068   0.424   2.409   2.754  3.5283 -1.6779 -2.5981
 9202SOL    HW239069   0.285   2.390   2.755 -0.6245 -0.9709 -0.5865
 9203SOL     OW39070   1.867   1.852   1.284  0.4441 -0.5789 -0.2250
 9203SOL    HW139071   1.939   1.889   1.233 -0.1660 -1.2441 -1.5715
 9203SOL    HW239072   1.795   1.855   1.222 -0.2448  0.8200  0.6488
 9204SOL     OW39073   3.829   0.475   3.538  0.2475 -0.1207 -0.1843
 9204SOL    HW139074   3.740   0.510   3.540  0.9024  1.5747 -0.1053
 9204SOL    HW239075   3.880   0.545   3.495 -0.3623  1.0143  0.9288
 9205SOL     OW39076   3.778   4.483   6.059  0.6688 -0.5637 -0.1563
 9205SOL    HW139077   3.787   4.515   5.969 -2.7883  0.6175 -0.0680
 9205SOL    HW239078   3.814   4.559   6.105 -0.1596  0.7559 -1.6852
 9206SOL     OW39079   3.686   1.205   1.380 -0.1725  0.1077  0.2344
 9206SOL    HW139080   3.667   1.236   1.291  1.7154 -0.0522 -0.2210
 9206SOL    HW239081   3.750   1.138   1.359 -0.1853  1.1607 -3.2945
 9207SOL     OW39082   3.750   1.078   8.762  0.0705  0.2510 -0.0064
 9207SOL    HW139083   3.707   1.150   8.808 -0.2318 -0.1760  0.3765
 9207SOL    HW239084   3.696   1.013   8.806  0.4270  0.0830  0.1810
 9208SOL     OW39085   4.404   1.106  12.106  0.3242  0.2366 -0.0076
 9208SOL    HW139086   4.454   1.035  12.066  0.4270  1.3965 -1.9385
 9208SOL    HW239087   4.450   1.113  12.190  0.3183 -1.9647  0.1711
 9209SOL     OW39088   2.983   0.175  12.918 -0.4735  0.0339 -0.3437
 9209SOL    HW139089   3.002   0.125  12.997 -1.5224 -0.4517 -0.3974
 9209SOL    HW239090   2.971   0.267  12.941  1.2529  0.2932 -0.4453
 9210SOL     OW39091   0.729   2.780   1.490  0.6188 -0.5253 -0.5417
 9210SOL    HW139092   0.758   2.692   1.465  2.0792 -0.2858  0.3330
 9210SOL    HW239093   0.661   2.800   1.426 -0.0091  0.9603  0.5815
 9211SOL     OW39094   0.607   4.619   9.268  0.3013 -0.1601 -0.2545
 9211SOL    HW139095   0.528   4.565   9.274  0.3309 -0.0723  0.8239
 9211SOL    HW239096   0.568   4.697   9.229  1.7399  1.2583  1.1769
 9212SOL     OW39097   3.919   4.628   9.622 -0.1137  0.5308 -0.0918
 9212SOL    HW139098   3.839   4.633   9.570  0.4128  0.7461 -0.8920
 9212SOL    HW239099   3.938   4.537   9.600  3.2766  0.9536  1.0100
 9213SOL     OW39100   4.130   2.581   1.041 -0.1641 -0.9301 -0.1172
 9213SOL    HW139101   4.196   2.619   0.983 -1.6981  0.0581 -1.1844
 9213SOL    HW239102   4.119   2.491   1.011 -1.1603 -0.5663 -0.8362
 9214SOL     OW39103   2.468   1.811   5.095 -0.3185 -0.2198  0.5359
 9214SOL    HW139104   2.553   1.854   5.098  0.3446 -1.4870 -0.1401
 9214SOL    HW239105   2.407   1.877   5.062 -0.0871 -0.3614 -0.1677
 9215SOL     OW39106   3.970   2.104   1.746  0.0317  0.0376  0.3531
 9215SOL    HW139107   3.924   2.173   1.698  1.1601  2.2940  2.5365
 9215SOL    HW239108   4.047   2.152   1.774  0.1502 -0.4129  0.8063
 9216SOL     OW39109   0.740   1.160   9.552  0.0491 -0.3024  0.1409
 9216SOL    HW139110   0.826   1.117   9.546 -0.2220 -0.1816 -4.1705
 9216SOL    HW239111   0.761   1.242   9.598  2.7772 -2.2453  2.3721
 9217SOL     OW39112   0.898   1.132  11.177 -0.1579  0.1679  0.1825
 9217SOL    HW139113   0.845   1.065  11.222  1.2872 -0.0805  1.5044
 9217SOL    HW239114   0.948   1.080  11.114  0.8375 -0.7702  1.7342
 9218SOL     OW39115   4.626   3.784   2.074 -0.0842 -0.2326  0.2230
 9218SOL    HW139116   4.554   3.813   2.130 -1.9363 -1.1591 -1.6966
 9218SOL    HW239117   4.585   3.707   2.036  1.0347 -0.3785 -0.6827
 9219SOL     OW39118   4.388   4.570   8.439 -0.5052  0.6775 -0.4184
 9219SOL    HW139119   4.322   4.585   8.371 -1.5525  1.3387  0.7338
 9219SOL    HW239120   4.466   4.580   8.386  0.0499 -0.7757  0.1328
 9220SOL     OW39121   2.207   4.383   1.963  0.5401 -0.4550  0.0554
 9220SOL    HW139122   2.269   4.360   1.893 -2.2319 -0.8851 -2.2210
 9220SOL    HW239123   2.131   4.334   1.934 -0.2798 -0.2908  1.9432
 9221SOL     OW39124   4.361   1.135   1.260 -0.3979 -0.0031 -0.5924
 9221SOL    HW139125   4.371   1.230   1.255 -3.0784  0.3175 -0.0755
 9221SOL    HW239126   4.276   1.123   1.216 -0.2222  0.2315 -0.9978
 9222SOL     OW39127   0.638   1.839   5.310  0.0897  0.0417 -0.5442
 9222SOL    HW139128   0.652   1.800   5.224  0.0152  1.5750 -1.2498
 9222SOL    HW239129   0.728   1.871   5.315  0.3058 -0.6922  0.2492
 9223SOL     OW39130   1.849   0.060   6.560  0.5532  0.0770 -0.0162
 9223SOL    HW139131   1.868   0.148   6.592 -0.0278  0.5804 -1.0778
 9223SOL    HW239132   1.907   0.039   6.487 -0.8792  0.8440 -1.3721
 9224SOL     OW39133   0.129   2.006  10.942  0.5580 -0.1741  0.2002
 9224SOL    HW139134   0.173   1.978  11.022 -2.3290 -0.2556  1.7316
 9224SOL    HW239135   0.040   1.978  10.964  1.1510 -3.1458 -1.1035
 9225SOL     OW39136   2.368   4.066   8.432 -0.5854  0.6242  0.2637
 9225SOL    HW139137   2.421   4.132   8.477  2.0971 -1.2327 -0.1367
 9225SOL    HW239138   2.423   3.988   8.432 -3.4738 -1.3782  0.4622
 9226SOL     OW39139   0.121   3.332   0.328 -0.2346  0.4639 -0.7213
 9226SOL    HW139140   0.086   3.411   0.288 -1.8556 -1.1655 -2.5304
 9226SOL    HW239141   0.048   3.269   0.324  1.8579 -2.0185 -0.2004
 9227SOL     OW39142   1.596   4.056   6.866 -0.7175 -0.1374 -0.2833
 9227SOL    HW139143   1.612   4.087   6.778  2.6229  1.0710  0.7516
 9227SOL    HW239144   1.682   4.023   6.891 -0.9259 -0.5730 -0.1196
 9228SOL     OW39145   3.003   0.657   3.587  0.1554 -0.0712 -0.0113
 9228SOL    HW139146   2.942   0.710   3.536  0.7872 -2.3086 -3.0750
 9228SOL    HW239147   2.954   0.579   3.615  0.0060  0.5332  1.4088
 9229SOL     OW39148   0.726   1.602  11.758 -0.0970 -0.6394  0.1718
 9229SOL    HW139149   0.762   1.531  11.706 -2.0702 -0.3825 -1.5483
 9229SOL    HW239150   0.802   1.654  11.783 -0.9531  0.6386  0.1112
 9230SOL     OW39151   0.048   1.115   0.664 -0.9409 -0.3853  0.9663
 9230SOL    HW139152   0.025   1.203   0.634  0.8350 -0.5791 -0.9776
 9230SOL    HW239153   4.698   1.097   0.724 -2.6231 -1.9465 -1.5480
 9231SOL     OW39154   4.447   0.312  10.768 -0.6403 -0.2706  0.2325
 9231SOL    HW139155   4.448   0.293  10.862 -1.2398 -2.2069 -0.1408
 9231SOL    HW239156   4.516   0.255  10.735 -1.2770 -0.8483 -0.1107
 9232SOL     OW39157   4.276   1.719   8.870 -0.2926 -0.0960 -0.0875
 9232SOL    HW139158   4.359   1.725   8.824 -0.4085  2.1954 -0.0328
 9232SOL    HW239159   4.230   1.777   8.809 -0.2162  3.0225  2.7741
 9233SOL     OW39160   1.775   2.586   1.890  0.1684 -0.7145 -0.2390
 9233SOL    HW139161   1.856   2.536   1.888  0.9275  0.4388  1.7245
 9233SOL    HW239162   1.774   2.618   1.980  1.0474 -0.8754 -0.1744
 9234SOL     OW39163   1.045   1.921  15.296  0.4990  0.3508 -0.1208
 9234SOL    HW139164   1.025   1.872  15.376  2.6100  1.7929  1.3000
 9234SOL    HW239165   1.078   1.852  15.239  1.4854  1.5381 -0.9783
 9235SOL     OW39166   4.074   2.269  15.084  0.3754  0.3574 -0.0359
 9235SOL    HW139167   4.110   2.291  15.170  0.4062  1.1190 -0.2402
 9235SOL    HW239168   4.150   2.263  15.026 -0.3076 -2.8731 -0.5751
 9236SOL     OW39169   0.993   4.091  11.203 -0.2324 -0.1792  0.4541
 9236SOL    HW139170   0.931   4.029  11.164 -0.5134  0.0262  0.5704
 9236SOL    HW239171   1.056   4.090  11.130 -1.9609 -0.8875 -1.0334
 9237SOL     OW39172   4.336   1.741   5.469 -0.3048  0.2874 -0.2550
 9237SOL    HW139173   4.392   1.816   5.451  0.4664 -0.3559 -0.4969
 9237SOL    HW239174   4.317   1.747   5.563 -0.4522  1.4512 -0.3564
 9238SOL     OW39175   2.277   3.406   6.293 -0.3281 -0.3511  0.0994
 9238SOL    HW139176   2.231   3.326   6.318  0.8820 -0.7816  0.9468
 9238SOL    HW239177   2.292   3.372   6.206  1.0223 -0.3561  0.3444
 9239SOL     OW39178   1.432   3.752   0.368  0.2786 -0.6875  0.4473
 9239SOL    HW139179   1.369   3.825   0.365  0.3510 -0.6315  0.2228
 9239SOL    HW239180   1.514   3.795   0.342  0.4261 -0.6069  1.0548
 9240SOL     OW39181   2.832   1.150   0.803  0.2775  0.5341 -0.5509
 9240SOL    HW139182   2.837   1.163   0.898  2.6267  2.8031 -1.0132
 9240SOL    HW239183   2.855   1.240   0.782  1.0014  0.4822  0.0152
 9241SOL     OW39184   1.624   1.950   6.767  0.2380 -0.1817  0.4546
 9241SOL    HW139185   1.574   1.939   6.848 -1.6628  0.3651 -0.6339
 9241SOL    HW239186   1.711   1.915   6.783  0.3637  0.1692  0.5426
 9242SOL     OW39187   2.800   1.884   4.770 -0.0064 -0.1549  0.0162
 9242SOL    HW139188   2.835   1.803   4.733 -1.4352 -0.2284 -1.1267
 9242SOL    HW239189   2.708   1.887   4.746 -0.6235 -0.6864  2.2768
 9243SOL     OW39190   4.638   0.364   3.235 -0.1898  0.0942  0.2488
 9243SOL    HW139191   4.684   0.408   3.306 -0.5908  0.5671  0.2127
 9243SOL    HW239192   4.719   0.338   3.190 -0.2192 -2.2463  1.5458
 9244SOL     OW39193   3.718   4.255   2.317  0.0326  0.1693 -0.0617
 9244SOL    HW139194   3.637   4.205   2.323 -0.0188 -0.0281 -2.2612
 9244SOL    HW239195   3.690   4.333   2.365  1.3912  0.3750  0.3927
 9245SOL     OW39196   1.879   4.425   7.877 -0.1107  0.0103  0.3242
 9245SOL    HW139197   1.938   4.483   7.926 -1.5199  3.0150 -1.5791
 9245SOL    HW239198   1.931   4.345   7.879  0.7581  0.5803  0.5755
 9246SOL     OW39199   3.690   4.522   1.650  0.2911  0.2258  0.2256
 9246SOL    HW139200   3.781   4.493   1.654 -0.2352 -1.4427  0.0744
 9246SOL    HW239201   3.642   4.443   1.625  0.0826  0.9191 -1.5475
 9247SOL     OW39202   4.224   1.738   1.472  0.2509 -0.7135 -0.0241
 9247SOL    HW139203   4.152   1.707   1.417  0.2454  0.0119 -0.4291
 9247SOL    HW239204   4.197   1.697   1.555 -0.9764  1.6462  0.7492
 9248SOL     OW39205   1.004   0.667   8.556  0.0839  0.1712  0.1757
 9248SOL    HW139206   1.001   0.589   8.501  0.8726  0.2091  0.0779
 9248SOL    HW239207   1.022   0.733   8.488  0.1493 -0.7027 -0.6570
 9249SOL     OW39208   2.402   1.852   6.550 -0.3319 -0.0114 -0.1815
 9249SOL    HW139209   2.390   1.757   6.553  0.6611 -0.1588 -1.2347
 9249SOL    HW239210   2.430   1.866   6.460  0.3028 -0.0149  0.0146
 9250SOL     OW39211   3.417   4.510   8.092  0.3984  0.6220  0.0781
 9250SOL    HW139212   3.463   4.594   8.088 -2.5595  2.3498  1.6611
 9250SOL    HW239213   3.463   4.466   8.163 -0.6330  2.0826  1.6501
 9251SOL     OW39214   4.523   2.640  16.939  0.7708  0.5927 -0.2712
 9251SOL    HW139215   4.572   2.638  17.021 -0.5271  2.1597  0.5444
 9251SOL    HW239216   4.438   2.601  16.957  0.5072  1.1551 -0.2927
 9252SOL     OW39217   0.527   0.359   7.483  0.2361 -0.4238  0.2576
 9252SOL    HW139218   0.438   0.349   7.515 -0.9865 -0.3326 -3.1815
 9252SOL    HW239219   0.547   0.446   7.519 -0.4717  0.2970 -1.1191
 9253SOL     OW39220   3.873   2.221   1.424 -0.1654 -0.2024 -0.5616
 9253SOL    HW139221   3.821   2.300   1.440  2.1533  1.3121 -0.4003
 9253SOL    HW239222   3.894   2.230   1.331 -1.6192  1.1358 -0.7647
 9254SOL     OW39223   2.656   3.396  13.062 -0.5112  0.2688  0.1511
 9254SOL    HW139224   2.618   3.483  13.078  1.7740  1.3942 -0.6349
 9254SOL    HW239225   2.669   3.403  12.968 -0.7199 -1.1561  0.0225
 9255SOL     OW39226   3.602   2.101   3.744  0.2030 -0.3646 -0.3694
 9255SOL    HW139227   3.646   2.154   3.810  1.9092 -0.0239 -1.7615
 9255SOL    HW239228   3.576   2.034   3.806  1.0698 -1.4614 -1.1789
 9256SOL     OW39229   4.112   4.345   8.114  0.0225 -0.3514  0.3966
 9256SOL    HW139230   4.177   4.275   8.124 -0.9760 -1.3442 -0.0114
 9256SOL    HW239231   4.160   4.416   8.155 -0.3834  0.1971 -0.0820
 9257SOL     OW39232   4.124   1.240  10.262 -0.6333 -0.2957  0.6860
 9257SOL    HW139233   4.082   1.317  10.223 -0.1408 -0.9530 -1.1266
 9257SOL    HW239234   4.044   1.188  10.253 -0.9424  0.2389  0.3571
 9258SOL     OW39235   1.462   1.585   5.489  0.3075 -0.4874 -0.1113
 9258SOL    HW139236   1.417   1.608   5.571  0.2632 -3.1912  0.6153
 9258SOL    HW239237   1.402   1.530   5.438  0.3851 -0.7094  0.0373
 9259SOL     OW39238   2.033   2.722   1.301  0.0707  0.9224  0.4705
 9259SOL    HW139239   2.074   2.807   1.283 -1.2406  1.7475  1.4172
 9259SOL    HW239240   2.075   2.673   1.231 -0.9096 -0.9849  1.2206
 9260SOL     OW39241   2.142   0.612  11.620 -0.2494 -0.5141  0.2433
 9260SOL    HW139242   2.068   0.621  11.681 -0.1418 -2.7035  0.7079
 9260SOL    HW239243   2.184   0.698  11.610 -1.5330  0.2149  1.1369
 9261SOL     OW39244   2.301   1.900   4.507  0.0026  0.1577 -0.1457
 9261SOL    HW139245   2.360   1.965   4.469  1.4558 -2.0245 -1.6304
 9261SOL    HW239246   2.223   1.924   4.456  0.2650  1.0858 -0.1093
 9262SOL     OW39247   1.113   4.050   6.764  0.0812  0.0163  0.1922
 9262SOL    HW139248   1.200   4.011   6.758  0.0238  0.2949 -2.5241
 9262SOL    HW239249   1.131   4.144   6.777  0.5442 -0.0173 -0.1811
 9263SOL     OW39250   2.642   1.245   5.738 -0.2181 -0.3760  0.2442
 9263SOL    HW139251   2.697   1.313   5.700 -1.7173 -0.8137 -2.7238
 9263SOL    HW239252   2.693   1.195   5.802 -1.1317 -0.7046  0.7220
 9264SOL     OW39253   0.313   4.690   2.774  0.3027 -0.9161  0.0960
 9264SOL    HW139254   0.309   4.595   2.764  1.6770 -0.8521 -1.0836
 9264SOL    HW239255   0.406   4.710   2.780 -0.1038  1.0933 -0.3826
 9265SOL     OW39256   0.139   2.447   2.126  0.6242  0.6049  0.9001
 9265SOL    HW139257   0.117   2.435   2.034  2.0045  0.2705  0.6188
 9265SOL    HW239258   0.132   2.542   2.134  1.4048  0.6246  1.4410
 9266SOL     OW39259   0.822   1.274  14.655 -0.0501  0.5375  0.2091
 9266SOL    HW139260   0.871   1.248  14.733  0.3913  1.5782  0.2815
 9266SOL    HW239261   0.857   1.361  14.634 -2.2740  1.9886  2.5185
 9267SOL     OW39262   0.790   2.557   3.444  0.3674 -0.2379 -0.3719
 9267SOL    HW139263   0.740   2.637   3.429 -0.0302 -0.4737 -0.3324
 9267SOL    HW239264   0.816   2.572   3.535 -0.6073 -1.9857  0.2166
 9268SOL     OW39265   1.100   3.448   8.892 -0.4247 -0.0138  0.3776
 9268SOL    HW139266   1.022   3.476   8.846  0.8593  0.7191 -1.3710
 9268SOL    HW239267   1.068   3.367   8.931  0.6203 -0.2744  0.6951
 9269SOL     OW39268   1.051   0.671   7.872  0.5514 -0.5769  0.5828
 9269SOL    HW139269   1.086   0.582   7.880  2.4400  0.3139  2.0608
 9269SOL    HW239270   1.027   0.683   7.963 -1.1917  1.8208 -0.1921
 9270SOL     OW39271   3.162   0.470   4.039 -0.2217 -0.0249  0.3263
 9270SOL    HW139272   3.087   0.519   4.005 -0.3954 -0.7728 -0.3611
 9270SOL    HW239273   3.150   0.377   4.020 -1.0323  0.1428  0.0181
 9271SOL     OW39274   2.949   2.066  13.586 -0.3392  0.1085 -0.7942
 9271SOL    HW139275   2.916   2.130  13.524  0.7997  1.5313  0.0918
 9271SOL    HW239276   3.042   2.087  13.585 -0.0489 -1.3446 -4.1938
 9272SOL     OW39277   3.036   0.616   4.283  0.4878 -0.4609 -0.4440
 9272SOL    HW139278   2.954   0.567   4.288 -0.1620  0.7238  0.5301
 9272SOL    HW239279   3.085   0.555   4.227  2.8729 -0.3843  1.5669
 9273SOL     OW39280   1.112   4.596   2.158 -0.0321 -0.7513  0.0708
 9273SOL    HW139281   1.167   4.675   2.158 -0.6517 -0.3167 -0.3916
 9273SOL    HW239282   1.094   4.595   2.064  3.5234 -2.0483 -0.6149
 9274SOL     OW39283   3.422   1.160   2.744 -0.2428 -0.1080  0.1081
 9274SOL    HW139284   3.378   1.078   2.722 -1.2232  0.9181 -1.6683
 9274SOL    HW239285   3.456   1.192   2.660  0.5729 -1.7601 -0.2145
 9275SOL     OW39286   0.962   2.981   4.210  0.0180 -0.1790 -0.4600
 9275SOL    HW139287   0.937   3.072   4.201  5.7984  1.5991  1.4962
 9275SOL    HW239288   1.027   2.968   4.141  1.8396 -0.6507  1.3340
 9276SOL     OW39289   1.333   2.381   1.347  0.5234 -0.2123 -0.2180
 9276SOL    HW139290   1.255   2.387   1.403  1.1414  0.0824  0.6216
 9276SOL    HW239291   1.296   2.386   1.259  0.6289  0.7090 -0.2109
 9277SOL     OW39292   1.525   0.697  16.950 -0.7545  0.2084  0.1070
 9277SOL    HW139293   1.462   0.769  16.949  0.6397  1.4042 -1.0307
 9277SOL    HW239294   1.600   0.735  16.996 -0.5319  1.0545 -0.9563
 9278SOL     OW39295   3.997   2.131   0.260  0.5811 -0.0612 -0.2715
 9278SOL    HW139296   4.032   2.082   0.335 -0.4626  1.7647  1.3849
 9278SOL    HW239297   4.047   2.212   0.268 -0.0828  0.1325  2.0046
 9279SOL     OW39298   3.159   0.845   9.955  0.0806  0.1230 -0.4031
 9279SOL    HW139299   3.123   0.853   9.867  1.5249  5.0045 -0.5553
 9279SOL    HW239300   3.101   0.907   9.998  1.7085  0.5159  1.2426
 9280SOL     OW39301   4.614   3.615  13.235  0.1666 -0.5794  0.6060
 9280SOL    HW139302   4.687   3.674  13.256 -1.9524  1.6639  1.7003
 9280SOL    HW239303   4.602   3.632  13.141  1.3619  0.5356  0.6427
 9281SOL     OW39304   0.426   0.876  14.104  0.3477  0.0493  0.0930
 9281SOL    HW139305   0.364   0.862  14.033 -0.2236  1.5279  0.3007
 9281SOL    HW239306   0.372   0.846  14.176  0.4214  0.9348  0.5244
 9282SOL     OW39307   0.985   1.149   1.791 -0.8712  0.2990  0.6902
 9282SOL    HW139308   1.035   1.135   1.711 -3.9327  2.6481 -1.6076
 9282SOL    HW239309   0.942   1.231   1.768  1.0792  1.2028  0.2161
 9283SOL     OW39310   2.427   4.273  17.036 -0.1433 -0.3145 -0.1217
 9283SOL    HW139311   2.361   4.340  17.053  2.0240  1.7451  0.1738
 9283SOL    HW239312   2.456   4.274  17.128 -0.8488  2.0689  0.0804
 9284SOL     OW39313   4.675   2.631  14.973 -0.6122  0.1097  0.4540
 9284SOL    HW139314   4.717   2.548  14.993 -0.0743  0.2904  0.1071
 9284SOL    HW239315   0.010   2.660  14.902 -1.3967  3.2416  1.0906
 9285SOL     OW39316   1.828   3.152   7.862  0.0739 -0.4246  0.2249
 9285SOL    HW139317   1.738   3.182   7.878  0.1690  0.1011 -0.2465
 9285SOL    HW239318   1.814   3.149   7.768  0.0859  2.1441  0.1322
 9286SOL     OW39319   1.943   3.823   4.896 -0.4193 -0.5941 -0.2487
 9286SOL    HW139320   1.857   3.858   4.874  0.2926  0.2883 -1.5789
 9286SOL    HW239321   1.923   3.782   4.980  0.5740  3.0870  1.8105
 9287SOL     OW39322   1.855   0.624   6.133  0.0147  0.4915 -0.0168
 9287SOL    HW139323   1.788   0.604   6.198 -0.3862  0.0911 -0.5515
 9287SOL    HW239324   1.877   0.709   6.170  1.4005 -1.3940  3.5078
 9288SOL     OW39325   1.649   3.220   3.903 -0.3577  0.5953  0.0832
 9288SOL    HW139326   1.699   3.227   3.984 -1.8328  1.8500  0.8889
 9288SOL    HW239327   1.710   3.162   3.857 -0.4917  0.4327  0.1092
 9289SOL     OW39328   4.660   0.402   2.146 -0.2425  0.3113  0.0192
 9289SOL    HW139329   4.594   0.370   2.208 -3.0763  0.8890 -2.7444
 9289SOL    HW239330   4.603   0.410   2.070  0.7133 -1.0484 -0.8533
 9290SOL     OW39331   2.086   1.216   2.363  0.3378  0.1733  0.0905
 9290SOL    HW139332   1.998   1.217   2.400 -0.4424 -1.6901 -1.7526
 9290SOL    HW239333   2.074   1.174   2.278  0.2045 -2.3101  1.3552
 9291SOL     OW39334   2.386   1.611   6.305 -0.2568 -0.9168 -0.0731
 9291SOL    HW139335   2.346   1.570   6.382 -0.0442 -0.3954  0.3129
 9291SOL    HW239336   2.477   1.582   6.315  0.2691  0.4534 -0.9124
 9292SOL     OW39337   1.376   0.781   3.829  0.3542  0.2768  0.0978
 9292SOL    HW139338   1.467   0.783   3.860  0.5401 -3.1711 -0.1310
 9292SOL    HW239339   1.359   0.688   3.844 -1.9771  0.8165  0.6871
 9293SOL     OW39340   4.707   3.459  13.418 -0.5124  0.0797 -0.7111
 9293SOL    HW139341   4.643   3.504  13.362 -1.5166  0.1592  0.5145
 9293SOL    HW239342   4.682   3.368  13.408 -0.6296  0.1946 -1.4720
 9294SOL     OW39343   2.340   0.098   3.680  0.1278  0.1916 -0.4510
 9294SOL    HW139344   2.294   0.037   3.621  1.8692 -1.6592  0.0967
 9294SOL    HW239345   2.268   0.132   3.732 -0.4831  0.0022 -1.1729
 9295SOL     OW39346   3.050   2.852   9.538  0.2667 -0.1453 -0.1628
 9295SOL    HW139347   3.001   2.798   9.477 -0.3971  1.0789 -0.7080
 9295SOL    HW239348   3.052   2.936   9.493  0.5834 -1.1090 -1.9576
 9296SOL     OW39349   0.493   1.363   1.751  0.4923 -0.3806 -0.5119
 9296SOL    HW139350   0.558   1.433   1.744 -0.7149  0.8909  1.0510
 9296SOL    HW239351   0.423   1.400   1.698  0.8663  0.7348 -0.2233
 9297SOL     OW39352   2.278   2.059   3.794 -0.2734 -0.3417 -0.0975
 9297SOL    HW139353   2.187   2.038   3.817 -0.5688 -0.6948 -1.5874
 9297SOL    HW239354   2.292   2.003   3.718  0.2096 -2.6550  1.7153
 9298SOL     OW39355   1.688   3.379   3.540  0.0611 -0.0574  0.2466
 9298SOL    HW139356   1.662   3.471   3.534 -0.6936 -0.2685  0.1659
 9298SOL    HW239357   1.748   3.382   3.615 -2.3204  0.9265  2.1372
 9299SOL     OW39358   3.491   0.567  15.276 -0.0139 -0.3171  0.3168
 9299SOL    HW139359   3.432   0.639  15.299 -0.6068 -1.0566  1.1572
 9299SOL    HW239360   3.444   0.520  15.207  3.3032  1.1479 -2.9167
 9300SOL     OW39361   0.870   1.526  17.636 -0.4711  0.1170 -0.1408
 9300SOL    HW139362   0.841   1.598  17.580 -1.0224 -0.5062 -0.6545
 9300SOL    HW239363   0.947   1.568  17.675  0.0159 -0.5563 -0.3763
 9301SOL     OW39364   1.704   3.332   8.933 -0.1431  0.4853 -0.3100
 9301SOL    HW139365   1.678   3.242   8.914  2.6027 -0.1769 -0.8925
 9301SOL    HW239366   1.771   3.336   8.865  1.5341  0.1614  1.3488
 9302SOL     OW39367   1.715   1.180   3.006  0.2004 -0.1028  0.7275
 9302SOL    HW139368   1.642   1.222   2.961 -0.6337 -1.5878  0.7323
 9302SOL    HW239369   1.785   1.243   2.988 -1.3525  1.3207 -0.3414
 9303SOL     OW39370   2.545   3.205   3.963  0.2364 -0.6183 -0.5477
 9303SOL    HW139371   2.574   3.265   4.032 -1.7170  0.1682 -0.3883
 9303SOL    HW239372   2.519   3.270   3.898  1.3696 -2.5014 -2.8788
 9304SOL     OW39373   4.348   4.616  14.561 -0.2465  0.1773  0.2001
 9304SOL    HW139374   4.312   4.580  14.642  0.4164 -1.4301 -0.2178
 9304SOL    HW239375   4.439   4.624  14.588 -0.8903  3.2745  1.4218
 9305SOL     OW39376   3.134   2.065  15.798  0.1910  0.6692 -0.0308
 9305SOL    HW139377   3.122   2.159  15.807  0.3359  0.5904  1.0675
 9305SOL    HW239378   3.136   2.069  15.703 -1.4974 -3.2226 -0.2320
 9306SOL     OW39379   0.207   2.471   4.241  0.3813 -0.3016  0.3457
 9306SOL    HW139380   0.194   2.543   4.303 -0.9521  1.2181 -1.6669
 9306SOL    HW239381   0.151   2.403   4.276 -3.5398  1.9101 -1.6116
 9307SOL     OW39382   0.111   1.190  12.153  0.0313  0.1142 -0.6329
 9307SOL    HW139383   0.034   1.145  12.189 -0.5063  1.0654 -0.5913
 9307SOL    HW239384   0.183   1.140  12.192 -0.9886 -0.0139  1.1220
 9308SOL     OW39385   2.916   1.379   2.792  0.3179  0.1460 -0.0062
 9308SOL    HW139386   2.969   1.336   2.726  0.6665 -0.4215  0.6445
 9308SOL    HW239387   2.849   1.418   2.736 -1.2726 -0.0447  1.7614
 9309SOL     OW39388   0.675   1.559   1.777  0.0183  0.5741 -0.4070
 9309SOL    HW139389   0.635   1.627   1.722 -2.0062  0.0260  0.3772
 9309SOL    HW239390   0.642   1.584   1.863  1.0963  0.0127  0.1685
 9310SOL     OW39391   4.713   2.248  16.923 -0.0633  0.5132 -0.2413
 9310SOL    HW139392   4.648   2.285  16.983  1.0435  1.0328  0.6551
 9310SOL    HW239393   4.712   2.157  16.955 -0.6048  1.1268  1.4978
 9311SOL     OW39394   2.524   1.926  11.189 -0.1872 -0.6399  0.1737
 9311SOL    HW139395   2.561   1.875  11.117 -0.7445  0.6986 -1.0531
 9311SOL    HW239396   2.595   1.932  11.254  0.3867  0.8461 -0.5969
 9312SOL     OW39397   1.137   2.939   3.060  0.2423  0.4129  0.0643
 9312SOL    HW139398   1.126   2.881   2.985 -0.7144 -0.4618  0.8777
 9312SOL    HW239399   1.146   3.022   3.013 -0.9894  0.5443  0.0564
 9313SOL     OW39400   0.503   1.747   6.704 -0.2017  0.1901 -0.1684
 9313SOL    HW139401   0.558   1.824   6.690  1.0214 -0.6746 -0.1111
 9313SOL    HW239402   0.460   1.768   6.787 -1.8106 -4.0276  0.0563
 9314SOL     OW39403   2.886   3.864   2.760  0.2008  0.2627  0.2685
 9314SOL    HW139404   2.948   3.926   2.799  0.4931 -0.2751  0.6650
 9314SOL    HW239405   2.941   3.786   2.763 -0.1509 -0.0662 -1.8838
 9315SOL     OW39406   3.236   2.189   6.051 -0.2429 -0.3158  0.5255
 9315SOL    HW139407   3.294   2.134   6.105  1.7377  1.2230 -0.0199
 9315SOL    HW239408   3.297   2.259   6.027 -1.4377 -0.1960 -2.1568
 9316SOL     OW39409   1.975   3.731   7.374 -0.2587 -0.3916  0.1705
 9316SOL    HW139410   1.922   3.702   7.448 -0.3836 -2.5665 -0.7559
 9316SOL    HW239411   1.900   3.739   7.316  1.5346 -0.4102 -2.1745
 9317SOL     OW39412   3.899   3.840   0.958 -0.5956 -0.0548 -0.1287
 9317SOL    HW139413   3.938   3.850   1.045  0.6361  1.6707 -0.8763
 9317SOL    HW239414   3.966   3.786   0.918  1.0456  2.1757 -0.4031
 9318SOL     OW39415   0.545   0.085   2.348 -0.3994 -0.3036 -0.2576
 9318SOL    HW139416   0.591   0.016   2.299  3.0139  2.2708 -0.7227
 9318SOL    HW239417   0.613   0.107   2.412  0.8383 -0.0620 -1.6488
 9319SOL     OW39418   1.919   3.336   7.035 -0.3677  0.3960  0.6415
 9319SOL    HW139419   1.889   3.414   6.989 -1.2052  0.5575  1.4459
 9319SOL    HW239420   1.856   3.265   7.022  2.1725 -1.2152 -2.8562
 9320SOL     OW39421   1.450   4.673   2.114 -0.2144 -0.2601 -0.3665
 9320SOL    HW139422   1.471   0.044   2.113 -0.2145 -0.1887  4.9473
 9320SOL    HW239423   1.398   4.666   2.034  1.0828  0.4181 -1.2721
 9321SOL     OW39424   0.670   0.926   1.039 -0.0745 -0.2282  0.8891
 9321SOL    HW139425   0.666   1.016   1.008  1.2288 -0.6307 -0.4927
 9321SOL    HW239426   0.590   0.901   0.992 -0.1502  1.0299  0.3584
 9322SOL     OW39427   2.625   3.567   5.942 -0.6403 -0.3721  0.3711
 9322SOL    HW139428   2.551   3.628   5.936  0.2092  0.5380 -0.8923
 9322SOL    HW239429   2.664   3.580   5.855 -0.9238  2.2219  0.6170
 9323SOL     OW39430   2.320   0.957   3.240 -0.1892 -0.1718 -0.4247
 9323SOL    HW139431   2.305   1.022   3.307  0.9444 -1.3532  0.9747
 9323SOL    HW239432   2.241   0.956   3.187 -1.3969 -0.0905  1.3923
 9324SOL     OW39433   1.067   0.976  12.596  0.2127 -0.1117  0.4662
 9324SOL    HW139434   1.036   0.977  12.687  0.4878 -1.5202  0.5821
 9324SOL    HW239435   0.990   0.946  12.547  1.3112 -1.6243 -0.3451
 9325SOL     OW39436   1.231   0.703   5.594 -0.1431 -0.6050  0.3319
 9325SOL    HW139437   1.150   0.746   5.564  0.0076  0.2585  1.1496
 9325SOL    HW239438   1.295   0.724   5.527 -0.6525  1.3858  0.4435
 9326SOL     OW39439   1.219   0.111   0.594  0.2508  0.5354  0.7534
 9326SOL    HW139440   1.154   0.066   0.648  0.0059 -0.4232 -0.3308
 9326SOL    HW239441   1.277   0.038   0.569  0.5428 -0.5704  4.6832
 9327SOL     OW39442   0.835   3.332   0.408  0.1105 -0.0114  0.4148
 9327SOL    HW139443   0.809   3.307   0.496 -0.6162 -1.4872 -0.2189
 9327SOL    HW239444   0.869   3.420   0.425 -0.0949  0.1078  0.2230
 9328SOL     OW39445   1.753   0.169   6.174  0.0424 -0.7289 -0.3931
 9328SOL    HW139446   1.703   0.231   6.227  1.0657  1.0370 -1.4941
 9328SOL    HW239447   1.787   0.235   6.113  0.9436 -0.4322  0.4404
 9329SOL     OW39448   1.283   1.134   5.730  0.8448 -0.2415 -0.4564
 9329SOL    HW139449   1.226   1.065   5.765  1.4172  0.7440  2.3660
 9329SOL    HW239450   1.289   1.188   5.808 -0.0422 -2.4096  1.1187
 9330SOL     OW39451   3.214   4.085   6.569  0.3888  0.1885 -0.5021
 9330SOL    HW139452   3.153   4.015   6.545  0.2622 -0.5202  1.8271
 9330SOL    HW239453   3.282   4.022   6.591  0.2867  1.1697  2.6637
 9331SOL     OW39454   4.230   1.723   6.208 -0.3528 -0.0618 -0.0337
 9331SOL    HW139455   4.288   1.689   6.277  1.9027  2.7560 -0.5608
 9331SOL    HW239456   4.267   1.811   6.203 -1.5527  0.3583 -1.2479
 9332SOL     OW39457   2.893   0.685   3.129  0.2861 -0.4570  0.6228
 9332SOL    HW139458   2.846   0.691   3.212  0.7296  2.2831  0.6761
 9332SOL    HW239459   2.821   0.718   3.074  1.5895 -1.7171 -1.8289
 9333SOL     OW39460   4.558   4.518   9.793 -0.0337  0.0110 -0.2662
 9333SOL    HW139461   4.625   4.450   9.793 -0.4436 -0.3908  0.5878
 9333SOL    HW239462   4.518   4.499   9.708 -1.0681  1.1506 -0.0346
 9334SOL     OW39463   2.074   3.296   3.215  0.2669  0.2130 -0.6371
 9334SOL    HW139464   2.165   3.308   3.242  0.5542 -1.3525 -0.9111
 9334SOL    HW239465   2.040   3.385   3.209  0.7330  0.3177 -1.6731
 9335SOL     OW39466   3.024   3.379   9.017  0.1276 -0.5147  0.2628
 9335SOL    HW139467   3.013   3.390   9.112  1.5640  1.3279  0.2045
 9335SOL    HW239468   2.954   3.436   8.986 -0.5944 -1.4981  0.1000
 9336SOL     OW39469   4.266   2.395   8.599  0.3860  0.2537 -0.1986
 9336SOL    HW139470   4.352   2.371   8.633  0.5961  0.8440 -0.3088
 9336SOL    HW239471   4.285   2.460   8.532 -1.1890  0.7854 -0.1288
 9337SOL     OW39472   0.055   2.002  12.458  0.4603  0.5599 -0.4021
 9337SOL    HW139473   0.003   1.953  12.522 -0.8455  2.5354  0.0226
 9337SOL    HW239474   0.137   2.020  12.503 -0.4968  2.1310  0.7009
 9338SOL     OW39475   0.976   0.952   9.533 -0.7652  0.1779 -0.2649
 9338SOL    HW139476   1.055   0.943   9.586 -0.2485  0.2091 -1.0255
 9338SOL    HW239477   0.910   0.897   9.575  1.7581 -0.5372  2.7566
 9339SOL     OW39478   1.554   3.235   7.865  0.1465  0.2248  0.5811
 9339SOL    HW139479   1.461   3.210   7.865  0.4669 -0.9771 -1.5273
 9339SOL    HW239480   1.544   3.321   7.905  0.3196  0.0211  1.0554
 9340SOL     OW39481   4.551   2.849   2.030 -0.2385  0.4432 -0.2382
 9340SOL    HW139482   4.494   2.853   2.107 -2.2466 -0.6808 -1.6559
 9340SOL    HW239483   4.575   2.941   2.025  1.7474  0.0286  1.4616
 9341SOL     OW39484   3.032   2.396   2.538 -0.3780 -0.4837  0.0819
 9341SOL    HW139485   3.072   2.315   2.505  1.0261 -0.1078  0.8792
 9341SOL    HW239486   3.008   2.382   2.629 -1.4434 -0.3713 -0.1876
 9342SOL     OW39487   4.278   1.513   7.256  0.3760  0.0565  0.0404
 9342SOL    HW139488   4.308   1.429   7.223  1.3575  0.5120 -0.2150
 9342SOL    HW239489   4.192   1.481   7.284  0.4846 -0.9779 -0.7880
 9343SOL     OW39490   2.603   3.237   8.673 -0.5029 -0.5809 -0.1513
 9343SOL    HW139491   2.654   3.248   8.753  1.8419 -1.8211 -1.4579
 9343SOL    HW239492   2.527   3.293   8.687  0.6951  1.1217 -0.4286
 9344SOL     OW39493   0.957   4.580   3.930 -0.0358 -0.2698 -0.2888
 9344SOL    HW139494   0.901   4.657   3.931 -1.2858 -1.1886  1.9376
 9344SOL    HW239495   1.038   4.626   3.908  0.5817 -0.0728  2.4246
 9345SOL     OW39496   0.054   0.013   4.432 -0.0945  0.4177 -0.1007
 9345SOL    HW139497   0.141   0.019   4.392  0.3719 -2.2478  0.4882
 9345SOL    HW239498   0.004   0.072   4.376 -2.0220 -2.2595 -1.1931
 9346SOL     OW39499   4.415   3.583   1.649 -0.2855  0.0210  0.8671
 9346SOL    HW139500   4.480   3.611   1.714  2.3335 -0.1653 -1.6182
 9346SOL    HW239501   4.465   3.521   1.595 -2.4371 -0.7511 -0.2244
 9347SOL     OW39502   3.613   3.761   8.892  0.3453 -0.0998 -0.5807
 9347SOL    HW139503   3.524   3.788   8.871  1.1541  1.4853 -1.9574
 9347SOL    HW239504   3.653   3.835   8.937 -2.1595  0.9947 -0.1702
 9348SOL     OW39505   1.167   0.247   7.419  0.0982  0.1306  0.1583
 9348SOL    HW139506   1.161   0.205   7.333  1.2501  0.9627 -0.3319
 9348SOL    HW239507   1.121   0.193   7.483  1.0398  1.6094  2.1160
 9349SOL     OW39508   0.284   3.543   1.470 -0.8964 -0.2453  0.1387
 9349SOL    HW139509   0.316   3.563   1.383 -0.2115  2.6839  1.0599
 9349SOL    HW239510   0.239   3.459   1.458 -1.2142 -0.0007 -0.4091
 9350SOL     OW39511   1.669   2.491   3.529 -0.1547 -0.3251 -0.5843
 9350SOL    HW139512   1.764   2.484   3.519 -0.1973 -0.6706 -0.7680
 9350SOL    HW239513   1.660   2.399   3.501 -1.7890  0.0508 -1.3025
 9351SOL     OW39514   2.251   4.325   0.467  0.5052 -0.4980  0.5371
 9351SOL    HW139515   2.258   4.329   0.562  0.7039 -0.4800  0.5213
 9351SOL    HW239516   2.268   4.232   0.450 -1.4728 -0.7192 -0.2173
 9352SOL     OW39517   0.481   0.805  15.488 -0.6502 -0.0851  0.4518
 9352SOL    HW139518   0.495   0.729  15.433  1.4584  1.3156 -0.9400
 9352SOL    HW239519   0.514   0.775  15.573  0.5473  0.7449  0.2715
 9353SOL     OW39520   1.781   3.667  14.404  0.0737 -0.3902  0.2520
 9353SOL    HW139521   1.746   3.597  14.348 -0.2527 -1.7811  2.1747
 9353SOL    HW239522   1.795   3.623  14.488 -0.2966  0.9305  1.0037
 9354SOL     OW39523   2.550   4.123   9.379 -0.2308 -0.3191  0.2868
 9354SOL    HW139524   2.621   4.059   9.366  1.0839  1.2102 -0.1102
 9354SOL    HW239525   2.472   4.070   9.364 -0.4459  0.4974 -1.4141
 9355SOL     OW39526   2.820   2.415   6.409  0.1061  0.1601 -0.4194
 9355SOL    HW139527   2.779   2.407   6.323 -3.4212  0.7845  1.2167
 9355SOL    HW239528   2.750   2.466   6.449 -0.4680 -0.1719 -0.9817
 9356SOL     OW39529   0.211   4.243  10.197 -0.3219 -0.6540 -0.2709
 9356SOL    HW139530   0.151   4.284  10.259 -1.2929 -0.7771 -1.1443
 9356SOL    HW239531   0.296   4.249  10.240 -1.1701 -0.6180  1.3828
 9357SOL     OW39532   3.505   0.723   8.248 -0.2552  0.2750  0.6168
 9357SOL    HW139533   3.454   0.804   8.244  0.2405  0.5354 -0.2705
 9357SOL    HW239534   3.539   0.720   8.338  1.7386  0.8255 -0.1328
 9358SOL     OW39535   1.953   0.912   5.242  0.7185  0.2016 -0.0601
 9358SOL    HW139536   1.943   1.003   5.214 -0.2504  0.6222  1.6927
 9358SOL    HW239537   1.863   0.896   5.272  0.6610 -2.9970 -1.9505
 9359SOL     OW39538   3.160   1.477   4.901  0.2817  0.3137 -0.0051
 9359SOL    HW139539   3.201   1.516   4.978 -0.4721 -0.7032  0.9092
 9359SOL    HW239540   3.163   1.538   4.827  2.7723 -0.8395 -0.8435
 9360SOL     OW39541   0.726   2.167  12.392  0.7367 -0.3062 -0.0707
 9360SOL    HW139542   0.704   2.075  12.409  2.3514 -0.7541 -0.4482
 9360SOL    HW239543   0.812   2.162  12.350  1.2127 -0.1287  0.8816
 9361SOL     OW39544   1.451   2.299   5.312  0.0084 -0.4613 -0.0671
 9361SOL    HW139545   1.444   2.368   5.378 -2.1055  0.7222 -1.5371
 9361SOL    HW239546   1.378   2.240   5.332  0.8687 -1.3213  0.5577
 9362SOL     OW39547   2.018   0.201   7.094 -0.6455 -0.7427 -0.2759
 9362SOL    HW139548   1.943   0.156   7.133  1.1095 -2.2210  1.3759
 9362SOL    HW239549   2.078   0.221   7.165  1.2899 -2.0361 -1.5552
 9363SOL     OW39550   0.674   1.507  14.481 -0.4267  0.0085 -0.1559
 9363SOL    HW139551   0.638   1.428  14.440 -0.5103 -0.3615  0.6419
 9363SOL    HW239552   0.646   1.493  14.571 -0.6303  0.1631 -0.1948
 9364SOL     OW39553   0.872   1.927   7.339 -0.3042 -0.1826 -0.3594
 9364SOL    HW139554   0.806   1.888   7.281  0.6936 -3.4864  0.7412
 9364SOL    HW239555   0.848   1.896   7.426 -0.4960 -0.7117 -0.5974
 9365SOL     OW39556   4.365   0.013   4.586 -0.1263  0.3157 -0.3249
 9365SOL    HW139557   4.340   0.005   4.678 -1.7111 -1.4743 -0.9134
 9365SOL    HW239558   4.283   4.716   4.541 -0.0351  0.1164 -0.4047
 9366SOL     OW39559   2.020   1.242  11.129 -0.2811  0.3394  0.1338
 9366SOL    HW139560   1.958   1.235  11.202 -0.8126 -0.8940 -0.4563
 9366SOL    HW239561   2.070   1.316  11.165 -3.1782  2.4582 -0.1963
 9367SOL     OW39562   2.113   1.741   7.697 -0.5441 -0.0255 -0.5311
 9367SOL    HW139563   2.121   1.827   7.738 -1.6937  0.6892 -1.8127
 9367SOL    HW239564   2.107   1.684   7.774 -0.4169  2.9053  1.6655
 9368SOL     OW39565   1.329   3.965   4.210 -0.0158 -0.4411 -0.1099
 9368SOL    HW139566   1.407   3.914   4.227  0.7022  0.1478 -1.6802
 9368SOL    HW239567   1.334   4.051   4.252  1.2368 -0.3423 -0.4736
 9369SOL     OW39568   0.028   3.133   7.752 -0.3655 -0.1714  0.3906
 9369SOL    HW139569   0.003   3.062   7.812 -0.0779  0.8480  1.7257
 9369SOL    HW239570   0.064   3.200   7.810 -0.5028  0.7542 -0.6223
 9370SOL     OW39571   2.801   4.581   3.272 -0.2090  0.4216 -0.2515
 9370SOL    HW139572   2.731   4.606   3.212 -2.4061 -0.5142  1.9110
 9370SOL    HW239573   2.763   4.586   3.359 -0.1489  1.6810 -0.3048
 9371SOL     OW39574   4.439   3.465   3.668  0.1548 -0.4638 -0.5274
 9371SOL    HW139575   4.530   3.473   3.699 -0.1350  2.3891 -0.3758
 9371SOL    HW239576   4.417   3.538   3.610  0.9127  0.6526  0.5831
 9372SOL     OW39577   1.571   3.213   1.178 -0.4707  0.0372 -0.5496
 9372SOL    HW139578   1.477   3.214   1.192 -0.6158  0.8318 -1.5606
 9372SOL    HW239579   1.582   3.270   1.101 -2.6730 -0.3924 -1.1704
 9373SOL     OW39580   0.025   1.680  17.165  0.3642  0.1163  0.0613
 9373SOL    HW139581   0.068   1.758  17.201  3.1634 -0.4091 -2.1149
 9373SOL    HW239582   4.655   1.701  17.153  0.0781 -0.5199  1.2078
 9374SOL     OW39583   2.555   1.141   6.944  0.4557 -0.4436  0.3044
 9374SOL    HW139584   2.495   1.215   6.958 -0.5560 -0.9073 -1.5125
 9374SOL    HW239585   2.514   1.107   6.864  1.6841  0.5571 -0.7634
 9375SOL     OW39586   2.027   3.565   6.462 -0.4501 -0.1669 -0.1883
 9375SOL    HW139587   1.978   3.505   6.406 -0.3705  0.1629 -0.6129
 9375SOL    HW239588   1.982   3.649   6.457 -1.3367 -0.8877 -3.8901
 9376SOL     OW39589   0.720   0.372   4.839 -0.2366  0.4885 -0.4976
 9376SOL    HW139590   0.715   0.379   4.935 -0.7942  2.1393 -0.6549
 9376SOL    HW239591   0.803   0.329   4.822 -0.8835 -1.4109  1.0556
 9377SOL     OW39592   2.171   1.873   3.360 -0.1662  0.1755  0.6613
 9377SOL    HW139593   2.193   1.804   3.297 -1.8535 -0.4789  0.7799
 9377SOL    HW239594   2.232   1.936   3.322  1.2785 -0.6967  1.5464
 9378SOL     OW39595   3.528   1.809  12.673 -0.3519 -0.2275 -0.5133
 9378SOL    HW139596   3.476   1.751  12.730  0.0593  0.3392  0.4326
 9378SOL    HW239597   3.470   1.815  12.596 -1.3641  2.0077  0.4446
 9379SOL     OW39598   3.389   4.303   8.869  0.4860 -0.1640 -0.0175
 9379SOL    HW139599   3.349   4.389   8.883 -1.5549 -1.0201 -0.5737
 9379SOL    HW239600   3.471   4.313   8.821 -0.4628  0.2885 -1.5537
 9380SOL     OW39601   0.731   3.277   4.649  0.0835 -0.2382  0.0988
 9380SOL    HW139602   0.755   3.358   4.604 -1.8620 -0.0477 -0.5782
 9380SOL    HW239603   0.754   3.210   4.585  1.5628  1.1119 -0.7819
 9381SOL     OW39604   3.388   1.907  10.017  0.2315 -0.3025 -0.0793
 9381SOL    HW139605   3.386   1.874  10.107 -0.1690  1.2162  0.4717
 9381SOL    HW239606   3.469   1.957  10.012  0.3913 -0.6354 -0.8250
 9382SOL     OW39607   3.059   3.524   1.718  0.1302  0.5065 -0.3735
 9382SOL    HW139608   2.966   3.508   1.701  0.8681 -2.0329 -2.1044
 9382SOL    HW239609   3.101   3.438   1.716  0.1179  0.5073 -0.6784
 9383SOL     OW39610   2.319   3.079  13.677 -0.1668 -0.1495 -0.1182
 9383SOL    HW139611   2.274   3.153  13.716  0.6651 -1.0413  2.5776
 9383SOL    HW239612   2.299   3.008  13.738 -0.2064  1.2191  1.4568
 9384SOL     OW39613   1.643   0.508   2.604  0.3573 -0.0530  0.2751
 9384SOL    HW139614   1.551   0.532   2.604  0.6677  1.1923 -1.5028
 9384SOL    HW239615   1.687   0.592   2.590  0.7057 -0.4329 -0.9719
 9385SOL     OW39616   0.519   0.208  15.285  0.2558  0.1948  0.5679
 9385SOL    HW139617   0.506   0.168  15.371 -0.2601 -1.0845 -0.1023
 9385SOL    HW239618   0.456   0.159  15.232  0.0641  2.0908 -0.9319
 9386SOL     OW39619   0.764   2.279  10.620  0.7170  0.2066  0.3851
 9386SOL    HW139620   0.720   2.352  10.576  0.2443  0.3262  1.0593
 9386SOL    HW239621   0.688   2.221  10.633  0.0321  1.5043  2.0596
 9387SOL     OW39622   1.383   1.124   3.618 -0.4341  0.0652 -0.1622
 9387SOL    HW139623   1.347   1.040   3.648 -2.0372  0.9124  0.2711
 9387SOL    HW239624   1.330   1.148   3.543 -0.3298 -0.5517 -0.4341
 9388SOL     OW39625   2.973   4.560   4.852  0.2446  0.0189 -0.6142
 9388SOL    HW139626   2.908   4.531   4.916 -1.6838  2.1277 -1.5996
 9388SOL    HW239627   2.971   4.654   4.867 -3.1963 -0.0795 -0.5518
 9389SOL     OW39628   4.466   3.008  16.937  0.2579 -0.3188 -0.2720
 9389SOL    HW139629   4.457   3.099  16.909 -0.3730  0.7698  3.5219
 9389SOL    HW239630   4.382   2.969  16.914  0.7207 -1.6645  0.3486
 9390SOL     OW39631   4.648   4.247  13.646  0.2190  0.4911 -0.2784
 9390SOL    HW139632   0.010   4.242  13.601 -0.5344  1.7447 -1.8272
 9390SOL    HW239633   4.629   4.340  13.639 -0.7859  0.2431 -0.8684
 9391SOL     OW39634   4.504   4.630   5.445 -0.3508 -0.0163  0.6947
 9391SOL    HW139635   4.521   4.551   5.394  0.2425  1.3343 -1.1730
 9391SOL    HW239636   4.474   4.696   5.383 -0.1497 -1.3260 -0.8001
 9392SOL     OW39637   3.615   3.890   7.844  0.3830  0.0631  0.6142
 9392SOL    HW139638   3.556   3.962   7.869  0.1373  0.2360 -0.4311
 9392SOL    HW239639   3.655   3.869   7.928 -0.0698 -0.5693  0.6700
 9393SOL     OW39640   0.693   3.564   7.828  0.0221 -0.4717 -0.4561
 9393SOL    HW139641   0.693   3.653   7.862 -2.7035 -0.8697  0.6105
 9393SOL    HW239642   0.687   3.512   7.909 -0.5841  0.0818 -0.1453
 9394SOL     OW39643   3.044   1.662   6.712 -0.0897 -0.2051 -0.6818
 9394SOL    HW139644   3.106   1.672   6.640  2.2502 -1.4250  1.1941
 9394SOL    HW239645   3.099   1.643   6.787 -0.4755  1.2172 -0.0377
 9395SOL     OW39646   4.485   2.194   7.332  0.5952  0.0328 -0.2569
 9395SOL    HW139647   4.540   2.179   7.409 -0.7059  1.2629  0.9028
 9395SOL    HW239648   4.520   2.282   7.317 -0.0035 -0.3636 -3.9877
 9396SOL     OW39649   0.473   0.770   2.192  0.3511 -0.1109 -0.1397
 9396SOL    HW139650   0.561   0.796   2.165 -0.4003  0.5386 -1.9215
 9396SOL    HW239651   0.469   0.690   2.140 -0.4439 -0.4723  0.4761
 9397SOL     OW39652   1.702   0.100   8.268  0.4140  0.2895 -0.3189
 9397SOL    HW139653   1.778   0.055   8.304 -0.7060 -1.2582  0.1077
 9397SOL    HW239654   1.733   0.118   8.179 -0.9913 -1.3095 -1.1356
 9398SOL     OW39655   3.530   1.551   8.138  0.1582  0.1848  0.2941
 9398SOL    HW139656   3.580   1.568   8.058 -0.4738  0.7701  0.0201
 9398SOL    HW239657   3.448   1.592   8.109 -0.3663  0.4679  2.1578
 9399SOL     OW39658   1.645   1.323   5.085  0.3854  0.5268 -0.3454
 9399SOL    HW139659   1.620   1.235   5.058 -1.1998  1.1392 -0.8782
 9399SOL    HW239660   1.605   1.323   5.173 -1.7950 -0.1374 -1.3261
 9400SOL     OW39661   1.394   4.546   8.816 -0.5398 -0.3445 -0.2333
 9400SOL    HW139662   1.313   4.500   8.835  1.0908 -1.7179  3.2928
 9400SOL    HW239663   1.350   4.626   8.788 -0.7746 -0.0194  1.0940
 9401SOL     OW39664   1.418   1.683  11.767  0.4756  0.2753 -0.3063
 9401SOL    HW139665   1.478   1.612  11.746  2.9904  2.3319 -0.0829
 9401SOL    HW239666   1.406   1.725  11.682 -2.7226 -0.7537 -0.3746
 9402SOL     OW39667   1.450   3.031   3.422  0.2187 -0.4140  0.1786
 9402SOL    HW139668   1.510   3.029   3.348 -2.9584  1.0756 -2.4518
 9402SOL    HW239669   1.380   2.975   3.388 -1.8108  2.7044 -0.7900
 9403SOL     OW39670   2.410   4.160  15.738  0.0844 -0.1640  0.1107
 9403SOL    HW139671   2.453   4.145  15.654 -0.0855 -0.4904  0.0779
 9403SOL    HW239672   2.405   4.255  15.742 -0.6074 -0.1946  0.0161
 9404SOL     OW39673   4.296   1.192   4.077 -0.2725 -0.3714  0.2811
 9404SOL    HW139674   4.291   1.119   4.139  0.4765  0.7403  1.6553
 9404SOL    HW239675   4.227   1.166   4.016 -0.4233  1.0802 -0.1743
 9405SOL     OW39676   1.710   0.602  12.277 -0.3830  0.0672  0.1529
 9405SOL    HW139677   1.680   0.692  12.285 -1.1224 -0.1168 -0.5274
 9405SOL    HW239678   1.794   0.609  12.321 -0.6758  0.0902  0.7150
 9406SOL     OW39679   1.827   0.833  15.920 -0.0151  0.6112 -1.3251
 9406SOL    HW139680   1.911   0.853  15.959 -0.9712  0.9095  0.5911
 9406SOL    HW239681   1.785   0.765  15.972  1.0479  0.4401 -0.7060
 9407SOL     OW39682   3.014   2.801  10.501  0.5388  0.2037  0.1522
 9407SOL    HW139683   2.965   2.883  10.509  1.6602  0.7685  1.1803
 9407SOL    HW239684   3.104   2.832  10.506  1.1735 -1.5125 -0.9867
 9408SOL     OW39685   4.444   3.284   4.740 -0.0440 -0.3028  0.4030
 9408SOL    HW139686   4.421   3.279   4.832 -1.1050 -1.9418  0.0399
 9408SOL    HW239687   4.428   3.377   4.722  0.7642 -0.2137  0.1012
 9409SOL     OW39688   4.222   2.647   7.525 -0.3884 -0.6192 -0.2852
 9409SOL    HW139689   4.221   2.551   7.526 -1.6139 -0.6023 -0.3788
 9409SOL    HW239690   4.231   2.676   7.616  0.4073  0.7264 -0.7977
 9410SOL     OW39691   2.563   1.507   8.440  0.3128  0.1393  0.0173
 9410SOL    HW139692   2.589   1.422   8.405 -0.5956 -0.6071  1.1775
 9410SOL    HW239693   2.522   1.554   8.368 -0.3243  0.4051  0.5509
 9411SOL     OW39694   0.620   2.469   7.703 -0.2561  0.1996  0.1425
 9411SOL    HW139695   0.572   2.551   7.711  1.9070  1.3324  1.5117
 9411SOL    HW239696   0.564   2.422   7.641 -0.0476 -1.1375  0.9750
 9412SOL     OW39697   3.520   4.307  17.440 -0.0898  0.3062  0.0148
 9412SOL    HW139698   3.576   4.355  17.501 -1.8486 -2.1840  3.6429
 9412SOL    HW239699   3.437   4.352  17.456 -0.3084 -0.8079  2.0625
 9413SOL     OW39700   3.835   3.539  13.771  0.1763  0.1381 -0.1582
 9413SOL    HW139701   3.808   3.589  13.848  1.3405  0.0887  0.2835
 9413SOL    HW239702   3.757   3.499  13.732  0.4900 -1.3046  0.6605
 9414SOL     OW39703   4.329   2.919   4.946  0.4801 -0.2976 -0.4352
 9414SOL    HW139704   4.256   2.927   5.007  0.6768 -0.8387 -0.1366
 9414SOL    HW239705   4.401   2.944   5.004 -1.1561 -1.4675  2.0914
 9415SOL     OW39706   2.081   0.498  16.620  0.3609  0.0342 -0.3301
 9415SOL    HW139707   2.164   0.504  16.668  0.2452  1.5645 -0.3260
 9415SOL    HW239708   2.037   0.579  16.645  2.9293  0.7533  1.8939
 9416SOL     OW39709   0.791   1.806   4.482  0.0079  0.0047  0.6117
 9416SOL    HW139710   0.717   1.770   4.433  0.1948  1.8029 -0.9772
 9416SOL    HW239711   0.800   1.896   4.451  0.9908 -0.5423 -0.6968
 9417SOL     OW39712   0.435   0.024   8.920 -0.4459 -0.1239  0.0612
 9417SOL    HW139713   0.513   0.065   8.882 -1.3184  0.2718 -1.2917
 9417SOL    HW239714   0.438   4.656   8.889  1.6401 -0.3184  0.7792
 9418SOL     OW39715   0.832   2.756   1.106  0.5505 -0.7746 -0.2245
 9418SOL    HW139716   0.869   2.826   1.054  1.7194 -0.7996  0.5659
 9418SOL    HW239717   0.909   2.715   1.145  0.9906  0.9674  0.7122
 9419SOL     OW39718   1.368   3.984   7.864  0.1293 -0.8453  0.2162
 9419SOL    HW139719   1.341   4.070   7.832  0.0862  0.0033  2.5895
 9419SOL    HW239720   1.285   3.942   7.885  0.1237 -0.4792  0.9102
 9420SOL     OW39721   0.757   2.456  13.158 -1.3986  0.7346  0.0149
 9420SOL    HW139722   0.811   2.529  13.128 -0.4507  0.7310  1.7257
 9420SOL    HW239723   0.691   2.505  13.206 -2.1197 -0.6319  0.4226
 9421SOL     OW39724   3.024   2.395  10.370 -0.3488  0.1911 -0.4638
 9421SOL    HW139725   2.996   2.396  10.278 -1.4169  0.9964 -0.1233
 9421SOL    HW239726   3.117   2.417  10.365 -0.8918  2.5118 -0.1858
 9422SOL     OW39727   4.565   1.226   4.085 -0.1739 -0.2118  0.9698
 9422SOL    HW139728   4.601   1.202   3.999 -0.2808 -0.1229  0.9010
 9422SOL    HW239729   4.471   1.222   4.069 -0.3010  1.3876  1.2787
 9423SOL     OW39730   2.700   4.650  17.528 -0.2165  0.6949  0.0484
 9423SOL    HW139731   2.793   4.664  17.510 -0.0404 -0.6621 -0.0541
 9423SOL    HW239732   2.677   0.020  17.526  0.1019  0.8008  1.3350
 9424SOL     OW39733   0.765   4.095   9.389 -0.3961 -0.0878 -0.5924
 9424SOL    HW139734   0.855   4.118   9.412 -0.1700 -0.1496 -1.4174
 9424SOL    HW239735   0.728   4.052   9.466  0.2531 -1.7470 -1.2058
 9425SOL     OW39736   3.912   4.634   5.007 -0.6924 -0.1424 -0.5514
 9425SOL    HW139737   3.839   4.652   5.066  1.2840  0.3277  1.7179
 9425SOL    HW239738   3.895   4.540   5.000  2.3700 -0.7179 -0.2765
 9426SOL     OW39739   0.829   1.691   3.404  0.3131 -0.6737 -0.0366
 9426SOL    HW139740   0.756   1.630   3.403 -1.4714  1.4496  0.7051
 9426SOL    HW239741   0.910   1.646   3.379  1.2960 -0.0451  1.9816
 9427SOL     OW39742   0.194   0.694   5.258  0.0558  0.1425  0.3548
 9427SOL    HW139743   0.197   0.634   5.183 -2.3763 -0.8924  1.0734
 9427SOL    HW239744   0.180   0.626   5.324  0.3259 -0.0408  0.2255
 9428SOL     OW39745   3.046   2.351   6.579 -0.2411  0.2370 -0.6124
 9428SOL    HW139746   2.980   2.367   6.511 -0.2067 -1.5772 -1.0549
 9428SOL    HW239747   2.992   2.299   6.639 -0.0353  1.7858  0.9096
 9429SOL     OW39748   2.880   1.085  14.181  0.3215 -0.5939 -0.0137
 9429SOL    HW139749   2.803   1.111  14.231  0.4244 -2.0640  0.9227
 9429SOL    HW239750   2.951   1.115  14.238 -0.6788  0.5602  0.5958
 9430SOL     OW39751   2.664   3.802   7.409 -0.0785  0.2482  0.2894
 9430SOL    HW139752   2.706   3.854   7.478  0.0707 -0.3410  0.6420
 9430SOL    HW239753   2.575   3.793   7.442 -0.3232  1.8067  0.0581
 9431SOL     OW39754   4.572   1.205   9.220  0.2860 -0.7923 -0.1517
 9431SOL    HW139755   4.624   1.246   9.290 -2.6415  2.5171  0.0510
 9431SOL    HW239756   4.638   1.191   9.152 -1.6178 -2.3974 -1.6585
 9432SOL     OW39757   3.793   0.205  10.865  0.2122  0.1507  0.1108
 9432SOL    HW139758   3.872   0.152  10.869 -0.0178 -0.2739 -0.8295
 9432SOL    HW239759   3.718   0.147  10.855 -1.1508  1.7216  1.2201
 9433SOL     OW39760   0.769   2.728  15.040 -0.4702 -0.2108  0.5331
 9433SOL    HW139761   0.730   2.655  15.088 -1.2225 -0.1617 -0.0011
 9433SOL    HW239762   0.808   2.676  14.970  0.1522 -0.2534  0.9151
 9434SOL     OW39763   1.648   1.313  10.178  0.1721  0.4517  0.0158
 9434SOL    HW139764   1.715   1.377  10.154  0.7051 -1.3771 -3.5147
 9434SOL    HW239765   1.640   1.340  10.269 -0.2306 -0.5607  0.2871
 9435SOL     OW39766   4.100   1.684  11.156 -0.0631 -0.5222  0.0250
 9435SOL    HW139767   4.128   1.664  11.245 -0.3157  0.8610  0.4179
 9435SOL    HW239768   4.187   1.673  11.118 -0.1461 -1.4941  0.1297
 9436SOL     OW39769   1.013   4.312   6.542 -0.0090  0.1435  0.5636
 9436SOL    HW139770   0.948   4.381   6.557  1.0621  0.9665  1.3389
 9436SOL    HW239771   0.958   4.244   6.583  2.8429 -1.8559  1.0662
 9437SOL     OW39772   0.649   4.332   2.675 -0.4274 -0.2428  0.4178
 9437SOL    HW139773   0.679   4.422   2.662  1.0266 -1.0669 -1.8858
 9437SOL    HW239774   0.565   4.327   2.630 -0.0806  0.2488 -0.2987
 9438SOL     OW39775   0.096   1.916   8.927  0.0697  0.6247 -0.1347
 9438SOL    HW139776   0.051   1.928   8.844  2.4305  1.1247 -1.3529
 9438SOL    HW239777   0.034   1.977   8.967 -1.1465  0.1128 -1.2598
 9439SOL     OW39778   0.677   4.638  11.445 -0.4489 -0.1066 -0.2730
 9439SOL    HW139779   0.613   4.708  11.460  1.7171  0.9718  4.0600
 9439SOL    HW239780   0.715   4.629  11.532 -2.5039 -1.9570  0.4443
 9440SOL     OW39781   1.380   0.859   6.545  0.0843  0.1780  0.2348
 9440SOL    HW139782   1.418   0.782   6.588 -1.6289 -1.5276 -1.2861
 9440SOL    HW239783   1.320   0.887   6.615  1.0117 -0.9027  1.4674
 9441SOL     OW39784   3.034   2.820   4.741  0.5997 -0.3887  0.4424
 9441SOL    HW139785   2.971   2.884   4.773 -0.3506 -0.9670 -0.2845
 9441SOL    HW239786   3.015   2.814   4.648  1.3895  0.4303  0.2271
 9442SOL     OW39787   1.544   0.710   8.090  0.1871 -0.5768 -0.3008
 9442SOL    HW139788   1.635   0.713   8.059 -0.4997  1.2557 -2.1283
 9442SOL    HW239789   1.505   0.781   8.039  0.6526  2.1200  3.1002
 9443SOL     OW39790   0.925   3.974   0.440  0.3640 -0.0053  0.5689
 9443SOL    HW139791   0.895   3.888   0.468  0.7729 -0.5106 -0.5478
 9443SOL    HW239792   0.863   3.980   0.368 -1.5369 -3.0941  1.9747
 9444SOL     OW39793   0.252   0.386   6.784  0.2225 -0.6096  0.1711
 9444SOL    HW139794   0.341   0.360   6.760  0.1703  1.5458 -2.3576
 9444SOL    HW239795   0.241   0.342   6.868  0.4006 -0.3524  0.3313
 9445SOL     OW39796   0.376   4.674  12.343  0.2980  0.5421  0.6938
 9445SOL    HW139797   0.394   4.720  12.261  0.8864 -1.3210 -0.2112
 9445SOL    HW239798   0.461   4.671  12.387  1.0309 -0.1386 -0.7695
 9446SOL     OW39799   0.195   0.832   7.521  0.1382 -0.1113 -0.0852
 9446SOL    HW139800   0.144   0.869   7.593 -0.5944 -1.3776  0.0392
 9446SOL    HW239801   0.122   0.784   7.481  0.8547  0.6373 -2.2770
 9447SOL     OW39802   2.365   3.719   5.457  0.3647 -0.9286  0.0729
 9447SOL    HW139803   2.449   3.761   5.437 -1.0995  1.8619 -0.2540
 9447SOL    HW239804   2.408   3.636   5.475 -0.9099 -2.8180 -5.5110
 9448SOL     OW39805   3.405   3.858   9.114  0.5808  0.2206  0.5543
 9448SOL    HW139806   3.364   3.902   9.189  0.4162  0.7004  0.1804
 9448SOL    HW239807   3.462   3.923   9.072 -0.4336  0.1914 -0.8344
 9449SOL     OW39808   2.598   2.259   6.937 -0.1938  0.3484  0.1566
 9449SOL    HW139809   2.589   2.195   7.008  0.9512  0.9275  0.8139
 9449SOL    HW239810   2.683   2.239   6.899 -0.7650 -1.9014 -0.0040
 9450SOL     OW39811   1.895   3.535  16.260 -0.2232  0.5732  0.5533
 9450SOL    HW139812   1.943   3.612  16.291 -0.3093  1.4264 -1.4869
 9450SOL    HW239813   1.943   3.510  16.182  1.6190 -0.7105  2.1081
 9451SOL     OW39814   4.060   0.305   3.391  0.5176  0.4673 -0.2087
 9451SOL    HW139815   4.015   0.389   3.398  0.2796  0.4649 -1.8709
 9451SOL    HW239816   4.100   0.295   3.478 -1.6349 -0.8446  0.6259
 9452SOL     OW39817   0.617   2.124   2.073 -0.2536  0.3556 -0.1492
 9452SOL    HW139818   0.658   2.125   2.160 -2.1938 -0.2507  0.7750
 9452SOL    HW239819   0.550   2.057   2.083 -0.2031  0.3006 -0.1835
 9453SOL     OW39820   2.830   4.308   6.210  0.0566 -0.7492 -0.3652
 9453SOL    HW139821   2.880   4.380   6.171 -1.0497  0.3454  0.2295
 9453SOL    HW239822   2.798   4.351   6.289  0.4090 -0.5533 -0.3270
 9454SOL     OW39823   3.530   4.041   3.004 -0.0914 -0.1071  0.0299
 9454SOL    HW139824   3.513   4.122   2.955  0.1724 -1.6057 -2.5173
 9454SOL    HW239825   3.479   4.057   3.084 -1.2264 -1.8776 -0.3543
 9455SOL     OW39826   0.063   3.506   4.544 -0.1712  0.0977  0.0556
 9455SOL    HW139827   0.075   3.415   4.569 -1.7288  0.1574  1.0439
 9455SOL    HW239828   0.074   3.557   4.624 -0.6733 -1.1774  0.9327
 9456SOL     OW39829   2.564   4.075  15.932 -0.2684  0.0680  0.4641
 9456SOL    HW139830   2.618   4.019  15.876 -0.5645 -0.6138  0.8593
 9456SOL    HW239831   2.517   4.124  15.865 -1.5026 -0.1623  1.1802
 9457SOL     OW39832   1.451   2.688   7.237  0.0316 -0.2154  0.3389
 9457SOL    HW139833   1.398   2.757   7.276 -0.9581 -0.3919 -0.6744
 9457SOL    HW239834   1.470   2.717   7.148 -0.5332 -3.3326 -0.8285
 9458SOL     OW39835   0.329   3.560   7.353  0.4802 -0.0043 -0.3601
 9458SOL    HW139836   0.415   3.521   7.370  0.3568  0.2484  0.8327
 9458SOL    HW239837   0.332   3.648   7.390 -0.8879 -0.6367  1.2591
 9459SOL     OW39838   4.682   1.195  14.560  0.9748 -0.3374  0.5768
 9459SOL    HW139839   4.643   1.134  14.624  1.8756  0.1684  1.6062
 9459SOL    HW239840   4.673   1.275  14.611  1.4622  0.3937 -0.4952
 9460SOL     OW39841   3.693   0.187   3.631  0.3179 -0.1516  0.0293
 9460SOL    HW139842   3.704   0.096   3.603 -1.9303  0.4370 -2.8643
 9460SOL    HW239843   3.688   0.236   3.549  1.4717  0.0453  0.0838
 9461SOL     OW39844   2.005   0.237   0.671  0.3822 -0.5548 -0.1108
 9461SOL    HW139845   2.022   0.258   0.763  1.7238 -0.9627 -0.2662
 9461SOL    HW239846   2.092   0.206   0.647  0.9140  2.3448 -1.9551
 9462SOL     OW39847   3.342   0.337  17.637  0.2332  0.6769 -0.1747
 9462SOL    HW139848   3.287   0.304  17.566  1.4116  0.4314 -0.9952
 9462SOL    HW239849   3.405   0.396  17.594  0.4184  0.2766 -0.4526
 9463SOL     OW39850   0.776   3.835  11.775 -0.0181 -0.5359  0.1922
 9463SOL    HW139851   0.858   3.881  11.760  0.1868 -0.8680  0.3092
 9463SOL    HW239852   0.731   3.856  11.693 -1.6295 -2.3073  0.6165
 9464SOL     OW39853   1.828   0.912  17.371 -0.0373  0.0614 -0.0937
 9464SOL    HW139854   1.895   0.883  17.308 -0.3011  0.2842 -0.4768
 9464SOL    HW239855   1.864   0.978  17.430  1.4204 -0.0778 -0.8155
 9465SOL     OW39856   2.621   4.527  13.705 -0.4541  0.2306  0.0096
 9465SOL    HW139857   2.702   4.479  13.722  0.1463  1.2505  0.0096
 9465SOL    HW239858   2.647   4.612  13.669  0.1439  0.2616  0.5004
 9466SOL     OW39859   2.622   1.809   7.001 -0.2323  0.2499 -0.3968
 9466SOL    HW139860   2.717   1.807   6.988  0.2075  1.3298  2.6310
 9466SOL    HW239861   2.599   1.838   6.913 -1.2267  2.4838  0.5706
 9467SOL     OW39862   1.812   0.944   8.429 -0.1569 -0.1853  0.3192
 9467SOL    HW139863   1.755   0.869   8.415  1.4772 -1.3563 -0.0585
 9467SOL    HW239864   1.768   0.994   8.497 -1.1118  1.7898 -1.7310
 9468SOL     OW39865   3.442   3.007   8.412 -0.2359 -0.4947  0.4847
 9468SOL    HW139866   3.528   3.046   8.393 -1.0536  1.7394  1.3684
 9468SOL    HW239867   3.413   2.987   8.323  1.5973  0.8587 -0.4197
 9469SOL     OW39868   2.221   0.291   5.408  0.2310 -0.1219 -0.1544
 9469SOL    HW139869   2.277   0.330   5.342  0.6636  0.7918  0.7568
 9469SOL    HW239870   2.262   0.205   5.405  1.4147  0.4489 -0.3619
 9470SOL     OW39871   2.414   2.959   3.905 -0.2861 -0.0311 -0.3029
 9470SOL    HW139872   2.471   2.977   3.831 -0.4943 -0.7935 -0.6426
 9470SOL    HW239873   2.436   3.036   3.957  0.0417 -0.6098  0.4165
 9471SOL     OW39874   2.972   3.407   8.517  0.2278 -0.2207  0.0101
 9471SOL    HW139875   2.881   3.386   8.499 -0.3733  1.8613  0.6634
 9471SOL    HW239876   2.985   3.334   8.578  1.5400  0.5330  0.6390
 9472SOL     OW39877   3.520   4.338  16.818 -1.1118 -0.1230 -0.1037
 9472SOL    HW139878   3.558   4.267  16.870 -1.7745  0.0574  0.6333
 9472SOL    HW239879   3.543   4.308  16.730 -1.2558 -0.0624 -0.1628
 9473SOL     OW39880   2.943   2.562  10.691 -0.0906 -0.2143 -0.2203
 9473SOL    HW139881   3.002   2.634  10.669 -1.2134  0.4468 -1.0159
 9473SOL    HW239882   2.859   2.607  10.687 -1.3254 -2.5544 -0.5988
 9474SOL     OW39883   2.644   1.545   6.357  0.4396 -0.0950 -1.0910
 9474SOL    HW139884   2.710   1.565   6.423 -0.6928  1.0360 -0.3112
 9474SOL    HW239885   2.649   1.449   6.364 -2.1489 -0.1585 -0.1614
 9475SOL     OW39886   1.766   1.700   2.582  0.7963  0.1098  0.4966
 9475SOL    HW139887   1.826   1.771   2.560 -1.4953  1.6030 -0.9488
 9475SOL    HW239888   1.809   1.619   2.555 -0.8250 -0.4987 -0.2367
 9476SOL     OW39889   2.034   3.317  16.115 -0.0502 -0.3121  0.0501
 9476SOL    HW139890   1.959   3.261  16.095 -0.0232 -0.8290  1.4140
 9476SOL    HW239891   2.096   3.279  16.052 -1.3503 -2.7101  0.2141
 9477SOL     OW39892   2.853   2.626   2.333 -0.0798 -0.0004 -0.2257
 9477SOL    HW139893   2.902   2.545   2.321  1.1829  0.7065  0.0685
 9477SOL    HW239894   2.804   2.609   2.413  0.9875 -0.3747  0.3470
 9478SOL     OW39895   4.654   1.050   3.576 -0.8730  0.2057 -0.0157
 9478SOL    HW139896   4.645   1.017   3.666  3.7127  0.6379  0.5635
 9478SOL    HW239897   4.629   0.980   3.515 -1.8409 -0.5837  1.2763
 9479SOL     OW39898   0.080   3.589   8.860 -0.2272  0.1420 -0.0570
 9479SOL    HW139899   0.071   3.657   8.793  0.7677 -0.0864 -0.4216
 9479SOL    HW239900   0.167   3.618   8.888 -1.1161  2.3926  0.3879
 9480SOL     OW39901   1.515   1.159  12.440  0.2142  0.7625 -0.2121
 9480SOL    HW139902   1.537   1.066  12.445  0.4044  0.7833 -0.6962
 9480SOL    HW239903   1.539   1.172  12.348 -0.5765 -0.0825 -0.5478
 9481SOL     OW39904   0.101   2.706  16.717  0.5277  0.2976 -0.7429
 9481SOL    HW139905   0.011   2.738  16.710  0.9203  1.4037 -0.7185
 9481SOL    HW239906   0.088   2.617  16.750  3.1045  1.0280  2.2126
 9482SOL     OW39907   0.893   3.785  16.433 -0.1855 -0.2118  0.1004
 9482SOL    HW139908   0.810   3.739  16.432  0.6806 -1.7774  0.6141
 9482SOL    HW239909   0.960   3.719  16.415  0.6867  0.6782  0.0335
 9483SOL     OW39910   3.648   0.782   0.952 -0.2212 -0.0069 -0.7320
 9483SOL    HW139911   3.714   0.731   0.999 -0.4565  0.7328  0.4099
 9483SOL    HW239912   3.690   0.868   0.945 -0.1400  0.0015 -0.1399
 9484SOL     OW39913   3.181   0.730   1.623  0.2788 -0.5787  0.3382
 9484SOL    HW139914   3.266   0.689   1.635  0.8658  0.3842 -0.4684
 9484SOL    HW239915   3.155   0.692   1.539 -1.5358 -0.1603  0.7114
 9485SOL     OW39916   2.214   3.099   7.450  0.4063 -0.0036 -0.1723
 9485SOL    HW139917   2.132   3.056   7.429  0.9726 -0.1960 -2.0140
 9485SOL    HW239918   2.277   3.029   7.433  2.1071  1.4175  0.2663
 9486SOL     OW39919   4.248   0.784  13.107 -0.0331 -0.0405 -0.3233
 9486SOL    HW139920   4.231   0.870  13.145  0.4059 -0.9520  1.9499
 9486SOL    HW239921   4.309   0.750  13.172 -0.1910 -2.2921 -1.3515
 9487SOL     OW39922   3.810   2.574   9.417 -0.3122  0.0990 -0.0957
 9487SOL    HW139923   3.903   2.580   9.394 -0.3856  0.9407 -0.1799
 9487SOL    HW239924   3.808   2.498   9.476 -1.0649  1.7468  1.9951
 9488SOL     OW39925   3.323   2.474   6.979 -0.5416  0.2052  0.3893
 9488SOL    HW139926   3.266   2.527   7.035  0.9388  3.7086 -1.4202
 9488SOL    HW239927   3.266   2.480   6.902 -0.3857  0.5732  0.3060
 9489SOL     OW39928   0.477   1.726  16.671  0.1210  0.0319 -0.3567
 9489SOL    HW139929   0.464   1.631  16.674  0.3201  0.0650  1.1250
 9489SOL    HW239930   0.528   1.736  16.751  1.2305 -0.8968 -0.9588
 9490SOL     OW39931   3.636   4.064   5.539 -0.4778 -0.1913  0.0529
 9490SOL    HW139932   3.634   3.968   5.538 -0.8716 -0.1908  1.6391
 9490SOL    HW239933   3.580   4.075   5.462 -1.8192 -0.0781  1.0453
 9491SOL     OW39934   4.587   2.953   7.555 -0.4840 -0.4239  0.6177
 9491SOL    HW139935   4.663   3.007   7.579  0.4504 -1.1333 -0.7463
 9491SOL    HW239936   4.630   2.890   7.498 -0.5670  1.0768 -1.1112
 9492SOL     OW39937   2.639   1.872   7.280 -0.4673  0.1843 -0.0928
 9492SOL    HW139938   2.734   1.861   7.275 -0.8745 -2.3700 -1.9805
 9492SOL    HW239939   2.614   1.851   7.190  1.7338  0.7176 -0.8566
 9493SOL     OW39940   1.439   0.669   5.058  0.2314  0.1180 -0.0141
 9493SOL    HW139941   1.354   0.701   5.027  0.6551  0.4001 -0.8849
 9493SOL    HW239942   1.503   0.676   4.987 -0.0369 -4.0227 -0.6429
 9494SOL     OW39943   0.162   0.543   6.204 -0.4359  0.0010 -0.0742
 9494SOL    HW139944   0.248   0.556   6.244 -1.1255 -0.7759  1.6976
 9494SOL    HW239945   0.147   0.448   6.205 -2.4747  0.3115  0.1459
 9495SOL     OW39946   1.942   1.912   5.582  0.3965 -0.2566  0.3461
 9495SOL    HW139947   1.990   1.981   5.535 -2.8085  0.2968 -2.0825
 9495SOL    HW239948   1.866   1.899   5.525  1.6415 -4.4033 -0.3305
 9496SOL     OW39949   2.773   4.384   7.567  0.2627 -0.3183 -0.0238
 9496SOL    HW139950   2.799   4.454   7.507 -1.2318 -1.1248 -1.6047
 9496SOL    HW239951   2.680   4.390   7.543  0.6250  1.6892 -0.9042
 9497SOL     OW39952   4.010   2.468   3.065  1.0584  0.3516 -0.0117
 9497SOL    HW139953   3.921   2.439   3.046  1.8283 -1.5004 -0.7666
 9497SOL    HW239954   4.006   2.515   3.149 -1.1838  0.7150 -0.3260
 9498SOL     OW39955   3.309   3.933   5.486  0.0384  0.2073  0.4109
 9498SOL    HW139956   3.225   3.921   5.531  0.2664 -2.3650  0.1132
 9498SOL    HW239957   3.329   3.849   5.445 -0.7529 -0.4470  1.3789
 9499SOL     OW39958   2.961   1.140   9.711  0.1093 -0.4550 -0.1940
 9499SOL    HW139959   2.972   1.106   9.800  1.2371  0.2261 -0.0695
 9499SOL    HW239960   2.940   1.230   9.734 -1.4042 -0.4190 -1.7674
 9500SOL     OW39961   3.871   2.997   7.012 -0.6259  0.0325  0.0609
 9500SOL    HW139962   3.848   2.960   6.927 -0.5082  1.5214 -0.6208
 9500SOL    HW239963   3.784   3.025   7.039 -0.3343 -1.2740  2.3439
 9501SOL     OW39964   4.487   4.225   5.102 -0.2628  0.0597 -0.2746
 9501SOL    HW139965   4.581   4.206   5.094 -1.0452 -3.7423 -0.5123
 9501SOL    HW239966   4.449   4.144   5.067  0.1020 -1.0690  1.9177
 9502SOL     OW39967   4.389   2.706  16.610 -0.9852 -0.3921 -0.4290
 9502SOL    HW139968   4.459   2.724  16.673 -0.9977 -1.4279 -0.1148
 9502SOL    HW239969   4.309   2.705  16.663 -0.2573  1.4929  0.6799
 9503SOL     OW39970   4.721   1.772   7.342  0.0343  0.4517 -0.6129
 9503SOL    HW139971   4.696   1.792   7.252  1.3588 -1.5389 -1.4184
 9503SOL    HW239972   4.676   1.688   7.348 -0.3417  0.5680 -1.6901
 9504SOL     OW39973   2.857   3.501   4.543 -0.2366 -0.0387  0.1068
 9504SOL    HW139974   2.799   3.433   4.506  2.0540 -2.2671  0.6151
 9504SOL    HW239975   2.872   3.458   4.628 -1.0151  0.1548  0.3425
 9505SOL     OW39976   1.414   2.815   6.617 -0.5440  0.4201 -0.1706
 9505SOL    HW139977   1.397   2.722   6.628  0.4140  0.3057  0.3580
 9505SOL    HW239978   1.493   2.820   6.670  0.4197 -0.9236 -1.4590
 9506SOL     OW39979   2.658   4.621   6.734  0.0639 -0.7518  0.0809
 9506SOL    HW139980   2.700   4.592   6.815  0.2193 -0.9530 -0.0705
 9506SOL    HW239981   2.586   4.558   6.728 -0.7932  0.2877 -0.5862
 9507SOL     OW39982   2.622   0.515   8.113 -0.3085  0.3072 -0.3687
 9507SOL    HW139983   2.655   0.429   8.084  1.3643  0.8546 -0.0802
 9507SOL    HW239984   2.671   0.534   8.192  1.2660 -0.8939 -1.0342
 9508SOL     OW39985   2.032   2.585   5.626  0.6811 -0.1147  0.2197
 9508SOL    HW139986   2.116   2.585   5.580 -0.8018  0.6733 -2.4816
 9508SOL    HW239987   2.060   2.595   5.717 -1.3165 -0.1009  0.8224
 9509SOL     OW39988   0.184   4.272   7.861  0.0506 -0.9815  0.5767
 9509SOL    HW139989   0.229   4.207   7.807  0.6871  0.3335 -0.4537
 9509SOL    HW239990   0.259   4.283   7.920  0.2643  0.4606  0.0237
 9510SOL     OW39991   3.849   3.487   1.289  0.2816 -0.0885  0.1530
 9510SOL    HW139992   3.843   3.495   1.193  2.3914  2.1754  0.2023
 9510SOL    HW239993   3.944   3.498   1.298  0.0880 -0.2180  2.2245
 9511SOL     OW39994   1.167   1.145  12.380 -0.0303  0.0802 -0.0520
 9511SOL    HW139995   1.110   1.095  12.321  0.5295 -1.8279  1.0014
 9511SOL    HW239996   1.159   1.085  12.454 -0.7394  0.4760  0.1944
 9512SOL     OW39997   0.599   1.526   3.342  0.2286 -0.3682  0.3936
 9512SOL    HW139998   0.535   1.474   3.295  1.0664 -1.4126  0.4215
 9512SOL    HW239999   0.547   1.600   3.377 -0.2675 -1.1293  1.2738
 9513SOL     OW40000   3.441   0.486   4.287  0.1490  0.3789  0.2746
 9513SOL    HW140001   3.411   0.499   4.377 -1.7614  0.0796 -0.3224
 9513SOL    HW240002   3.534   0.481   4.311  0.2750  0.1933 -0.2638
 9514SOL     OW40003   0.434   0.898   2.709 -0.6615  0.7807  0.1700
 9514SOL    HW140004   0.420   0.937   2.795 -2.1532 -0.9689  0.7180
 9514SOL    HW240005   0.399   0.962   2.647  0.1079  1.0661  0.0223
 9515SOL     OW40006   2.044   0.325  17.576  0.2460 -0.3713  0.3771
 9515SOL    HW140007   2.112   0.365  17.632  2.0666 -1.6432 -0.9315
 9515SOL    HW240008   1.965   0.338  17.628 -0.0134 -2.7764  0.5860
 9516SOL     OW40009   0.420   4.519   7.926  0.1568  0.0213 -0.3544
 9516SOL    HW140010   0.487   4.581   7.956 -0.7177  1.5077 -1.4939
 9516SOL    HW240011   0.479   4.444   7.917  0.4995  0.2986 -0.4354
 9517SOL     OW40012   4.647   3.081   4.081  0.3217 -0.9133 -0.3021
 9517SOL    HW140013   4.641   3.063   3.987  1.3105 -2.8594  0.0112
 9517SOL    HW240014   4.575   3.024   4.107 -1.1279  1.7236  1.4617
 9518SOL     OW40015   0.735   1.982   5.695  0.0576 -0.3721  0.2782
 9518SOL    HW140016   0.795   1.959   5.766 -1.6938 -0.9004  1.5858
 9518SOL    HW240017   0.746   2.077   5.699 -1.2099 -0.1231 -2.4893
 9519SOL     OW40018   1.506   0.067   5.911  0.2574 -0.2853  0.7988
 9519SOL    HW140019   1.583   0.013   5.891  0.3282  0.6396 -1.3782
 9519SOL    HW240020   1.446   4.722   5.942 -1.0026  0.3813 -0.1974
 9520SOL     OW40021   2.278   2.240   8.057  0.3393  0.6406  0.4352
 9520SOL    HW140022   2.259   2.147   8.061 -0.2045  0.7330 -0.0043
 9520SOL    HW240023   2.250   2.257   7.967  0.0605  0.2488  0.4454
 9521SOL     OW40024   1.886   2.243  13.150 -0.1004 -0.1409 -0.0542
 9521SOL    HW140025   1.832   2.213  13.224  0.3053 -1.2186 -0.1973
 9521SOL    HW240026   1.898   2.157  13.109  0.3244  0.4039 -1.0673
 9522SOL     OW40027   3.060   4.476   6.394 -0.2377 -0.4555 -0.2621
 9522SOL    HW140028   3.062   4.421   6.472  0.9595  1.1345  0.8035
 9522SOL    HW240029   3.133   4.433   6.349  0.1346  0.3914 -0.4578
 9523SOL     OW40030   3.548   1.011   3.434 -0.9819 -0.7228  0.1178
 9523SOL    HW140031   3.555   0.980   3.525  1.7330  0.1925  0.2189
 9523SOL    HW240032   3.602   0.944   3.392  0.4773  0.9009 -0.6270
 9524SOL     OW40033   4.146   2.619   1.790  0.0462 -0.0218 -0.6308
 9524SOL    HW140034   4.232   2.659   1.798 -0.3774  0.8438 -0.4488
 9524SOL    HW240035   4.135   2.567   1.870 -0.8394  0.6219 -0.3341
 9525SOL     OW40036   4.572   2.433   7.306  0.4111  0.3460  1.1358
 9525SOL    HW140037   4.521   2.511   7.283 -0.1860 -0.3567  0.1293
 9525SOL    HW240038   4.658   2.462   7.275 -0.2135  1.0339  0.0351
 9526SOL     OW40039   1.802   3.347  10.212 -0.3294  0.1703 -0.2403
 9526SOL    HW140040   1.881   3.397  10.191  0.9405 -1.5534  0.3750
 9526SOL    HW240041   1.814   3.323  10.304  1.7927  0.9927 -0.3027
 9527SOL     OW40042   1.548   2.104   1.713  0.0119  0.4236  0.1176
 9527SOL    HW140043   1.504   2.145   1.638  1.5903 -0.4781 -1.2782
 9527SOL    HW240044   1.478   2.101   1.779  0.5097  0.9094  0.6644
 9528SOL     OW40045   1.570   4.301  12.766 -0.9857 -0.2645  0.1452
 9528SOL    HW140046   1.569   4.334  12.856  2.5734 -0.4553  0.2696
 9528SOL    HW240047   1.532   4.214  12.773 -3.3272  0.7543  0.0456
 9529SOL     OW40048   0.140   1.778   4.214 -0.6691  0.6760  0.4284
 9529SOL    HW140049   0.055   1.738   4.199 -1.0756  3.1351 -3.7320
 9529SOL    HW240050   0.139   1.792   4.308  1.4775 -1.3944  0.7665
 9530SOL     OW40051   1.011   2.188   2.090 -0.1014 -0.0353  0.0477
 9530SOL    HW140052   0.949   2.184   2.163  0.3027  1.5374  0.4939
 9530SOL    HW240053   1.007   2.096   2.064 -0.6648  0.0862 -0.3049
 9531SOL     OW40054   2.645   0.931  14.015  0.6475 -0.7769  0.2624
 9531SOL    HW140055   2.622   0.840  13.996  1.0766 -1.5199  3.2534
 9531SOL    HW240056   2.729   0.917  14.058  0.4778  1.0786  1.1883
 9532SOL     OW40057   3.610   3.068   0.486 -0.6196  0.0592 -0.0103
 9532SOL    HW140058   3.701   3.039   0.498 -0.6158 -0.2148 -0.7067
 9532SOL    HW240059   3.610   3.133   0.556  0.3302  0.4483 -0.3635
 9533SOL     OW40060   2.454   0.726   5.183  0.7943 -0.3211  0.7373
 9533SOL    HW140061   2.362   0.754   5.189  1.0853  0.3887  1.8591
 9533SOL    HW240062   2.506   0.805   5.195  1.9932 -0.9441 -0.2962
 9534SOL     OW40063   0.261   3.025   3.605  0.2356  0.5342  0.2619
 9534SOL    HW140064   0.245   2.950   3.664 -3.2025  1.6396  0.7403
 9534SOL    HW240065   0.276   2.980   3.521 -1.2427  0.4873  0.0251
 9535SOL     OW40066   1.061   1.670   3.933 -0.2905 -1.1190  0.0852
 9535SOL    HW140067   1.026   1.712   4.011 -2.3913 -1.5177 -0.6378
 9535SOL    HW240068   1.155   1.683   3.941 -0.3081 -1.3005  0.5880
 9536SOL     OW40069   4.204   3.802   7.145 -0.3535 -0.5753 -0.0795
 9536SOL    HW140070   4.134   3.743   7.117  0.3682 -1.6548  0.4090
 9536SOL    HW240071   4.206   3.853   7.064  1.7320  1.4295  1.2519
 9537SOL     OW40072   0.193   2.294  10.890  0.0185 -0.2286 -0.2733
 9537SOL    HW140073   0.279   2.268  10.923  0.1137 -0.1177 -0.4339
 9537SOL    HW240074   0.138   2.220  10.916  0.6247  0.0472  1.7837
 9538SOL     OW40075   0.226   3.547   5.823  0.0066 -0.3005 -0.1462
 9538SOL    HW140076   0.154   3.535   5.762 -1.3974 -0.3071  1.5220
 9538SOL    HW240077   0.222   3.470   5.879  1.9605 -0.0225  0.3938
 9539SOL     OW40078   0.102   0.951   5.623 -0.0522 -0.3621 -0.2687
 9539SOL    HW140079   0.179   0.997   5.657 -0.2279  1.4244 -2.2848
 9539SOL    HW240080   0.035   0.967   5.690  0.1350  0.1370 -0.2001
 9540SOL     OW40081   1.793   1.431   3.349 -0.5461  0.1333  0.0367
 9540SOL    HW140082   1.876   1.454   3.306 -1.0618  0.1940 -0.9236
 9540SOL    HW240083   1.742   1.498   3.303 -2.3972  1.7219  4.4175
 9541SOL     OW40084   3.842   0.601   1.022  0.1367 -0.0983  0.1519
 9541SOL    HW140085   3.793   0.520   1.030 -2.2979  1.2955 -0.7527
 9541SOL    HW240086   3.920   0.566   0.977  1.1573  1.5568  0.6229
 9542SOL     OW40087   4.020   4.518  14.686  0.9150 -0.0205  0.1726
 9542SOL    HW140088   4.052   4.503  14.597 -1.3802  1.9261 -0.9547
 9542SOL    HW240089   4.103   4.513  14.734  1.5738 -2.0433 -1.1729
 9543SOL     OW40090   2.847   1.230  10.871 -0.2436  0.3374 -0.1001
 9543SOL    HW140091   2.829   1.281  10.949  1.1087  1.8146 -0.7481
 9543SOL    HW240092   2.802   1.147  10.886  1.1765 -0.3057  0.6346
 9544SOL     OW40093   4.105   4.300   6.172 -0.0410 -0.4693  0.2078
 9544SOL    HW140094   4.196   4.291   6.145 -0.3862  0.3689 -1.2018
 9544SOL    HW240095   4.110   4.391   6.204  0.3138  0.9238 -3.7598
 9545SOL     OW40096   2.006   1.548   4.482 -0.4795 -0.4572  0.1065
 9545SOL    HW140097   1.986   1.523   4.392  0.2921 -0.3125 -0.1088
 9545SOL    HW240098   2.092   1.508   4.496 -1.1281 -1.5062  1.0894
 9546SOL     OW40099   4.212   0.813   2.149 -0.0336 -0.0677 -0.1360
 9546SOL    HW140100   4.130   0.772   2.123 -0.4467  1.2607 -0.9690
 9546SOL    HW240101   4.183   0.883   2.207  0.3632  0.0188 -0.0445
 9547SOL     OW40102   1.632   0.672   4.862  0.4885 -0.1959  0.0705
 9547SOL    HW140103   1.613   0.742   4.800  0.1260 -0.5153 -0.1762
 9547SOL    HW240104   1.677   0.610   4.805 -1.1509 -1.3353  0.0377
 9548SOL     OW40105   3.058   3.976   4.136  0.0470 -0.1020 -0.3194
 9548SOL    HW140106   3.112   3.926   4.075 -2.1221 -1.4359 -1.1296
 9548SOL    HW240107   2.981   3.920   4.146 -0.8236  0.6441 -2.6322
 9549SOL     OW40108   0.710   3.060   7.225 -0.6650 -0.6682 -0.0888
 9549SOL    HW140109   0.696   3.002   7.150 -1.4509  1.5587 -1.6553
 9549SOL    HW240110   0.758   3.131   7.182 -0.6589 -1.7711 -1.8980
 9550SOL     OW40111   4.166   0.079   9.436  0.0852 -0.0356  0.3771
 9550SOL    HW140112   4.136   0.075   9.346  3.5079  2.5060 -0.8771
 9550SOL    HW240113   4.083   0.052   9.476  0.3764  1.4124  1.9339
 9551SOL     OW40114   4.510   4.265   9.614  0.6999 -0.4245  0.0723
 9551SOL    HW140115   4.428   4.226   9.583  0.3073  0.9361 -0.5973
 9551SOL    HW240116   4.523   4.338   9.555 -3.6727 -2.5772 -3.5749
 9552SOL     OW40117   2.021   1.274   7.405  0.0199 -0.2065  0.0041
 9552SOL    HW140118   2.034   1.212   7.477  1.7460  1.5906  1.2537
 9552SOL    HW240119   2.026   1.218   7.328 -0.2768 -0.1195 -0.0772
 9553SOL     OW40120   1.230   3.530   4.422 -0.5791  1.2007  0.0673
 9553SOL    HW140121   1.182   3.542   4.504 -2.1240  1.4852 -0.8787
 9553SOL    HW240122   1.211   3.439   4.402 -0.1514  1.1197  0.0444
 9554SOL     OW40123   2.704   0.108  13.637  0.4005 -0.5662  0.6548
 9554SOL    HW140124   2.788   0.063  13.635 -0.5769 -2.3461  0.2811
 9554SOL    HW240125   2.692   0.146  13.550  0.4270 -2.0199  0.0213
 9555SOL     OW40126   4.059   3.081  13.457 -0.0051 -0.1027  0.6060
 9555SOL    HW140127   4.006   3.160  13.468  0.0391  0.0686 -0.4028
 9555SOL    HW240128   4.136   3.104  13.509  2.1116  1.1099 -3.0422
 9556SOL     OW40129   3.074   4.053   2.865  0.6207 -0.8511 -0.1593
 9556SOL    HW140130   3.134   4.078   2.795  1.5712  0.2136  1.0456
 9556SOL    HW240131   3.116   4.084   2.945 -2.0893  2.4572 -0.0261
 9557SOL     OW40132   2.782   1.218   1.180  0.1851  0.3889 -0.1193
 9557SOL    HW140133   2.798   1.285   1.247 -2.0961 -0.0015  0.8122
 9557SOL    HW240134   2.688   1.209   1.191  0.3542 -0.9239  0.1430
 9558SOL     OW40135   4.156   2.387   7.464 -0.0356 -0.3693  0.3816
 9558SOL    HW140136   4.163   2.292   7.466  0.6365 -0.3335 -0.3327
 9558SOL    HW240137   4.064   2.403   7.442  0.5560  0.1455 -1.7003
 9559SOL     OW40138   2.710   2.105   5.530 -0.2393  0.2152  0.4496
 9559SOL    HW140139   2.639   2.169   5.530 -0.4098  0.0475 -1.4800
 9559SOL    HW240140   2.773   2.163   5.486  0.2441 -0.7460 -0.1127
 9560SOL     OW40141   1.356   2.176   6.284 -0.3327  0.4065 -0.7748
 9560SOL    HW140142   1.401   2.221   6.213  1.6063 -0.2273  0.0763
 9560SOL    HW240143   1.397   2.220   6.358  1.4671 -1.1485 -0.8449
 9561SOL     OW40144   4.581   3.096   5.361  0.3045  0.2755  0.5163
 9561SOL    HW140145   4.509   3.128   5.416  1.0405 -1.7667  2.6776
 9561SOL    HW240146   4.641   3.170   5.351  0.2795  0.0139 -1.5959
 9562SOL     OW40147   3.133   3.617   4.460 -0.9807 -0.6179 -0.7029
 9562SOL    HW140148   3.146   3.609   4.365  1.7528  2.3566 -0.5663
 9562SOL    HW240149   3.048   3.574   4.469 -1.3310  0.7837  2.6022
 9563SOL     OW40150   0.739   2.523   2.674  0.0819  0.4498 -0.0765
 9563SOL    HW140151   0.743   2.525   2.578  0.3202 -0.0901 -0.0741
 9563SOL    HW240152   0.783   2.440   2.693  0.4016  0.7610  0.5461
 9564SOL     OW40153   1.283   0.632   8.327  0.1748 -0.2878 -0.0888
 9564SOL    HW140154   1.355   0.695   8.320  0.8178 -1.2935 -2.8466
 9564SOL    HW240155   1.286   0.601   8.417  0.0827 -1.7023 -0.5789
 9565SOL     OW40156   0.934   3.219  10.539 -0.6140 -0.2597  0.0318
 9565SOL    HW140157   0.889   3.297  10.572 -0.1247  0.0941 -0.1424
 9565SOL    HW240158   0.849   3.176  10.523 -1.0054  0.5036  0.0546
 9566SOL     OW40159   1.740   3.908   2.021 -0.0544  0.7546 -0.1190
 9566SOL    HW140160   1.821   3.868   2.053 -0.6179 -0.2309  0.0937
 9566SOL    HW240161   1.677   3.837   2.009  0.4978  0.2224  0.0915
 9567SOL     OW40162   2.143   2.164   1.909  0.1772  0.1199  0.4137
 9567SOL    HW140163   2.238   2.175   1.905  0.2114 -0.5310 -0.5540
 9567SOL    HW240164   2.128   2.101   1.839  0.9381  1.4598 -0.9472
 9568SOL     OW40165   1.294   1.019   2.097  0.8895  0.0414 -0.2989
 9568SOL    HW140166   1.305   0.976   2.013  0.6570  0.6806 -0.6630
 9568SOL    HW240167   1.341   1.098   2.069 -0.1185  0.6597 -0.2662
   4.72271   4.72271  17.69283
